<event>
 5    1  0.1369527E-008  0.3850612E+03  0.7957747E-01  0.3429413E+00
         13   -1    0    0    0    0  0.00000000000E+00  0.00000000000E+00  0.14999999963E+04  0.15000000000E+04  0.10566000000E+00 0.  1.
        994   -1    0    0    0    0 -0.00000000000E+00 -0.00000000000E+00  0.11368683772E-12  0.17120000000E+03  0.17120000000E+03 0.  0.
         13    1    1    2    0    0 -0.88443571237E+01 -0.19271611472E+02  0.12702402186E+03  0.12878171825E+03  0.10566000000E+00 0.  1.
        994    1    1    2    0    0  0.11342560441E+02  0.22021696576E+02  0.36199168778E+01  0.17302067101E+03  0.17120000000E+03 0.  0.
        998    1    1    2    0    0 -0.24982033169E+01 -0.27500851041E+01  0.13693560575E+04  0.13693976107E+04  0.10000000000E+02 0.  1.
</event>
<event>
 5    1  0.1369527E-008  0.3754112E+03  0.7957747E-01  0.3471386E+00
         13   -1    0    0    0    0  0.00000000000E+00  0.00000000000E+00  0.14999999963E+04  0.15000000000E+04  0.10566000000E+00 0.  1.
        994   -1    0    0    0    0 -0.00000000000E+00 -0.00000000000E+00  0.11368683772E-12  0.17120000000E+03  0.17120000000E+03 0.  0.
         13    1    1    2    0    0  0.58177524305E+01 -0.35143710213E+02  0.39670410699E+02  0.53316782160E+02  0.10566000000E+00 0.  1.
        994    1    1    2    0    0 -0.10543759656E+02  0.32198859771E+02  0.17930931090E+02  0.17543915107E+03  0.17120000000E+03 0.  0.
        998    1    1    2    0    0  0.47260072251E+01  0.29448504418E+01  0.14423986545E+04  0.14424440668E+04  0.10000000000E+02 0.  1.
</event>
<event>
 5    1  0.1369527E-008  0.3841888E+03  0.7957747E-01  0.3433120E+00
         13   -1    0    0    0    0  0.00000000000E+00  0.00000000000E+00  0.14999999963E+04  0.15000000000E+04  0.10566000000E+00 0. -1.
        994   -1    0    0    0    0 -0.00000000000E+00 -0.00000000000E+00  0.11368683772E-12  0.17120000000E+03  0.17120000000E+03 0.  0.
         13    1    1    2    0    0 -0.88896569359E+01 -0.67436020349E+01  0.28177375580E+02  0.30306399117E+02  0.10566000000E+00 0. -1.
        994    1    1    2    0    0  0.14429660126E+02  0.21409989498E+02  0.42345093546E+01  0.17318768377E+03  0.17120000000E+03 0.  0.
        998    1    1    2    0    0 -0.55400031906E+01 -0.14666387463E+02  0.14675881113E+04  0.14677059171E+04  0.10000000000E+02 0. -1.
</event>
<event>
 5    1  0.1369527E-008  0.2863619E+03  0.7957747E-01  0.3998465E+00
         13   -1    0    0    0    0  0.00000000000E+00  0.00000000000E+00  0.14999999963E+04  0.15000000000E+04  0.10566000000E+00 0. -1.
        994   -1    0    0    0    0 -0.00000000000E+00 -0.00000000000E+00  0.11368683772E-12  0.17120000000E+03  0.17120000000E+03 0.  0.
         13    1    1    2    0    0 -0.19273673519E+03 -0.52458028722E+02  0.11124928851E+04  0.11302830285E+04  0.10566000000E+00 0. -1.
        994    1    1    2    0    0  0.64950880754E+02 -0.67976113471E+02  0.15480519694E+03  0.24922571680E+03  0.17120000000E+03 0.  0.
        998    1    1    2    0    0  0.12778585444E+03  0.12043414219E+03  0.23270191422E+03  0.29169125472E+03  0.10000000000E+02 0. -1.
</event>
<event>
 5    1  0.1369527E-008  0.3745434E+03  0.7957747E-01  0.3475268E+00
         13   -1    0    0    0    0  0.00000000000E+00  0.00000000000E+00  0.14999999963E+04  0.15000000000E+04  0.10566000000E+00 0. -1.
        994   -1    0    0    0    0 -0.00000000000E+00 -0.00000000000E+00  0.11368683772E-12  0.17120000000E+03  0.17120000000E+03 0.  0.
         13    1    1    2    0    0  0.90423528970E+01  0.19621392258E+02  0.28502990591E+02  0.35765833092E+02  0.10566000000E+00 0. -1.
        994    1    1    2    0    0 -0.43895843566E+01 -0.47482593660E+02  0.14694363859E+02  0.17832338456E+03  0.17120000000E+03 0.  0.
        998    1    1    2    0    0 -0.46527685404E+01  0.27861201402E+02  0.14568026418E+04  0.14571107823E+04  0.10000000000E+02 0. -1.
</event>
<event>
 5    1  0.1369527E-008  0.4557731E+03  0.7957747E-01  0.3175707E+00
         13   -1    0    0    0    0  0.00000000000E+00  0.00000000000E+00  0.14999999963E+04  0.15000000000E+04  0.10566000000E+00 0. -1.
        994   -1    0    0    0    0 -0.00000000000E+00 -0.00000000000E+00  0.11368683772E-12  0.17120000000E+03  0.17120000000E+03 0.  0.
         13    1    1    2    0    0  0.15558480834E+02 -0.10277778395E+03  0.58989684558E+02  0.11952043025E+03  0.10566000000E+00 0. -1.
        994    1    1    2    0    0 -0.17418998352E+02  0.10642588110E+03  0.12972459681E+03  0.24034933054E+03  0.17120000000E+03 0.  0.
        998    1    1    2    0    0  0.18605175183E+01 -0.36480971486E+01  0.13112857149E+04  0.13113302392E+04  0.10000000000E+02 0. -1.
</event>
<event>
 5    1  0.1369527E-008  0.3839851E+03  0.7957747E-01  0.3433988E+00
         13   -1    0    0    0    0  0.00000000000E+00  0.00000000000E+00  0.14999999963E+04  0.15000000000E+04  0.10566000000E+00 0. -1.
        994   -1    0    0    0    0 -0.00000000000E+00 -0.00000000000E+00  0.11368683772E-12  0.17120000000E+03  0.17120000000E+03 0.  0.
         13    1    1    2    0    0  0.10190004374E+03 -0.17706669191E+03  0.11507820200E+04  0.11687752140E+04  0.10566000000E+00 0. -1.
        994    1    1    2    0    0 -0.10424275400E+03  0.17919574499E+03  0.15990321180E+03  0.31281966678E+03  0.17120000000E+03 0.  0.
        998    1    1    2    0    0  0.23427102519E+01 -0.21290530802E+01  0.18931476451E+03  0.18960511919E+03  0.10000000000E+02 0.  0.
</event>
<event>
 5    1  0.1369527E-008  0.3731853E+03  0.7957747E-01  0.3481379E+00
         13   -1    0    0    0    0  0.00000000000E+00  0.00000000000E+00  0.14999999963E+04  0.15000000000E+04  0.10566000000E+00 0. -1.
        994   -1    0    0    0    0 -0.00000000000E+00 -0.00000000000E+00  0.11368683772E-12  0.17120000000E+03  0.17120000000E+03 0.  0.
         13    1    1    2    0    0  0.34566348495E+02  0.11632427006E+03  0.56732497815E+03  0.58015843547E+03  0.10566000000E+00 0. -1.
        994    1    1    2    0    0 -0.40996912885E+02 -0.11566886952E+03  0.61014106744E+02  0.21929932846E+03  0.17120000000E+03 0.  0.
        998    1    1    2    0    0  0.64305643903E+01 -0.65540054039E+00  0.87166091138E+03  0.87174223607E+03  0.10000000000E+02 0.  0.
</event>
<event>
 5    1  0.1369527E-008  0.3788943E+03  0.7957747E-01  0.3455987E+00
         13   -1    0    0    0    0  0.00000000000E+00  0.00000000000E+00  0.14999999963E+04  0.15000000000E+04  0.10566000000E+00 0.  1.
        994   -1    0    0    0    0 -0.00000000000E+00 -0.00000000000E+00  0.11368683772E-12  0.17120000000E+03  0.17120000000E+03 0.  0.
         13    1    1    2    0    0  0.13152099830E+02 -0.15342244884E+02  0.44267376299E+02  0.48661832851E+02  0.10566000000E+00 0.  1.
        994    1    1    2    0    0 -0.49093793564E+01 -0.97186641363E+01  0.50901836524E+01  0.17162139846E+03  0.17120000000E+03 0.  0.
        998    1    1    2    0    0 -0.82427204735E+01  0.25060909020E+02  0.14506424363E+04  0.14509167687E+04  0.10000000000E+02 0.  1.
</event>
<event>
 5    1  0.1369527E-008  0.3928939E+03  0.7957747E-01  0.3396868E+00
         13   -1    0    0    0    0  0.00000000000E+00  0.00000000000E+00  0.14999999963E+04  0.15000000000E+04  0.10566000000E+00 0. -1.
        994   -1    0    0    0    0 -0.00000000000E+00 -0.00000000000E+00  0.11368683772E-12  0.17120000000E+03  0.17120000000E+03 0.  0.
         13    1    1    2    0    0  0.64668023000E+01 -0.16956375095E+02 -0.37123929858E+01  0.18523801285E+02  0.10566000000E+00 0. -1.
        994    1    1    2    0    0 -0.85097520613E+01  0.27855470949E+02  0.26832356597E+02  0.17572068319E+03  0.17120000000E+03 0.  0.
        998    1    1    2    0    0  0.20429497613E+01 -0.10899095854E+02  0.14768800327E+04  0.14769555155E+04  0.10000000000E+02 0. -1.
</event>
<event>
 5    1  0.1369527E-008  0.3855345E+03  0.7957747E-01  0.3427408E+00
         13   -1    0    0    0    0  0.00000000000E+00  0.00000000000E+00  0.14999999963E+04  0.15000000000E+04  0.10566000000E+00 0. -1.
        994   -1    0    0    0    0 -0.00000000000E+00 -0.00000000000E+00  0.11368683772E-12  0.17120000000E+03  0.17120000000E+03 0.  0.
         13    1    1    2    0    0  0.13880917028E+02 -0.65158230033E+01  0.88530760362E+02  0.89848998332E+02  0.10566000000E+00 0. -1.
        994    1    1    2    0    0 -0.12397757122E+02 -0.87246248803E+01  0.21198663317E+01  0.17188297558E+03  0.17120000000E+03 0.  0.
        998    1    1    2    0    0 -0.14831599062E+01  0.15240447884E+02  0.14093493696E+04  0.14094680261E+04  0.10000000000E+02 0. -1.
</event>
<event>
 5    1  0.1369527E-008  0.3845213E+03  0.7957747E-01  0.3431705E+00
         13   -1    0    0    0    0  0.00000000000E+00  0.00000000000E+00  0.14999999963E+04  0.15000000000E+04  0.10566000000E+00 0. -1.
        994   -1    0    0    0    0 -0.00000000000E+00 -0.00000000000E+00  0.11368683772E-12  0.17120000000E+03  0.17120000000E+03 0.  0.
         13    1    1    2    0    0 -0.28807954825E+01  0.15266983098E+02  0.54589614594E+02  0.56757527616E+02  0.10566000000E+00 0. -1.
        994    1    1    2    0    0  0.53712255257E+01 -0.40821781690E+02  0.74718899625E+01  0.17623999848E+03  0.17120000000E+03 0.  0.
        998    1    1    2    0    0 -0.24904300432E+01  0.25554798592E+02  0.14379384917E+04  0.14382024739E+04  0.10000000000E+02 0. -1.
</event>
<event>
 5    1  0.1369527E-008  0.3855715E+03  0.7957747E-01  0.3427252E+00
         13   -1    0    0    0    0  0.00000000000E+00  0.00000000000E+00  0.14999999963E+04  0.15000000000E+04  0.10566000000E+00 0.  1.
        994   -1    0    0    0    0 -0.00000000000E+00 -0.00000000000E+00  0.11368683772E-12  0.17120000000E+03  0.17120000000E+03 0.  0.
         13    1    1    2    0    0  0.70016217681E+01 -0.11172757630E+02  0.68672364993E+02  0.69926805291E+02  0.10566000000E+00 0.  1.
        994    1    1    2    0    0  0.16621716850E+01  0.21804897364E+01  0.13713650071E+01  0.17122744521E+03  0.17120000000E+03 0.  0.
        998    1    1    2    0    0 -0.86637934530E+01  0.89922678932E+01  0.14299562663E+04  0.14300457495E+04  0.10000000000E+02 0.  1.
</event>
<event>
 5    1  0.1369527E-008  0.3827573E+03  0.7957747E-01  0.3439240E+00
         13   -1    0    0    0    0  0.00000000000E+00  0.00000000000E+00  0.14999999963E+04  0.15000000000E+04  0.10566000000E+00 0.  1.
        994   -1    0    0    0    0 -0.00000000000E+00 -0.00000000000E+00  0.11368683772E-12  0.17120000000E+03  0.17120000000E+03 0.  0.
         13    1    1    2    0    0  0.14654403506E+02  0.18287954797E+02  0.93575033251E+02  0.96465013578E+02  0.10566000000E+00 0.  1.
        994    1    1    2    0    0 -0.12170601954E+02 -0.21374600967E+02  0.47544890231E+01  0.17302324203E+03  0.17120000000E+03 0.  0.
        998    1    1    2    0    0 -0.24838015515E+01  0.30866461702E+01  0.14016704740E+04  0.14017117444E+04  0.10000000000E+02 0.  1.
</event>
<event>
 5    1  0.1369527E-008  0.3712706E+03  0.7957747E-01  0.3490072E+00
         13   -1    0    0    0    0  0.00000000000E+00  0.00000000000E+00  0.14999999963E+04  0.15000000000E+04  0.10566000000E+00 0.  1.
        994   -1    0    0    0    0 -0.00000000000E+00 -0.00000000000E+00  0.11368683772E-12  0.17120000000E+03  0.17120000000E+03 0.  0.
         13    1    1    2    0    0  0.73527072053E+02 -0.69974380413E+02  0.31826048556E+03  0.33405447471E+03  0.10566000000E+00 0.  1.
        994    1    1    2    0    0 -0.12496479754E+03  0.35683451130E+02  0.73530958069E+02  0.22716899239E+03  0.17120000000E+03 0.  0.
        998    1    1    2    0    0  0.51437725484E+02  0.34290929283E+02  0.11082085526E+04  0.11099765329E+04  0.10000000000E+02 0.  1.
</event>
<event>
 5    1  0.2109941E-008  0.3845893E+03  0.7957747E-01  0.3431416E+00
         13   -1    0    0    0    0  0.00000000000E+00  0.00000000000E+00  0.14999999963E+04  0.15000000000E+04  0.10566000000E+00 0. -1.
        994   -1    0    0    0    0 -0.00000000000E+00 -0.00000000000E+00  0.11368683772E-12  0.17120000000E+03  0.17120000000E+03 0.  0.
         13    1    1    2    0    0  0.91161653458E+01 -0.41371417578E+01  0.26641691123E+02  0.28460697154E+02  0.10566000000E+00 0. -1.
        994    1    1    2    0    0 -0.79100662222E+01  0.49397838740E+01  0.21206290283E+01  0.17146692882E+03  0.17120000000E+03 0.  0.
        998    1    1    2    0    0 -0.12060991236E+01 -0.80264211618E+00  0.14712376761E+04  0.14712723740E+04  0.10000000000E+02 0. -1.
</event>
<event>
 5    1  0.1369527E-008  0.3852024E+03  0.7957747E-01  0.3428814E+00
         13   -1    0    0    0    0  0.00000000000E+00  0.00000000000E+00  0.14999999963E+04  0.15000000000E+04  0.10566000000E+00 0.  1.
        994   -1    0    0    0    0 -0.00000000000E+00 -0.00000000000E+00  0.11368683772E-12  0.17120000000E+03  0.17120000000E+03 0.  0.
         13    1    1    2    0    0 -0.92236679464E+01  0.40596190833E+01  0.34294425189E+02  0.35744584493E+02  0.10566000000E+00 0.  1.
        994    1    1    2    0    0  0.16586868973E+01  0.51067408928E+01  0.16244250875E+01  0.17129188189E+03  0.17120000000E+03 0.  0.
        998    1    1    2    0    0  0.75649810490E+01 -0.91663599761E+01  0.14640811460E+04  0.14641635336E+04  0.10000000000E+02 0.  1.
</event>
<event>
 5    1  0.1369527E-008  0.3775193E+03  0.7957747E-01  0.3462031E+00
         13   -1    0    0    0    0  0.00000000000E+00  0.00000000000E+00  0.14999999963E+04  0.15000000000E+04  0.10566000000E+00 0. -1.
        994   -1    0    0    0    0 -0.00000000000E+00 -0.00000000000E+00  0.11368683772E-12  0.17120000000E+03  0.17120000000E+03 0.  0.
         13    1    1    2    0    0 -0.65215996558E+02  0.23917785948E+02  0.13899635849E+03  0.15538721160E+03  0.10566000000E+00 0. -1.
        994    1    1    2    0    0  0.80867834477E+02  0.14509381547E+01  0.38854026698E+02  0.19328938736E+03  0.17120000000E+03 0.  0.
        998    1    1    2    0    0 -0.15651837919E+02 -0.25368724103E+02  0.13221496111E+04  0.13225234010E+04  0.10000000000E+02 0. -1.
</event>
<event>
 5    1  0.1369527E-008  0.3829312E+03  0.7957747E-01  0.3438494E+00
         13   -1    0    0    0    0  0.00000000000E+00  0.00000000000E+00  0.14999999963E+04  0.15000000000E+04  0.10566000000E+00 0.  1.
        994   -1    0    0    0    0 -0.00000000000E+00 -0.00000000000E+00  0.11368683772E-12  0.17120000000E+03  0.17120000000E+03 0.  0.
         13    1    1    2    0    0 -0.92504157530E+01 -0.39516022789E+01  0.18192281694E+02  0.20788353216E+02  0.10566000000E+00 0.  1.
        994    1    1    2    0    0  0.34180426569E+01  0.96731213879E+00  0.27025559098E+01  0.17125817504E+03  0.17120000000E+03 0.  0.
        998    1    1    2    0    0  0.58323730961E+01  0.29842901401E+01  0.14791051587E+04  0.14791534717E+04  0.10000000000E+02 0.  1.
</event>
<event>
 5    1  0.1369527E-008  0.3842717E+03  0.7957747E-01  0.3432767E+00
         13   -1    0    0    0    0  0.00000000000E+00  0.00000000000E+00  0.14999999963E+04  0.15000000000E+04  0.10566000000E+00 0.  1.
        994   -1    0    0    0    0 -0.00000000000E+00 -0.00000000000E+00  0.11368683772E-12  0.17120000000E+03  0.17120000000E+03 0.  0.
         13    1    1    2    0    0 -0.15558497500E+02  0.83823112603E+01  0.82304509757E+02  0.84180600360E+02  0.10566000000E+00 0.  1.
        994    1    1    2    0    0  0.20916856926E+01 -0.31059958462E+01  0.20383676568E+01  0.17125307969E+03  0.17120000000E+03 0.  0.
        998    1    1    2    0    0  0.13466811808E+02 -0.52763154141E+01  0.14156571189E+04  0.14157663200E+04  0.10000000000E+02 0.  1.
</event>
<event>
 5    1  0.1369527E-008  0.3843257E+03  0.7957747E-01  0.3432537E+00
         13   -1    0    0    0    0  0.00000000000E+00  0.00000000000E+00  0.14999999963E+04  0.15000000000E+04  0.10566000000E+00 0. -1.
        994   -1    0    0    0    0 -0.00000000000E+00 -0.00000000000E+00  0.11368683772E-12  0.17120000000E+03  0.17120000000E+03 0.  0.
         13    1    1    2    0    0  0.29794069505E+01 -0.17222809996E+02  0.76691655047E+02  0.78658268274E+02  0.10566000000E+00 0. -1.
        994    1    1    2    0    0 -0.19736715538E+01  0.12662938847E+02  0.25067925354E+01  0.17169731917E+03  0.17120000000E+03 0.  0.
        998    1    1    2    0    0 -0.10057353967E+01  0.45598711488E+01  0.14208015487E+04  0.14208444126E+04  0.10000000000E+02 0. -1.
</event>
<event>
 5    1  0.1369527E-008  0.3804409E+03  0.7957747E-01  0.3449241E+00
         13   -1    0    0    0    0  0.00000000000E+00  0.00000000000E+00  0.14999999963E+04  0.15000000000E+04  0.10566000000E+00 0.  1.
        994   -1    0    0    0    0 -0.00000000000E+00 -0.00000000000E+00  0.11368683772E-12  0.17120000000E+03  0.17120000000E+03 0.  0.
         13    1    1    2    0    0  0.11133713982E+02  0.29161674146E+02  0.12015361397E+03  0.12414211590E+03  0.10566000000E+00 0.  1.
        994    1    1    2    0    0 -0.17251430908E+02 -0.18240683639E+02  0.60176645025E+01  0.17313574644E+03  0.17120000000E+03 0.  0.
        998    1    1    2    0    0  0.61177169266E+01 -0.10920990507E+02  0.13738287178E+04  0.13739221377E+04  0.10000000000E+02 0.  1.
</event>
<event>
 5    1  0.1369527E-008  0.3790186E+03  0.7957747E-01  0.3455443E+00
         13   -1    0    0    0    0  0.00000000000E+00  0.00000000000E+00  0.14999999963E+04  0.15000000000E+04  0.10566000000E+00 0. -1.
        994   -1    0    0    0    0 -0.00000000000E+00 -0.00000000000E+00  0.11368683772E-12  0.17120000000E+03  0.17120000000E+03 0.  0.
         13    1    1    2    0    0 -0.38314992316E+02 -0.55616268893E+02  0.14189734639E+03  0.15714985230E+03  0.10566000000E+00 0. -1.
        994    1    1    2    0    0  0.29539474188E+02  0.26216532882E+02  0.21442256697E+02  0.17700027543E+03  0.17120000000E+03 0.  0.
        998    1    1    2    0    0  0.87755181273E+01  0.29399736011E+02  0.13366603932E+04  0.13370498723E+04  0.10000000000E+02 0. -1.
</event>
<event>
 5    1  0.1369527E-008  0.3798558E+03  0.7957747E-01  0.3451787E+00
         13   -1    0    0    0    0  0.00000000000E+00  0.00000000000E+00  0.14999999963E+04  0.15000000000E+04  0.10566000000E+00 0.  1.
        994   -1    0    0    0    0 -0.00000000000E+00 -0.00000000000E+00  0.11368683772E-12  0.17120000000E+03  0.17120000000E+03 0.  0.
         13    1    1    2    0    0 -0.21326113389E+02 -0.24277266413E+02  0.10947822560E+03  0.11414763169E+03  0.10566000000E+00 0.  1.
        994    1    1    2    0    0  0.24376940741E+02  0.33207352969E+02  0.99024385330E+01  0.17636457076E+03  0.17120000000E+03 0.  0.
        998    1    1    2    0    0 -0.30508273523E+01 -0.89300865567E+01  0.13806193321E+04  0.13806877975E+04  0.10000000000E+02 0.  1.
</event>
<event>
 5    1  0.1369527E-008  0.3857149E+03  0.7957747E-01  0.3426646E+00
         13   -1    0    0    0    0  0.00000000000E+00  0.00000000000E+00  0.14999999963E+04  0.15000000000E+04  0.10566000000E+00 0.  1.
        994   -1    0    0    0    0 -0.00000000000E+00 -0.00000000000E+00  0.11368683772E-12  0.17120000000E+03  0.17120000000E+03 0.  0.
         13    1    1    2    0    0 -0.34205652883E+01 -0.12867912316E+02  0.65789726674E+02  0.67123637671E+02  0.10566000000E+00 0.  1.
        994    1    1    2    0    0  0.50481676696E+01  0.16893191016E+02  0.22962274121E+01  0.17212081966E+03  0.17120000000E+03 0.  0.
        998    1    1    2    0    0 -0.16276023814E+01 -0.40252786995E+01  0.14319140422E+04  0.14319555427E+04  0.10000000000E+02 0.  1.
</event>
<event>
 5    1  0.1369527E-008  0.3713441E+03  0.7957747E-01  0.3489737E+00
         13   -1    0    0    0    0  0.00000000000E+00  0.00000000000E+00  0.14999999963E+04  0.15000000000E+04  0.10566000000E+00 0.  1.
        994   -1    0    0    0    0 -0.00000000000E+00 -0.00000000000E+00  0.11368683772E-12  0.17120000000E+03  0.17120000000E+03 0.  0.
         13    1    1    2    0    0 -0.57253073239E+01  0.72401739635E+02  0.18719256820E+03  0.20078809676E+03  0.10566000000E+00 0.  1.
        994    1    1    2    0    0 -0.87222281329E+00 -0.81489302664E+02  0.35359664443E+02  0.19287564152E+03  0.17120000000E+03 0.  0.
        998    1    1    2    0    0  0.65975301372E+01  0.90875630282E+01  0.12774477636E+04  0.12775362617E+04  0.10000000000E+02 0.  1.
</event>
<event>
 5    1  0.1369527E-008  0.3853666E+03  0.7957747E-01  0.3428119E+00
         13   -1    0    0    0    0  0.00000000000E+00  0.00000000000E+00  0.14999999963E+04  0.15000000000E+04  0.10566000000E+00 0. -1.
        994   -1    0    0    0    0 -0.00000000000E+00 -0.00000000000E+00  0.11368683772E-12  0.17120000000E+03  0.17120000000E+03 0.  0.
         13    1    1    2    0    0  0.40394711135E+01  0.13270915784E+02  0.67887496936E+02  0.69290388488E+02  0.10566000000E+00 0. -1.
        994    1    1    2    0    0 -0.23803597109E+01 -0.61246411945E+01  0.15900853708E+01  0.17133343431E+03  0.17120000000E+03 0.  0.
        998    1    1    2    0    0 -0.16591114026E+01 -0.71462745890E+01  0.14305224140E+04  0.14305761772E+04  0.10000000000E+02 0. -1.
</event>
<event>
 5    1  0.1369527E-008  0.3734751E+03  0.7957747E-01  0.3480071E+00
         13   -1    0    0    0    0  0.00000000000E+00  0.00000000000E+00  0.14999999963E+04  0.15000000000E+04  0.10566000000E+00 0.  1.
        994   -1    0    0    0    0 -0.00000000000E+00 -0.00000000000E+00  0.11368683772E-12  0.17120000000E+03  0.17120000000E+03 0.  0.
         13    1    1    2    0    0  0.83923610701E+02 -0.28407381195E+02  0.53186511919E+03  0.53919446206E+03  0.10566000000E+00 0.  1.
        994    1    1    2    0    0 -0.12179475167E+02 -0.48826724992E+02  0.21805134687E+02  0.17977011038E+03  0.17120000000E+03 0.  0.
        998    1    1    2    0    0 -0.71744135534E+02  0.77234106188E+02  0.94632974240E+03  0.95223542756E+03  0.10000000000E+02 0.  1.
</event>
<event>
 5    1  0.1369527E-008  0.3848199E+03  0.7957747E-01  0.3430436E+00
         13   -1    0    0    0    0  0.00000000000E+00  0.00000000000E+00  0.14999999963E+04  0.15000000000E+04  0.10566000000E+00 0. -1.
        994   -1    0    0    0    0 -0.00000000000E+00 -0.00000000000E+00  0.11368683772E-12  0.17120000000E+03  0.17120000000E+03 0.  0.
         13    1    1    2    0    0  0.14366149229E+02 -0.42774582364E+01  0.67080593304E+02  0.68734998761E+02  0.10566000000E+00 0. -1.
        994    1    1    2    0    0 -0.56835911351E+01  0.75261258285E-01  0.18259123358E+01  0.17130406542E+03  0.17120000000E+03 0.  0.
        998    1    1    2    0    0 -0.86825580940E+01  0.42021969781E+01  0.14310934906E+04  0.14311609358E+04  0.10000000000E+02 0. -1.
</event>
<event>
 5    1  0.1369527E-008  0.3791605E+03  0.7957747E-01  0.3454822E+00
         13   -1    0    0    0    0  0.00000000000E+00  0.00000000000E+00  0.14999999963E+04  0.15000000000E+04  0.10566000000E+00 0.  1.
        994   -1    0    0    0    0 -0.00000000000E+00 -0.00000000000E+00  0.11368683772E-12  0.17120000000E+03  0.17120000000E+03 0.  0.
         13    1    1    2    0    0  0.92723287373E+01 -0.60982230449E+01  0.11478957141E+02  0.15966904071E+02  0.10566000000E+00 0.  1.
        994    1    1    2    0    0 -0.51537668494E+01  0.81410760706E+01  0.48688013100E+01  0.17154003515E+03  0.17120000000E+03 0.  0.
        998    1    1    2    0    0 -0.41185618879E+01 -0.20428530258E+01  0.14836522378E+04  0.14836930608E+04  0.10000000000E+02 0.  1.
</event>
<event>
 5    1  0.1369527E-008  0.4028145E+03  0.7957747E-01  0.3357462E+00
         13   -1    0    0    0    0  0.00000000000E+00  0.00000000000E+00  0.14999999963E+04  0.15000000000E+04  0.10566000000E+00 0. -1.
        994   -1    0    0    0    0 -0.00000000000E+00 -0.00000000000E+00  0.11368683772E-12  0.17120000000E+03  0.17120000000E+03 0.  0.
         13    1    1    2    0    0  0.70527818641E+02  0.74147882248E+02  0.14315288539E+03  0.17596829659E+03  0.10566000000E+00 0. -1.
        994    1    1    2    0    0 -0.63315274055E+02 -0.10353318908E+03  0.90582796951E+02  0.22856646358E+03  0.17120000000E+03 0.  0.
        998    1    1    2    0    0 -0.72125445857E+01  0.29385306828E+02  0.12662643139E+04  0.12666652398E+04  0.10000000000E+02 0. -1.
</event>
<event>
 5    1  0.1369527E-008  0.3782411E+03  0.7957747E-01  0.3458853E+00
         13   -1    0    0    0    0  0.00000000000E+00  0.00000000000E+00  0.14999999963E+04  0.15000000000E+04  0.10566000000E+00 0. -1.
        994   -1    0    0    0    0 -0.00000000000E+00 -0.00000000000E+00  0.11368683772E-12  0.17120000000E+03  0.17120000000E+03 0.  0.
         13    1    1    2    0    0 -0.24586313334E+01  0.16394052386E+02  0.25155877563E+02  0.30127050331E+02  0.10566000000E+00 0. -1.
        994    1    1    2    0    0  0.37380345497E+01 -0.12701415269E+02  0.56133319965E+01  0.17180293463E+03  0.17120000000E+03 0.  0.
        998    1    1    2    0    0 -0.12794032163E+01 -0.36926371174E+01  0.14692307867E+04  0.14692700150E+04  0.10000000000E+02 0. -1.
</event>
<event>
 5    1  0.1369527E-008  0.3762482E+03  0.7957747E-01  0.3467659E+00
         13   -1    0    0    0    0  0.00000000000E+00  0.00000000000E+00  0.14999999963E+04  0.15000000000E+04  0.10566000000E+00 0.  1.
        994   -1    0    0    0    0 -0.00000000000E+00 -0.00000000000E+00  0.11368683772E-12  0.17120000000E+03  0.17120000000E+03 0.  0.
         13    1    1    2    0    0 -0.28421726614E+02 -0.11815994950E+02  0.77711893145E+02  0.83585655352E+02  0.10566000000E+00 0.  1.
        994    1    1    2    0    0  0.12100202567E+02  0.83231651964E+01  0.67695612048E+01  0.17196207995E+03  0.17120000000E+03 0.  0.
        998    1    1    2    0    0  0.16321524046E+02  0.34928297539E+01  0.14155185419E+04  0.14156522647E+04  0.10000000000E+02 0.  1.
</event>
<event>
 5    1  0.1369527E-008  0.3826226E+03  0.7957747E-01  0.3439818E+00
         13   -1    0    0    0    0  0.00000000000E+00  0.00000000000E+00  0.14999999963E+04  0.15000000000E+04  0.10566000000E+00 0. -1.
        994   -1    0    0    0    0 -0.00000000000E+00 -0.00000000000E+00  0.11368683772E-12  0.17120000000E+03  0.17120000000E+03 0.  0.
         13    1    1    2    0    0  0.29698956242E+00  0.34057850686E+02  0.19428528070E+03  0.19724808455E+03  0.10566000000E+00 0. -1.
        994    1    1    2    0    0 -0.48124189171E+01 -0.26183357089E+02  0.51674835037E+01  0.17333456219E+03  0.17120000000E+03 0.  0.
        998    1    1    2    0    0  0.45154293547E+01 -0.78744935963E+01  0.13005472321E+04  0.13006173533E+04  0.10000000000E+02 0.  0.
</event>
<event>
 5    1  0.1369527E-008  0.3726731E+03  0.7957747E-01  0.3483695E+00
         13   -1    0    0    0    0  0.00000000000E+00  0.00000000000E+00  0.14999999963E+04  0.15000000000E+04  0.10566000000E+00 0.  1.
        994   -1    0    0    0    0 -0.00000000000E+00 -0.00000000000E+00  0.11368683772E-12  0.17120000000E+03  0.17120000000E+03 0.  0.
         13    1    1    2    0    0  0.41235177190E+02  0.19203528232E+02  0.11373408698E+03  0.12249313874E+03  0.10566000000E+00 0.  1.
        994    1    1    2    0    0 -0.53206041210E+02 -0.20623163047E+02  0.19118159677E+02  0.18146939606E+03  0.17120000000E+03 0.  0.
        998    1    1    2    0    0  0.11970864021E+02  0.14196348149E+01  0.13671477496E+04  0.13672374652E+04  0.10000000000E+02 0.  1.
</event>
<event>
 5    1  0.1369527E-008  0.3839712E+03  0.7957747E-01  0.3434047E+00
         13   -1    0    0    0    0  0.00000000000E+00  0.00000000000E+00  0.14999999963E+04  0.15000000000E+04  0.10566000000E+00 0. -1.
        994   -1    0    0    0    0 -0.00000000000E+00 -0.00000000000E+00  0.11368683772E-12  0.17120000000E+03  0.17120000000E+03 0.  0.
         13    1    1    2    0    0 -0.57363522630E+01  0.10067075405E+02  0.31047312819E+02  0.33139078772E+02  0.10566000000E+00 0. -1.
        994    1    1    2    0    0  0.81352477307E+01 -0.16931920292E+01  0.23696455069E+01  0.17141792314E+03  0.17120000000E+03 0.  0.
        998    1    1    2    0    0 -0.23988954677E+01 -0.83738833763E+01  0.14665830380E+04  0.14666429981E+04  0.10000000000E+02 0. -1.
</event>
<event>
 5    1  0.1369527E-008  0.3708313E+03  0.7957747E-01  0.3492079E+00
         13   -1    0    0    0    0  0.00000000000E+00  0.00000000000E+00  0.14999999963E+04  0.15000000000E+04  0.10566000000E+00 0.  1.
        994   -1    0    0    0    0 -0.00000000000E+00 -0.00000000000E+00  0.11368683772E-12  0.17120000000E+03  0.17120000000E+03 0.  0.
         13    1    1    2    0    0 -0.21769362820E+02  0.35262490750E+02  0.83483555259E+02  0.93203345295E+02  0.10566000000E+00 0.  1.
        994    1    1    2    0    0 -0.54846212979E+02 -0.84836247481E+01  0.22257819092E+02  0.18134202347E+03  0.17120000000E+03 0.  0.
        998    1    1    2    0    0  0.76615575799E+02 -0.26778866001E+02  0.13942586219E+04  0.13966546312E+04  0.10000000000E+02 0.  1.
</event>
<event>
 5    1  0.1369527E-008  0.3755301E+03  0.7957747E-01  0.3470855E+00
         13   -1    0    0    0    0  0.00000000000E+00  0.00000000000E+00  0.14999999963E+04  0.15000000000E+04  0.10566000000E+00 0.  1.
        994   -1    0    0    0    0 -0.00000000000E+00 -0.00000000000E+00  0.11368683772E-12  0.17120000000E+03  0.17120000000E+03 0.  0.
         13    1    1    2    0    0 -0.11123955654E+02  0.89588062444E+01  0.12969904517E+02  0.19293319723E+02  0.10566000000E+00 0.  1.
        994    1    1    2    0    0  0.12388855891E+02 -0.72754867419E+01  0.71074432906E+01  0.17194874878E+03  0.17120000000E+03 0.  0.
        998    1    1    2    0    0 -0.12649002371E+01 -0.16833195025E+01  0.14799226485E+04  0.14799579315E+04  0.10000000000E+02 0.  1.
</event>
<event>
 5    1  0.1369527E-008  0.3856076E+03  0.7957747E-01  0.3427099E+00
         13   -1    0    0    0    0  0.00000000000E+00  0.00000000000E+00  0.14999999963E+04  0.15000000000E+04  0.10566000000E+00 0. -1.
        994   -1    0    0    0    0 -0.00000000000E+00 -0.00000000000E+00  0.11368683772E-12  0.17120000000E+03  0.17120000000E+03 0.  0.
         13    1    1    2    0    0  0.96009467107E+01 -0.31890072856E+01  0.38496461202E+02  0.39803726387E+02  0.10566000000E+00 0. -1.
        994    1    1    2    0    0 -0.21778712722E+02 -0.36221197583E+02  0.72137888054E+01  0.17648729765E+03  0.17120000000E+03 0.  0.
        998    1    1    2    0    0  0.12177766012E+02  0.39410204868E+02  0.14542897463E+04  0.14549089760E+04  0.10000000000E+02 0. -1.
</event>
<event>
 5    1  0.1369527E-008  0.3832054E+03  0.7957747E-01  0.3437319E+00
         13   -1    0    0    0    0  0.00000000000E+00  0.00000000000E+00  0.14999999963E+04  0.15000000000E+04  0.10566000000E+00 0.  1.
        994   -1    0    0    0    0 -0.00000000000E+00 -0.00000000000E+00  0.11368683772E-12  0.17120000000E+03  0.17120000000E+03 0.  0.
         13    1    1    2    0    0  0.11344025967E+02 -0.10003304038E+01  0.25006530454E+02  0.27477723986E+02  0.10566000000E+00 0.  1.
        994    1    1    2    0    0 -0.55880324271E+01  0.14516607290E+01  0.26340438502E+01  0.17131757532E+03  0.17120000000E+03 0.  0.
        998    1    1    2    0    0 -0.57559935396E+01 -0.45133032520E+00  0.14723594220E+04  0.14724047007E+04  0.10000000000E+02 0.  1.
</event>
<event>
 5    1  0.1369527E-008  0.3859044E+03  0.7957747E-01  0.3425845E+00
         13   -1    0    0    0    0  0.00000000000E+00  0.00000000000E+00  0.14999999963E+04  0.15000000000E+04  0.10566000000E+00 0.  1.
        994   -1    0    0    0    0 -0.00000000000E+00 -0.00000000000E+00  0.11368683772E-12  0.17120000000E+03  0.17120000000E+03 0.  0.
         13    1    1    2    0    0  0.57135806479E+01  0.88963428469E+01  0.49927171961E+02  0.51034533249E+02  0.10566000000E+00 0.  1.
        994    1    1    2    0    0  0.31808660946E+01 -0.25166937303E+01  0.12357130208E+01  0.17125249967E+03  0.17120000000E+03 0.  0.
        998    1    1    2    0    0 -0.88944467425E+01 -0.63796491165E+01  0.14488371113E+04  0.14489129671E+04  0.10000000000E+02 0.  1.
</event>
<event>
 5    1  0.1369527E-008  0.3859374E+03  0.7957747E-01  0.3425706E+00
         13   -1    0    0    0    0  0.00000000000E+00  0.00000000000E+00  0.14999999963E+04  0.15000000000E+04  0.10566000000E+00 0. -1.
        994   -1    0    0    0    0 -0.00000000000E+00 -0.00000000000E+00  0.11368683772E-12  0.17120000000E+03  0.17120000000E+03 0.  0.
         13    1    1    2    0    0 -0.11355182518E+02 -0.67458973513E+01  0.69198656636E+02  0.70447942094E+02  0.10566000000E+00 0. -1.
        994    1    1    2    0    0  0.18578554025E+02  0.89051898026E+01  0.25583851863E+01  0.17245419801E+03  0.17120000000E+03 0.  0.
        998    1    1    2    0    0 -0.72233715068E+01 -0.21592924513E+01  0.14282429545E+04  0.14282978599E+04  0.10000000000E+02 0. -1.
</event>
<event>
 5    1  0.1369527E-008  0.3842460E+03  0.7957747E-01  0.3432876E+00
         13   -1    0    0    0    0  0.00000000000E+00  0.00000000000E+00  0.14999999963E+04  0.15000000000E+04  0.10566000000E+00 0.  1.
        994   -1    0    0    0    0 -0.00000000000E+00 -0.00000000000E+00  0.11368683772E-12  0.17120000000E+03  0.17120000000E+03 0.  0.
         13    1    1    2    0    0  0.15853175717E+02 -0.39649598963E+01  0.65954293266E+02  0.67948686901E+02  0.10566000000E+00 0.  1.
        994    1    1    2    0    0 -0.11091627378E+02  0.29061630543E+01  0.24384881388E+01  0.17160086307E+03  0.17120000000E+03 0.  0.
        998    1    1    2    0    0 -0.47615483389E+01  0.10587968421E+01  0.14316072149E+04  0.14316504500E+04  0.10000000000E+02 0.  1.
</event>
<event>
 5    1  0.1369527E-008  0.3804440E+03  0.7957747E-01  0.3449228E+00
         13   -1    0    0    0    0  0.00000000000E+00  0.00000000000E+00  0.14999999963E+04  0.15000000000E+04  0.10566000000E+00 0. -1.
        994   -1    0    0    0    0 -0.00000000000E+00 -0.00000000000E+00  0.11368683772E-12  0.17120000000E+03  0.17120000000E+03 0.  0.
         13    1    1    2    0    0 -0.53448161046E+01 -0.20467364868E+02  0.58091328572E+02  0.61823083902E+02  0.10566000000E+00 0. -1.
        994    1    1    2    0    0  0.55403274559E+01  0.26105038573E+01  0.40344275672E+01  0.17135701493E+03  0.17120000000E+03 0.  0.
        998    1    1    2    0    0 -0.19551135126E+00  0.17856861010E+02  0.14378742401E+04  0.14380199012E+04  0.10000000000E+02 0. -1.
</event>
<event>
 5    1  0.1369527E-008  0.3800214E+03  0.7957747E-01  0.3451065E+00
         13   -1    0    0    0    0  0.00000000000E+00  0.00000000000E+00  0.14999999963E+04  0.15000000000E+04  0.10566000000E+00 0. -1.
        994   -1    0    0    0    0 -0.00000000000E+00 -0.00000000000E+00  0.11368683772E-12  0.17120000000E+03  0.17120000000E+03 0.  0.
         13    1    1    2    0    0 -0.10014326091E+02 -0.13744171413E+02  0.32925596468E+02  0.37057995652E+02  0.10566000000E+00 0. -1.
        994    1    1    2    0    0  0.12233792964E+02  0.11573008213E+02  0.50708913116E+01  0.17210099985E+03  0.17120000000E+03 0.  0.
        998    1    1    2    0    0 -0.22194668734E+01  0.21711632000E+01  0.14620035085E+04  0.14620410045E+04  0.10000000000E+02 0. -1.
</event>
<event>
 5    1  0.1369527E-008  0.3817442E+03  0.7957747E-01  0.3443599E+00
         13   -1    0    0    0    0  0.00000000000E+00  0.00000000000E+00  0.14999999963E+04  0.15000000000E+04  0.10566000000E+00 0.  1.
        994   -1    0    0    0    0 -0.00000000000E+00 -0.00000000000E+00  0.11368683772E-12  0.17120000000E+03  0.17120000000E+03 0.  0.
         13    1    1    2    0    0 -0.95639104805E+01  0.65978805288E+01  0.19291703274E+02  0.22520688053E+02  0.10566000000E+00 0.  1.
        994    1    1    2    0    0  0.10068895333E+02 -0.42035714823E+01  0.36510552455E+01  0.17158619662E+03  0.17120000000E+03 0.  0.
        998    1    1    2    0    0 -0.50498485254E+00 -0.23943090465E+01  0.14770572378E+04  0.14770931153E+04  0.10000000000E+02 0.  1.
</event>
<event>
 5    1  0.1369527E-008  0.3793441E+03  0.7957747E-01  0.3454019E+00
         13   -1    0    0    0    0  0.00000000000E+00  0.00000000000E+00  0.14999999963E+04  0.15000000000E+04  0.10566000000E+00 0.  1.
        994   -1    0    0    0    0 -0.00000000000E+00 -0.00000000000E+00  0.11368683772E-12  0.17120000000E+03  0.17120000000E+03 0.  0.
         13    1    1    2    0    0  0.86204367721E+01 -0.38580997672E+02  0.21638821536E+03  0.21996971660E+03  0.10566000000E+00 0.  1.
        994    1    1    2    0    0  0.74795459406E+01 -0.40191771282E+01  0.47061835702E+01  0.17147502896E+03  0.17120000000E+03 0.  0.
        998    1    1    2    0    0 -0.16099982713E+02  0.42600174801E+02  0.12789055974E+04  0.12797552544E+04  0.10000000000E+02 0.  1.
</event>
<event>
 5    1  0.1369527E-008  0.3856120E+03  0.7957747E-01  0.3427081E+00
         13   -1    0    0    0    0  0.00000000000E+00  0.00000000000E+00  0.14999999963E+04  0.15000000000E+04  0.10566000000E+00 0.  1.
        994   -1    0    0    0    0 -0.00000000000E+00 -0.00000000000E+00  0.11368683772E-12  0.17120000000E+03  0.17120000000E+03 0.  0.
         13    1    1    2    0    0 -0.47822582176E+01  0.10394552495E+02  0.51383331004E+02  0.52641947004E+02  0.10566000000E+00 0.  1.
        994    1    1    2    0    0  0.10674935919E+02  0.23947299080E+01  0.17195078659E+01  0.17155782027E+03  0.17120000000E+03 0.  0.
        998    1    1    2    0    0 -0.58926777019E+01 -0.12789282403E+02  0.14468971574E+04  0.14470002327E+04  0.10000000000E+02 0.  1.
</event>
<event>
 5    1  0.1369527E-008  0.3830942E+03  0.7957747E-01  0.3437795E+00
         13   -1    0    0    0    0  0.00000000000E+00  0.00000000000E+00  0.14999999963E+04  0.15000000000E+04  0.10566000000E+00 0. -1.
        994   -1    0    0    0    0 -0.00000000000E+00 -0.00000000000E+00  0.11368683772E-12  0.17120000000E+03  0.17120000000E+03 0.  0.
         13    1    1    2    0    0  0.34366436948E+01  0.18341450624E+02  0.73916007877E+02  0.76235206535E+02  0.10566000000E+00 0. -1.
        994    1    1    2    0    0  0.10459062393E+02  0.43746277163E+01  0.30047236724E+01  0.17160127540E+03  0.17120000000E+03 0.  0.
        998    1    1    2    0    0 -0.13895706088E+02 -0.22716078341E+02  0.14230792647E+04  0.14233635181E+04  0.10000000000E+02 0. -1.
</event>
<event>
 5    1  0.1369527E-008  0.3855305E+03  0.7957747E-01  0.3427426E+00
         13   -1    0    0    0    0  0.00000000000E+00  0.00000000000E+00  0.14999999963E+04  0.15000000000E+04  0.10566000000E+00 0. -1.
        994   -1    0    0    0    0 -0.00000000000E+00 -0.00000000000E+00  0.11368683772E-12  0.17120000000E+03  0.17120000000E+03 0.  0.
         13    1    1    2    0    0 -0.12259951023E+02 -0.66948097582E+01  0.71996720951E+02  0.73339388247E+02  0.10566000000E+00 0. -1.
        994    1    1    2    0    0  0.88385392743E+01  0.20832313657E+01  0.16377569393E+01  0.17144848170E+03  0.17120000000E+03 0.  0.
        998    1    1    2    0    0  0.34214117487E+01  0.46115783925E+01  0.14263655184E+04  0.14264121301E+04  0.10000000000E+02 0. -1.
</event>
<event>
 5    1  0.1369527E-008  0.3831750E+03  0.7957747E-01  0.3437449E+00
         13   -1    0    0    0    0  0.00000000000E+00  0.00000000000E+00  0.14999999963E+04  0.15000000000E+04  0.10566000000E+00 0.  1.
        994   -1    0    0    0    0 -0.00000000000E+00 -0.00000000000E+00  0.11368683772E-12  0.17120000000E+03  0.17120000000E+03 0.  0.
         13    1    1    2    0    0  0.17682011529E+02  0.10290107710E+01  0.60911930770E+02  0.63434902609E+02  0.10566000000E+00 0.  1.
        994    1    1    2    0    0 -0.12156363236E+02  0.19366846143E+01  0.30403800119E+01  0.17166890174E+03  0.17120000000E+03 0.  0.
        998    1    1    2    0    0 -0.55256482938E+01 -0.29656953853E+01  0.14360476855E+04  0.14360961956E+04  0.10000000000E+02 0.  1.
</event>
<event>
 5    1  0.1369527E-008  0.3754433E+03  0.7957747E-01  0.3471242E+00
         13   -1    0    0    0    0  0.00000000000E+00  0.00000000000E+00  0.14999999963E+04  0.15000000000E+04  0.10566000000E+00 0.  1.
        994   -1    0    0    0    0 -0.00000000000E+00 -0.00000000000E+00  0.11368683772E-12  0.17120000000E+03  0.17120000000E+03 0.  0.
         13    1    1    2    0    0  0.17691558346E+02 -0.52945738581E+02  0.23037754419E+03  0.23704443993E+03  0.10566000000E+00 0.  1.
        994    1    1    2    0    0 -0.49902672629E+01  0.38451631766E+02  0.11571150781E+02  0.17591691870E+03  0.17120000000E+03 0.  0.
        998    1    1    2    0    0 -0.12701291084E+02  0.14494106815E+02  0.12580513013E+04  0.12582386414E+04  0.10000000000E+02 0.  1.
</event>
<event>
 5    1  0.1369527E-008  0.3774457E+03  0.7957747E-01  0.3462356E+00
         13   -1    0    0    0    0  0.00000000000E+00  0.00000000000E+00  0.14999999963E+04  0.15000000000E+04  0.10566000000E+00 0.  1.
        994   -1    0    0    0    0 -0.00000000000E+00 -0.00000000000E+00  0.11368683772E-12  0.17120000000E+03  0.17120000000E+03 0.  0.
         13    1    1    2    0    0  0.55929606547E+02 -0.60145372987E+02  0.25925440741E+03  0.27195302114E+03  0.10566000000E+00 0.  1.
        994    1    1    2    0    0 -0.18959664175E+02  0.73705830578E+01  0.16418085441E+02  0.17318425994E+03  0.17120000000E+03 0.  0.
        998    1    1    2    0    0 -0.36969942372E+02  0.52774789930E+02  0.12243275034E+04  0.12260627189E+04  0.10000000000E+02 0.  1.
</event>
<event>
 5    1  0.1369527E-008  0.3840882E+03  0.7957747E-01  0.3433548E+00
         13   -1    0    0    0    0  0.00000000000E+00  0.00000000000E+00  0.14999999963E+04  0.15000000000E+04  0.10566000000E+00 0.  1.
        994   -1    0    0    0    0 -0.00000000000E+00 -0.00000000000E+00  0.11368683772E-12  0.17120000000E+03  0.17120000000E+03 0.  0.
         13    1    1    2    0    0  0.12306177404E+02 -0.97176084511E+01  0.58065334900E+02  0.60145392154E+02  0.10566000000E+00 0.  1.
        994    1    1    2    0    0 -0.12745429169E+02  0.32617184059E+01  0.26546181903E+01  0.17172527994E+03  0.17120000000E+03 0.  0.
        998    1    1    2    0    0  0.43925176453E+00  0.64558900452E+01  0.14392800432E+04  0.14393293279E+04  0.10000000000E+02 0.  1.
</event>
<event>
 5    1  0.1369527E-008  0.3827767E+03  0.7957747E-01  0.3439157E+00
         13   -1    0    0    0    0  0.00000000000E+00  0.00000000000E+00  0.14999999963E+04  0.15000000000E+04  0.10566000000E+00 0. -1.
        994   -1    0    0    0    0 -0.00000000000E+00 -0.00000000000E+00  0.11368683772E-12  0.17120000000E+03  0.17120000000E+03 0.  0.
         13    1    1    2    0    0 -0.31824363518E+02  0.18946648680E+02  0.21315761205E+03  0.21635143713E+03  0.10566000000E+00 0. -1.
        994    1    1    2    0    0  0.43684877085E+02 -0.42489382013E+01  0.91457051722E+01  0.17697317843E+03  0.17120000000E+03 0.  0.
        998    1    1    2    0    0 -0.11860513567E+02 -0.14697710478E+02  0.12776966791E+04  0.12778753844E+04  0.10000000000E+02 0. -1.
</event>
<event>
 5    1  0.1369527E-008  0.3838460E+03  0.7957747E-01  0.3434581E+00
         13   -1    0    0    0    0  0.00000000000E+00  0.00000000000E+00  0.14999999963E+04  0.15000000000E+04  0.10566000000E+00 0.  1.
        994   -1    0    0    0    0 -0.00000000000E+00 -0.00000000000E+00  0.11368683772E-12  0.17120000000E+03  0.17120000000E+03 0.  0.
         13    1    1    2    0    0  0.14447493173E+02 -0.21480150996E+02  0.13111173809E+03  0.13364290470E+03  0.10566000000E+00 0.  1.
        994    1    1    2    0    0 -0.16383171014E+01  0.41498543800E+02  0.79186805921E+01  0.17634329792E+03  0.17120000000E+03 0.  0.
        998    1    1    2    0    0 -0.12809176071E+02 -0.20018392804E+02  0.13609695776E+04  0.13612137974E+04  0.10000000000E+02 0.  1.
</event>
<event>
 5    1  0.1369527E-008  0.3859510E+03  0.7957747E-01  0.3425649E+00
         13   -1    0    0    0    0  0.00000000000E+00  0.00000000000E+00  0.14999999963E+04  0.15000000000E+04  0.10566000000E+00 0. -1.
        994   -1    0    0    0    0 -0.00000000000E+00 -0.00000000000E+00  0.11368683772E-12  0.17120000000E+03  0.17120000000E+03 0.  0.
         13    1    1    2    0    0 -0.46259795667E+00 -0.13019387199E+02  0.75624859455E+02  0.76738836136E+02  0.10566000000E+00 0. -1.
        994    1    1    2    0    0  0.55380134212E+01  0.58093914623E+01  0.13699355084E+01  0.17139351022E+03  0.17120000000E+03 0.  0.
        998    1    1    2    0    0 -0.50754154646E+01  0.72099957369E+01  0.14230052013E+04  0.14230676536E+04  0.10000000000E+02 0. -1.
</event>
<event>
 5    1  0.1369527E-008  0.3788206E+03  0.7957747E-01  0.3456310E+00
         13   -1    0    0    0    0  0.00000000000E+00  0.00000000000E+00  0.14999999963E+04  0.15000000000E+04  0.10566000000E+00 0. -1.
        994   -1    0    0    0    0 -0.00000000000E+00 -0.00000000000E+00  0.11368683772E-12  0.17120000000E+03  0.17120000000E+03 0.  0.
         13    1    1    2    0    0 -0.41386897476E+02 -0.19928584259E+01  0.16746351936E+03  0.17251344368E+03  0.10566000000E+00 0. -1.
        994    1    1    2    0    0  0.35886959995E+02 -0.46698612545E+01  0.91375200197E+01  0.17522161903E+03  0.17120000000E+03 0.  0.
        998    1    1    2    0    0  0.54999374804E+01  0.66627196804E+01  0.13233989569E+04  0.13234649373E+04  0.10000000000E+02 0. -1.
</event>
<event>
 5    1  0.1369527E-008  0.2943337E+03  0.7957747E-01  0.3937321E+00
         13   -1    0    0    0    0  0.00000000000E+00  0.00000000000E+00  0.14999999963E+04  0.15000000000E+04  0.10566000000E+00 0. -1.
        994   -1    0    0    0    0 -0.00000000000E+00 -0.00000000000E+00  0.11368683772E-12  0.17120000000E+03  0.17120000000E+03 0.  0.
         13    1    1    2    0    0 -0.16500460208E+02  0.15520339427E+03  0.71789817112E+03  0.73466873762E+03  0.10566000000E+00 0. -1.
        994    1    1    2    0    0 -0.18750411970E+01 -0.98674150591E+02  0.52528172872E+02  0.20447188736E+03  0.17120000000E+03 0.  0.
        998    1    1    2    0    0  0.18375501405E+02 -0.56529243678E+02  0.72957365229E+03  0.73205937502E+03  0.10000000000E+02 0. -1.
</event>
<event>
 5    1  0.1369527E-008  0.3784134E+03  0.7957747E-01  0.3458096E+00
         13   -1    0    0    0    0  0.00000000000E+00  0.00000000000E+00  0.14999999963E+04  0.15000000000E+04  0.10566000000E+00 0.  1.
        994   -1    0    0    0    0 -0.00000000000E+00 -0.00000000000E+00  0.11368683772E-12  0.17120000000E+03  0.17120000000E+03 0.  0.
         13    1    1    2    0    0 -0.40135157206E+01 -0.27498168662E+02  0.76176996902E+02  0.81087629200E+02  0.10566000000E+00 0.  1.
        994    1    1    2    0    0  0.58231929086E+01  0.17502277362E+02  0.60804329706E+01  0.17229814553E+03  0.17120000000E+03 0.  0.
        998    1    1    2    0    0 -0.18096771880E+01  0.99958913005E+01  0.14177425664E+04  0.14178142253E+04  0.10000000000E+02 0.  1.
</event>
<event>
 5    1  0.1369527E-008  0.3849672E+03  0.7957747E-01  0.3429811E+00
         13   -1    0    0    0    0  0.00000000000E+00  0.00000000000E+00  0.14999999963E+04  0.15000000000E+04  0.10566000000E+00 0. -1.
        994   -1    0    0    0    0 -0.00000000000E+00 -0.00000000000E+00  0.11368683772E-12  0.17120000000E+03  0.17120000000E+03 0.  0.
         13    1    1    2    0    0 -0.17917515673E+02  0.84117066414E+01  0.11624999504E+03  0.11792313890E+03  0.10566000000E+00 0. -1.
        994    1    1    2    0    0  0.13446614885E+02 -0.72274722812E+01  0.24133032974E+01  0.17189622404E+03  0.17120000000E+03 0.  0.
        998    1    1    2    0    0  0.44709007872E+01 -0.11842343601E+01  0.13813366979E+04  0.13813806371E+04  0.10000000000E+02 0. -1.
</event>
<event>
 5    1  0.1369527E-008  0.3843094E+03  0.7957747E-01  0.3432606E+00
         13   -1    0    0    0    0  0.00000000000E+00  0.00000000000E+00  0.14999999963E+04  0.15000000000E+04  0.10566000000E+00 0. -1.
        994   -1    0    0    0    0 -0.00000000000E+00 -0.00000000000E+00  0.11368683772E-12  0.17120000000E+03  0.17120000000E+03 0.  0.
         13    1    1    2    0    0  0.12000983666E+01  0.14743817489E+02  0.52563878123E+02  0.54605794909E+02  0.10566000000E+00 0. -1.
        994    1    1    2    0    0  0.37840758160E+01 -0.19257490246E+02  0.32439601483E+01  0.17235177237E+03  0.17120000000E+03 0.  0.
        998    1    1    2    0    0 -0.49841741826E+01  0.45136727576E+01  0.14441921580E+04  0.14442424327E+04  0.10000000000E+02 0. -1.
</event>
<event>
 5    1  0.1369527E-008  0.3839082E+03  0.7957747E-01  0.3434316E+00
         13   -1    0    0    0    0  0.00000000000E+00  0.00000000000E+00  0.14999999963E+04  0.15000000000E+04  0.10566000000E+00 0. -1.
        994   -1    0    0    0    0 -0.00000000000E+00 -0.00000000000E+00  0.11368683772E-12  0.17120000000E+03  0.17120000000E+03 0.  0.
         13    1    1    2    0    0  0.11941841653E+02  0.58794186752E+01  0.39660327206E+02  0.41834529568E+02  0.10566000000E+00 0. -1.
        994    1    1    2    0    0 -0.10496126542E+02 -0.61079642133E+01  0.26600179956E+01  0.17165078385E+03  0.17120000000E+03 0.  0.
        998    1    1    2    0    0 -0.14457151114E+01  0.22854553811E+00  0.14576796511E+04  0.14577146866E+04  0.10000000000E+02 0. -1.
</event>
<event>
 5    1  0.1369527E-008  0.3808035E+03  0.7957747E-01  0.3447667E+00
         13   -1    0    0    0    0  0.00000000000E+00  0.00000000000E+00  0.14999999963E+04  0.15000000000E+04  0.10566000000E+00 0. -1.
        994   -1    0    0    0    0 -0.00000000000E+00 -0.00000000000E+00  0.11368683772E-12  0.17120000000E+03  0.17120000000E+03 0.  0.
         13    1    1    2    0    0  0.34254669190E+02  0.47784868633E+01  0.14506814427E+03  0.14913414748E+03  0.10566000000E+00 0. -1.
        994    1    1    2    0    0 -0.34410852871E+02 -0.54945530552E+01  0.77872112677E+01  0.17488389739E+03  0.17120000000E+03 0.  0.
        998    1    1    2    0    0  0.15618368165E+00  0.71606619191E+00  0.13471446407E+04  0.13471819551E+04  0.10000000000E+02 0.  0.
</event>
<event>
 5    1  0.1369527E-008  0.3810964E+03  0.7957747E-01  0.3446398E+00
         13   -1    0    0    0    0  0.00000000000E+00  0.00000000000E+00  0.14999999963E+04  0.15000000000E+04  0.10566000000E+00 0.  1.
        994   -1    0    0    0    0 -0.00000000000E+00 -0.00000000000E+00  0.11368683772E-12  0.17120000000E+03  0.17120000000E+03 0.  0.
         13    1    1    2    0    0 -0.33690096927E+02 -0.65521669299E+02  0.16352254510E+03  0.17935368884E+03  0.10566000000E+00 0.  1.
        994    1    1    2    0    0  0.50056626851E+02  0.11488752217E+02  0.26589897587E+02  0.18070451011E+03  0.17120000000E+03 0.  0.
        998    1    1    2    0    0 -0.16366529924E+02  0.54032917082E+02  0.13098875536E+04  0.13111418011E+04  0.10000000000E+02 0.  1.
</event>
<event>
 5    1  0.1369527E-008  0.3818784E+03  0.7957747E-01  0.3443020E+00
         13   -1    0    0    0    0  0.00000000000E+00  0.00000000000E+00  0.14999999963E+04  0.15000000000E+04  0.10566000000E+00 0. -1.
        994   -1    0    0    0    0 -0.00000000000E+00 -0.00000000000E+00  0.11368683772E-12  0.17120000000E+03  0.17120000000E+03 0.  0.
         13    1    1    2    0    0 -0.11165079243E+02  0.55454214942E+01  0.22941979351E+02  0.26110462933E+02  0.10566000000E+00 0. -1.
        994    1    1    2    0    0  0.84455686392E+01 -0.86935611351E+01  0.36761644113E+01  0.17166787649E+03  0.17120000000E+03 0.  0.
        998    1    1    2    0    0  0.27195106035E+01  0.31481396408E+01  0.14733818525E+04  0.14734216606E+04  0.10000000000E+02 0. -1.
</event>
<event>
 5    1  0.1369527E-008  0.3818877E+03  0.7957747E-01  0.3442980E+00
         13   -1    0    0    0    0  0.00000000000E+00  0.00000000000E+00  0.14999999963E+04  0.15000000000E+04  0.10566000000E+00 0. -1.
        994   -1    0    0    0    0 -0.00000000000E+00 -0.00000000000E+00  0.11368683772E-12  0.17120000000E+03  0.17120000000E+03 0.  0.
         13    1    1    2    0    0  0.13713080050E+01  0.16350168315E+02  0.40092773237E+02  0.43320319937E+02  0.10566000000E+00 0. -1.
        994    1    1    2    0    0 -0.57529980970E+01 -0.17471228150E+02  0.43081152148E+01  0.17223919605E+03  0.17120000000E+03 0.  0.
        998    1    1    2    0    0  0.43816900920E+01  0.11210598349E+01  0.14555991078E+04  0.14556404840E+04  0.10000000000E+02 0. -1.
</event>
<event>
 5    1  0.1369527E-008  0.3755827E+03  0.7957747E-01  0.3470621E+00
         13   -1    0    0    0    0  0.00000000000E+00  0.00000000000E+00  0.14999999963E+04  0.15000000000E+04  0.10566000000E+00 0.  1.
        994   -1    0    0    0    0 -0.00000000000E+00 -0.00000000000E+00  0.11368683772E-12  0.17120000000E+03  0.17120000000E+03 0.  0.
         13    1    1    2    0    0  0.73331751957E+02  0.11267154772E+03  0.53623162387E+03  0.55282618346E+03  0.10566000000E+00 0.  1.
        994    1    1    2    0    0 -0.72576837460E+02 -0.74810375561E+02  0.53752794082E+02  0.20751576446E+03  0.17120000000E+03 0.  0.
        998    1    1    2    0    0 -0.75491449606E+00 -0.37861172161E+02  0.91001557832E+03  0.91085805208E+03  0.10000000000E+02 0.  1.
</event>
<event>
 5    1  0.1369527E-008  0.3841634E+03  0.7957747E-01  0.3433228E+00
         13   -1    0    0    0    0  0.00000000000E+00  0.00000000000E+00  0.14999999963E+04  0.15000000000E+04  0.10566000000E+00 0.  1.
        994   -1    0    0    0    0 -0.00000000000E+00 -0.00000000000E+00  0.11368683772E-12  0.17120000000E+03  0.17120000000E+03 0.  0.
         13    1    1    2    0    0 -0.15355099894E+02 -0.96271758626E+01  0.90355779710E+02  0.92155519091E+02  0.10566000000E+00 0.  1.
        994    1    1    2    0    0 -0.17000290239E+02  0.16619262413E+02  0.39121015724E+01  0.17288711430E+03  0.17120000000E+03 0.  0.
        998    1    1    2    0    0  0.32355390133E+02 -0.69920865508E+01  0.14057321150E+04  0.14061573666E+04  0.10000000000E+02 0.  1.
</event>
<event>
 5    1  0.1369527E-008  0.3835874E+03  0.7957747E-01  0.3435685E+00
         13   -1    0    0    0    0  0.00000000000E+00  0.00000000000E+00  0.14999999963E+04  0.15000000000E+04  0.10566000000E+00 0.  1.
        994   -1    0    0    0    0 -0.00000000000E+00 -0.00000000000E+00  0.11368683772E-12  0.17120000000E+03  0.17120000000E+03 0.  0.
         13    1    1    2    0    0  0.18859416399E+02  0.18828318550E+02  0.14258924259E+03  0.14505821740E+03  0.10566000000E+00 0.  1.
        994    1    1    2    0    0 -0.17098187184E+02 -0.16543108081E+02  0.42053440658E+01  0.17289634857E+03  0.17120000000E+03 0.  0.
        998    1    1    2    0    0 -0.17612292159E+01 -0.22852104689E+01  0.13532054096E+04  0.13532454340E+04  0.10000000000E+02 0.  1.
</event>
<event>
 5    1  0.1369527E-008  0.3732892E+03  0.7957747E-01  0.3480910E+00
         13   -1    0    0    0    0  0.00000000000E+00  0.00000000000E+00  0.14999999963E+04  0.15000000000E+04  0.10566000000E+00 0. -1.
        994   -1    0    0    0    0 -0.00000000000E+00 -0.00000000000E+00  0.11368683772E-12  0.17120000000E+03  0.17120000000E+03 0.  0.
         13    1    1    2    0    0 -0.30969814840E+02  0.46347081593E+01  0.65726291639E+02  0.72804989716E+02  0.10566000000E+00 0. -1.
        994    1    1    2    0    0  0.16592473786E+01 -0.87239395827E+01  0.78295680723E+01  0.17160886446E+03  0.17120000000E+03 0.  0.
        998    1    1    2    0    0  0.29310567461E+02  0.40892314234E+01  0.14264441366E+04  0.14267861458E+04  0.10000000000E+02 0. -1.
</event>
<event>
 5    1  0.1369527E-008  0.3803133E+03  0.7957747E-01  0.3449795E+00
         13   -1    0    0    0    0  0.00000000000E+00  0.00000000000E+00  0.14999999963E+04  0.15000000000E+04  0.10566000000E+00 0. -1.
        994   -1    0    0    0    0 -0.00000000000E+00 -0.00000000000E+00  0.11368683772E-12  0.17120000000E+03  0.17120000000E+03 0.  0.
         13    1    1    2    0    0 -0.27282906734E+02  0.29539800894E+02  0.20081795596E+03  0.20480434428E+03  0.10566000000E+00 0. -1.
        994    1    1    2    0    0  0.91625573305E+01 -0.24428177017E+02  0.62515080003E+01  0.17328938121E+03  0.17120000000E+03 0.  0.
        998    1    1    2    0    0  0.18120349404E+02 -0.51116238767E+01  0.12929305323E+04  0.12931062745E+04  0.10000000000E+02 0. -1.
</event>
<event>
 5    1  0.1369527E-008  0.3701002E+03  0.7957747E-01  0.3495431E+00
         13   -1    0    0    0    0  0.00000000000E+00  0.00000000000E+00  0.14999999963E+04  0.15000000000E+04  0.10566000000E+00 0.  1.
        994   -1    0    0    0    0 -0.00000000000E+00 -0.00000000000E+00  0.11368683772E-12  0.17120000000E+03  0.17120000000E+03 0.  0.
         13    1    1    2    0    0 -0.48655433270E+02 -0.57113370482E+02  0.25819290056E+03  0.26887334070E+03  0.10566000000E+00 0.  1.
        994    1    1    2    0    0 -0.39367881049E+01  0.57902959030E+02  0.22865861607E+02  0.18221014953E+03  0.17120000000E+03 0.  0.
        998    1    1    2    0    0  0.52592221375E+02 -0.78958854801E+00  0.12189412341E+04  0.12201165098E+04  0.10000000000E+02 0.  1.
</event>
<event>
 5    1  0.1369527E-008  0.3787162E+03  0.7957747E-01  0.3456767E+00
         13   -1    0    0    0    0  0.00000000000E+00  0.00000000000E+00  0.14999999963E+04  0.15000000000E+04  0.10566000000E+00 0. -1.
        994   -1    0    0    0    0 -0.00000000000E+00 -0.00000000000E+00  0.11368683772E-12  0.17120000000E+03  0.17120000000E+03 0.  0.
         13    1    1    2    0    0  0.98575076060E+02  0.75321925915E+02  0.34843162440E+03  0.36985814334E+03  0.10566000000E+00 0. -1.
        994    1    1    2    0    0 -0.93067283469E+02 -0.93335489789E+02  0.81284450707E+02  0.23084547826E+03  0.17120000000E+03 0.  0.
        998    1    1    2    0    0 -0.55077925906E+01  0.18013563874E+02  0.10702839212E+04  0.10704963784E+04  0.10000000000E+02 0. -1.
</event>
<event>
 5    1  0.1369527E-008  0.3849206E+03  0.7957747E-01  0.3430009E+00
         13   -1    0    0    0    0  0.00000000000E+00  0.00000000000E+00  0.14999999963E+04  0.15000000000E+04  0.10566000000E+00 0.  1.
        994   -1    0    0    0    0 -0.00000000000E+00 -0.00000000000E+00  0.11368683772E-12  0.17120000000E+03  0.17120000000E+03 0.  0.
         13    1    1    2    0    0  0.14005197474E+02 -0.14646424826E+01  0.56225096783E+02  0.57961740883E+02  0.10566000000E+00 0.  1.
        994    1    1    2    0    0 -0.18643605288E+02  0.92353783528E+00  0.28165614031E+01  0.17223765546E+03  0.17120000000E+03 0.  0.
        998    1    1    2    0    0  0.46384078133E+01  0.54110464731E+00  0.14409583381E+04  0.14410006037E+04  0.10000000000E+02 0.  1.
</event>
<event>
 5    1  0.1369527E-008  0.3930313E+03  0.7957747E-01  0.3396309E+00
         13   -1    0    0    0    0  0.00000000000E+00  0.00000000000E+00  0.14999999963E+04  0.15000000000E+04  0.10566000000E+00 0.  1.
        994   -1    0    0    0    0 -0.00000000000E+00 -0.00000000000E+00  0.11368683772E-12  0.17120000000E+03  0.17120000000E+03 0.  0.
         13    1    1    2    0    0 -0.35388115184E+02  0.22724122053E+02  0.26739210365E+02  0.49836743015E+02  0.10566000000E+00 0.  1.
        994    1    1    2    0    0  0.53592391281E+02 -0.15086514310E+02  0.35574625323E+02  0.18350678811E+03  0.17120000000E+03 0.  0.
        998    1    1    2    0    0 -0.18204276097E+02 -0.76376077435E+01  0.14376861606E+04  0.14378564689E+04  0.10000000000E+02 0.  1.
</event>
<event>
 5    1  0.1369527E-008  0.3711234E+03  0.7957747E-01  0.3490744E+00
         13   -1    0    0    0    0  0.00000000000E+00  0.00000000000E+00  0.14999999963E+04  0.15000000000E+04  0.10566000000E+00 0. -1.
        994   -1    0    0    0    0 -0.00000000000E+00 -0.00000000000E+00  0.11368683772E-12  0.17120000000E+03  0.17120000000E+03 0.  0.
         13    1    1    2    0    0 -0.16732433616E+02 -0.46058963954E+02  0.12932764480E+03  0.13830059063E+03  0.10566000000E+00 0. -1.
        994    1    1    2    0    0  0.22984745116E+02  0.34551328457E+02  0.14637868268E+02  0.17676481549E+03  0.17120000000E+03 0.  0.
        998    1    1    2    0    0 -0.62523115002E+01  0.11507635497E+02  0.13560344832E+04  0.13561345939E+04  0.10000000000E+02 0. -1.
</event>
<event>
 5    1  0.1369527E-008  0.3736145E+03  0.7957747E-01  0.3479442E+00
         13   -1    0    0    0    0  0.00000000000E+00  0.00000000000E+00  0.14999999963E+04  0.15000000000E+04  0.10566000000E+00 0. -1.
        994   -1    0    0    0    0 -0.00000000000E+00 -0.00000000000E+00  0.11368683772E-12  0.17120000000E+03  0.17120000000E+03 0.  0.
         13    1    1    2    0    0  0.43101964311E+01  0.33576850320E+02  0.39375921324E+02  0.51927420645E+02  0.10566000000E+00 0. -1.
        994    1    1    2    0    0 -0.27278460273E+02 -0.21503960925E+02  0.17147098558E+02  0.17552776908E+03  0.17120000000E+03 0.  0.
        998    1    1    2    0    0  0.22968263842E+02 -0.12072889395E+02  0.14434769764E+04  0.14437448103E+04  0.10000000000E+02 0. -1.
</event>
<event>
 5    1  0.1369527E-008  0.3812920E+03  0.7957747E-01  0.3445552E+00
         13   -1    0    0    0    0  0.00000000000E+00  0.00000000000E+00  0.14999999963E+04  0.15000000000E+04  0.10566000000E+00 0. -1.
        994   -1    0    0    0    0 -0.00000000000E+00 -0.00000000000E+00  0.11368683772E-12  0.17120000000E+03  0.17120000000E+03 0.  0.
         13    1    1    2    0    0  0.18909355749E+02  0.93606075512E+00  0.58944363125E+02  0.61910330744E+02  0.10566000000E+00 0. -1.
        994    1    1    2    0    0  0.23848048633E+02  0.50659000881E+01  0.54634468955E+01  0.17301353132E+03  0.17120000000E+03 0.  0.
        998    1    1    2    0    0 -0.42757404382E+02 -0.60019608432E+01  0.14355921863E+04  0.14362761379E+04  0.10000000000E+02 0. -1.
</event>
<event>
 5    1  0.1369527E-008  0.3808419E+03  0.7957747E-01  0.3447501E+00
         13   -1    0    0    0    0  0.00000000000E+00  0.00000000000E+00  0.14999999963E+04  0.15000000000E+04  0.10566000000E+00 0.  1.
        994   -1    0    0    0    0 -0.00000000000E+00 -0.00000000000E+00  0.11368683772E-12  0.17120000000E+03  0.17120000000E+03 0.  0.
         13    1    1    2    0    0 -0.48012286555E+02  0.37592039751E+01  0.27321389974E+03  0.27742594949E+03  0.10566000000E+00 0.  1.
        994    1    1    2    0    0  0.41395930567E+02 -0.82366083132E+01  0.96704609723E+01  0.17659111699E+03  0.17120000000E+03 0.  0.
        998    1    1    2    0    0  0.66163559880E+01  0.44774043381E+01  0.12171156356E+04  0.12171829335E+04  0.10000000000E+02 0.  1.
</event>
<event>
 5    1  0.1369527E-008  0.3895869E+03  0.7957747E-01  0.3410449E+00
         13   -1    0    0    0    0  0.00000000000E+00  0.00000000000E+00  0.14999999963E+04  0.15000000000E+04  0.10566000000E+00 0.  1.
        994   -1    0    0    0    0 -0.00000000000E+00 -0.00000000000E+00  0.11368683772E-12  0.17120000000E+03  0.17120000000E+03 0.  0.
         13    1    1    2    0    0 -0.54561949366E+02  0.11191064795E+03  0.26504067022E+03  0.29282685580E+03  0.10566000000E+00 0.  1.
        994    1    1    2    0    0  0.64243364107E+02 -0.12045533390E+03  0.95648272622E+02  0.23894503417E+03  0.17120000000E+03 0.  0.
        998    1    1    2    0    0 -0.96814147407E+01  0.85446859485E+01  0.11393110534E+04  0.11394281100E+04  0.10000000000E+02 0.  1.
</event>
<event>
 5    1  0.1369527E-008  0.3851788E+03  0.7957747E-01  0.3428914E+00
         13   -1    0    0    0    0  0.00000000000E+00  0.00000000000E+00  0.14999999963E+04  0.15000000000E+04  0.10566000000E+00 0. -1.
        994   -1    0    0    0    0 -0.00000000000E+00 -0.00000000000E+00  0.11368683772E-12  0.17120000000E+03  0.17120000000E+03 0.  0.
         13    1    1    2    0    0 -0.10109553239E+02 -0.92801802179E+01  0.63068380833E+02  0.64544222333E+02  0.10566000000E+00 0. -1.
        994    1    1    2    0    0  0.22106540849E+01  0.41001726197E+01  0.16127063723E+01  0.17127095267E+03  0.17120000000E+03 0.  0.
        998    1    1    2    0    0  0.78988991544E+01  0.51800075982E+01  0.14353189091E+04  0.14353848250E+04  0.10000000000E+02 0. -1.
</event>
<event>
 5    1  0.1369527E-008  0.3686364E+03  0.7957747E-01  0.3502181E+00
         13   -1    0    0    0    0  0.00000000000E+00  0.00000000000E+00  0.14999999963E+04  0.15000000000E+04  0.10566000000E+00 0.  1.
        994   -1    0    0    0    0 -0.00000000000E+00 -0.00000000000E+00  0.11368683772E-12  0.17120000000E+03  0.17120000000E+03 0.  0.
         13    1    1    2    0    0  0.21900635002E+02  0.46187729919E+02  0.11068451828E+03  0.12191807889E+03  0.10566000000E+00 0.  1.
        994    1    1    2    0    0 -0.20843517144E+02 -0.59217877845E+02  0.24060955776E+02  0.18392818940E+03  0.17120000000E+03 0.  0.
        998    1    1    2    0    0 -0.10571178581E+01  0.13030147927E+02  0.13652545222E+04  0.13653537317E+04  0.10000000000E+02 0.  1.
</event>
<event>
 5    1  0.1369527E-008  0.3769538E+03  0.7957747E-01  0.3464531E+00
         13   -1    0    0    0    0  0.00000000000E+00  0.00000000000E+00  0.14999999963E+04  0.15000000000E+04  0.10566000000E+00 0. -1.
        994   -1    0    0    0    0 -0.00000000000E+00 -0.00000000000E+00  0.11368683772E-12  0.17120000000E+03  0.17120000000E+03 0.  0.
         13    1    1    2    0    0 -0.50820769580E+02 -0.22824049971E+02  0.29865865028E+03  0.30381028361E+03  0.10566000000E+00 0. -1.
        994    1    1    2    0    0  0.15781330762E+02  0.14073685097E+02  0.71901695545E+01  0.17265068071E+03  0.17120000000E+03 0.  0.
        998    1    1    2    0    0  0.35039438817E+02  0.87503648745E+01  0.11941511764E+04  0.11947390357E+04  0.10000000000E+02 0. -1.
</event>
<event>
 5    1  0.1369527E-008  0.3882325E+03  0.7957747E-01  0.3416077E+00
         13   -1    0    0    0    0  0.00000000000E+00  0.00000000000E+00  0.14999999963E+04  0.15000000000E+04  0.10566000000E+00 0. -1.
        994   -1    0    0    0    0 -0.00000000000E+00 -0.00000000000E+00  0.11368683772E-12  0.17120000000E+03  0.17120000000E+03 0.  0.
         13    1    1    2    0    0 -0.33128427066E+01  0.56787672184E+02  0.68273437174E+02  0.88865561532E+02  0.10566000000E+00 0. -1.
        994    1    1    2    0    0  0.80519941666E+01 -0.50289908237E+02  0.30682064364E+02  0.18123117434E+03  0.17120000000E+03 0.  0.
        998    1    1    2    0    0 -0.47391514600E+01 -0.64977639476E+01  0.14010444947E+04  0.14011032641E+04  0.10000000000E+02 0. -1.
</event>
<event>
 5    1  0.1369527E-008  0.3833640E+03  0.7957747E-01  0.3436641E+00
         13   -1    0    0    0    0  0.00000000000E+00  0.00000000000E+00  0.14999999963E+04  0.15000000000E+04  0.10566000000E+00 0.  1.
        994   -1    0    0    0    0 -0.00000000000E+00 -0.00000000000E+00  0.11368683772E-12  0.17120000000E+03  0.17120000000E+03 0.  0.
         13    1    1    2    0    0  0.59701575673E+01 -0.21568145112E+02  0.11456048555E+03  0.11672593404E+03  0.10566000000E+00 0.  1.
        994    1    1    2    0    0  0.51362508467E+00 -0.26990532845E+01  0.24695359575E+01  0.17123985315E+03  0.17120000000E+03 0.  0.
        998    1    1    2    0    0 -0.64837826519E+01  0.24267198396E+02  0.13829699748E+04  0.13832342128E+04  0.10000000000E+02 0.  1.
</event>
<event>
 5    1  0.1369527E-008  0.3862001E+03  0.7957747E-01  0.3424598E+00
         13   -1    0    0    0    0  0.00000000000E+00  0.00000000000E+00  0.14999999963E+04  0.15000000000E+04  0.10566000000E+00 0. -1.
        994   -1    0    0    0    0 -0.00000000000E+00 -0.00000000000E+00  0.11368683772E-12  0.17120000000E+03  0.17120000000E+03 0.  0.
         13    1    1    2    0    0  0.96482850228E+01 -0.37489049275E+01  0.47997707468E+02  0.49101270638E+02  0.10566000000E+00 0. -1.
        994    1    1    2    0    0 -0.17660525537E+02  0.11253814417E+02  0.24733919228E+01  0.17249376849E+03  0.17120000000E+03 0.  0.
        998    1    1    2    0    0  0.80122405142E+01 -0.75049094895E+01  0.14495288969E+04  0.14496049609E+04  0.10000000000E+02 0. -1.
</event>
<event>
 5    1  0.1369527E-008  0.3753615E+03  0.7957747E-01  0.3471608E+00
         13   -1    0    0    0    0  0.00000000000E+00  0.00000000000E+00  0.14999999963E+04  0.15000000000E+04  0.10566000000E+00 0.  1.
        994   -1    0    0    0    0 -0.00000000000E+00 -0.00000000000E+00  0.11368683772E-12  0.17120000000E+03  0.17120000000E+03 0.  0.
         13    1    1    2    0    0 -0.24875991079E+02  0.22286519759E+02  0.79308799986E+02  0.86054638541E+02  0.10566000000E+00 0.  1.
        994    1    1    2    0    0  0.25950656097E+02 -0.22514482525E+02  0.10511018729E+02  0.17492929998E+03  0.17120000000E+03 0.  0.
        998    1    1    2    0    0 -0.10746650180E+01  0.22796276637E+00  0.14101801776E+04  0.14102160615E+04  0.10000000000E+02 0.  1.
</event>
<event>
 5    1  0.1369527E-008  0.3826172E+03  0.7957747E-01  0.3439841E+00
         13   -1    0    0    0    0  0.00000000000E+00  0.00000000000E+00  0.14999999963E+04  0.15000000000E+04  0.10566000000E+00 0.  1.
        994   -1    0    0    0    0 -0.00000000000E+00 -0.00000000000E+00  0.11368683772E-12  0.17120000000E+03  0.17120000000E+03 0.  0.
         13    1    1    2    0    0 -0.12407475648E+02  0.12238513186E+02  0.51382285242E+02  0.54257506925E+02  0.10566000000E+00 0.  1.
        994    1    1    2    0    0  0.12802003345E+02 -0.13284323702E+02  0.39466693622E+01  0.17223640946E+03  0.17120000000E+03 0.  0.
        998    1    1    2    0    0 -0.39452769707E+00  0.10458105160E+01  0.14446710417E+04  0.14447060836E+04  0.10000000000E+02 0.  1.
</event>
<event>
 5    1  0.1369527E-008  0.3858836E+03  0.7957747E-01  0.3425933E+00
         13   -1    0    0    0    0  0.00000000000E+00  0.00000000000E+00  0.14999999963E+04  0.15000000000E+04  0.10566000000E+00 0. -1.
        994   -1    0    0    0    0 -0.00000000000E+00 -0.00000000000E+00  0.11368683772E-12  0.17120000000E+03  0.17120000000E+03 0.  0.
         13    1    1    2    0    0  0.10656207519E+02 -0.72050806103E+01  0.67477696322E+02  0.68692929842E+02  0.10566000000E+00 0. -1.
        994    1    1    2    0    0 -0.42719089104E+01  0.18478736535E+02  0.23725714111E+01  0.17226369903E+03  0.17120000000E+03 0.  0.
        998    1    1    2    0    0 -0.63842986090E+01 -0.11273655924E+02  0.14301497285E+04  0.14302433711E+04  0.10000000000E+02 0. -1.
</event>
<event>
 5    1  0.1369527E-008  0.3817319E+03  0.7957747E-01  0.3443652E+00
         13   -1    0    0    0    0  0.00000000000E+00  0.00000000000E+00  0.14999999963E+04  0.15000000000E+04  0.10566000000E+00 0.  1.
        994   -1    0    0    0    0 -0.00000000000E+00 -0.00000000000E+00  0.11368683772E-12  0.17120000000E+03  0.17120000000E+03 0.  0.
         13    1    1    2    0    0  0.91895785135E+01 -0.77689019625E+01  0.21398501092E+02  0.24550177270E+02  0.10566000000E+00 0.  1.
        994    1    1    2    0    0  0.24588183408E+01  0.37149278366E+01  0.33273926097E+01  0.17129027415E+03  0.17120000000E+03 0.  0.
        998    1    1    2    0    0 -0.11648396854E+02  0.40539741259E+01  0.14752741026E+04  0.14753595486E+04  0.10000000000E+02 0.  1.
</event>
<event>
 5    1  0.1369527E-008  0.3812219E+03  0.7957747E-01  0.3445855E+00
         13   -1    0    0    0    0  0.00000000000E+00  0.00000000000E+00  0.14999999963E+04  0.15000000000E+04  0.10566000000E+00 0. -1.
        994   -1    0    0    0    0 -0.00000000000E+00 -0.00000000000E+00  0.11368683772E-12  0.17120000000E+03  0.17120000000E+03 0.  0.
         13    1    1    2    0    0  0.14521246087E+02 -0.31379857671E+02  0.20315295264E+03  0.20607448990E+03  0.10566000000E+00 0. -1.
        994    1    1    2    0    0  0.24651259121E+01 -0.12842499387E+01  0.35433325950E+01  0.17125922267E+03  0.17120000000E+03 0.  0.
        998    1    1    2    0    0 -0.16986371999E+02  0.32664107610E+02  0.12933037110E+04  0.12938662874E+04  0.10000000000E+02 0. -1.
</event>
<event>
 5    1  0.1369527E-008  0.3716601E+03  0.7957747E-01  0.3488296E+00
         13   -1    0    0    0    0  0.00000000000E+00  0.00000000000E+00  0.14999999963E+04  0.15000000000E+04  0.10566000000E+00 0. -1.
        994   -1    0    0    0    0 -0.00000000000E+00 -0.00000000000E+00  0.11368683772E-12  0.17120000000E+03  0.17120000000E+03 0.  0.
         13    1    1    2    0    0  0.52446981724E+01  0.12550262245E+03  0.43813189442E+03  0.45578282457E+03  0.10566000000E+00 0. -1.
        994    1    1    2    0    0 -0.19293316691E+02 -0.12894484039E+03  0.74251238242E+02  0.22764377943E+03  0.17120000000E+03 0.  0.
        998    1    1    2    0    0  0.14048618518E+02  0.34422179375E+01  0.98761686362E+03  0.98777339600E+03  0.10000000000E+02 0. -1.
</event>
<event>
 5    1  0.1369527E-008  0.3830265E+03  0.7957747E-01  0.3438086E+00
         13   -1    0    0    0    0  0.00000000000E+00  0.00000000000E+00  0.14999999963E+04  0.15000000000E+04  0.10566000000E+00 0. -1.
        994   -1    0    0    0    0 -0.00000000000E+00 -0.00000000000E+00  0.11368683772E-12  0.17120000000E+03  0.17120000000E+03 0.  0.
         13    1    1    2    0    0  0.41084638501E+01  0.13426880973E+02  0.36909374367E+02  0.39490172044E+02  0.10566000000E+00 0. -1.
        994    1    1    2    0    0  0.22919014243E+01 -0.10459287914E+02  0.29926994932E+01  0.17156061834E+03  0.17120000000E+03 0.  0.
        998    1    1    2    0    0 -0.64003652743E+01 -0.29675930588E+01  0.14600979224E+04  0.14601492096E+04  0.10000000000E+02 0. -1.
</event>
<event>
 5    1  0.1369527E-008  0.3803332E+03  0.7957747E-01  0.3449709E+00
         13   -1    0    0    0    0  0.00000000000E+00  0.00000000000E+00  0.14999999963E+04  0.15000000000E+04  0.10566000000E+00 0. -1.
        994   -1    0    0    0    0 -0.00000000000E+00 -0.00000000000E+00  0.11368683772E-12  0.17120000000E+03  0.17120000000E+03 0.  0.
         13    1    1    2    0    0  0.12261221878E+02 -0.59547878376E+01  0.22791837188E+02  0.26557034221E+02  0.10566000000E+00 0. -1.
        994    1    1    2    0    0  0.57951560564E+01 -0.21839912867E+01  0.40931384284E+01  0.17136086903E+03  0.17120000000E+03 0.  0.
        998    1    1    2    0    0 -0.18056377935E+02  0.81387791243E+01  0.14731150207E+04  0.14732820968E+04  0.10000000000E+02 0. -1.
</event>
<event>
 5    1  0.1369527E-008  0.3768674E+03  0.7957747E-01  0.3464913E+00
         13   -1    0    0    0    0  0.00000000000E+00  0.00000000000E+00  0.14999999963E+04  0.15000000000E+04  0.10566000000E+00 0.  1.
        994   -1    0    0    0    0 -0.00000000000E+00 -0.00000000000E+00  0.11368683772E-12  0.17120000000E+03  0.17120000000E+03 0.  0.
         13    1    1    2    0    0  0.32139756833E+02  0.41805900042E+02  0.28958099129E+03  0.29434309730E+03  0.10566000000E+00 0.  1.
        994    1    1    2    0    0  0.47718358268E+01 -0.13609038149E+02  0.64257101615E+01  0.17192645546E+03  0.17120000000E+03 0.  0.
        998    1    1    2    0    0 -0.36911592660E+02 -0.28196861893E+02  0.12039932948E+04  0.12049304472E+04  0.10000000000E+02 0.  1.
</event>
<event>
 5    1  0.1369527E-008  0.3859215E+03  0.7957747E-01  0.3425773E+00
         13   -1    0    0    0    0  0.00000000000E+00  0.00000000000E+00  0.14999999963E+04  0.15000000000E+04  0.10566000000E+00 0.  1.
        994   -1    0    0    0    0 -0.00000000000E+00 -0.00000000000E+00  0.11368683772E-12  0.17120000000E+03  0.17120000000E+03 0.  0.
         13    1    1    2    0    0  0.76905680968E+00 -0.11587460725E+02  0.57305550842E+02  0.58470488418E+02  0.10566000000E+00 0.  1.
        994    1    1    2    0    0 -0.40844397990E+01  0.94646544050E+01  0.15218204495E+01  0.17151681629E+03  0.17120000000E+03 0.  0.
        998    1    1    2    0    0  0.33153829893E+01  0.21228063202E+01  0.14411726250E+04  0.14412126953E+04  0.10000000000E+02 0.  1.
</event>
<event>
 5    1  0.1369527E-008  0.3854520E+03  0.7957747E-01  0.3427757E+00
         13   -1    0    0    0    0  0.00000000000E+00  0.00000000000E+00  0.14999999963E+04  0.15000000000E+04  0.10566000000E+00 0.  1.
        994   -1    0    0    0    0 -0.00000000000E+00 -0.00000000000E+00  0.11368683772E-12  0.17120000000E+03  0.17120000000E+03 0.  0.
         13    1    1    2    0    0  0.12883692377E+02  0.92045231411E+01  0.94892789572E+02  0.96204809923E+02  0.10566000000E+00 0.  1.
        994    1    1    2    0    0 -0.30915100136E+01 -0.13216215873E+01  0.14430169287E+01  0.17123909138E+03  0.17120000000E+03 0.  0.
        998    1    1    2    0    0 -0.97921823635E+01 -0.78829015538E+01  0.14036641898E+04  0.14037560987E+04  0.10000000000E+02 0.  1.
</event>
<event>
 5    1  0.1369527E-008  0.3825732E+03  0.7957747E-01  0.3440030E+00
         13   -1    0    0    0    0  0.00000000000E+00  0.00000000000E+00  0.14999999963E+04  0.15000000000E+04  0.10566000000E+00 0.  1.
        994   -1    0    0    0    0 -0.00000000000E+00 -0.00000000000E+00  0.11368683772E-12  0.17120000000E+03  0.17120000000E+03 0.  0.
         13    1    1    2    0    0  0.11942195701E+02 -0.70270347843E+01  0.32968871101E+02  0.35762450723E+02  0.10566000000E+00 0.  1.
        994    1    1    2    0    0  0.24880551864E+01  0.20455552257E+02  0.42485627312E+01  0.17248800052E+03  0.17120000000E+03 0.  0.
        998    1    1    2    0    0 -0.14430250887E+02 -0.13428517472E+02  0.14627825624E+04  0.14629495488E+04  0.10000000000E+02 0.  1.
</event>
<event>
 5    1  0.1369527E-008  0.3816166E+03  0.7957747E-01  0.3444149E+00
         13   -1    0    0    0    0  0.00000000000E+00  0.00000000000E+00  0.14999999963E+04  0.15000000000E+04  0.10566000000E+00 0. -1.
        994   -1    0    0    0    0 -0.00000000000E+00 -0.00000000000E+00  0.11368683772E-12  0.17120000000E+03  0.17120000000E+03 0.  0.
         13    1    1    2    0    0 -0.14920231729E+02  0.80968325752E+01  0.41773112568E+02  0.45090754155E+02  0.10566000000E+00 0. -1.
        994    1    1    2    0    0  0.11143089916E+02 -0.90266308520E+01  0.40034208578E+01  0.17184619838E+03  0.17120000000E+03 0.  0.
        998    1    1    2    0    0  0.37771418135E+01  0.92979827687E+00  0.14542234629E+04  0.14542630475E+04  0.10000000000E+02 0. -1.
</event>
<event>
 5    1  0.1369527E-008  0.3707091E+03  0.7957747E-01  0.3492638E+00
         13   -1    0    0    0    0  0.00000000000E+00  0.00000000000E+00  0.14999999963E+04  0.15000000000E+04  0.10566000000E+00 0. -1.
        994   -1    0    0    0    0 -0.00000000000E+00 -0.00000000000E+00  0.11368683772E-12  0.17120000000E+03  0.17120000000E+03 0.  0.
         13    1    1    2    0    0 -0.24269464560E+02 -0.79913235162E+01  0.32237488661E+02  0.41135568560E+02  0.10566000000E+00 0. -1.
        994    1    1    2    0    0  0.26055958617E+02  0.84923640636E+01  0.11493710030E+02  0.17376011797E+03  0.17120000000E+03 0.  0.
        998    1    1    2    0    0 -0.17864940572E+01 -0.50104054738E+00  0.14562687976E+04  0.14563043135E+04  0.10000000000E+02 0. -1.
</event>
<event>
 5    1  0.1369527E-008  0.3825526E+03  0.7957747E-01  0.3440119E+00
         13   -1    0    0    0    0  0.00000000000E+00  0.00000000000E+00  0.14999999963E+04  0.15000000000E+04  0.10566000000E+00 0.  1.
        994   -1    0    0    0    0 -0.00000000000E+00 -0.00000000000E+00  0.11368683772E-12  0.17120000000E+03  0.17120000000E+03 0.  0.
         13    1    1    2    0    0 -0.25915347666E+01  0.26650408140E+02  0.13037770910E+03  0.13309890495E+03  0.10566000000E+00 0.  1.
        994    1    1    2    0    0  0.14454141105E+01 -0.99273912593E+01  0.31838203806E+01  0.17152323175E+03  0.17120000000E+03 0.  0.
        998    1    1    2    0    0  0.11461206561E+01 -0.16723016881E+02  0.13664384668E+04  0.13665778633E+04  0.10000000000E+02 0.  1.
</event>
<event>
 5    1  0.1369527E-008  0.3839058E+03  0.7957747E-01  0.3434326E+00
         13   -1    0    0    0    0  0.00000000000E+00  0.00000000000E+00  0.14999999963E+04  0.15000000000E+04  0.10566000000E+00 0.  1.
        994   -1    0    0    0    0 -0.00000000000E+00 -0.00000000000E+00  0.11368683772E-12  0.17120000000E+03  0.17120000000E+03 0.  0.
         13    1    1    2    0    0  0.12346125835E+02  0.90241753518E+01  0.41462531485E+02  0.44192932072E+02  0.10566000000E+00 0.  1.
        994    1    1    2    0    0 -0.57994449246E+02 -0.34107203615E+02  0.17259797059E+02  0.18475388515E+03  0.17120000000E+03 0.  0.
        998    1    1    2    0    0  0.45648323411E+02  0.25083028263E+02  0.14412776677E+04  0.14422531828E+04  0.10000000000E+02 0.  1.
</event>
<event>
 5    1  0.1369527E-008  0.3848735E+03  0.7957747E-01  0.3430209E+00
         13   -1    0    0    0    0  0.00000000000E+00  0.00000000000E+00  0.14999999963E+04  0.15000000000E+04  0.10566000000E+00 0.  1.
        994   -1    0    0    0    0 -0.00000000000E+00 -0.00000000000E+00  0.11368683772E-12  0.17120000000E+03  0.17120000000E+03 0.  0.
         13    1    1    2    0    0 -0.92297197007E+01 -0.82852202614E+01  0.47850946170E+02  0.49432345826E+02  0.10566000000E+00 0.  1.
        994    1    1    2    0    0 -0.29460110223E+01  0.54710596953E+00  0.17224948345E+01  0.17123488340E+03  0.17120000000E+03 0.  0.
        998    1    1    2    0    0  0.12175730723E+02  0.77381142918E+01  0.14504265553E+04  0.14505327708E+04  0.10000000000E+02 0.  1.
</event>
<event>
 5    1  0.1369527E-008  0.3786305E+03  0.7957747E-01  0.3457144E+00
         13   -1    0    0    0    0  0.00000000000E+00  0.00000000000E+00  0.14999999963E+04  0.15000000000E+04  0.10566000000E+00 0.  1.
        994   -1    0    0    0    0 -0.00000000000E+00 -0.00000000000E+00  0.11368683772E-12  0.17120000000E+03  0.17120000000E+03 0.  0.
         13    1    1    2    0    0  0.51750517473E+01 -0.23438117388E+02  0.55389453351E+02  0.60366623343E+02  0.10566000000E+00 0.  1.
        994    1    1    2    0    0 -0.59512684783E+01  0.26696840613E+02  0.73424869410E+01  0.17352662911E+03  0.17120000000E+03 0.  0.
        998    1    1    2    0    0  0.77621673098E+00 -0.32587232251E+01  0.14372680560E+04  0.14373067475E+04  0.10000000000E+02 0.  1.
</event>
<event>
 5    1  0.1369527E-008  0.3818333E+03  0.7957747E-01  0.3443214E+00
         13   -1    0    0    0    0  0.00000000000E+00  0.00000000000E+00  0.14999999963E+04  0.15000000000E+04  0.10566000000E+00 0.  1.
        994   -1    0    0    0    0 -0.00000000000E+00 -0.00000000000E+00  0.11368683772E-12  0.17120000000E+03  0.17120000000E+03 0.  0.
         13    1    1    2    0    0  0.86469944334E+01  0.26708800135E+02  0.11563504403E+03  0.11899413888E+03  0.10566000000E+00 0.  1.
        994    1    1    2    0    0 -0.10546299874E+02 -0.23161690994E+02  0.53656448702E+01  0.17316442624E+03  0.17120000000E+03 0.  0.
        998    1    1    2    0    0  0.18993054406E+01 -0.35471091409E+01  0.13789993074E+04  0.13790414349E+04  0.10000000000E+02 0.  1.
</event>
<event>
 5    1  0.1369527E-008  0.3835370E+03  0.7957747E-01  0.3435901E+00
         13   -1    0    0    0    0  0.00000000000E+00  0.00000000000E+00  0.14999999963E+04  0.15000000000E+04  0.10566000000E+00 0.  1.
        994   -1    0    0    0    0 -0.00000000000E+00 -0.00000000000E+00  0.11368683772E-12  0.17120000000E+03  0.17120000000E+03 0.  0.
         13    1    1    2    0    0  0.26039076795E+01 -0.20447891663E+02  0.97546709495E+02  0.99700894208E+02  0.10566000000E+00 0.  1.
        994    1    1    2    0    0  0.30557447656E+01  0.37395994242E+00  0.23895789924E+01  0.17124435030E+03  0.17120000000E+03 0.  0.
        998    1    1    2    0    0 -0.56596524451E+01  0.20073931720E+02  0.14000637078E+04  0.14002547555E+04  0.10000000000E+02 0.  1.
</event>
<event>
 5    1  0.1369527E-008  0.3816448E+03  0.7957747E-01  0.3444028E+00
         13   -1    0    0    0    0  0.00000000000E+00  0.00000000000E+00  0.14999999963E+04  0.15000000000E+04  0.10566000000E+00 0. -1.
        994   -1    0    0    0    0 -0.00000000000E+00 -0.00000000000E+00  0.11368683772E-12  0.17120000000E+03  0.17120000000E+03 0.  0.
         13    1    1    2    0    0  0.10930928428E+02  0.71616142651E+01  0.23870998378E+02  0.27214144168E+02  0.10566000000E+00 0. -1.
        994    1    1    2    0    0 -0.14668305600E+02 -0.10803293390E+02  0.44093398556E+01  0.17222297354E+03  0.17120000000E+03 0.  0.
        998    1    1    2    0    0  0.37373771716E+01  0.36416791245E+01  0.14717196580E+04  0.14717628823E+04  0.10000000000E+02 0. -1.
</event>
<event>
 5    1  0.1369527E-008  0.3693264E+03  0.7957747E-01  0.3498993E+00
         13   -1    0    0    0    0  0.00000000000E+00  0.00000000000E+00  0.14999999963E+04  0.15000000000E+04  0.10566000000E+00 0.  1.
        994   -1    0    0    0    0 -0.00000000000E+00 -0.00000000000E+00  0.11368683772E-12  0.17120000000E+03  0.17120000000E+03 0.  0.
         13    1    1    2    0    0 -0.16237887316E+02  0.54171180140E+02  0.14410438043E+03  0.15480397076E+03  0.10566000000E+00 0.  1.
        994    1    1    2    0    0  0.26219215757E+01 -0.64533679409E+02  0.24221078392E+02  0.18457402550E+03  0.17120000000E+03 0.  0.
        998    1    1    2    0    0  0.13615965740E+02  0.10362499269E+02  0.13316745375E+04  0.13318220037E+04  0.10000000000E+02 0.  1.
</event>
<event>
 5    1  0.1369527E-008  0.3766968E+03  0.7957747E-01  0.3465669E+00
         13   -1    0    0    0    0  0.00000000000E+00  0.00000000000E+00  0.14999999963E+04  0.15000000000E+04  0.10566000000E+00 0.  1.
        994   -1    0    0    0    0 -0.00000000000E+00 -0.00000000000E+00  0.11368683772E-12  0.17120000000E+03  0.17120000000E+03 0.  0.
         13    1    1    2    0    0  0.46532137082E+02 -0.18875093816E+02  0.25649070360E+03  0.26135990730E+03  0.10566000000E+00 0.  1.
        994    1    1    2    0    0 -0.10374740137E+02 -0.10520811084E+02  0.65481903729E+01  0.17196116275E+03  0.17120000000E+03 0.  0.
        998    1    1    2    0    0 -0.36157396945E+02  0.29395904900E+02  0.12369611023E+04  0.12378789299E+04  0.10000000000E+02 0.  1.
</event>
<event>
 5    1  0.1369527E-008  0.3860036E+03  0.7957747E-01  0.3425427E+00
         13   -1    0    0    0    0  0.00000000000E+00  0.00000000000E+00  0.14999999963E+04  0.15000000000E+04  0.10566000000E+00 0. -1.
        994   -1    0    0    0    0 -0.00000000000E+00 -0.00000000000E+00  0.11368683772E-12  0.17120000000E+03  0.17120000000E+03 0.  0.
         13    1    1    2    0    0 -0.10472836032E+02 -0.49870347243E+01  0.62213488582E+02  0.63285702457E+02  0.10566000000E+00 0. -1.
        994    1    1    2    0    0  0.75806599392E+01 -0.82987789729E+01  0.15469308676E+01  0.17157554934E+03  0.17120000000E+03 0.  0.
        998    1    1    2    0    0  0.28921760927E+01  0.13285813697E+02  0.14362395768E+04  0.14363387482E+04  0.10000000000E+02 0. -1.
</event>
<event>
 5    1  0.1369527E-008  0.3780300E+03  0.7957747E-01  0.3459781E+00
         13   -1    0    0    0    0  0.00000000000E+00  0.00000000000E+00  0.14999999963E+04  0.15000000000E+04  0.10566000000E+00 0.  1.
        994   -1    0    0    0    0 -0.00000000000E+00 -0.00000000000E+00  0.11368683772E-12  0.17120000000E+03  0.17120000000E+03 0.  0.
         13    1    1    2    0    0  0.16222653251E+02 -0.54923103079E+01  0.26566035065E+02  0.31608627527E+02  0.10566000000E+00 0.  1.
        994    1    1    2    0    0 -0.99430794731E+01  0.32584608671E+01  0.54993721355E+01  0.17160759159E+03  0.17120000000E+03 0.  0.
        998    1    1    2    0    0 -0.62795737782E+01  0.22338494408E+01  0.14679345891E+04  0.14679837809E+04  0.10000000000E+02 0.  1.
</event>
<event>
 5    1  0.1369527E-008  0.3833131E+03  0.7957747E-01  0.3436858E+00
         13   -1    0    0    0    0  0.00000000000E+00  0.00000000000E+00  0.14999999963E+04  0.15000000000E+04  0.10566000000E+00 0.  1.
        994   -1    0    0    0    0 -0.00000000000E+00 -0.00000000000E+00  0.11368683772E-12  0.17120000000E+03  0.17120000000E+03 0.  0.
         13    1    1    2    0    0  0.16129242290E+02 -0.56575198272E+01  0.63868084989E+02  0.66115833441E+02  0.10566000000E+00 0.  1.
        994    1    1    2    0    0  0.40876849727E+01 -0.53724417023E+01  0.26206887067E+01  0.17135308666E+03  0.17120000000E+03 0.  0.
        998    1    1    2    0    0 -0.20216927262E+02  0.11029961530E+02  0.14335112226E+04  0.14337310799E+04  0.10000000000E+02 0.  1.
</event>
<event>
 5    1  0.1369527E-008  0.3855224E+03  0.7957747E-01  0.3427460E+00
         13   -1    0    0    0    0  0.00000000000E+00  0.00000000000E+00  0.14999999963E+04  0.15000000000E+04  0.10566000000E+00 0.  1.
        994   -1    0    0    0    0 -0.00000000000E+00 -0.00000000000E+00  0.11368683772E-12  0.17120000000E+03  0.17120000000E+03 0.  0.
         13    1    1    2    0    0  0.28884041461E+00  0.13155306252E+02  0.68547119331E+02  0.69798740992E+02  0.10566000000E+00 0.  1.
        994    1    1    2    0    0  0.17026146557E+01  0.19532949366E+01  0.13930498352E+01  0.17122527514E+03  0.17120000000E+03 0.  0.
        998    1    1    2    0    0 -0.19914550704E+01 -0.15108601189E+02  0.14300598271E+04  0.14301759839E+04  0.10000000000E+02 0.  1.
</event>
<event>
 5    1  0.1369527E-008  0.3832007E+03  0.7957747E-01  0.3437339E+00
         13   -1    0    0    0    0  0.00000000000E+00  0.00000000000E+00  0.14999999963E+04  0.15000000000E+04  0.10566000000E+00 0. -1.
        994   -1    0    0    0    0 -0.00000000000E+00 -0.00000000000E+00  0.11368683772E-12  0.17120000000E+03  0.17120000000E+03 0.  0.
         13    1    1    2    0    0  0.16286552887E+02  0.11628885812E+01  0.55413406021E+02  0.57769030160E+02  0.10566000000E+00 0. -1.
        994    1    1    2    0    0  0.16863449139E+01  0.65822635138E+01  0.26788311085E+01  0.17135572966E+03  0.17120000000E+03 0.  0.
        998    1    1    2    0    0 -0.17972897801E+02 -0.77451520949E+01  0.14419077591E+04  0.14420752402E+04  0.10000000000E+02 0. -1.
</event>
<event>
 5    1  0.1369527E-008  0.3741464E+03  0.7957747E-01  0.3477049E+00
         13   -1    0    0    0    0  0.00000000000E+00  0.00000000000E+00  0.14999999963E+04  0.15000000000E+04  0.10566000000E+00 0.  1.
        994   -1    0    0    0    0 -0.00000000000E+00 -0.00000000000E+00  0.11368683772E-12  0.17120000000E+03  0.17120000000E+03 0.  0.
         13    1    1    2    0    0  0.77772913439E+02  0.76467973058E+02  0.58181745006E+03  0.59195230663E+03  0.10566000000E+00 0.  1.
        994    1    1    2    0    0 -0.68073452837E+02 -0.68214041906E+02  0.39469808234E+02  0.20038576860E+03  0.17120000000E+03 0.  0.
        998    1    1    2    0    0 -0.96994606018E+01 -0.82539311517E+01  0.87871273799E+03  0.87886192477E+03  0.10000000000E+02 0.  0.
</event>
<event>
 5    1  0.1369527E-008  0.3846451E+03  0.7957747E-01  0.3431179E+00
         13   -1    0    0    0    0  0.00000000000E+00  0.00000000000E+00  0.14999999963E+04  0.15000000000E+04  0.10566000000E+00 0.  1.
        994   -1    0    0    0    0 -0.00000000000E+00 -0.00000000000E+00  0.11368683772E-12  0.17120000000E+03  0.17120000000E+03 0.  0.
         13    1    1    2    0    0  0.48551009185E+01 -0.91897199634E+01  0.29265520373E+02  0.31056477661E+02  0.10566000000E+00 0.  1.
        994    1    1    2    0    0 -0.74402614753E+00  0.10024018370E+02  0.21391547902E+01  0.17150816454E+03  0.17120000000E+03 0.  0.
        998    1    1    2    0    0 -0.41110747710E+01 -0.83429840615E+00  0.14685953211E+04  0.14686353578E+04  0.10000000000E+02 0.  1.
</event>
<event>
 5    1  0.1369527E-008  0.3837165E+03  0.7957747E-01  0.3435134E+00
         13   -1    0    0    0    0  0.00000000000E+00  0.00000000000E+00  0.14999999963E+04  0.15000000000E+04  0.10566000000E+00 0. -1.
        994   -1    0    0    0    0 -0.00000000000E+00 -0.00000000000E+00  0.11368683772E-12  0.17120000000E+03  0.17120000000E+03 0.  0.
         13    1    1    2    0    0  0.88850527938E+01 -0.88146349231E+01  0.33868499468E+02  0.36107178957E+02  0.10566000000E+00 0. -1.
        994    1    1    2    0    0 -0.14096394725E+02 -0.20346962653E+01  0.29388945133E+01  0.17181654587E+03  0.17120000000E+03 0.  0.
        998    1    1    2    0    0  0.52113419311E+01  0.10849331188E+02  0.14631926023E+04  0.14632762752E+04  0.10000000000E+02 0. -1.
</event>
<event>
 5    1  0.1369527E-008  0.3846505E+03  0.7957747E-01  0.3431156E+00
         13   -1    0    0    0    0  0.00000000000E+00  0.00000000000E+00  0.14999999963E+04  0.15000000000E+04  0.10566000000E+00 0. -1.
        994   -1    0    0    0    0 -0.00000000000E+00 -0.00000000000E+00  0.11368683772E-12  0.17120000000E+03  0.17120000000E+03 0.  0.
         13    1    1    2    0    0 -0.13570147834E+01  0.10056450105E+02  0.30592544113E+02  0.32231794818E+02  0.10566000000E+00 0. -1.
        994    1    1    2    0    0  0.10798486849E+02  0.13819434948E+02  0.28170843189E+01  0.17211902877E+03  0.17120000000E+03 0.  0.
        998    1    1    2    0    0 -0.94414720655E+01 -0.23875885053E+02  0.14665903678E+04  0.14668491764E+04  0.10000000000E+02 0. -1.
</event>
<event>
 5    1  0.1369527E-008  0.3809452E+03  0.7957747E-01  0.3447053E+00
         13   -1    0    0    0    0  0.00000000000E+00  0.00000000000E+00  0.14999999963E+04  0.15000000000E+04  0.10566000000E+00 0.  1.
        994   -1    0    0    0    0 -0.00000000000E+00 -0.00000000000E+00  0.11368683772E-12  0.17120000000E+03  0.17120000000E+03 0.  0.
         13    1    1    2    0    0  0.41995950961E+02  0.72044813544E+01  0.21120160602E+03  0.21545694233E+03  0.10566000000E+00 0.  1.
        994    1    1    2    0    0 -0.43164295282E+02 -0.11570661649E+02  0.10340707889E+02  0.17723827701E+03  0.17120000000E+03 0.  0.
        998    1    1    2    0    0  0.11683443213E+01  0.43661802942E+01  0.12784576824E+04  0.12785047807E+04  0.10000000000E+02 0.  1.
</event>
<event>
 5    1  0.1369527E-008  0.3827422E+03  0.7957747E-01  0.3439305E+00
         13   -1    0    0    0    0  0.00000000000E+00  0.00000000000E+00  0.14999999963E+04  0.15000000000E+04  0.10566000000E+00 0.  1.
        994   -1    0    0    0    0 -0.00000000000E+00 -0.00000000000E+00  0.11368683772E-12  0.17120000000E+03  0.17120000000E+03 0.  0.
         13    1    1    2    0    0 -0.13685262586E+02  0.14886912957E+02  0.71226199464E+02  0.74041132106E+02  0.10566000000E+00 0.  1.
        994    1    1    2    0    0  0.13216707773E+02 -0.13148554623E+02  0.39075792403E+01  0.17225642231E+03  0.17120000000E+03 0.  0.
        998    1    1    2    0    0  0.46855481307E+00 -0.17383583341E+01  0.14248662176E+04  0.14249024456E+04  0.10000000000E+02 0.  1.
</event>
<event>
 5    1  0.1369527E-008  0.3757056E+03  0.7957747E-01  0.3470073E+00
         13   -1    0    0    0    0  0.00000000000E+00  0.00000000000E+00  0.14999999963E+04  0.15000000000E+04  0.10566000000E+00 0. -1.
        994   -1    0    0    0    0 -0.00000000000E+00 -0.00000000000E+00  0.11368683772E-12  0.17120000000E+03  0.17120000000E+03 0.  0.
         13    1    1    2    0    0 -0.21867247380E+02 -0.92792908954E+01  0.41636284185E+02  0.47936135350E+02  0.10566000000E+00 0. -1.
        994    1    1    2    0    0  0.21231686999E+02  0.10962859727E+01  0.78510995164E+01  0.17269356137E+03  0.17120000000E+03 0.  0.
        998    1    1    2    0    0  0.63556038170E+00  0.81830049227E+01  0.14505126126E+04  0.14505703033E+04  0.10000000000E+02 0. -1.
</event>
<event>
 5    1  0.1369527E-008  0.3762750E+03  0.7957747E-01  0.3467540E+00
         13   -1    0    0    0    0  0.00000000000E+00  0.00000000000E+00  0.14999999963E+04  0.15000000000E+04  0.10566000000E+00 0. -1.
        994   -1    0    0    0    0 -0.00000000000E+00 -0.00000000000E+00  0.11368683772E-12  0.17120000000E+03  0.17120000000E+03 0.  0.
         13    1    1    2    0    0 -0.57228296388E+02  0.24324965281E+02  0.26120815066E+03  0.26850789742E+03  0.10566000000E+00 0. -1.
        994    1    1    2    0    0  0.61398332364E+02 -0.18688501494E+02  0.20096602308E+02  0.18393566465E+03  0.17120000000E+03 0.  0.
        998    1    1    2    0    0 -0.41700359761E+01 -0.56364637875E+01  0.12186952433E+04  0.12187564379E+04  0.10000000000E+02 0. -1.
</event>
<event>
 5    1  0.1369527E-008  0.3852709E+03  0.7957747E-01  0.3428524E+00
         13   -1    0    0    0    0  0.00000000000E+00  0.00000000000E+00  0.14999999963E+04  0.15000000000E+04  0.10566000000E+00 0.  1.
        994   -1    0    0    0    0 -0.00000000000E+00 -0.00000000000E+00  0.11368683772E-12  0.17120000000E+03  0.17120000000E+03 0.  0.
         13    1    1    2    0    0 -0.17710629370E+02 -0.46739946497E+01  0.10745177842E+03  0.10900187369E+03  0.10566000000E+00 0.  1.
        994    1    1    2    0    0  0.16341756305E+02  0.47498376820E+01  0.24479056838E+01  0.17206116993E+03  0.17120000000E+03 0.  0.
        998    1    1    2    0    0  0.13688730650E+01 -0.75843032290E-01  0.13901003122E+04  0.13901369564E+04  0.10000000000E+02 0.  0.
</event>
<event>
 5    1  0.1369527E-008  0.4036610E+03  0.7957747E-01  0.3354190E+00
         13   -1    0    0    0    0  0.00000000000E+00  0.00000000000E+00  0.14999999963E+04  0.15000000000E+04  0.10566000000E+00 0.  1.
        994   -1    0    0    0    0 -0.00000000000E+00 -0.00000000000E+00  0.11368683772E-12  0.17120000000E+03  0.17120000000E+03 0.  0.
         13    1    1    2    0    0 -0.90744437786E+02 -0.11998777730E+02  0.15040025449E+03  0.17606467951E+03  0.10566000000E+00 0.  1.
        994    1    1    2    0    0  0.20121166811E+02  0.10776046337E+02  0.32059422393E+02  0.17566511063E+03  0.17120000000E+03 0.  0.
        998    1    1    2    0    0  0.70623270975E+02  0.12227313925E+01  0.13175403194E+04  0.13194702099E+04  0.10000000000E+02 0.  1.
</event>
<event>
 5    1  0.1369527E-008  0.3855674E+03  0.7957747E-01  0.3427270E+00
         13   -1    0    0    0    0  0.00000000000E+00  0.00000000000E+00  0.14999999963E+04  0.15000000000E+04  0.10566000000E+00 0. -1.
        994   -1    0    0    0    0 -0.00000000000E+00 -0.00000000000E+00  0.11368683772E-12  0.17120000000E+03  0.17120000000E+03 0.  0.
         13    1    1    2    0    0 -0.11989990094E+02 -0.26136817495E+01  0.58744606232E+02  0.60012757978E+02  0.10566000000E+00 0. -1.
        994    1    1    2    0    0  0.99370700965E+00  0.19473319386E+01  0.13644085196E+01  0.17121939483E+03  0.17120000000E+03 0.  0.
        998    1    1    2    0    0  0.10996283085E+02  0.66634981088E+00  0.14398909815E+04  0.14399678472E+04  0.10000000000E+02 0. -1.
</event>
<event>
 5    1  0.1369527E-008  0.3901974E+03  0.7957747E-01  0.3407924E+00
         13   -1    0    0    0    0  0.00000000000E+00  0.00000000000E+00  0.14999999963E+04  0.15000000000E+04  0.10566000000E+00 0.  1.
        994   -1    0    0    0    0 -0.00000000000E+00 -0.00000000000E+00  0.11368683772E-12  0.17120000000E+03  0.17120000000E+03 0.  0.
         13    1    1    2    0    0  0.25952290679E+02  0.55428577160E+00  0.48395654421E+01  0.26405703587E+02  0.10566000000E+00 0.  1.
        994    1    1    2    0    0 -0.56930027850E+02 -0.23299346902E+02  0.36435117180E+02  0.18552855683E+03  0.17120000000E+03 0.  0.
        998    1    1    2    0    0  0.30977737171E+02  0.22745061130E+02  0.14587253137E+04  0.14592657396E+04  0.10000000000E+02 0.  1.
</event>
<event>
 5    1  0.1369527E-008  0.3707721E+03  0.7957747E-01  0.3492350E+00
         13   -1    0    0    0    0  0.00000000000E+00  0.00000000000E+00  0.14999999963E+04  0.15000000000E+04  0.10566000000E+00 0.  1.
        994   -1    0    0    0    0 -0.00000000000E+00 -0.00000000000E+00  0.11368683772E-12  0.17120000000E+03  0.17120000000E+03 0.  0.
         13    1    1    2    0    0 -0.17701109079E-01 -0.11656544158E+02  0.75149131640E+00  0.11681234450E+02  0.10566000000E+00 0.  1.
        994    1    1    2    0    0  0.10055448803E+02  0.43556288989E+01  0.11768693140E+02  0.17195355679E+03  0.17120000000E+03 0.  0.
        998    1    1    2    0    0 -0.10037747694E+02  0.73009152590E+01  0.14874798118E+04  0.14875652088E+04  0.10000000000E+02 0.  1.
</event>
<event>
 5    1  0.1463614E-008  0.3856301E+03  0.7957747E-01  0.3427004E+00
         13   -1    0    0    0    0  0.00000000000E+00  0.00000000000E+00  0.14999999963E+04  0.15000000000E+04  0.10566000000E+00 0. -1.
        994   -1    0    0    0    0 -0.00000000000E+00 -0.00000000000E+00  0.11368683772E-12  0.17120000000E+03  0.17120000000E+03 0.  0.
         13    1    1    2    0    0  0.78330710944E+01 -0.11096535529E+02  0.67920419173E+02  0.69265320386E+02  0.10566000000E+00 0. -1.
        994    1    1    2    0    0 -0.12702786688E+02  0.84167747557E+01  0.20800753045E+01  0.17188941096E+03  0.17120000000E+03 0.  0.
        998    1    1    2    0    0  0.48697155932E+01  0.26797607731E+01  0.14299995018E+04  0.14300452687E+04  0.10000000000E+02 0. -1.
</event>
<event>
 5    1  0.1369527E-008  0.3856488E+03  0.7957747E-01  0.3426925E+00
         13   -1    0    0    0    0  0.00000000000E+00  0.00000000000E+00  0.14999999963E+04  0.15000000000E+04  0.10566000000E+00 0. -1.
        994   -1    0    0    0    0 -0.00000000000E+00 -0.00000000000E+00  0.11368683772E-12  0.17120000000E+03  0.17120000000E+03 0.  0.
         13    1    1    2    0    0  0.14450543663E+02  0.71383023106E+01  0.89818539903E+02  0.91253245676E+02  0.10566000000E+00 0. -1.
        994    1    1    2    0    0 -0.28923190568E+02  0.43152225301E+01  0.41198684523E+01  0.17372848187E+03  0.17120000000E+03 0.  0.
        998    1    1    2    0    0  0.14472646905E+02 -0.11453524841E+02  0.14060615879E+04  0.14062182724E+04  0.10000000000E+02 0. -1.
</event>
<event>
 5    1  0.1369527E-008  0.3842481E+03  0.7957747E-01  0.3432867E+00
         13   -1    0    0    0    0  0.00000000000E+00  0.00000000000E+00  0.14999999963E+04  0.15000000000E+04  0.10566000000E+00 0.  1.
        994   -1    0    0    0    0 -0.00000000000E+00 -0.00000000000E+00  0.11368683772E-12  0.17120000000E+03  0.17120000000E+03 0.  0.
         13    1    1    2    0    0 -0.17520448053E+02 -0.24572682207E+01  0.83087863170E+02  0.84950623524E+02  0.10566000000E+00 0.  1.
        994    1    1    2    0    0  0.15685907474E+01 -0.16206260240E+01  0.20206676251E+01  0.17122677946E+03  0.17120000000E+03 0.  0.
        998    1    1    2    0    0  0.15951857305E+02  0.40778942447E+01  0.14148914655E+04  0.14150225970E+04  0.10000000000E+02 0.  1.
</event>
<event>
 5    1  0.1369527E-008  0.3837856E+03  0.7957747E-01  0.3434839E+00
         13   -1    0    0    0    0  0.00000000000E+00  0.00000000000E+00  0.14999999963E+04  0.15000000000E+04  0.10566000000E+00 0.  1.
        994   -1    0    0    0    0 -0.00000000000E+00 -0.00000000000E+00  0.11368683772E-12  0.17120000000E+03  0.17120000000E+03 0.  0.
         13    1    1    2    0    0 -0.45487109346E+01  0.94334806639E+01  0.23525593701E+02  0.25751622310E+02  0.10566000000E+00 0.  1.
        994    1    1    2    0    0  0.35915859180E+01 -0.10385803492E+02  0.26331113816E+01  0.17157254349E+03  0.17120000000E+03 0.  0.
        998    1    1    2    0    0  0.95712501658E+00  0.95232282779E+00  0.14738412912E+04  0.14738758342E+04  0.10000000000E+02 0.  1.
</event>
<event>
 5    1  0.1369527E-008  0.3816279E+03  0.7957747E-01  0.3444101E+00
         13   -1    0    0    0    0  0.00000000000E+00  0.00000000000E+00  0.14999999963E+04  0.15000000000E+04  0.10566000000E+00 0.  1.
        994   -1    0    0    0    0 -0.00000000000E+00 -0.00000000000E+00  0.11368683772E-12  0.17120000000E+03  0.17120000000E+03 0.  0.
         13    1    1    2    0    0  0.16127730447E+02 -0.27817685122E+02  0.16905333278E+03  0.17208418807E+03  0.10566000000E+00 0.  1.
        994    1    1    2    0    0  0.16807433829E+02  0.19303208231E+02  0.54949176368E+01  0.17318988943E+03  0.17120000000E+03 0.  0.
        998    1    1    2    0    0 -0.32935164276E+02  0.85144768919E+01  0.13254517459E+04  0.13259259225E+04  0.10000000000E+02 0.  1.
</event>
<event>
 5    1  0.1369527E-008  0.3835584E+03  0.7957747E-01  0.3435809E+00
         13   -1    0    0    0    0  0.00000000000E+00  0.00000000000E+00  0.14999999963E+04  0.15000000000E+04  0.10566000000E+00 0.  1.
        994   -1    0    0    0    0 -0.00000000000E+00 -0.00000000000E+00  0.11368683772E-12  0.17120000000E+03  0.17120000000E+03 0.  0.
         13    1    1    2    0    0 -0.10246169905E+02 -0.10622502629E+02  0.49639302931E+02  0.51786997589E+02  0.10566000000E+00 0.  1.
        994    1    1    2    0    0 -0.73917740162E+01 -0.29003551756E+01  0.25559033658E+01  0.17140310098E+03  0.17120000000E+03 0.  0.
        998    1    1    2    0    0  0.17637943921E+02  0.13522857805E+02  0.14478047900E+04  0.14480099014E+04  0.10000000000E+02 0.  1.
</event>
<event>
 5    1  0.1369527E-008  0.3853325E+03  0.7957747E-01  0.3428263E+00
         13   -1    0    0    0    0  0.00000000000E+00  0.00000000000E+00  0.14999999963E+04  0.15000000000E+04  0.10566000000E+00 0.  1.
        994   -1    0    0    0    0 -0.00000000000E+00 -0.00000000000E+00  0.11368683772E-12  0.17120000000E+03  0.17120000000E+03 0.  0.
         13    1    1    2    0    0  0.96465432142E+01  0.11191407985E+02  0.78605656193E+02  0.79982271524E+02  0.10566000000E+00 0.  1.
        994    1    1    2    0    0 -0.29620709861E+01 -0.12532048813E+01  0.14991081073E+01  0.17123677091E+03  0.17120000000E+03 0.  0.
        998    1    1    2    0    0 -0.66844722281E+01 -0.99382031038E+01  0.14198952320E+04  0.14199809576E+04  0.10000000000E+02 0.  1.
</event>
<event>
 5    1  0.1369527E-008  0.3856631E+03  0.7957747E-01  0.3426865E+00
         13   -1    0    0    0    0  0.00000000000E+00  0.00000000000E+00  0.14999999963E+04  0.15000000000E+04  0.10566000000E+00 0. -1.
        994   -1    0    0    0    0 -0.00000000000E+00 -0.00000000000E+00  0.11368683772E-12  0.17120000000E+03  0.17120000000E+03 0.  0.
         13    1    1    2    0    0  0.10416670471E+02  0.53940482462E+01  0.57895608265E+02  0.59072120333E+02  0.10566000000E+00 0. -1.
        994    1    1    2    0    0  0.72923318660E+01 -0.43092589817E+01  0.15367717642E+01  0.17141630461E+03  0.17120000000E+03 0.  0.
        998    1    1    2    0    0 -0.17709002337E+02 -0.10847892645E+01  0.14405676162E+04  0.14407115751E+04  0.10000000000E+02 0. -1.
</event>
<event>
 5    1  0.1369527E-008  0.3812092E+03  0.7957747E-01  0.3445910E+00
         13   -1    0    0    0    0  0.00000000000E+00  0.00000000000E+00  0.14999999963E+04  0.15000000000E+04  0.10566000000E+00 0. -1.
        994   -1    0    0    0    0 -0.00000000000E+00 -0.00000000000E+00  0.11368683772E-12  0.17120000000E+03  0.17120000000E+03 0.  0.
         13    1    1    2    0    0  0.90813992460E+01 -0.27421574991E+02  0.11767834324E+03  0.12117185407E+03  0.10566000000E+00 0. -1.
        994    1    1    2    0    0 -0.20207764810E+02  0.11213814272E+02  0.53043970924E+01  0.17283425591E+03  0.17120000000E+03 0.  0.
        998    1    1    2    0    0  0.11126365564E+02  0.16207760718E+02  0.13770172559E+04  0.13771938900E+04  0.10000000000E+02 0. -1.
</event>
<event>
 5    1  0.1369527E-008  0.3744250E+03  0.7957747E-01  0.3475798E+00
         13   -1    0    0    0    0  0.00000000000E+00  0.00000000000E+00  0.14999999963E+04  0.15000000000E+04  0.10566000000E+00 0.  1.
        994   -1    0    0    0    0 -0.00000000000E+00 -0.00000000000E+00  0.11368683772E-12  0.17120000000E+03  0.17120000000E+03 0.  0.
         13    1    1    2    0    0  0.27318989173E+02  0.17356332186E+02  0.79149826361E+02  0.85511844872E+02  0.10566000000E+00 0.  1.
        994    1    1    2    0    0 -0.67499938793E+01  0.15742667069E+02  0.79741406540E+01  0.17223942900E+03  0.17120000000E+03 0.  0.
        998    1    1    2    0    0 -0.20568995294E+02 -0.33098999255E+02  0.14128760293E+04  0.14134487261E+04  0.10000000000E+02 0.  1.
</event>
<event>
 5    1  0.1369527E-008  0.3829934E+03  0.7957747E-01  0.3438227E+00
         13   -1    0    0    0    0  0.00000000000E+00  0.00000000000E+00  0.14999999963E+04  0.15000000000E+04  0.10566000000E+00 0.  1.
        994   -1    0    0    0    0 -0.00000000000E+00 -0.00000000000E+00  0.11368683772E-12  0.17120000000E+03  0.17120000000E+03 0.  0.
         13    1    1    2    0    0  0.14101267913E+02  0.24353978256E+01  0.36510844541E+02  0.39215173753E+02  0.10566000000E+00 0.  1.
        994    1    1    2    0    0 -0.21140480262E+02  0.21234359848E+01  0.41253897892E+01  0.17256270665E+03  0.17120000000E+03 0.  0.
        998    1    1    2    0    0  0.70392123489E+01 -0.45588338103E+01  0.14593637619E+04  0.14594221196E+04  0.10000000000E+02 0.  1.
</event>
<event>
 5    1  0.1369527E-008  0.3816220E+03  0.7957747E-01  0.3444126E+00
         13   -1    0    0    0    0  0.00000000000E+00  0.00000000000E+00  0.14999999963E+04  0.15000000000E+04  0.10566000000E+00 0. -1.
        994   -1    0    0    0    0 -0.00000000000E+00 -0.00000000000E+00  0.11368683772E-12  0.17120000000E+03  0.17120000000E+03 0.  0.
         13    1    1    2    0    0  0.12806711202E+02  0.12572610256E+02  0.49132349959E+02  0.52307565008E+02  0.10566000000E+00 0. -1.
        994    1    1    2    0    0 -0.59318048117E+01  0.18168597996E+01  0.34445979518E+01  0.17134699455E+03  0.17120000000E+03 0.  0.
        998    1    1    2    0    0 -0.68749063906E+01 -0.14389470056E+02  0.14474230484E+04  0.14475454404E+04  0.10000000000E+02 0. -1.
</event>
<event>
 5    1  0.1369527E-008  0.3718972E+03  0.7957747E-01  0.3487217E+00
         13   -1    0    0    0    0  0.00000000000E+00  0.00000000000E+00  0.14999999963E+04  0.15000000000E+04  0.10566000000E+00 0. -1.
        994   -1    0    0    0    0 -0.00000000000E+00 -0.00000000000E+00  0.11368683772E-12  0.17120000000E+03  0.17120000000E+03 0.  0.
         13    1    1    2    0    0  0.29488315443E+02 -0.19011994187E+02  0.66813017512E+02  0.75465271110E+02  0.10566000000E+00 0. -1.
        994    1    1    2    0    0 -0.35538650714E+02  0.22420556490E+02  0.14370625575E+02  0.17686614127E+03  0.17120000000E+03 0.  0.
        998    1    1    2    0    0  0.60503352713E+01 -0.34085623033E+01  0.14188163532E+04  0.14188685876E+04  0.10000000000E+02 0. -1.
</event>
<event>
 5    1  0.1369527E-008  0.3843018E+03  0.7957747E-01  0.3432639E+00
         13   -1    0    0    0    0  0.00000000000E+00  0.00000000000E+00  0.14999999963E+04  0.15000000000E+04  0.10566000000E+00 0. -1.
        994   -1    0    0    0    0 -0.00000000000E+00 -0.00000000000E+00  0.11368683772E-12  0.17120000000E+03  0.17120000000E+03 0.  0.
         13    1    1    2    0    0  0.47527313651E+01  0.23116461056E+02  0.13774841295E+03  0.13975548526E+03  0.10566000000E+00 0. -1.
        994    1    1    2    0    0 -0.24169283638E+01 -0.16641168089E+02  0.29097514207E+01  0.17204847187E+03  0.17120000000E+03 0.  0.
        998    1    1    2    0    0 -0.23358030013E+01 -0.64752929670E+01  0.13593418319E+04  0.13593960429E+04  0.10000000000E+02 0. -1.
</event>
<event>
 5    1  0.1369527E-008  0.3833268E+03  0.7957747E-01  0.3436799E+00
         13   -1    0    0    0    0  0.00000000000E+00  0.00000000000E+00  0.14999999963E+04  0.15000000000E+04  0.10566000000E+00 0.  1.
        994   -1    0    0    0    0 -0.00000000000E+00 -0.00000000000E+00  0.11368683772E-12  0.17120000000E+03  0.17120000000E+03 0.  0.
         13    1    1    2    0    0  0.12298145455E+01  0.13975359130E+02  0.41098425117E+02  0.43427120763E+02  0.10566000000E+00 0.  1.
        994    1    1    2    0    0 -0.67301260685E+01  0.21107974013E+01  0.26276350789E+01  0.17136538311E+03  0.17120000000E+03 0.  0.
        998    1    1    2    0    0  0.55003115230E+01 -0.16086156531E+02  0.14562739361E+04  0.14564074961E+04  0.10000000000E+02 0.  1.
</event>
<event>
 5    1  0.1369527E-008  0.3852713E+03  0.7957747E-01  0.3428522E+00
         13   -1    0    0    0    0  0.00000000000E+00  0.00000000000E+00  0.14999999963E+04  0.15000000000E+04  0.10566000000E+00 0. -1.
        994   -1    0    0    0    0 -0.00000000000E+00 -0.00000000000E+00  0.11368683772E-12  0.17120000000E+03  0.17120000000E+03 0.  0.
         13    1    1    2    0    0  0.92768834959E+00  0.17960577345E+02  0.10105781641E+03  0.10264568362E+03  0.10566000000E+00 0. -1.
        994    1    1    2    0    0 -0.11340287309E+01 -0.20086544994E+02  0.28265421539E+01  0.17240123158E+03  0.17120000000E+03 0.  0.
        998    1    1    2    0    0  0.20634038129E+00  0.21259676487E+01  0.13961156377E+04  0.13961530848E+04  0.10000000000E+02 0. -1.
</event>
<event>
 5    1  0.1369527E-008  0.3795908E+03  0.7957747E-01  0.3452942E+00
         13   -1    0    0    0    0  0.00000000000E+00  0.00000000000E+00  0.14999999963E+04  0.15000000000E+04  0.10566000000E+00 0. -1.
        994   -1    0    0    0    0 -0.00000000000E+00 -0.00000000000E+00  0.11368683772E-12  0.17120000000E+03  0.17120000000E+03 0.  0.
         13    1    1    2    0    0 -0.17761509475E+02  0.89052858913E+01  0.45162428197E+02  0.49339957644E+02  0.10566000000E+00 0. -1.
        994    1    1    2    0    0 -0.40822967562E+01 -0.18558423638E+02  0.55494707523E+01  0.17234069995E+03  0.17120000000E+03 0.  0.
        998    1    1    2    0    0  0.21843806231E+02  0.96531377464E+01  0.14492880973E+04  0.14495193424E+04  0.10000000000E+02 0. -1.
</event>
<event>
 5    1  0.1369527E-008  0.3826788E+03  0.7957747E-01  0.3439577E+00
         13   -1    0    0    0    0  0.00000000000E+00  0.00000000000E+00  0.14999999963E+04  0.15000000000E+04  0.10566000000E+00 0.  1.
        994   -1    0    0    0    0 -0.00000000000E+00 -0.00000000000E+00  0.11368683772E-12  0.17120000000E+03  0.17120000000E+03 0.  0.
         13    1    1    2    0    0  0.32990384243E+01  0.20933791624E+02  0.76385447228E+02  0.79270770139E+02  0.10566000000E+00 0.  1.
        994    1    1    2    0    0 -0.11429014477E+02 -0.19965740450E+02  0.45426931534E+01  0.17279852206E+03  0.17120000000E+03 0.  0.
        998    1    1    2    0    0  0.81299760523E+01 -0.96805117459E+00  0.14190718559E+04  0.14191307078E+04  0.10000000000E+02 0.  1.
</event>
<event>
 5    1  0.1369527E-008  0.3813627E+03  0.7957747E-01  0.3445246E+00
         13   -1    0    0    0    0  0.00000000000E+00  0.00000000000E+00  0.14999999963E+04  0.15000000000E+04  0.10566000000E+00 0.  1.
        994   -1    0    0    0    0 -0.00000000000E+00 -0.00000000000E+00  0.11368683772E-12  0.17120000000E+03  0.17120000000E+03 0.  0.
         13    1    1    2    0    0  0.10054297194E+03  0.62505172338E+02  0.42957690147E+03  0.44559186619E+03  0.10566000000E+00 0.  1.
        994    1    1    2    0    0 -0.57972721745E+02 -0.22835493635E+02  0.31355603715E+02  0.18486457238E+03  0.17120000000E+03 0.  0.
        998    1    1    2    0    0 -0.42570250197E+02 -0.39669678703E+02  0.10390674911E+04  0.10407435614E+04  0.10000000000E+02 0.  1.
</event>
<event>
 5    1  0.1369527E-008  0.3816831E+03  0.7957747E-01  0.3443863E+00
         13   -1    0    0    0    0  0.00000000000E+00  0.00000000000E+00  0.14999999963E+04  0.15000000000E+04  0.10566000000E+00 0. -1.
        994   -1    0    0    0    0 -0.00000000000E+00 -0.00000000000E+00  0.11368683772E-12  0.17120000000E+03  0.17120000000E+03 0.  0.
         13    1    1    2    0    0 -0.67795207206E+02  0.27478911532E+02  0.15829772691E+03  0.17438309037E+03  0.10566000000E+00 0. -1.
        994    1    1    2    0    0  0.32199656518E+02 -0.54217176682E+01  0.21151956469E+02  0.17556496850E+03  0.17120000000E+03 0.  0.
        998    1    1    2    0    0  0.35595550688E+02 -0.22057193863E+02  0.13205503129E+04  0.13212519411E+04  0.10000000000E+02 0. -1.
</event>
<event>
 5    1  0.1369527E-008  0.3799690E+03  0.7957747E-01  0.3451294E+00
         13   -1    0    0    0    0  0.00000000000E+00  0.00000000000E+00  0.14999999963E+04  0.15000000000E+04  0.10566000000E+00 0. -1.
        994   -1    0    0    0    0 -0.00000000000E+00 -0.00000000000E+00  0.11368683772E-12  0.17120000000E+03  0.17120000000E+03 0.  0.
         13    1    1    2    0    0  0.40608664207E+02 -0.24038153867E+02  0.25567758880E+03  0.25999603272E+03  0.10566000000E+00 0. -1.
        994    1    1    2    0    0 -0.26314513062E+02  0.18509100752E+02  0.76169522573E+01  0.17436312216E+03  0.17120000000E+03 0.  0.
        998    1    1    2    0    0 -0.14294151146E+02  0.55290531151E+01  0.12367054552E+04  0.12368408451E+04  0.10000000000E+02 0. -1.
</event>
<event>
 5    1  0.1369527E-008  0.3751964E+03  0.7957747E-01  0.3472345E+00
         13   -1    0    0    0    0  0.00000000000E+00  0.00000000000E+00  0.14999999963E+04  0.15000000000E+04  0.10566000000E+00 0.  1.
        994   -1    0    0    0    0 -0.00000000000E+00 -0.00000000000E+00  0.11368683772E-12  0.17120000000E+03  0.17120000000E+03 0.  0.
         13    1    1    2    0    0  0.30323538835E+02 -0.17351413197E+02  0.89433352727E+02  0.96015229477E+02  0.10566000000E+00 0.  1.
        994    1    1    2    0    0 -0.21654973405E+02  0.11130387129E+02  0.85942829001E+01  0.17313614611E+03  0.17120000000E+03 0.  0.
        998    1    1    2    0    0 -0.86685654300E+01  0.62210260684E+01  0.14019723607E+04  0.14020486244E+04  0.10000000000E+02 0.  1.
</event>
<event>
 5    1  0.1369527E-008  0.3806185E+03  0.7957747E-01  0.3448470E+00
         13   -1    0    0    0    0  0.00000000000E+00  0.00000000000E+00  0.14999999963E+04  0.15000000000E+04  0.10566000000E+00 0.  1.
        994   -1    0    0    0    0 -0.00000000000E+00 -0.00000000000E+00  0.11368683772E-12  0.17120000000E+03  0.17120000000E+03 0.  0.
         13    1    1    2    0    0 -0.18469800900E+02  0.82736049268E+01  0.51719880252E+02  0.55538664560E+02  0.10566000000E+00 0.  1.
        994    1    1    2    0    0  0.19033195145E+02  0.43926866854E+01  0.50951929829E+01  0.17238607602E+03  0.17120000000E+03 0.  0.
        998    1    1    2    0    0 -0.56339424570E+00 -0.12666291612E+02  0.14431849230E+04  0.14432752594E+04  0.10000000000E+02 0.  1.
</event>
<event>
 5    1  0.1369527E-008  0.3441688E+03  0.7957747E-01  0.3623738E+00
         13   -1    0    0    0    0  0.00000000000E+00  0.00000000000E+00  0.14999999963E+04  0.15000000000E+04  0.10566000000E+00 0. -1.
        994   -1    0    0    0    0 -0.00000000000E+00 -0.00000000000E+00  0.11368683772E-12  0.17120000000E+03  0.17120000000E+03 0.  0.
         13    1    1    2    0    0  0.28063685633E+03  0.15588101939E+03  0.65901053716E+03  0.73304217927E+03  0.10566000000E+00 0. -1.
        994    1    1    2    0    0 -0.25151103365E+03 -0.10248432373E+03  0.51862147238E+03  0.60994959486E+03  0.17120000000E+03 0.  0.
        998    1    1    2    0    0 -0.29125822674E+02 -0.53396695657E+02  0.32236798674E+03  0.32820822587E+03  0.10000000000E+02 0.  1.
</event>
<event>
 5    1  0.1369527E-008  0.3882070E+03  0.7957747E-01  0.3416184E+00
         13   -1    0    0    0    0  0.00000000000E+00  0.00000000000E+00  0.14999999963E+04  0.15000000000E+04  0.10566000000E+00 0.  1.
        994   -1    0    0    0    0 -0.00000000000E+00 -0.00000000000E+00  0.11368683772E-12  0.17120000000E+03  0.17120000000E+03 0.  0.
         13    1    1    2    0    0 -0.18269561403E+02  0.27738130421E+00 -0.12502569658E+01  0.18314696852E+02  0.10566000000E+00 0.  1.
        994    1    1    2    0    0  0.41612195295E+01 -0.19527725576E+02  0.22401303773E+02  0.17380997159E+03  0.17120000000E+03 0.  0.
        998    1    1    2    0    0  0.14108341874E+02  0.19250344272E+02  0.14788489495E+04  0.14790753316E+04  0.10000000000E+02 0.  1.
</event>
<event>
 5    1  0.1369527E-008  0.4345576E+03  0.7957747E-01  0.3243330E+00
         13   -1    0    0    0    0  0.00000000000E+00  0.00000000000E+00  0.14999999963E+04  0.15000000000E+04  0.10566000000E+00 0.  1.
        994   -1    0    0    0    0 -0.00000000000E+00 -0.00000000000E+00  0.11368683772E-12  0.17120000000E+03  0.17120000000E+03 0.  0.
         13    1    1    2    0    0  0.11418962668E+03  0.84545944018E+02  0.30587252603E+03  0.33726147250E+03  0.10566000000E+00 0.  1.
        994    1    1    2    0    0 -0.48448442276E+02  0.10224397864E+03  0.11197316347E+03  0.23377021210E+03  0.17120000000E+03 0.  0.
        998    1    1    2    0    0 -0.65741184400E+02 -0.18678992266E+03  0.10821543068E+04  0.11001683154E+04  0.10000000000E+02 0.  1.
</event>
<event>
 5    1  0.1369527E-008  0.3843198E+03  0.7957747E-01  0.3432562E+00
         13   -1    0    0    0    0  0.00000000000E+00  0.00000000000E+00  0.14999999963E+04  0.15000000000E+04  0.10566000000E+00 0.  1.
        994   -1    0    0    0    0 -0.00000000000E+00 -0.00000000000E+00  0.11368683772E-12  0.17120000000E+03  0.17120000000E+03 0.  0.
         13    1    1    2    0    0 -0.15991464902E+02  0.92902717144E+01  0.85765262840E+02  0.87736694560E+02  0.10566000000E+00 0.  1.
        994    1    1    2    0    0  0.24665959111E+02  0.14421956187E+02  0.46636329476E+01  0.17363061893E+03  0.17120000000E+03 0.  0.
        998    1    1    2    0    0 -0.86744942092E+01 -0.23712227901E+02  0.14095711005E+04  0.14098326865E+04  0.10000000000E+02 0.  1.
</event>
<event>
 5    1  0.1369527E-008  0.3837699E+03  0.7957747E-01  0.3434906E+00
         13   -1    0    0    0    0  0.00000000000E+00  0.00000000000E+00  0.14999999963E+04  0.15000000000E+04  0.10566000000E+00 0. -1.
        994   -1    0    0    0    0 -0.00000000000E+00 -0.00000000000E+00  0.11368683772E-12  0.17120000000E+03  0.17120000000E+03 0.  0.
         13    1    1    2    0    0  0.18425217013E+02  0.12718307775E+02  0.10895063129E+03  0.11122722327E+03  0.10566000000E+00 0. -1.
        994    1    1    2    0    0 -0.14896164443E+02 -0.81097610541E+01  0.31924595039E+01  0.17206770684E+03  0.17120000000E+03 0.  0.
        998    1    1    2    0    0 -0.35290525698E+01 -0.46085467210E+01  0.13878569055E+04  0.13879050699E+04  0.10000000000E+02 0. -1.
</event>
<event>
 5    1  0.1369527E-008  0.3745161E+03  0.7957747E-01  0.3475390E+00
         13   -1    0    0    0    0  0.00000000000E+00  0.00000000000E+00  0.14999999963E+04  0.15000000000E+04  0.10566000000E+00 0. -1.
        994   -1    0    0    0    0 -0.00000000000E+00 -0.00000000000E+00  0.11368683772E-12  0.17120000000E+03  0.17120000000E+03 0.  0.
         13    1    1    2    0    0  0.59062971824E+02 -0.14965564891E+02  0.21490411715E+03  0.22337455877E+03  0.10566000000E+00 0. -1.
        994    1    1    2    0    0 -0.67300420052E+02  0.22054592421E+02  0.24201527696E+02  0.18684460262E+03  0.17120000000E+03 0.  0.
        998    1    1    2    0    0  0.82374482283E+01 -0.70890275305E+01  0.12608943514E+04  0.12609808386E+04  0.10000000000E+02 0. -1.
</event>
<event>
 5    1  0.1369527E-008  0.3841969E+03  0.7957747E-01  0.3433086E+00
         13   -1    0    0    0    0  0.00000000000E+00  0.00000000000E+00  0.14999999963E+04  0.15000000000E+04  0.10566000000E+00 0. -1.
        994   -1    0    0    0    0 -0.00000000000E+00 -0.00000000000E+00  0.11368683772E-12  0.17120000000E+03  0.17120000000E+03 0.  0.
         13    1    1    2    0    0 -0.35484804324E+01  0.16756997437E+02  0.75128220328E+02  0.77056144013E+02  0.10566000000E+00 0. -1.
        994    1    1    2    0    0  0.61302763946E+01 -0.28978834778E+01  0.21810176928E+01  0.17134811016E+03  0.17120000000E+03 0.  0.
        998    1    1    2    0    0 -0.25817959622E+01 -0.13859113959E+02  0.14226907583E+04  0.14227957458E+04  0.10000000000E+02 0. -1.
</event>
<event>
 5    1  0.1369527E-008  0.3784618E+03  0.7957747E-01  0.3457884E+00
         13   -1    0    0    0    0  0.00000000000E+00  0.00000000000E+00  0.14999999963E+04  0.15000000000E+04  0.10566000000E+00 0. -1.
        994   -1    0    0    0    0 -0.00000000000E+00 -0.00000000000E+00  0.11368683772E-12  0.17120000000E+03  0.17120000000E+03 0.  0.
         13    1    1    2    0    0 -0.66575664853E+02  0.10029834544E+02  0.28420036209E+03  0.29206638579E+03  0.10566000000E+00 0. -1.
        994    1    1    2    0    0  0.97428193350E+02 -0.25756076511E+02  0.39829966865E+02  0.20261168426E+03  0.17120000000E+03 0.  0.
        998    1    1    2    0    0 -0.30852528497E+02  0.15726241967E+02  0.11759696673E+04  0.11765219300E+04  0.10000000000E+02 0. -1.
</event>
<event>
 5    1  0.1369527E-008  0.3770239E+03  0.7957747E-01  0.3464220E+00
         13   -1    0    0    0    0  0.00000000000E+00  0.00000000000E+00  0.14999999963E+04  0.15000000000E+04  0.10566000000E+00 0.  1.
        994   -1    0    0    0    0 -0.00000000000E+00 -0.00000000000E+00  0.11368683772E-12  0.17120000000E+03  0.17120000000E+03 0.  0.
         13    1    1    2    0    0 -0.54832590676E+01  0.29336102013E+02  0.77343130232E+02  0.82901411143E+02  0.10566000000E+00 0.  1.
        994    1    1    2    0    0  0.71970006189E+01 -0.16040008979E+02  0.66872366350E+01  0.17223018853E+03  0.17120000000E+03 0.  0.
        998    1    1    2    0    0 -0.17137415512E+01 -0.13296093034E+02  0.14159696294E+04  0.14160684003E+04  0.10000000000E+02 0.  1.
</event>
<event>
 5    1  0.1369527E-008  0.3791513E+03  0.7957747E-01  0.3454862E+00
         13   -1    0    0    0    0  0.00000000000E+00  0.00000000000E+00  0.14999999963E+04  0.15000000000E+04  0.10566000000E+00 0.  1.
        994   -1    0    0    0    0 -0.00000000000E+00 -0.00000000000E+00  0.11368683772E-12  0.17120000000E+03  0.17120000000E+03 0.  0.
         13    1    1    2    0    0  0.25001013169E+01  0.25134373360E+02  0.67082177866E+02  0.71679962208E+02  0.10566000000E+00 0.  1.
        994    1    1    2    0    0  0.14392103186E+01 -0.20453886743E+02  0.59728824363E+01  0.17252694901E+03  0.17120000000E+03 0.  0.
        998    1    1    2    0    0 -0.39393116356E+01 -0.46804866168E+01  0.14269449360E+04  0.14269930888E+04  0.10000000000E+02 0.  1.
</event>
<event>
 5    1  0.1369527E-008  0.3855088E+03  0.7957747E-01  0.3427517E+00
         13   -1    0    0    0    0  0.00000000000E+00  0.00000000000E+00  0.14999999963E+04  0.15000000000E+04  0.10566000000E+00 0. -1.
        994   -1    0    0    0    0 -0.00000000000E+00 -0.00000000000E+00  0.11368683772E-12  0.17120000000E+03  0.17120000000E+03 0.  0.
         13    1    1    2    0    0  0.10165035266E+02  0.32228914345E+00  0.39231854009E+02  0.40528771820E+02  0.10566000000E+00 0. -1.
        994    1    1    2    0    0  0.88548657689E+00 -0.29970943200E+01  0.14097884573E+01  0.17123432531E+03  0.17120000000E+03 0.  0.
        998    1    1    2    0    0 -0.11050521843E+02  0.26748051765E+01  0.14593583538E+04  0.14594369029E+04  0.10000000000E+02 0. -1.
</event>
<event>
 5    1  0.1369527E-008  0.3842651E+03  0.7957747E-01  0.3432795E+00
         13   -1    0    0    0    0  0.00000000000E+00  0.00000000000E+00  0.14999999963E+04  0.15000000000E+04  0.10566000000E+00 0. -1.
        994   -1    0    0    0    0 -0.00000000000E+00 -0.00000000000E+00  0.11368683772E-12  0.17120000000E+03  0.17120000000E+03 0.  0.
         13    1    1    2    0    0  0.10654370705E+02  0.14675785663E+02  0.90209116211E+02  0.92014075616E+02  0.10566000000E+00 0. -1.
        994    1    1    2    0    0 -0.24349157839E+01  0.42732428120E+01  0.20751964603E+01  0.17128320367E+03  0.17120000000E+03 0.  0.
        998    1    1    2    0    0 -0.82194549215E+01 -0.18949028475E+02  0.14077156836E+04  0.14079027207E+04  0.10000000000E+02 0. -1.
</event>
<event>
 5    1  0.1369527E-008  0.3855614E+03  0.7957747E-01  0.3427295E+00
         13   -1    0    0    0    0  0.00000000000E+00  0.00000000000E+00  0.14999999963E+04  0.15000000000E+04  0.10566000000E+00 0. -1.
        994   -1    0    0    0    0 -0.00000000000E+00 -0.00000000000E+00  0.11368683772E-12  0.17120000000E+03  0.17120000000E+03 0.  0.
         13    1    1    2    0    0 -0.10765203959E+02  0.84649922657E+01  0.67028697878E+02  0.68413472456E+02  0.10566000000E+00 0. -1.
        994    1    1    2    0    0  0.94840281028E+01 -0.11928166405E+02  0.21143814375E+01  0.17188990241E+03  0.17120000000E+03 0.  0.
        998    1    1    2    0    0  0.12811758559E+01  0.34631741391E+01  0.14308569170E+04  0.14308966251E+04  0.10000000000E+02 0. -1.
</event>
<event>
 5    1  0.1369527E-008  0.3801369E+03  0.7957747E-01  0.3450563E+00
         13   -1    0    0    0    0  0.00000000000E+00  0.00000000000E+00  0.14999999963E+04  0.15000000000E+04  0.10566000000E+00 0. -1.
        994   -1    0    0    0    0 -0.00000000000E+00 -0.00000000000E+00  0.11368683772E-12  0.17120000000E+03  0.17120000000E+03 0.  0.
         13    1    1    2    0    0  0.34803117467E+02  0.27270622703E+02  0.51694885568E+02  0.68024379497E+02  0.10566000000E+00 0. -1.
        994    1    1    2    0    0 -0.30317846698E+02 -0.33722690038E+02  0.23894970983E+02  0.17870870513E+03  0.17120000000E+03 0.  0.
        998    1    1    2    0    0 -0.44852707698E+01  0.64520673353E+01  0.14244101397E+04  0.14244669154E+04  0.10000000000E+02 0. -1.
</event>
<event>
 5    1  0.1369527E-008  0.3818184E+03  0.7957747E-01  0.3443279E+00
         13   -1    0    0    0    0  0.00000000000E+00  0.00000000000E+00  0.14999999963E+04  0.15000000000E+04  0.10566000000E+00 0. -1.
        994   -1    0    0    0    0 -0.00000000000E+00 -0.00000000000E+00  0.11368683772E-12  0.17120000000E+03  0.17120000000E+03 0.  0.
         13    1    1    2    0    0 -0.69231187082E+00  0.19883073374E+02  0.60054174569E+02  0.63263978295E+02  0.10566000000E+00 0. -1.
        994    1    1    2    0    0 -0.53233192148E+01 -0.14371903675E+02  0.39989473841E+01  0.17193115169E+03  0.17120000000E+03 0.  0.
        998    1    1    2    0    0  0.60156310857E+01 -0.55111696999E+01  0.14359468743E+04  0.14360048700E+04  0.10000000000E+02 0. -1.
</event>
<event>
 5    1  0.1369527E-008  0.3844582E+03  0.7957747E-01  0.3431973E+00
         13   -1    0    0    0    0  0.00000000000E+00  0.00000000000E+00  0.14999999963E+04  0.15000000000E+04  0.10566000000E+00 0.  1.
        994   -1    0    0    0    0 -0.00000000000E+00 -0.00000000000E+00  0.11368683772E-12  0.17120000000E+03  0.17120000000E+03 0.  0.
         13    1    1    2    0    0  0.34357057110E+00  0.13188627065E+02  0.49363910602E+02  0.51096621792E+02  0.10566000000E+00 0.  1.
        994    1    1    2    0    0  0.94949546862E+01  0.64007992493E+01  0.23314838194E+01  0.17159836891E+03  0.17120000000E+03 0.  0.
        998    1    1    2    0    0 -0.98385252573E+01 -0.19589426314E+02  0.14483046019E+04  0.14485050093E+04  0.10000000000E+02 0.  1.
</event>
<event>
 5    1  0.1369527E-008  0.3845235E+03  0.7957747E-01  0.3431695E+00
         13   -1    0    0    0    0  0.00000000000E+00  0.00000000000E+00  0.14999999963E+04  0.15000000000E+04  0.10566000000E+00 0.  1.
        994   -1    0    0    0    0 -0.00000000000E+00 -0.00000000000E+00  0.11368683772E-12  0.17120000000E+03  0.17120000000E+03 0.  0.
         13    1    1    2    0    0  0.80736552531E+01 -0.15277421772E+02  0.81069669018E+02  0.82890807234E+02  0.10566000000E+00 0.  1.
        994    1    1    2    0    0 -0.16638052851E+00  0.97960739561E+01  0.21831085702E+01  0.17149401363E+03  0.17120000000E+03 0.  0.
        998    1    1    2    0    0 -0.79072747246E+01  0.54813478156E+01  0.14167472187E+04  0.14168151791E+04  0.10000000000E+02 0.  1.
</event>
<event>
 5    1  0.1369527E-008  0.3778743E+03  0.7957747E-01  0.3460467E+00
         13   -1    0    0    0    0  0.00000000000E+00  0.00000000000E+00  0.14999999963E+04  0.15000000000E+04  0.10566000000E+00 0. -1.
        994   -1    0    0    0    0 -0.00000000000E+00 -0.00000000000E+00  0.11368683772E-12  0.17120000000E+03  0.17120000000E+03 0.  0.
         13    1    1    2    0    0  0.28974388428E+02  0.10382521564E+02  0.90736560142E+02  0.95814646319E+02  0.10566000000E+00 0. -1.
        994    1    1    2    0    0 -0.14977673907E+02 -0.18581476419E+01  0.59772799596E+01  0.17196787870E+03  0.17120000000E+03 0.  0.
        998    1    1    2    0    0 -0.13996714521E+02 -0.85243739218E+01  0.14032861562E+04  0.14034174750E+04  0.10000000000E+02 0. -1.
</event>
<event>
 5    1  0.1369527E-008  0.3709366E+03  0.7957747E-01  0.3491598E+00
         13   -1    0    0    0    0  0.00000000000E+00  0.00000000000E+00  0.14999999963E+04  0.15000000000E+04  0.10566000000E+00 0. -1.
        994   -1    0    0    0    0 -0.00000000000E+00 -0.00000000000E+00  0.11368683772E-12  0.17120000000E+03  0.17120000000E+03 0.  0.
         13    1    1    2    0    0  0.32217926996E+02  0.85076549475E+02  0.35081805288E+03  0.36242148320E+03  0.10566000000E+00 0. -1.
        994    1    1    2    0    0 -0.25362957848E+02 -0.89571615427E+02  0.39269884677E+02  0.19879114106E+03  0.17120000000E+03 0.  0.
        998    1    1    2    0    0 -0.68549691486E+01  0.44950659526E+01  0.11099120587E+04  0.11099873757E+04  0.10000000000E+02 0. -1.
</event>
<event>
 5    1  0.1369527E-008  0.3688114E+03  0.7957747E-01  0.3501371E+00
         13   -1    0    0    0    0  0.00000000000E+00  0.00000000000E+00  0.14999999963E+04  0.15000000000E+04  0.10566000000E+00 0. -1.
        994   -1    0    0    0    0 -0.00000000000E+00 -0.00000000000E+00  0.11368683772E-12  0.17120000000E+03  0.17120000000E+03 0.  0.
         13    1    1    2    0    0  0.33976133466E+02 -0.91962408296E+02  0.48345414958E+03  0.49329442334E+03  0.10566000000E+00 0. -1.
        994    1    1    2    0    0 -0.46086057425E+02  0.44736121783E+02  0.24353979872E+02  0.18446626146E+03  0.17120000000E+03 0.  0.
        998    1    1    2    0    0  0.12109923960E+02  0.47226286513E+02  0.99219186682E+03  0.99343931520E+03  0.10000000000E+02 0. -1.
</event>
<event>
 5    1  0.1369527E-008  0.3815639E+03  0.7957747E-01  0.3444377E+00
         13   -1    0    0    0    0  0.00000000000E+00  0.00000000000E+00  0.14999999963E+04  0.15000000000E+04  0.10566000000E+00 0.  1.
        994   -1    0    0    0    0 -0.00000000000E+00 -0.00000000000E+00  0.11368683772E-12  0.17120000000E+03  0.17120000000E+03 0.  0.
         13    1    1    2    0    0  0.13814178258E+02  0.54257325611E+01  0.32051439345E+02  0.35321042211E+02  0.10566000000E+00 0.  1.
        994    1    1    2    0    0 -0.63178951742E+01 -0.16956530181E+01  0.34881094866E+01  0.17136043285E+03  0.17120000000E+03 0.  0.
        998    1    1    2    0    0 -0.74962830835E+01 -0.37300795430E+01  0.14644604474E+04  0.14645185249E+04  0.10000000000E+02 0.  1.
</event>
<event>
 5    1  0.1369527E-008  0.3827856E+03  0.7957747E-01  0.3439118E+00
         13   -1    0    0    0    0  0.00000000000E+00  0.00000000000E+00  0.14999999963E+04  0.15000000000E+04  0.10566000000E+00 0.  1.
        994   -1    0    0    0    0 -0.00000000000E+00 -0.00000000000E+00  0.11368683772E-12  0.17120000000E+03  0.17120000000E+03 0.  0.
         13    1    1    2    0    0 -0.48729799388E+01 -0.12457002160E+02  0.31383502902E+02  0.34115366841E+02  0.10566000000E+00 0.  1.
        994    1    1    2    0    0  0.58073741841E+01  0.11327555395E+02  0.32704565514E+01  0.17170374193E+03  0.17120000000E+03 0.  0.
        998    1    1    2    0    0 -0.93439424533E+00  0.11294467647E+01  0.14653460368E+04  0.14653808912E+04  0.10000000000E+02 0.  1.
</event>
<event>
 5    1  0.1369527E-008  0.3788454E+03  0.7957747E-01  0.3456202E+00
         13   -1    0    0    0    0  0.00000000000E+00  0.00000000000E+00  0.14999999963E+04  0.15000000000E+04  0.10566000000E+00 0. -1.
        994   -1    0    0    0    0 -0.00000000000E+00 -0.00000000000E+00  0.11368683772E-12  0.17120000000E+03  0.17120000000E+03 0.  0.
         13    1    1    2    0    0  0.13178796194E+03 -0.28450026891E+02  0.40771424270E+03  0.42942797511E+03  0.10566000000E+00 0. -1.
        994    1    1    2    0    0 -0.12349629200E+03  0.58966690482E+02  0.86796689055E+02  0.23573610236E+03  0.17120000000E+03 0.  0.
        998    1    1    2    0    0 -0.82916699335E+01 -0.30516663591E+02  0.10054890645E+04  0.10060359225E+04  0.10000000000E+02 0. -1.
</event>
<event>
 5    1  0.1369527E-008  0.3822941E+03  0.7957747E-01  0.3441230E+00
         13   -1    0    0    0    0  0.00000000000E+00  0.00000000000E+00  0.14999999963E+04  0.15000000000E+04  0.10566000000E+00 0. -1.
        994   -1    0    0    0    0 -0.00000000000E+00 -0.00000000000E+00  0.11368683772E-12  0.17120000000E+03  0.17120000000E+03 0.  0.
         13    1    1    2    0    0  0.22407780362E+02 -0.17636790772E+02  0.14674031913E+03  0.14948544221E+03  0.10566000000E+00 0. -1.
        994    1    1    2    0    0 -0.43831139015E+01  0.44452231139E+01  0.31088813901E+01  0.17134198796E+03  0.17120000000E+03 0.  0.
        998    1    1    2    0    0 -0.18024666460E+02  0.13191567658E+02  0.13501507958E+04  0.13503725698E+04  0.10000000000E+02 0. -1.
</event>
<event>
 5    1  0.1369527E-008  0.3789709E+03  0.7957747E-01  0.3455652E+00
         13   -1    0    0    0    0  0.00000000000E+00  0.00000000000E+00  0.14999999963E+04  0.15000000000E+04  0.10566000000E+00 0. -1.
        994   -1    0    0    0    0 -0.00000000000E+00 -0.00000000000E+00  0.11368683772E-12  0.17120000000E+03  0.17120000000E+03 0.  0.
         13    1    1    2    0    0  0.82040366141E+01  0.25522113043E+02  0.74389339810E+02  0.79072558530E+02  0.10566000000E+00 0. -1.
        994    1    1    2    0    0  0.84527372465E+01 -0.24223537926E+02  0.68645989596E+01  0.17324777423E+03  0.17120000000E+03 0.  0.
        998    1    1    2    0    0 -0.16656773861E+02 -0.12985751172E+01  0.14187460575E+04  0.14188796672E+04  0.10000000000E+02 0. -1.
</event>
<event>
 5    1  0.1369527E-008  0.3827220E+03  0.7957747E-01  0.3439391E+00
         13   -1    0    0    0    0  0.00000000000E+00  0.00000000000E+00  0.14999999963E+04  0.15000000000E+04  0.10566000000E+00 0. -1.
        994   -1    0    0    0    0 -0.00000000000E+00 -0.00000000000E+00  0.11368683772E-12  0.17120000000E+03  0.17120000000E+03 0.  0.
         13    1    1    2    0    0  0.16882198869E+02  0.11925742504E+02  0.80602485171E+02  0.83210598800E+02  0.10566000000E+00 0. -1.
        994    1    1    2    0    0  0.23054076652E+01 -0.94957358335E+01  0.30817903196E+01  0.17150633031E+03  0.17120000000E+03 0.  0.
        998    1    1    2    0    0 -0.19187606534E+02 -0.24300066700E+01  0.14163157208E+04  0.14164830709E+04  0.10000000000E+02 0. -1.
</event>
<event>
 5    1  0.1369527E-008  0.3850458E+03  0.7957747E-01  0.3429478E+00
         13   -1    0    0    0    0  0.00000000000E+00  0.00000000000E+00  0.14999999963E+04  0.15000000000E+04  0.10566000000E+00 0. -1.
        994   -1    0    0    0    0 -0.00000000000E+00 -0.00000000000E+00  0.11368683772E-12  0.17120000000E+03  0.17120000000E+03 0.  0.
         13    1    1    2    0    0 -0.10092085618E+02 -0.76962977352E+01  0.55037942226E+02  0.56482470196E+02  0.10566000000E+00 0. -1.
        994    1    1    2    0    0 -0.66104936831E+01 -0.34042758567E+01  0.17892408578E+01  0.17137073584E+03  0.17120000000E+03 0.  0.
        998    1    1    2    0    0  0.16702579302E+02  0.11100573592E+02  0.14431728132E+04  0.14433467940E+04  0.10000000000E+02 0. -1.
</event>
<event>
 5    1  0.1369527E-008  0.3842995E+03  0.7957747E-01  0.3432649E+00
         13   -1    0    0    0    0  0.00000000000E+00  0.00000000000E+00  0.14999999963E+04  0.15000000000E+04  0.10566000000E+00 0.  1.
        994   -1    0    0    0    0 -0.00000000000E+00 -0.00000000000E+00  0.11368683772E-12  0.17120000000E+03  0.17120000000E+03 0.  0.
         13    1    1    2    0    0  0.15586777570E+01  0.10472123093E+02  0.29898804299E+02  0.31718204567E+02  0.10566000000E+00 0.  1.
        994    1    1    2    0    0 -0.86031191039E+01  0.11740636367E+02  0.26769594721E+01  0.17183847739E+03  0.17120000000E+03 0.  0.
        998    1    1    2    0    0  0.70444413469E+01 -0.22212759460E+02  0.14674242325E+04  0.14676433180E+04  0.10000000000E+02 0.  1.
</event>
<event>
 5    1  0.1369527E-008  0.3852831E+03  0.7957747E-01  0.3428473E+00
         13   -1    0    0    0    0  0.00000000000E+00  0.00000000000E+00  0.14999999963E+04  0.15000000000E+04  0.10566000000E+00 0. -1.
        994   -1    0    0    0    0 -0.00000000000E+00 -0.00000000000E+00  0.11368683772E-12  0.17120000000E+03  0.17120000000E+03 0.  0.
         13    1    1    2    0    0 -0.10835323679E+02 -0.11209028913E+01  0.43533448533E+02  0.44875750330E+02  0.10566000000E+00 0. -1.
        994    1    1    2    0    0 -0.63530398259E+01 -0.19799911783E+02  0.29116472523E+01  0.17248279715E+03  0.17120000000E+03 0.  0.
        998    1    1    2    0    0  0.17188363505E+02  0.20920814674E+02  0.14535549005E+04  0.14538414525E+04  0.10000000000E+02 0. -1.
</event>
<event>
 5    1  0.1369527E-008  0.3847391E+03  0.7957747E-01  0.3430780E+00
         13   -1    0    0    0    0  0.00000000000E+00  0.00000000000E+00  0.14999999963E+04  0.15000000000E+04  0.10566000000E+00 0. -1.
        994   -1    0    0    0    0 -0.00000000000E+00 -0.00000000000E+00  0.11368683772E-12  0.17120000000E+03  0.17120000000E+03 0.  0.
         13    1    1    2    0    0  0.16166896441E+02 -0.92277726560E+01  0.11010351210E+03  0.11166608648E+03  0.10566000000E+00 0. -1.
        994    1    1    2    0    0  0.18953959461E+01 -0.77098807013E+00  0.17735151300E+01  0.17122141310E+03  0.17120000000E+03 0.  0.
        998    1    1    2    0    0 -0.18062292387E+02  0.99987607261E+01  0.13881229690E+04  0.13883125004E+04  0.10000000000E+02 0. -1.
</event>
<event>
 5    1  0.1369527E-008  0.4364453E+03  0.7957747E-01  0.3237055E+00
         13   -1    0    0    0    0  0.00000000000E+00  0.00000000000E+00  0.14999999963E+04  0.15000000000E+04  0.10566000000E+00 0. -1.
        994   -1    0    0    0    0 -0.00000000000E+00 -0.00000000000E+00  0.11368683772E-12  0.17120000000E+03  0.17120000000E+03 0.  0.
         13    1    1    2    0    0 -0.23776994207E+02 -0.12465669017E+03  0.15415829048E+03  0.19967329703E+03  0.10566000000E+00 0. -1.
        994    1    1    2    0    0  0.57785963401E+02  0.62201457655E+02  0.85857281655E+02  0.20949737878E+03  0.17120000000E+03 0.  0.
        998    1    1    2    0    0 -0.34008969194E+02  0.62455232514E+02  0.12599844241E+04  0.12620293242E+04  0.10000000000E+02 0. -1.
</event>
<event>
 5    1  0.1369527E-008  0.3791591E+03  0.7957747E-01  0.3454828E+00
         13   -1    0    0    0    0  0.00000000000E+00  0.00000000000E+00  0.14999999963E+04  0.15000000000E+04  0.10566000000E+00 0.  1.
        994   -1    0    0    0    0 -0.00000000000E+00 -0.00000000000E+00  0.11368683772E-12  0.17120000000E+03  0.17120000000E+03 0.  0.
         13    1    1    2    0    0 -0.63830465215E+01 -0.22417854794E+02  0.57737962042E+02  0.62265455280E+02  0.10566000000E+00 0.  1.
        994    1    1    2    0    0  0.21449262649E+01  0.15724829259E+02  0.54030302885E+01  0.17201890507E+03  0.17120000000E+03 0.  0.
        998    1    1    2    0    0  0.42381202566E+01  0.66930255348E+01  0.14368590039E+04  0.14369156397E+04  0.10000000000E+02 0.  1.
</event>
<event>
 5    1  0.1369527E-008  0.3763589E+03  0.7957747E-01  0.3467168E+00
         13   -1    0    0    0    0  0.00000000000E+00  0.00000000000E+00  0.14999999963E+04  0.15000000000E+04  0.10566000000E+00 0.  1.
        994   -1    0    0    0    0 -0.00000000000E+00 -0.00000000000E+00  0.11368683772E-12  0.17120000000E+03  0.17120000000E+03 0.  0.
         13    1    1    2    0    0 -0.23111702363E+02 -0.20579684673E+02  0.70738523668E+02  0.77211554201E+02  0.10566000000E+00 0.  1.
        994    1    1    2    0    0  0.28059472736E+02  0.35814018459E+02  0.13019043509E+02  0.17762013800E+03  0.17120000000E+03 0.  0.
        998    1    1    2    0    0 -0.49477703731E+01 -0.15234333786E+02  0.14162424291E+04  0.14163683078E+04  0.10000000000E+02 0.  1.
</event>
<event>
 5    1  0.1369527E-008  0.3836528E+03  0.7957747E-01  0.3435406E+00
         13   -1    0    0    0    0  0.00000000000E+00  0.00000000000E+00  0.14999999963E+04  0.15000000000E+04  0.10566000000E+00 0.  1.
        994   -1    0    0    0    0 -0.00000000000E+00 -0.00000000000E+00  0.11368683772E-12  0.17120000000E+03  0.17120000000E+03 0.  0.
         13    1    1    2    0    0  0.18755070114E+02  0.14606495269E+01  0.75469227644E+02  0.77778542267E+02  0.10566000000E+00 0.  1.
        994    1    1    2    0    0 -0.14245966977E+02  0.12740737323E+01  0.29764699979E+01  0.17182220524E+03  0.17120000000E+03 0.  0.
        998    1    1    2    0    0 -0.45091031367E+01 -0.27347232592E+01  0.14215542986E+04  0.14215992525E+04  0.10000000000E+02 0.  1.
</event>
<event>
 5    1  0.1369527E-008  0.3751759E+03  0.7957747E-01  0.3472437E+00
         13   -1    0    0    0    0  0.00000000000E+00  0.00000000000E+00  0.14999999963E+04  0.15000000000E+04  0.10566000000E+00 0. -1.
        994   -1    0    0    0    0 -0.00000000000E+00 -0.00000000000E+00  0.11368683772E-12  0.17120000000E+03  0.17120000000E+03 0.  0.
         13    1    1    2    0    0 -0.24325459539E+02 -0.11478332197E+03  0.51471242630E+03  0.52791650091E+03  0.10566000000E+00 0. -1.
        994    1    1    2    0    0  0.15614718072E+03  0.67485679900E+02  0.12533849947E+03  0.27194749215E+03  0.17120000000E+03 0.  0.
        998    1    1    2    0    0 -0.13182172118E+03  0.47297642068E+02  0.85994907051E+03  0.87133600694E+03  0.10000000000E+02 0. -1.
</event>
<event>
 5    1  0.1369527E-008  0.3834308E+03  0.7957747E-01  0.3436355E+00
         13   -1    0    0    0    0  0.00000000000E+00  0.00000000000E+00  0.14999999963E+04  0.15000000000E+04  0.10566000000E+00 0.  1.
        994   -1    0    0    0    0 -0.00000000000E+00 -0.00000000000E+00  0.11368683772E-12  0.17120000000E+03  0.17120000000E+03 0.  0.
         13    1    1    2    0    0 -0.25038494826E+02 -0.47467482139E+01  0.14632356853E+03  0.14852627954E+03  0.10566000000E+00 0.  1.
        994    1    1    2    0    0  0.45770650040E+01  0.46607811256E+00  0.24811834658E+01  0.17127977996E+03  0.17120000000E+03 0.  0.
        998    1    1    2    0    0  0.20461429822E+02  0.42806701014E+01  0.13511952443E+04  0.13513939405E+04  0.10000000000E+02 0.  1.
</event>
<event>
 5    1  0.1369527E-008  0.3729694E+03  0.7957747E-01  0.3482355E+00
         13   -1    0    0    0    0  0.00000000000E+00  0.00000000000E+00  0.14999999963E+04  0.15000000000E+04  0.10566000000E+00 0. -1.
        994   -1    0    0    0    0 -0.00000000000E+00 -0.00000000000E+00  0.11368683772E-12  0.17120000000E+03  0.17120000000E+03 0.  0.
         13    1    1    2    0    0  0.22581437764E+02  0.14799160141E+02  0.24037377862E+02  0.36148902762E+02  0.10566000000E+00 0. -1.
        994    1    1    2    0    0 -0.14901798740E+02 -0.96646841877E+01  0.13632829819E+02  0.17265793864E+03  0.17120000000E+03 0.  0.
        998    1    1    2    0    0 -0.76796390234E+01 -0.51344759536E+01  0.14623297886E+04  0.14623931586E+04  0.10000000000E+02 0. -1.
</event>
<event>
 5    1  0.1369527E-008  0.3849985E+03  0.7957747E-01  0.3429679E+00
         13   -1    0    0    0    0  0.00000000000E+00  0.00000000000E+00  0.14999999963E+04  0.15000000000E+04  0.10566000000E+00 0. -1.
        994   -1    0    0    0    0 -0.00000000000E+00 -0.00000000000E+00  0.11368683772E-12  0.17120000000E+03  0.17120000000E+03 0.  0.
         13    1    1    2    0    0 -0.12703877526E+02 -0.78294942961E+01  0.65941433399E+02  0.67608973427E+02  0.10566000000E+00 0. -1.
        994    1    1    2    0    0  0.10168602156E+02  0.12822122492E+02  0.25121292839E+01  0.17199871537E+03  0.17120000000E+03 0.  0.
        998    1    1    2    0    0  0.25352753697E+01 -0.49926281958E+01  0.14315464336E+04  0.14315923112E+04  0.10000000000E+02 0. -1.
</event>
<event>
 5    1  0.1369527E-008  0.4022502E+03  0.7957747E-01  0.3359652E+00
         13   -1    0    0    0    0  0.00000000000E+00  0.00000000000E+00  0.14999999963E+04  0.15000000000E+04  0.10566000000E+00 0.  1.
        994   -1    0    0    0    0 -0.00000000000E+00 -0.00000000000E+00  0.11368683772E-12  0.17120000000E+03  0.17120000000E+03 0.  0.
         13    1    1    2    0    0  0.30167193168E+02  0.31146670970E+01  0.35797213225E+01  0.30538275386E+02  0.10566000000E+00 0.  1.
        994    1    1    2    0    0 -0.28334644574E+02  0.32805562589E+00  0.32309349830E+02  0.17651145512E+03  0.17120000000E+03 0.  0.
        998    1    1    2    0    0 -0.18325485946E+01 -0.34427227229E+01  0.14641109251E+04  0.14641502695E+04  0.10000000000E+02 0.  1.
</event>
<event>
 5    1  0.1369527E-008  0.3836503E+03  0.7957747E-01  0.3435417E+00
         13   -1    0    0    0    0  0.00000000000E+00  0.00000000000E+00  0.14999999963E+04  0.15000000000E+04  0.10566000000E+00 0. -1.
        994   -1    0    0    0    0 -0.00000000000E+00 -0.00000000000E+00  0.11368683772E-12  0.17120000000E+03  0.17120000000E+03 0.  0.
         13    1    1    2    0    0 -0.62057596805E+01  0.23933808260E+02  0.14610432217E+03  0.14818172206E+03  0.10566000000E+00 0. -1.
        994    1    1    2    0    0 -0.51535397382E+00 -0.32186623385E+01  0.23368082230E+01  0.17124697384E+03  0.17120000000E+03 0.  0.
        998    1    1    2    0    0  0.67211136543E+01 -0.20715145922E+02  0.13515588659E+04  0.13517713041E+04  0.10000000000E+02 0. -1.
</event>
<event>
 5    1  0.1369527E-008  0.3818422E+03  0.7957747E-01  0.3443176E+00
         13   -1    0    0    0    0  0.00000000000E+00  0.00000000000E+00  0.14999999963E+04  0.15000000000E+04  0.10566000000E+00 0. -1.
        994   -1    0    0    0    0 -0.00000000000E+00 -0.00000000000E+00  0.11368683772E-12  0.17120000000E+03  0.17120000000E+03 0.  0.
         13    1    1    2    0    0  0.37507329612E+02  0.17950641487E+00  0.32885681868E+02  0.49882975384E+02  0.10566000000E+00 0. -1.
        994    1    1    2    0    0 -0.38676230867E+02 -0.10208672095E+02  0.23202701891E+02  0.17733548205E+03  0.17120000000E+03 0.  0.
        998    1    1    2    0    0  0.11689012544E+01  0.10029165680E+02  0.14439116125E+04  0.14439815426E+04  0.10000000000E+02 0. -1.
</event>
<event>
 5    1  0.1369527E-008  0.3831437E+03  0.7957747E-01  0.3437583E+00
         13   -1    0    0    0    0  0.00000000000E+00  0.00000000000E+00  0.14999999963E+04  0.15000000000E+04  0.10566000000E+00 0.  1.
        994   -1    0    0    0    0 -0.00000000000E+00 -0.00000000000E+00  0.11368683772E-12  0.17120000000E+03  0.17120000000E+03 0.  0.
         13    1    1    2    0    0 -0.21759069864E+02 -0.12693087193E+02  0.11214008163E+03  0.11493467995E+03  0.10566000000E+00 0.  1.
        994    1    1    2    0    0  0.28779763545E+02  0.10052571963E+02  0.56353903384E+01  0.17398427118E+03  0.17120000000E+03 0.  0.
        998    1    1    2    0    0 -0.70206936807E+01  0.26405152300E+01  0.13822245243E+04  0.13822810489E+04  0.10000000000E+02 0.  1.
</event>
<event>
 5    1  0.1369527E-008  0.3821709E+03  0.7957747E-01  0.3441760E+00
         13   -1    0    0    0    0  0.00000000000E+00  0.00000000000E+00  0.14999999963E+04  0.15000000000E+04  0.10566000000E+00 0.  1.
        994   -1    0    0    0    0 -0.00000000000E+00 -0.00000000000E+00  0.11368683772E-12  0.17120000000E+03  0.17120000000E+03 0.  0.
         13    1    1    2    0    0  0.97553331102E+01  0.23104639029E+02  0.99572950941E+02  0.10268288364E+03  0.10566000000E+00 0.  1.
        994    1    1    2    0    0 -0.88113108752E+01 -0.18279645594E+02  0.44092246082E+01  0.17245482279E+03  0.17120000000E+03 0.  0.
        998    1    1    2    0    0 -0.94402223498E+00 -0.48249934347E+01  0.13960178207E+04  0.13960622936E+04  0.10000000000E+02 0.  1.
</event>
<event>
 5    1  0.1369527E-008  0.3849010E+03  0.7957747E-01  0.3430092E+00
         13   -1    0    0    0    0  0.00000000000E+00  0.00000000000E+00  0.14999999963E+04  0.15000000000E+04  0.10566000000E+00 0. -1.
        994   -1    0    0    0    0 -0.00000000000E+00 -0.00000000000E+00  0.11368683772E-12  0.17120000000E+03  0.17120000000E+03 0.  0.
         13    1    1    2    0    0 -0.11717384435E+02  0.59211631481E+01  0.54390136128E+02  0.55952259500E+02  0.10566000000E+00 0. -1.
        994    1    1    2    0    0 -0.31804949657E+01 -0.27683008054E+01  0.17377784119E+01  0.17126073371E+03  0.17120000000E+03 0.  0.
        998    1    1    2    0    0  0.14897879401E+02 -0.31528623427E+01  0.14438720817E+04  0.14439870068E+04  0.10000000000E+02 0. -1.
</event>
<event>
 5    1  0.1369527E-008  0.3853306E+03  0.7957747E-01  0.3428271E+00
         13   -1    0    0    0    0  0.00000000000E+00  0.00000000000E+00  0.14999999963E+04  0.15000000000E+04  0.10566000000E+00 0.  1.
        994   -1    0    0    0    0 -0.00000000000E+00 -0.00000000000E+00  0.11368683772E-12  0.17120000000E+03  0.17120000000E+03 0.  0.
         13    1    1    2    0    0 -0.22731003126E+01  0.13182535112E+02  0.60392945462E+02  0.61856812419E+02  0.10566000000E+00 0.  1.
        994    1    1    2    0    0  0.12668348545E+01 -0.10953570846E+02  0.18655935752E+01  0.17156487410E+03  0.17120000000E+03 0.  0.
        998    1    1    2    0    0  0.10062654580E+01 -0.22289642667E+01  0.14377414572E+04  0.14377783135E+04  0.10000000000E+02 0.  1.
</event>
<event>
 5    1  0.1369527E-008  0.3831105E+03  0.7957747E-01  0.3437726E+00
         13   -1    0    0    0    0  0.00000000000E+00  0.00000000000E+00  0.14999999963E+04  0.15000000000E+04  0.10566000000E+00 0.  1.
        994   -1    0    0    0    0 -0.00000000000E+00 -0.00000000000E+00  0.11368683772E-12  0.17120000000E+03  0.17120000000E+03 0.  0.
         13    1    1    2    0    0  0.24175572487E+02  0.22051610992E+01  0.10486157307E+03  0.10763494652E+03  0.10566000000E+00 0.  1.
        994    1    1    2    0    0 -0.27219574182E+02 -0.76745614391E+01  0.52221550465E+01  0.17359871836E+03  0.17120000000E+03 0.  0.
        998    1    1    2    0    0  0.30440016946E+01  0.54694003398E+01  0.13899162682E+04  0.13899663351E+04  0.10000000000E+02 0.  1.
</event>
<event>
 5    1  0.1369527E-008  0.3789624E+03  0.7957747E-01  0.3455689E+00
         13   -1    0    0    0    0  0.00000000000E+00  0.00000000000E+00  0.14999999963E+04  0.15000000000E+04  0.10566000000E+00 0. -1.
        994   -1    0    0    0    0 -0.00000000000E+00 -0.00000000000E+00  0.11368683772E-12  0.17120000000E+03  0.17120000000E+03 0.  0.
         13    1    1    2    0    0 -0.12483907109E+02 -0.83541961788E+01  0.22590635016E+02  0.27129107707E+02  0.10566000000E+00 0. -1.
        994    1    1    2    0    0  0.82639139839E+01 -0.27903743613E+01  0.49130830082E+01  0.17149243962E+03  0.17120000000E+03 0.  0.
        998    1    1    2    0    0  0.42199931247E+01  0.11144570540E+02  0.14724962783E+04  0.14725784527E+04  0.10000000000E+02 0. -1.
</event>
<event>
 5    1  0.1369527E-008  0.3743297E+03  0.7957747E-01  0.3476226E+00
         13   -1    0    0    0    0  0.00000000000E+00  0.00000000000E+00  0.14999999963E+04  0.15000000000E+04  0.10566000000E+00 0.  1.
        994   -1    0    0    0    0 -0.00000000000E+00 -0.00000000000E+00  0.11368683772E-12  0.17120000000E+03  0.17120000000E+03 0.  0.
         13    1    1    2    0    0  0.57941162909E+02  0.44213131531E+02  0.32303528094E+03  0.33115522532E+03  0.10566000000E+00 0.  1.
        994    1    1    2    0    0 -0.60791844957E+02 -0.22810052155E+02  0.21525245317E+02  0.18436030776E+03  0.17120000000E+03 0.  0.
        998    1    1    2    0    0  0.28506820479E+01 -0.21403079376E+02  0.11554394700E+04  0.11556844669E+04  0.10000000000E+02 0.  1.
</event>
<event>
 5    1  0.1369527E-008  0.3808860E+03  0.7957747E-01  0.3447310E+00
         13   -1    0    0    0    0  0.00000000000E+00  0.00000000000E+00  0.14999999963E+04  0.15000000000E+04  0.10566000000E+00 0. -1.
        994   -1    0    0    0    0 -0.00000000000E+00 -0.00000000000E+00  0.11368683772E-12  0.17120000000E+03  0.17120000000E+03 0.  0.
         13    1    1    2    0    0 -0.35354849671E+01  0.22773361641E+02  0.74114805989E+02  0.77615341816E+02  0.10566000000E+00 0. -1.
        994    1    1    2    0    0 -0.81530482885E+01 -0.60477921964E+01  0.40301425053E+01  0.17154804002E+03  0.17120000000E+03 0.  0.
        998    1    1    2    0    0  0.11688533256E+02 -0.16725569445E+02  0.14218550478E+04  0.14220366182E+04  0.10000000000E+02 0. -1.
</event>
<event>
 5    1  0.1369527E-008  0.3820551E+03  0.7957747E-01  0.3442259E+00
         13   -1    0    0    0    0  0.00000000000E+00  0.00000000000E+00  0.14999999963E+04  0.15000000000E+04  0.10566000000E+00 0.  1.
        994   -1    0    0    0    0 -0.00000000000E+00 -0.00000000000E+00  0.11368683772E-12  0.17120000000E+03  0.17120000000E+03 0.  0.
         13    1    1    2    0    0  0.33713461931E+02  0.10176113941E+02  0.17570677433E+03  0.17920109520E+03  0.10566000000E+00 0.  1.
        994    1    1    2    0    0 -0.34027121415E+02 -0.14715641630E+02  0.76762915861E+01  0.17533613590E+03  0.17120000000E+03 0.  0.
        998    1    1    2    0    0  0.31365948324E+00  0.45395276894E+01  0.13166169304E+04  0.13166627689E+04  0.10000000000E+02 0.  1.
</event>
<event>
 5    1  0.1369527E-008  0.3826250E+03  0.7957747E-01  0.3439808E+00
         13   -1    0    0    0    0  0.00000000000E+00  0.00000000000E+00  0.14999999963E+04  0.15000000000E+04  0.10566000000E+00 0. -1.
        994   -1    0    0    0    0 -0.00000000000E+00 -0.00000000000E+00  0.11368683772E-12  0.17120000000E+03  0.17120000000E+03 0.  0.
         13    1    1    2    0    0 -0.13529165121E+02 -0.44207764745E+01  0.45093931921E+02  0.47286947815E+02  0.10566000000E+00 0. -1.
        994    1    1    2    0    0 -0.49832524825E+02 -0.46496277664E+01  0.11160340400E+02  0.17871455667E+03  0.17120000000E+03 0.  0.
        998    1    1    2    0    0  0.63361689946E+02  0.90704042409E+01  0.14437457240E+04  0.14451984955E+04  0.10000000000E+02 0. -1.
</event>
<event>
 5    1  0.1369527E-008  0.3744339E+03  0.7957747E-01  0.3475758E+00
         13   -1    0    0    0    0  0.00000000000E+00  0.00000000000E+00  0.14999999963E+04  0.15000000000E+04  0.10566000000E+00 0. -1.
        994   -1    0    0    0    0 -0.00000000000E+00 -0.00000000000E+00  0.11368683772E-12  0.17120000000E+03  0.17120000000E+03 0.  0.
         13    1    1    2    0    0 -0.76546575534E+01  0.13949743192E+02  0.15105312118E+02  0.21940162616E+02  0.10566000000E+00 0. -1.
        994    1    1    2    0    0  0.60800588475E+01 -0.99078709962E+01  0.74300518060E+01  0.17175499612E+03  0.17120000000E+03 0.  0.
        998    1    1    2    0    0  0.15745987059E+01 -0.40418721962E+01  0.14774646324E+04  0.14775048413E+04  0.10000000000E+02 0. -1.
</event>
<event>
 5    1  0.1369527E-008  0.3848648E+03  0.7957747E-01  0.3430246E+00
         13   -1    0    0    0    0  0.00000000000E+00  0.00000000000E+00  0.14999999963E+04  0.15000000000E+04  0.10566000000E+00 0.  1.
        994   -1    0    0    0    0 -0.00000000000E+00 -0.00000000000E+00  0.11368683772E-12  0.17120000000E+03  0.17120000000E+03 0.  0.
         13    1    1    2    0    0  0.82657989649E+01  0.60414095741E+01  0.30810258247E+02  0.32466986917E+02  0.10566000000E+00 0.  1.
        994    1    1    2    0    0 -0.36143634246E+01 -0.42324075434E+01  0.17991804798E+01  0.17129989477E+03  0.17120000000E+03 0.  0.
        998    1    1    2    0    0 -0.46514355403E+01 -0.18090020307E+01  0.14673905576E+04  0.14674331183E+04  0.10000000000E+02 0.  1.
</event>
<event>
 5    1  0.1369527E-008  0.3810285E+03  0.7957747E-01  0.3446693E+00
         13   -1    0    0    0    0  0.00000000000E+00  0.00000000000E+00  0.14999999963E+04  0.15000000000E+04  0.10566000000E+00 0. -1.
        994   -1    0    0    0    0 -0.00000000000E+00 -0.00000000000E+00  0.11368683772E-12  0.17120000000E+03  0.17120000000E+03 0.  0.
         13    1    1    2    0    0  0.33238403028E+01  0.19665484764E+02  0.49555701073E+02  0.53418703450E+02  0.10566000000E+00 0. -1.
        994    1    1    2    0    0 -0.20955305906E+02 -0.30548449397E+02  0.82004743158E+01  0.17535398594E+03  0.17120000000E+03 0.  0.
        998    1    1    2    0    0  0.17631465604E+02  0.10882964632E+02  0.14422438209E+04  0.14424273106E+04  0.10000000000E+02 0. -1.
</event>
<event>
 5    1  0.1369527E-008  0.3835701E+03  0.7957747E-01  0.3435759E+00
         13   -1    0    0    0    0  0.00000000000E+00  0.00000000000E+00  0.14999999963E+04  0.15000000000E+04  0.10566000000E+00 0. -1.
        994   -1    0    0    0    0 -0.00000000000E+00 -0.00000000000E+00  0.11368683772E-12  0.17120000000E+03  0.17120000000E+03 0.  0.
         13    1    1    2    0    0  0.10895401764E+02 -0.17767461317E+02  0.92720722955E+02  0.95034394251E+02  0.10566000000E+00 0. -1.
        994    1    1    2    0    0 -0.74006296428E+01  0.97553735970E+01  0.28372589548E+01  0.17166078956E+03  0.17120000000E+03 0.  0.
        998    1    1    2    0    0 -0.34947721217E+01  0.80120877198E+01  0.14044420144E+04  0.14045048162E+04  0.10000000000E+02 0. -1.
</event>
<event>
 5    1  0.1369527E-008  0.3829801E+03  0.7957747E-01  0.3438284E+00
         13   -1    0    0    0    0  0.00000000000E+00  0.00000000000E+00  0.14999999963E+04  0.15000000000E+04  0.10566000000E+00 0.  1.
        994   -1    0    0    0    0 -0.00000000000E+00 -0.00000000000E+00  0.11368683772E-12  0.17120000000E+03  0.17120000000E+03 0.  0.
         13    1    1    2    0    0  0.69570569854E+01  0.78448595868E+01  0.19059982787E+02  0.21754001281E+02  0.10566000000E+00 0.  1.
        994    1    1    2    0    0 -0.12214502368E+02 -0.17155491759E+02  0.41058561660E+01  0.17253927965E+03  0.17120000000E+03 0.  0.
        998    1    1    2    0    0  0.52574453825E+01  0.93106321719E+01  0.14768341573E+04  0.14769067191E+04  0.10000000000E+02 0.  1.
</event>
<event>
 5    1  0.1369527E-008  0.3815085E+03  0.7957747E-01  0.3444616E+00
         13   -1    0    0    0    0  0.00000000000E+00  0.00000000000E+00  0.14999999963E+04  0.15000000000E+04  0.10566000000E+00 0. -1.
        994   -1    0    0    0    0 -0.00000000000E+00 -0.00000000000E+00  0.11368683772E-12  0.17120000000E+03  0.17120000000E+03 0.  0.
         13    1    1    2    0    0  0.34256258182E+02  0.10963148164E+02  0.17459645168E+03  0.17826276657E+03  0.10566000000E+00 0. -1.
        994    1    1    2    0    0 -0.26306828830E+02 -0.26968820102E+02  0.81092906363E+01  0.17548380864E+03  0.17120000000E+03 0.  0.
        998    1    1    2    0    0 -0.79494293520E+01  0.16005671938E+02  0.13172942540E+04  0.13174534248E+04  0.10000000000E+02 0. -1.
</event>
<event>
 5    1  0.1369527E-008  0.3703517E+03  0.7957747E-01  0.3494276E+00
         13   -1    0    0    0    0  0.00000000000E+00  0.00000000000E+00  0.14999999963E+04  0.15000000000E+04  0.10566000000E+00 0.  1.
        994   -1    0    0    0    0 -0.00000000000E+00 -0.00000000000E+00  0.11368683772E-12  0.17120000000E+03  0.17120000000E+03 0.  0.
         13    1    1    2    0    0 -0.82569094467E+02 -0.57985036217E+02  0.39253414811E+03  0.40529370632E+03  0.10566000000E+00 0.  1.
        994    1    1    2    0    0  0.37134893623E+02  0.90455805052E+02  0.45387029351E+02  0.20231331005E+03  0.17120000000E+03 0.  0.
        998    1    1    2    0    0  0.45434200844E+02 -0.32470768836E+02  0.10620788188E+04  0.10635929836E+04  0.10000000000E+02 0.  1.
</event>
<event>
 5    1  0.1369527E-008  0.3857001E+03  0.7957747E-01  0.3426708E+00
         13   -1    0    0    0    0  0.00000000000E+00  0.00000000000E+00  0.14999999963E+04  0.15000000000E+04  0.10566000000E+00 0. -1.
        994   -1    0    0    0    0 -0.00000000000E+00 -0.00000000000E+00  0.11368683772E-12  0.17120000000E+03  0.17120000000E+03 0.  0.
         13    1    1    2    0    0 -0.10658819134E+02 -0.20972668240E+01  0.46354809577E+02  0.47610802224E+02  0.10566000000E+00 0. -1.
        994    1    1    2    0    0  0.79369820149E+01 -0.32874716735E+01  0.15251511689E+01  0.17142219588E+03  0.17120000000E+03 0.  0.
        998    1    1    2    0    0  0.27218371190E+01  0.53847384975E+01  0.14521200355E+04  0.14521670019E+04  0.10000000000E+02 0. -1.
</event>
<event>
 5    1  0.1369527E-008  0.3788609E+03  0.7957747E-01  0.3456134E+00
         13   -1    0    0    0    0  0.00000000000E+00  0.00000000000E+00  0.14999999963E+04  0.15000000000E+04  0.10566000000E+00 0.  1.
        994   -1    0    0    0    0 -0.00000000000E+00 -0.00000000000E+00  0.11368683772E-12  0.17120000000E+03  0.17120000000E+03 0.  0.
         13    1    1    2    0    0 -0.24089718998E+02 -0.42991054438E+01  0.53537568653E+02  0.58864924108E+02  0.10566000000E+00 0.  1.
        994    1    1    2    0    0  0.57692040697E+02 -0.11155360090E+02  0.16383970915E+02  0.18174346789E+03  0.17120000000E+03 0.  0.
        998    1    1    2    0    0 -0.33602321700E+02  0.15454465534E+02  0.14300784567E+04  0.14305916080E+04  0.10000000000E+02 0.  1.
</event>
<event>
 5    1  0.1369527E-008  0.3809224E+03  0.7957747E-01  0.3447152E+00
         13   -1    0    0    0    0  0.00000000000E+00  0.00000000000E+00  0.14999999963E+04  0.15000000000E+04  0.10566000000E+00 0.  1.
        994   -1    0    0    0    0 -0.00000000000E+00 -0.00000000000E+00  0.11368683772E-12  0.17120000000E+03  0.17120000000E+03 0.  0.
         13    1    1    2    0    0  0.19852993528E+02  0.49115386716E+01  0.55221088334E+02  0.58886707540E+02  0.10566000000E+00 0.  1.
        994    1    1    2    0    0 -0.14187155082E+02 -0.65556765833E+01  0.44827209974E+01  0.17197030864E+03  0.17120000000E+03 0.  0.
        998    1    1    2    0    0 -0.56658384460E+01  0.16441379117E+01  0.14402961869E+04  0.14403429838E+04  0.10000000000E+02 0.  1.
</event>
<event>
 5    1  0.1369527E-008  0.3833886E+03  0.7957747E-01  0.3436535E+00
         13   -1    0    0    0    0  0.00000000000E+00  0.00000000000E+00  0.14999999963E+04  0.15000000000E+04  0.10566000000E+00 0.  1.
        994   -1    0    0    0    0 -0.00000000000E+00 -0.00000000000E+00  0.11368683772E-12  0.17120000000E+03  0.17120000000E+03 0.  0.
         13    1    1    2    0    0  0.81577596229E+01  0.77586869446E+01  0.25132429311E+02  0.27538998389E+02  0.10566000000E+00 0.  1.
        994    1    1    2    0    0 -0.88178525123E+01 -0.37522896451E+01  0.27359525758E+01  0.17148982371E+03  0.17120000000E+03 0.  0.
        998    1    1    2    0    0  0.66009288943E+00 -0.40063972995E+01  0.14721316144E+04  0.14721711779E+04  0.10000000000E+02 0.  1.
</event>
<event>
 5    1  0.1369527E-008  0.3715435E+03  0.7957747E-01  0.3488827E+00
         13   -1    0    0    0    0  0.00000000000E+00  0.00000000000E+00  0.14999999963E+04  0.15000000000E+04  0.10566000000E+00 0.  1.
        994   -1    0    0    0    0 -0.00000000000E+00 -0.00000000000E+00  0.11368683772E-12  0.17120000000E+03  0.17120000000E+03 0.  0.
         13    1    1    2    0    0 -0.34438978037E+02 -0.11710501894E+03  0.52358451239E+03  0.53762475896E+03  0.10566000000E+00 0.  1.
        994    1    1    2    0    0  0.41911384234E+02  0.11948143539E+03  0.65799786872E+02  0.22287088074E+03  0.17120000000E+03 0.  0.
        998    1    1    2    0    0 -0.74724061967E+01 -0.23764164522E+01  0.91061569702E+03  0.91070436030E+03  0.10000000000E+02 0.  1.
</event>
<event>
 5    1  0.1369527E-008  0.3750136E+03  0.7957747E-01  0.3473162E+00
         13   -1    0    0    0    0  0.00000000000E+00  0.00000000000E+00  0.14999999963E+04  0.15000000000E+04  0.10566000000E+00 0. -1.
        994   -1    0    0    0    0 -0.00000000000E+00 -0.00000000000E+00  0.11368683772E-12  0.17120000000E+03  0.17120000000E+03 0.  0.
         13    1    1    2    0    0  0.34239011976E+02 -0.16106486538E+01  0.79263053350E+02  0.86357089579E+02  0.10566000000E+00 0. -1.
        994    1    1    2    0    0 -0.41600832841E+02  0.26276784705E+01  0.12600644348E+02  0.17665149370E+03  0.17120000000E+03 0.  0.
        998    1    1    2    0    0  0.73618208653E+01 -0.10170298168E+01  0.14081362986E+04  0.14081914167E+04  0.10000000000E+02 0. -1.
</event>
<event>
 5    1  0.1369527E-008  0.3711655E+03  0.7957747E-01  0.3490552E+00
         13   -1    0    0    0    0  0.00000000000E+00  0.00000000000E+00  0.14999999963E+04  0.15000000000E+04  0.10566000000E+00 0. -1.
        994   -1    0    0    0    0 -0.00000000000E+00 -0.00000000000E+00  0.11368683772E-12  0.17120000000E+03  0.17120000000E+03 0.  0.
         13    1    1    2    0    0  0.13372653334E+03  0.63529369363E+02  0.49099381446E+03  0.51282911724E+03  0.10566000000E+00 0. -1.
        994    1    1    2    0    0 -0.15295602314E+03 -0.69602319189E+02  0.11847488631E+03  0.26755516541E+03  0.17120000000E+03 0.  0.
        998    1    1    2    0    0  0.19229489800E+02  0.60729498265E+01  0.89053129551E+03  0.89081571735E+03  0.10000000000E+02 0.  1.
</event>
<event>
 5    1  0.1369527E-008  0.3725678E+03  0.7957747E-01  0.3484172E+00
         13   -1    0    0    0    0  0.00000000000E+00  0.00000000000E+00  0.14999999963E+04  0.15000000000E+04  0.10566000000E+00 0. -1.
        994   -1    0    0    0    0 -0.00000000000E+00 -0.00000000000E+00  0.11368683772E-12  0.17120000000E+03  0.17120000000E+03 0.  0.
         13    1    1    2    0    0  0.12052052205E+02 -0.48861057304E+02  0.17418033622E+03  0.18130486913E+03  0.10566000000E+00 0. -1.
        994    1    1    2    0    0  0.12403735048E+02  0.13411100439E+02  0.90776015390E+01  0.17241100054E+03  0.17120000000E+03 0.  0.
        998    1    1    2    0    0 -0.24455787253E+02  0.35449956865E+02  0.13167420585E+04  0.13174841303E+04  0.10000000000E+02 0. -1.
</event>
<event>
 5    1  0.1369527E-008  0.3849375E+03  0.7957747E-01  0.3429937E+00
         13   -1    0    0    0    0  0.00000000000E+00  0.00000000000E+00  0.14999999963E+04  0.15000000000E+04  0.10566000000E+00 0. -1.
        994   -1    0    0    0    0 -0.00000000000E+00 -0.00000000000E+00  0.11368683772E-12  0.17120000000E+03  0.17120000000E+03 0.  0.
         13    1    1    2    0    0 -0.99313790991E+01  0.14847337472E+02  0.87746081454E+02  0.89545863642E+02  0.10566000000E+00 0. -1.
        994    1    1    2    0    0  0.67847408212E+01 -0.24572797541E+02  0.38016490974E+01  0.17312928009E+03  0.17120000000E+03 0.  0.
        998    1    1    2    0    0  0.31466382779E+01  0.97254600688E+01  0.14084522657E+04  0.14085248563E+04  0.10000000000E+02 0. -1.
</event>
<event>
 5    1  0.1369527E-008  0.3850927E+03  0.7957747E-01  0.3429279E+00
         13   -1    0    0    0    0  0.00000000000E+00  0.00000000000E+00  0.14999999963E+04  0.15000000000E+04  0.10566000000E+00 0. -1.
        994   -1    0    0    0    0 -0.00000000000E+00 -0.00000000000E+00  0.11368683772E-12  0.17120000000E+03  0.17120000000E+03 0.  0.
         13    1    1    2    0    0 -0.70110127867E+01 -0.72731527538E+01  0.31708918944E+02  0.33279419405E+02  0.10566000000E+00 0. -1.
        994    1    1    2    0    0  0.51459316937E+01  0.77349806707E+01  0.18679164215E+01  0.17146206476E+03  0.17120000000E+03 0.  0.
        998    1    1    2    0    0  0.18650810930E+01 -0.46182791695E+00  0.14664231609E+04  0.14664585158E+04  0.10000000000E+02 0. -1.
</event>
<event>
 5    1  0.1369527E-008  0.3848128E+03  0.7957747E-01  0.3430466E+00
         13   -1    0    0    0    0  0.00000000000E+00  0.00000000000E+00  0.14999999963E+04  0.15000000000E+04  0.10566000000E+00 0. -1.
        994   -1    0    0    0    0 -0.00000000000E+00 -0.00000000000E+00  0.11368683772E-12  0.17120000000E+03  0.17120000000E+03 0.  0.
         13    1    1    2    0    0 -0.55948282339E+01  0.14428755135E+02  0.67060124102E+02  0.68822688747E+02  0.10566000000E+00 0. -1.
        994    1    1    2    0    0 -0.37162821006E+01 -0.18404930419E+02  0.28840818125E+01  0.17225071885E+03  0.17120000000E+03 0.  0.
        998    1    1    2    0    0  0.93111103345E+01  0.39761752833E+01  0.14300557904E+04  0.14301265924E+04  0.10000000000E+02 0. -1.
</event>
<event>
 5    1  0.1369527E-008  0.3828045E+03  0.7957747E-01  0.3439037E+00
         13   -1    0    0    0    0  0.00000000000E+00  0.00000000000E+00  0.14999999963E+04  0.15000000000E+04  0.10566000000E+00 0.  1.
        994   -1    0    0    0    0 -0.00000000000E+00 -0.00000000000E+00  0.11368683772E-12  0.17120000000E+03  0.17120000000E+03 0.  0.
         13    1    1    2    0    0  0.11831880486E+02 -0.35131420533E+01  0.27144259928E+02  0.29818745346E+02  0.10566000000E+00 0.  1.
        994    1    1    2    0    0 -0.11036434527E+02 -0.12847120255E+02  0.36747855968E+01  0.17207497039E+03  0.17120000000E+03 0.  0.
        998    1    1    2    0    0 -0.79544595861E+00  0.16360262308E+02  0.14691809508E+04  0.14693062843E+04  0.10000000000E+02 0.  1.
</event>
<event>
 5    1  0.1369527E-008  0.3860699E+03  0.7957747E-01  0.3425147E+00
         13   -1    0    0    0    0  0.00000000000E+00  0.00000000000E+00  0.14999999963E+04  0.15000000000E+04  0.10566000000E+00 0.  1.
        994   -1    0    0    0    0 -0.00000000000E+00 -0.00000000000E+00  0.11368683772E-12  0.17120000000E+03  0.17120000000E+03 0.  0.
         13    1    1    2    0    0 -0.12650943495E+02  0.56368906029E+00  0.68935321903E+02  0.70088899882E+02  0.10566000000E+00 0.  1.
        994    1    1    2    0    0  0.17511012000E+02  0.51743116453E+01  0.21933101078E+01  0.17218495768E+03  0.17120000000E+03 0.  0.
        998    1    1    2    0    0 -0.48600685052E+01 -0.57380007056E+01  0.14288713643E+04  0.14289261424E+04  0.10000000000E+02 0.  1.
</event>
<event>
 5    1  0.1369527E-008  0.3831831E+03  0.7957747E-01  0.3437415E+00
         13   -1    0    0    0    0  0.00000000000E+00  0.00000000000E+00  0.14999999963E+04  0.15000000000E+04  0.10566000000E+00 0.  1.
        994   -1    0    0    0    0 -0.00000000000E+00 -0.00000000000E+00  0.11368683772E-12  0.17120000000E+03  0.17120000000E+03 0.  0.
         13    1    1    2    0    0 -0.11916758484E+02  0.70441889357E+01  0.35743294888E+02  0.38330458176E+02  0.10566000000E+00 0.  1.
        994    1    1    2    0    0  0.92447026383E+01 -0.20110320176E+02  0.41571814721E+01  0.17267487270E+03  0.17120000000E+03 0.  0.
        998    1    1    2    0    0  0.26720558456E+01  0.13066131240E+02  0.14600995199E+04  0.14601946691E+04  0.10000000000E+02 0.  1.
</event>
<event>
 5    1  0.1369527E-008  0.3852045E+03  0.7957747E-01  0.3428805E+00
         13   -1    0    0    0    0  0.00000000000E+00  0.00000000000E+00  0.14999999963E+04  0.15000000000E+04  0.10566000000E+00 0. -1.
        994   -1    0    0    0    0 -0.00000000000E+00 -0.00000000000E+00  0.11368683772E-12  0.17120000000E+03  0.17120000000E+03 0.  0.
         13    1    1    2    0    0  0.16118975907E+01  0.10904970780E+02  0.39254234098E+02  0.40772817663E+02  0.10566000000E+00 0. -1.
        994    1    1    2    0    0  0.17152780513E+01 -0.10062024021E+02  0.18711096116E+01  0.17151421969E+03  0.17120000000E+03 0.  0.
        998    1    1    2    0    0 -0.33271756420E+01 -0.84294675964E+00  0.14588746526E+04  0.14589129626E+04  0.10000000000E+02 0. -1.
</event>
<event>
 5    1  0.1369527E-008  0.3736584E+03  0.7957747E-01  0.3479245E+00
         13   -1    0    0    0    0  0.00000000000E+00  0.00000000000E+00  0.14999999963E+04  0.15000000000E+04  0.10566000000E+00 0.  1.
        994   -1    0    0    0    0 -0.00000000000E+00 -0.00000000000E+00  0.11368683772E-12  0.17120000000E+03  0.17120000000E+03 0.  0.
         13    1    1    2    0    0 -0.95769036244E+02 -0.16703179523E+03  0.85607579627E+03  0.87746060256E+03  0.10566000000E+00 0.  1.
        994    1    1    2    0    0  0.96650962327E+02  0.16642301562E+03  0.14672471979E+03  0.29643820949E+03  0.17120000000E+03 0.  0.
        998    1    1    2    0    0 -0.88192608262E+00  0.60877960739E+00  0.49719948022E+03  0.49730118796E+03  0.10000000000E+02 0.  0.
</event>
<event>
 5    1  0.1369527E-008  0.3837833E+03  0.7957747E-01  0.3434849E+00
         13   -1    0    0    0    0  0.00000000000E+00  0.00000000000E+00  0.14999999963E+04  0.15000000000E+04  0.10566000000E+00 0.  1.
        994   -1    0    0    0    0 -0.00000000000E+00 -0.00000000000E+00  0.11368683772E-12  0.17120000000E+03  0.17120000000E+03 0.  0.
         13    1    1    2    0    0 -0.10120547816E+02  0.22021978756E+00  0.23499019446E+02  0.25586892422E+02  0.10566000000E+00 0.  1.
        994    1    1    2    0    0 -0.94281359076E+01 -0.36837362047E+01  0.25737796680E+01  0.17151829057E+03  0.17120000000E+03 0.  0.
        998    1    1    2    0    0  0.19548683724E+02  0.34635164172E+01  0.14739271972E+04  0.14740948170E+04  0.10000000000E+02 0.  1.
</event>
<event>
 5    1  0.1369527E-008  0.3840064E+03  0.7957747E-01  0.3433897E+00
         13   -1    0    0    0    0  0.00000000000E+00  0.00000000000E+00  0.14999999963E+04  0.15000000000E+04  0.10566000000E+00 0.  1.
        994   -1    0    0    0    0 -0.00000000000E+00 -0.00000000000E+00  0.11368683772E-12  0.17120000000E+03  0.17120000000E+03 0.  0.
         13    1    1    2    0    0 -0.16697642453E+02  0.33474092021E+01  0.68958881257E+02  0.71030661549E+02  0.10566000000E+00 0.  1.
        994    1    1    2    0    0  0.84281845978E+01  0.20210120324E+00  0.23587972021E+01  0.17142368292E+03  0.17120000000E+03 0.  0.
        998    1    1    2    0    0  0.82694578552E+01 -0.35495104053E+01  0.14286823178E+04  0.14287456555E+04  0.10000000000E+02 0.  1.
</event>
<event>
 5    1  0.1369527E-008  0.3828407E+03  0.7957747E-01  0.3438882E+00
         13   -1    0    0    0    0  0.00000000000E+00  0.00000000000E+00  0.14999999963E+04  0.15000000000E+04  0.10566000000E+00 0. -1.
        994   -1    0    0    0    0 -0.00000000000E+00 -0.00000000000E+00  0.11368683772E-12  0.17120000000E+03  0.17120000000E+03 0.  0.
         13    1    1    2    0    0  0.23485539750E+02  0.18874885886E+01  0.99525824393E+02  0.10227675237E+03  0.10566000000E+00 0. -1.
        994    1    1    2    0    0 -0.18487100895E+02  0.26469172856E+01  0.38619444904E+01  0.17225891468E+03  0.17120000000E+03 0.  0.
        998    1    1    2    0    0 -0.49984388554E+01 -0.45344058742E+01  0.13966122274E+04  0.13966643330E+04  0.10000000000E+02 0. -1.
</event>
<event>
 5    1  0.1369527E-008  0.3860240E+03  0.7957747E-01  0.3425341E+00
         13   -1    0    0    0    0  0.00000000000E+00  0.00000000000E+00  0.14999999963E+04  0.15000000000E+04  0.10566000000E+00 0. -1.
        994   -1    0    0    0    0 -0.00000000000E+00 -0.00000000000E+00  0.11368683772E-12  0.17120000000E+03  0.17120000000E+03 0.  0.
         13    1    1    2    0    0 -0.42980048324E+01  0.90958542568E+01  0.44585765756E+02  0.45706772827E+02  0.10566000000E+00 0. -1.
        994    1    1    2    0    0  0.16179302287E+01 -0.10781204087E+02  0.15122691199E+01  0.17155342905E+03  0.17120000000E+03 0.  0.
        998    1    1    2    0    0  0.26800746036E+01  0.16853498301E+01  0.14539019614E+04  0.14539397981E+04  0.10000000000E+02 0. -1.
</event>
<event>
 5    1  0.1369527E-008  0.3732091E+03  0.7957747E-01  0.3481271E+00
         13   -1    0    0    0    0  0.00000000000E+00  0.00000000000E+00  0.14999999963E+04  0.15000000000E+04  0.10566000000E+00 0. -1.
        994   -1    0    0    0    0 -0.00000000000E+00 -0.00000000000E+00  0.11368683772E-12  0.17120000000E+03  0.17120000000E+03 0.  0.
         13    1    1    2    0    0  0.10309307773E+03 -0.14921929951E+02  0.48120763622E+03  0.49235317303E+03  0.10566000000E+00 0. -1.
        994    1    1    2    0    0 -0.10026334234E+03  0.23133493828E+02  0.44724701417E+02  0.20468911859E+03  0.17120000000E+03 0.  0.
        998    1    1    2    0    0 -0.28297353916E+01 -0.82115638772E+01  0.97406765864E+03  0.97415770838E+03  0.10000000000E+02 0. -1.
</event>
<event>
 5    1  0.1369527E-008  0.3775667E+03  0.7957747E-01  0.3461822E+00
         13   -1    0    0    0    0  0.00000000000E+00  0.00000000000E+00  0.14999999963E+04  0.15000000000E+04  0.10566000000E+00 0.  1.
        994   -1    0    0    0    0 -0.00000000000E+00 -0.00000000000E+00  0.11368683772E-12  0.17120000000E+03  0.17120000000E+03 0.  0.
         13    1    1    2    0    0  0.16245369544E+02 -0.37903647749E+01  0.23851664532E+01  0.16851678842E+02  0.10566000000E+00 0.  1.
        994    1    1    2    0    0 -0.17662776233E+02  0.16130938319E+02  0.17054666612E+02  0.17370228118E+03  0.17120000000E+03 0.  0.
        998    1    1    2    0    0  0.14174066895E+01 -0.12340573544E+02  0.14805601632E+04  0.14806460400E+04  0.10000000000E+02 0.  1.
</event>
<event>
 5    1  0.1369527E-008  0.3771017E+03  0.7957747E-01  0.3463876E+00
         13   -1    0    0    0    0  0.00000000000E+00  0.00000000000E+00  0.14999999963E+04  0.15000000000E+04  0.10566000000E+00 0.  1.
        994   -1    0    0    0    0 -0.00000000000E+00 -0.00000000000E+00  0.11368683772E-12  0.17120000000E+03  0.17120000000E+03 0.  0.
         13    1    1    2    0    0  0.31412585907E+02  0.74944995146E+01  0.85679328865E+02  0.91563511483E+02  0.10566000000E+00 0.  1.
        994    1    1    2    0    0 -0.32707105064E+02 -0.11043600654E+02  0.96363001016E+01  0.17491144650E+03  0.17120000000E+03 0.  0.
        998    1    1    2    0    0  0.12945191570E+01  0.35491011399E+01  0.14046843673E+04  0.14047250420E+04  0.10000000000E+02 0.  1.
</event>
<event>
 5    1  0.1369527E-008  0.3254384E+03  0.7957747E-01  0.3729636E+00
         13   -1    0    0    0    0  0.00000000000E+00  0.00000000000E+00  0.14999999963E+04  0.15000000000E+04  0.10566000000E+00 0.  1.
        994   -1    0    0    0    0 -0.00000000000E+00 -0.00000000000E+00  0.11368683772E-12  0.17120000000E+03  0.17120000000E+03 0.  0.
         13    1    1    2    0    0  0.45980900283E+02 -0.17208224516E+03  0.10706544129E+04  0.10853697183E+04  0.10566000000E+00 0.  1.
        994    1    1    2    0    0 -0.85690830277E+01  0.70880070557E+02  0.51144721559E+02  0.19241267144E+03  0.17120000000E+03 0.  0.
        998    1    1    2    0    0 -0.37411817256E+02  0.10120217461E+03  0.37820086183E+03  0.39341761031E+03  0.10000000000E+02 0. -1.
</event>
<event>
 5    1  0.1369527E-008  0.3800976E+03  0.7957747E-01  0.3450734E+00
         13   -1    0    0    0    0  0.00000000000E+00  0.00000000000E+00  0.14999999963E+04  0.15000000000E+04  0.10566000000E+00 0. -1.
        994   -1    0    0    0    0 -0.00000000000E+00 -0.00000000000E+00  0.11368683772E-12  0.17120000000E+03  0.17120000000E+03 0.  0.
         13    1    1    2    0    0  0.38207600121E+02  0.26599284459E+02  0.23551943766E+03  0.24007656970E+03  0.10566000000E+00 0. -1.
        994    1    1    2    0    0 -0.32174799239E+02 -0.25372406156E+02  0.97152325453E+01  0.17630315495E+03  0.17120000000E+03 0.  0.
        998    1    1    2    0    0 -0.60328008820E+01 -0.12268783027E+01  0.12547653261E+04  0.12548202754E+04  0.10000000000E+02 0. -1.
</event>
<event>
 5    1  0.1369527E-008  0.3773984E+03  0.7957747E-01  0.3462565E+00
         13   -1    0    0    0    0  0.00000000000E+00  0.00000000000E+00  0.14999999963E+04  0.15000000000E+04  0.10566000000E+00 0.  1.
        994   -1    0    0    0    0 -0.00000000000E+00 -0.00000000000E+00  0.11368683772E-12  0.17120000000E+03  0.17120000000E+03 0.  0.
         13    1    1    2    0    0  0.16085546401E+02  0.23836127494E+02  0.22016924759E+02  0.36216873371E+02  0.10566000000E+00 0.  1.
        994    1    1    2    0    0 -0.45743780555E+02  0.18882995560E+02  0.23748456086E+02  0.17978456593E+03  0.17120000000E+03 0.  0.
        998    1    1    2    0    0  0.29658234153E+02 -0.42719123054E+02  0.14542346154E+04  0.14551985607E+04  0.10000000000E+02 0.  1.
</event>
<event>
 5    1  0.1369527E-008  0.3686666E+03  0.7957747E-01  0.3502041E+00
         13   -1    0    0    0    0  0.00000000000E+00  0.00000000000E+00  0.14999999963E+04  0.15000000000E+04  0.10566000000E+00 0. -1.
        994   -1    0    0    0    0 -0.00000000000E+00 -0.00000000000E+00  0.11368683772E-12  0.17120000000E+03  0.17120000000E+03 0.  0.
         13    1    1    2    0    0  0.36928406599E+02  0.53254621058E+02  0.27731256526E+03  0.28478418477E+03  0.10566000000E+00 0. -1.
        994    1    1    2    0    0  0.82776686615E+01  0.40550600528E+01  0.10262893587E+02  0.17175485523E+03  0.17120000000E+03 0.  0.
        998    1    1    2    0    0 -0.45206075261E+02 -0.57309681111E+02  0.12124245374E+04  0.12146609600E+04  0.10000000000E+02 0. -1.
</event>
<event>
 5    1  0.1369527E-008  0.3846501E+03  0.7957747E-01  0.3431157E+00
         13   -1    0    0    0    0  0.00000000000E+00  0.00000000000E+00  0.14999999963E+04  0.15000000000E+04  0.10566000000E+00 0. -1.
        994   -1    0    0    0    0 -0.00000000000E+00 -0.00000000000E+00  0.11368683772E-12  0.17120000000E+03  0.17120000000E+03 0.  0.
         13    1    1    2    0    0  0.22984129142E+01  0.11855059702E+02  0.39120281806E+02  0.40941821590E+02  0.10566000000E+00 0. -1.
        994    1    1    2    0    0  0.15651273930E+00 -0.13860292150E+02  0.24367648385E+01  0.17177750149E+03  0.17120000000E+03 0.  0.
        998    1    1    2    0    0 -0.24549256535E+01  0.20052324480E+01  0.14584429496E+04  0.14584806769E+04  0.10000000000E+02 0. -1.
</event>
<event>
 5    1  0.1369527E-008  0.3851667E+03  0.7957747E-01  0.3428966E+00
         13   -1    0    0    0    0  0.00000000000E+00  0.00000000000E+00  0.14999999963E+04  0.15000000000E+04  0.10566000000E+00 0. -1.
        994   -1    0    0    0    0 -0.00000000000E+00 -0.00000000000E+00  0.11368683772E-12  0.17120000000E+03  0.17120000000E+03 0.  0.
         13    1    1    2    0    0 -0.43294010089E+01  0.11170593824E+02  0.46529668444E+02  0.48047342164E+02  0.10566000000E+00 0. -1.
        994    1    1    2    0    0  0.83143998584E+00 -0.76828666027E+01  0.17437061384E+01  0.17138319125E+03  0.17120000000E+03 0.  0.
        998    1    1    2    0    0  0.34979610231E+01 -0.34877272208E+01  0.14517266217E+04  0.14517694666E+04  0.10000000000E+02 0. -1.
</event>
<event>
 5    1  0.1369527E-008  0.3782211E+03  0.7957747E-01  0.3458941E+00
         13   -1    0    0    0    0  0.00000000000E+00  0.00000000000E+00  0.14999999963E+04  0.15000000000E+04  0.10566000000E+00 0.  1.
        994   -1    0    0    0    0 -0.00000000000E+00 -0.00000000000E+00  0.11368683772E-12  0.17120000000E+03  0.17120000000E+03 0.  0.
         13    1    1    2    0    0 -0.41610950817E+02  0.21692246850E+02  0.17118621239E+03  0.17750142332E+03  0.10566000000E+00 0.  1.
        994    1    1    2    0    0  0.47946369022E+02 -0.53330424056E+02  0.22527639633E+02  0.18697572832E+03  0.17120000000E+03 0.  0.
        998    1    1    2    0    0 -0.63354182057E+01  0.31638177205E+02  0.13062861443E+04  0.13067228484E+04  0.10000000000E+02 0.  1.
</event>
<event>
 5    1  0.1369527E-008  0.3825640E+03  0.7957747E-01  0.3440070E+00
         13   -1    0    0    0    0  0.00000000000E+00  0.00000000000E+00  0.14999999963E+04  0.15000000000E+04  0.10566000000E+00 0. -1.
        994   -1    0    0    0    0 -0.00000000000E+00 -0.00000000000E+00  0.11368683772E-12  0.17120000000E+03  0.17120000000E+03 0.  0.
         13    1    1    2    0    0 -0.17740381976E+02 -0.64127335857E+01  0.64303369466E+02  0.67013273263E+02  0.10566000000E+00 0. -1.
        994    1    1    2    0    0  0.39494862096E+01 -0.12987272900E+00  0.28961879344E+01  0.17127008849E+03  0.17120000000E+03 0.  0.
        998    1    1    2    0    0  0.13790895767E+02  0.65426063147E+01  0.14328004389E+04  0.14329166382E+04  0.10000000000E+02 0. -1.
</event>
<event>
 5    1  0.1369527E-008  0.3716413E+03  0.7957747E-01  0.3488381E+00
         13   -1    0    0    0    0  0.00000000000E+00  0.00000000000E+00  0.14999999963E+04  0.15000000000E+04  0.10566000000E+00 0. -1.
        994   -1    0    0    0    0 -0.00000000000E+00 -0.00000000000E+00  0.11368683772E-12  0.17120000000E+03  0.17120000000E+03 0.  0.
         13    1    1    2    0    0 -0.25818824056E+02 -0.73808558914E+02  0.32298216101E+03  0.33231280827E+03  0.10566000000E+00 0. -1.
        994    1    1    2    0    0 -0.22811147512E+02  0.18349561624E+02  0.14828803558E+02  0.17431691908E+03  0.17120000000E+03 0.  0.
        998    1    1    2    0    0  0.48629971568E+02  0.55458997289E+02  0.11621890317E+04  0.11645702727E+04  0.10000000000E+02 0.  1.
</event>
<event>
 5    1  0.1369527E-008  0.3854297E+03  0.7957747E-01  0.3427852E+00
         13   -1    0    0    0    0  0.00000000000E+00  0.00000000000E+00  0.14999999963E+04  0.15000000000E+04  0.10566000000E+00 0.  1.
        994   -1    0    0    0    0 -0.00000000000E+00 -0.00000000000E+00  0.11368683772E-12  0.17120000000E+03  0.17120000000E+03 0.  0.
         13    1    1    2    0    0 -0.12892414154E+02 -0.14757029942E+01  0.63256107571E+02  0.64573511219E+02  0.10566000000E+00 0.  1.
        994    1    1    2    0    0  0.43236812981E+00 -0.37999014582E+01  0.14649909565E+01  0.17124897778E+03  0.17120000000E+03 0.  0.
        998    1    1    2    0    0  0.12460046024E+02  0.52756044524E+01  0.14352788978E+04  0.14353775110E+04  0.10000000000E+02 0.  1.
</event>
<event>
 5    1  0.1369527E-008  0.3854731E+03  0.7957747E-01  0.3427668E+00
         13   -1    0    0    0    0  0.00000000000E+00  0.00000000000E+00  0.14999999963E+04  0.15000000000E+04  0.10566000000E+00 0.  1.
        994   -1    0    0    0    0 -0.00000000000E+00 -0.00000000000E+00  0.11368683772E-12  0.17120000000E+03  0.17120000000E+03 0.  0.
         13    1    1    2    0    0 -0.45336417671E+01  0.10367230839E+02  0.47130433878E+02  0.48469808587E+02  0.10566000000E+00 0.  1.
        994    1    1    2    0    0  0.37200690799E+01 -0.23380682191E+01  0.14588426641E+01  0.17126258698E+03  0.17120000000E+03 0.  0.
        998    1    1    2    0    0  0.81357268723E+00 -0.80291626196E+01  0.14514107197E+04  0.14514676044E+04  0.10000000000E+02 0.  1.
</event>
<event>
 5    1  0.1369527E-008  0.3810838E+03  0.7957747E-01  0.3446453E+00
         13   -1    0    0    0    0  0.00000000000E+00  0.00000000000E+00  0.14999999963E+04  0.15000000000E+04  0.10566000000E+00 0.  1.
        994   -1    0    0    0    0 -0.00000000000E+00 -0.00000000000E+00  0.11368683772E-12  0.17120000000E+03  0.17120000000E+03 0.  0.
         13    1    1    2    0    0  0.98650741732E+01  0.16919575249E+02  0.52880668971E+02  0.56391205253E+02  0.10566000000E+00 0.  1.
        994    1    1    2    0    0 -0.74962172193E+01 -0.66416138193E+01  0.39212371034E+01  0.17153751895E+03  0.17120000000E+03 0.  0.
        998    1    1    2    0    0 -0.23688569538E+01 -0.10277961430E+02  0.14431980902E+04  0.14432712758E+04  0.10000000000E+02 0.  1.
</event>
<event>
 5    1  0.1369527E-008  0.3858946E+03  0.7957747E-01  0.3425887E+00
         13   -1    0    0    0    0  0.00000000000E+00  0.00000000000E+00  0.14999999963E+04  0.15000000000E+04  0.10566000000E+00 0.  1.
        994   -1    0    0    0    0 -0.00000000000E+00 -0.00000000000E+00  0.11368683772E-12  0.17120000000E+03  0.17120000000E+03 0.  0.
         13    1    1    2    0    0  0.12309636762E+01  0.11408129099E+02  0.60236806953E+02  0.61320019219E+02  0.10566000000E+00 0.  1.
        994    1    1    2    0    0 -0.52058620832E+00  0.24157537436E+01  0.12066444774E+01  0.17122208639E+03  0.17120000000E+03 0.  0.
        998    1    1    2    0    0 -0.71037746791E+00 -0.13823882843E+02  0.14385565448E+04  0.14386578944E+04  0.10000000000E+02 0.  1.
</event>
<event>
 5    1  0.1369527E-008  0.3830950E+03  0.7957747E-01  0.3437792E+00
         13   -1    0    0    0    0  0.00000000000E+00  0.00000000000E+00  0.14999999963E+04  0.15000000000E+04  0.10566000000E+00 0. -1.
        994   -1    0    0    0    0 -0.00000000000E+00 -0.00000000000E+00  0.11368683772E-12  0.17120000000E+03  0.17120000000E+03 0.  0.
         13    1    1    2    0    0 -0.10173164041E+02  0.19818583532E+02  0.93523705462E+02  0.96140335797E+02  0.10566000000E+00 0. -1.
        994    1    1    2    0    0  0.12443273166E+02 -0.13098094799E+02  0.36597167268E+01  0.17218951379E+03  0.17120000000E+03 0.  0.
        998    1    1    2    0    0 -0.22701091252E+01 -0.67204887333E+01  0.14028165741E+04  0.14028701504E+04  0.10000000000E+02 0. -1.
</event>
<event>
 5    1  0.1369527E-008  0.3697849E+03  0.7957747E-01  0.3496880E+00
         13   -1    0    0    0    0  0.00000000000E+00  0.00000000000E+00  0.14999999963E+04  0.15000000000E+04  0.10566000000E+00 0. -1.
        994   -1    0    0    0    0 -0.00000000000E+00 -0.00000000000E+00  0.11368683772E-12  0.17120000000E+03  0.17120000000E+03 0.  0.
         13    1    1    2    0    0  0.33797977057E+02  0.20681405208E+02  0.74564873456E+02  0.84439062596E+02  0.10566000000E+00 0. -1.
        994    1    1    2    0    0 -0.40043513841E+02 -0.25771857618E+02  0.17269417775E+02  0.17853667532E+03  0.17120000000E+03 0.  0.
        998    1    1    2    0    0  0.62455367831E+01  0.50904524098E+01  0.14081657050E+04  0.14082242621E+04  0.10000000000E+02 0. -1.
</event>
<event>
 5    1  0.1369527E-008  0.3793589E+03  0.7957747E-01  0.3453955E+00
         13   -1    0    0    0    0  0.00000000000E+00  0.00000000000E+00  0.14999999963E+04  0.15000000000E+04  0.10566000000E+00 0.  1.
        994   -1    0    0    0    0 -0.00000000000E+00 -0.00000000000E+00  0.11368683772E-12  0.17120000000E+03  0.17120000000E+03 0.  0.
         13    1    1    2    0    0  0.97013733115E+01  0.90894339517E+01  0.17086187744E+02  0.21649097657E+02  0.10566000000E+00 0.  1.
        994    1    1    2    0    0 -0.80105548988E+01 -0.32351339063E+02  0.81872078588E+01  0.17460598072E+03  0.17120000000E+03 0.  0.
        998    1    1    2    0    0 -0.16908184127E+01  0.23261905111E+02  0.14747266007E+04  0.14749449216E+04  0.10000000000E+02 0.  1.
</event>
<event>
 5    1  0.1369527E-008  0.3708425E+03  0.7957747E-01  0.3492028E+00
         13   -1    0    0    0    0  0.00000000000E+00  0.00000000000E+00  0.14999999963E+04  0.15000000000E+04  0.10566000000E+00 0.  1.
        994   -1    0    0    0    0 -0.00000000000E+00 -0.00000000000E+00  0.11368683772E-12  0.17120000000E+03  0.17120000000E+03 0.  0.
         13    1    1    2    0    0 -0.18427483651E+01  0.17001009971E+02  0.11742447863E+02  0.20744307832E+02  0.10566000000E+00 0.  1.
        994    1    1    2    0    0 -0.59505978474E+00 -0.43731869202E+02  0.15453053138E+02  0.17737267921E+03  0.17120000000E+03 0.  0.
        998    1    1    2    0    0  0.24378081499E+01  0.26730859231E+02  0.14728044953E+04  0.14730830130E+04  0.10000000000E+02 0.  1.
</event>
<event>
 5    1  0.1369527E-008  0.3773501E+03  0.7957747E-01  0.3462778E+00
         13   -1    0    0    0    0  0.00000000000E+00  0.00000000000E+00  0.14999999963E+04  0.15000000000E+04  0.10566000000E+00 0.  1.
        994   -1    0    0    0    0 -0.00000000000E+00 -0.00000000000E+00  0.11368683772E-12  0.17120000000E+03  0.17120000000E+03 0.  0.
         13    1    1    2    0    0 -0.17984318155E+02  0.60058555376E+00  0.27976442244E+02  0.33263927717E+02  0.10566000000E+00 0.  1.
        994    1    1    2    0    0  0.36533174244E+01  0.55216996264E+01  0.56246635021E+01  0.17142028099E+03  0.17120000000E+03 0.  0.
        998    1    1    2    0    0  0.14331000731E+02 -0.61222851801E+01  0.14663988905E+04  0.14665157913E+04  0.10000000000E+02 0.  1.
</event>
<event>
 5    1  0.1369527E-008  0.3806628E+03  0.7957747E-01  0.3448277E+00
         13   -1    0    0    0    0  0.00000000000E+00  0.00000000000E+00  0.14999999963E+04  0.15000000000E+04  0.10566000000E+00 0.  1.
        994   -1    0    0    0    0 -0.00000000000E+00 -0.00000000000E+00  0.11368683772E-12  0.17120000000E+03  0.17120000000E+03 0.  0.
         13    1    1    2    0    0 -0.19164838258E+02 -0.20832221681E+02  0.97295687119E+02  0.10132982967E+03  0.10566000000E+00 0.  1.
        994    1    1    2    0    0  0.26847514857E+02  0.16569495451E+02  0.71260875762E+01  0.17422846598E+03  0.17120000000E+03 0.  0.
        998    1    1    2    0    0 -0.76826765991E+01  0.42627262297E+01  0.13955782216E+04  0.13956417043E+04  0.10000000000E+02 0.  1.
</event>
<event>
 5    1  0.1369527E-008  0.3838928E+03  0.7957747E-01  0.3434381E+00
         13   -1    0    0    0    0  0.00000000000E+00  0.00000000000E+00  0.14999999963E+04  0.15000000000E+04  0.10566000000E+00 0. -1.
        994   -1    0    0    0    0 -0.00000000000E+00 -0.00000000000E+00  0.11368683772E-12  0.17120000000E+03  0.17120000000E+03 0.  0.
         13    1    1    2    0    0 -0.74145790161E+01 -0.72388265715E+01  0.23692398262E+02  0.25859572532E+02  0.10566000000E+00 0. -1.
        994    1    1    2    0    0  0.34593767490E+01  0.10855286032E+02  0.26093668052E+01  0.17159852365E+03  0.17120000000E+03 0.  0.
        998    1    1    2    0    0  0.39552022671E+01 -0.36164594606E+01  0.14736982312E+04  0.14737419038E+04  0.10000000000E+02 0. -1.
</event>
<event>
 5    1  0.1369527E-008  0.3767375E+03  0.7957747E-01  0.3465488E+00
         13   -1    0    0    0    0  0.00000000000E+00  0.00000000000E+00  0.14999999963E+04  0.15000000000E+04  0.10566000000E+00 0.  1.
        994   -1    0    0    0    0 -0.00000000000E+00 -0.00000000000E+00  0.11368683772E-12  0.17120000000E+03  0.17120000000E+03 0.  0.
         13    1    1    2    0    0 -0.49708149764E+01  0.37845733335E+02  0.15406411334E+03  0.15872230693E+03  0.10566000000E+00 0.  1.
        994    1    1    2    0    0  0.91932276863E+02  0.18796616838E+02  0.36148700979E+02  0.19854728635E+03  0.17120000000E+03 0.  0.
        998    1    1    2    0    0 -0.86961461887E+02 -0.56642350173E+02  0.13097871820E+04  0.13139304067E+04  0.10000000000E+02 0.  1.
</event>
<event>
 5    1  0.1369527E-008  0.3747705E+03  0.7957747E-01  0.3474250E+00
         13   -1    0    0    0    0  0.00000000000E+00  0.00000000000E+00  0.14999999963E+04  0.15000000000E+04  0.10566000000E+00 0.  1.
        994   -1    0    0    0    0 -0.00000000000E+00 -0.00000000000E+00  0.11368683772E-12  0.17120000000E+03  0.17120000000E+03 0.  0.
         13    1    1    2    0    0  0.21767810444E+02 -0.16210602530E+02  0.23113966809E+02  0.35649513764E+02  0.10566000000E+00 0.  1.
        994    1    1    2    0    0  0.75409315020E+01 -0.19442079256E+01  0.13699528954E+02  0.17192371182E+03  0.17120000000E+03 0.  0.
        998    1    1    2    0    0 -0.29308741946E+02  0.18154810456E+02  0.14631865005E+04  0.14636267744E+04  0.10000000000E+02 0.  1.
</event>
<event>
 5    1  0.1369527E-008  0.3858355E+03  0.7957747E-01  0.3426136E+00
         13   -1    0    0    0    0  0.00000000000E+00  0.00000000000E+00  0.14999999963E+04  0.15000000000E+04  0.10566000000E+00 0. -1.
        994   -1    0    0    0    0 -0.00000000000E+00 -0.00000000000E+00  0.11368683772E-12  0.17120000000E+03  0.17120000000E+03 0.  0.
         13    1    1    2    0    0  0.12542076933E+02  0.23240486082E+01  0.66131921587E+02  0.67350925105E+02  0.10566000000E+00 0. -1.
        994    1    1    2    0    0 -0.10742972157E+02 -0.41933735215E+01  0.16521971384E+01  0.17159593698E+03  0.17120000000E+03 0.  0.
        998    1    1    2    0    0 -0.17991047764E+01  0.18693249133E+01  0.14322158776E+04  0.14322531379E+04  0.10000000000E+02 0. -1.
</event>
<event>
 5    1  0.1369527E-008  0.3690271E+03  0.7957747E-01  0.3500374E+00
         13   -1    0    0    0    0  0.00000000000E+00  0.00000000000E+00  0.14999999963E+04  0.15000000000E+04  0.10566000000E+00 0.  1.
        994   -1    0    0    0    0 -0.00000000000E+00 -0.00000000000E+00  0.11368683772E-12  0.17120000000E+03  0.17120000000E+03 0.  0.
         13    1    1    2    0    0 -0.31742922782E+02 -0.54464092117E+02  0.18178194999E+03  0.19240228425E+03  0.10566000000E+00 0.  1.
        994    1    1    2    0    0  0.41329841369E+02  0.42268312815E+02  0.22002594862E+02  0.18245087075E+03  0.17120000000E+03 0.  0.
        998    1    1    2    0    0 -0.95869185869E+01  0.12195779302E+02  0.12962154514E+04  0.12963468450E+04  0.10000000000E+02 0.  1.
</event>
<event>
 5    1  0.1369527E-008  0.3869607E+03  0.7957747E-01  0.3421399E+00
         13   -1    0    0    0    0  0.00000000000E+00  0.00000000000E+00  0.14999999963E+04  0.15000000000E+04  0.10566000000E+00 0. -1.
        994   -1    0    0    0    0 -0.00000000000E+00 -0.00000000000E+00  0.11368683772E-12  0.17120000000E+03  0.17120000000E+03 0.  0.
         13    1    1    2    0    0 -0.79679358777E+02 -0.35617844121E+02  0.16573627564E+03  0.18731245357E+03  0.10566000000E+00 0. -1.
        994    1    1    2    0    0  0.71811473164E+02  0.40297406940E+02  0.45884420404E+02  0.19543691749E+03  0.17120000000E+03 0.  0.
        998    1    1    2    0    0  0.78678856127E+01 -0.46795628194E+01  0.12883793002E+04  0.12884506289E+04  0.10000000000E+02 0. -1.
</event>
<event>
 5    1  0.1369527E-008  0.3729995E+03  0.7957747E-01  0.3482218E+00
         13   -1    0    0    0    0  0.00000000000E+00  0.00000000000E+00  0.14999999963E+04  0.15000000000E+04  0.10566000000E+00 0. -1.
        994   -1    0    0    0    0 -0.00000000000E+00 -0.00000000000E+00  0.11368683772E-12  0.17120000000E+03  0.17120000000E+03 0.  0.
         13    1    1    2    0    0  0.44659022660E+02 -0.13428669693E+02  0.13433299112E+03  0.14219747235E+03  0.10566000000E+00 0. -1.
        994    1    1    2    0    0 -0.32047075295E+02  0.13386711566E+02  0.11848857446E+02  0.17508870467E+03  0.17120000000E+03 0.  0.
        998    1    1    2    0    0 -0.12611947365E+02  0.41958126989E-01  0.13538181477E+04  0.13539138230E+04  0.10000000000E+02 0. -1.
</event>
<event>
 5    1  0.1369527E-008  0.3810492E+03  0.7957747E-01  0.3446603E+00
         13   -1    0    0    0    0  0.00000000000E+00  0.00000000000E+00  0.14999999963E+04  0.15000000000E+04  0.10566000000E+00 0.  1.
        994   -1    0    0    0    0 -0.00000000000E+00 -0.00000000000E+00  0.11368683772E-12  0.17120000000E+03  0.17120000000E+03 0.  0.
         13    1    1    2    0    0 -0.11418098648E+01  0.81358412673E+02  0.37783276859E+03  0.38649464062E+03  0.10566000000E+00 0.  1.
        994    1    1    2    0    0 -0.52310928799E+02 -0.14288479615E+03  0.85025314136E+02  0.24431791233E+03  0.17120000000E+03 0.  0.
        998    1    1    2    0    0  0.53452738664E+02  0.61526383472E+02  0.10371419135E+04  0.10403874470E+04  0.10000000000E+02 0. -1.
</event>
<event>
 5    1  0.1369527E-008  0.3802916E+03  0.7957747E-01  0.3449890E+00
         13   -1    0    0    0    0  0.00000000000E+00  0.00000000000E+00  0.14999999963E+04  0.15000000000E+04  0.10566000000E+00 0. -1.
        994   -1    0    0    0    0 -0.00000000000E+00 -0.00000000000E+00  0.11368683772E-12  0.17120000000E+03  0.17120000000E+03 0.  0.
         13    1    1    2    0    0 -0.21942442968E+02 -0.18182369271E+02  0.96623485750E+02  0.10073816813E+03  0.10566000000E+00 0. -1.
        994    1    1    2    0    0  0.29317253583E+02  0.41744225157E+01  0.69202149172E+01  0.17388000614E+03  0.17120000000E+03 0.  0.
        998    1    1    2    0    0 -0.73748106156E+01  0.14007946755E+02  0.13964562956E+04  0.13965818257E+04  0.10000000000E+02 0. -1.
</event>
<event>
 5    1  0.1369527E-008  0.3822926E+03  0.7957747E-01  0.3441236E+00
         13   -1    0    0    0    0  0.00000000000E+00  0.00000000000E+00  0.14999999963E+04  0.15000000000E+04  0.10566000000E+00 0.  1.
        994   -1    0    0    0    0 -0.00000000000E+00 -0.00000000000E+00  0.11368683772E-12  0.17120000000E+03  0.17120000000E+03 0.  0.
         13    1    1    2    0    0 -0.57738596009E+01  0.86467651827E+01  0.17793120124E+02  0.20608500445E+02  0.10566000000E+00 0.  1.
        994    1    1    2    0    0 -0.11386080786E+02  0.41801820714E+01  0.34685459112E+01  0.17166417089E+03  0.17120000000E+03 0.  0.
        998    1    1    2    0    0  0.17159940387E+02 -0.12826947254E+02  0.14787383302E+04  0.14789273287E+04  0.10000000000E+02 0.  1.
</event>
<event>
 5    1  0.1369527E-008  0.3820519E+03  0.7957747E-01  0.3442272E+00
         13   -1    0    0    0    0  0.00000000000E+00  0.00000000000E+00  0.14999999963E+04  0.15000000000E+04  0.10566000000E+00 0. -1.
        994   -1    0    0    0    0 -0.00000000000E+00 -0.00000000000E+00  0.11368683772E-12  0.17120000000E+03  0.17120000000E+03 0.  0.
         13    1    1    2    0    0 -0.15985802508E+02 -0.21944029356E+02  0.14130363394E+03  0.14388820116E+03  0.10566000000E+00 0. -1.
        994    1    1    2    0    0  0.65751706308E+01 -0.15372101767E+02  0.40296490884E+01  0.17206165306E+03  0.17120000000E+03 0.  0.
        998    1    1    2    0    0  0.94106318774E+01  0.37316131123E+02  0.13546667133E+04  0.13552501458E+04  0.10000000000E+02 0. -1.
</event>
<event>
 5    1  0.1369527E-008  0.3821034E+03  0.7957747E-01  0.3442051E+00
         13   -1    0    0    0    0  0.00000000000E+00  0.00000000000E+00  0.14999999963E+04  0.15000000000E+04  0.10566000000E+00 0. -1.
        994   -1    0    0    0    0 -0.00000000000E+00 -0.00000000000E+00  0.11368683772E-12  0.17120000000E+03  0.17120000000E+03 0.  0.
         13    1    1    2    0    0 -0.39177543792E+02 -0.61921750595E+01  0.19686049507E+03  0.20081655473E+03  0.10566000000E+00 0. -1.
        994    1    1    2    0    0  0.57822153554E+02 -0.92703346586E+01  0.14544743473E+02  0.18152225789E+03  0.17120000000E+03 0.  0.
        998    1    1    2    0    0 -0.18644609762E+02  0.15462509718E+02  0.12885947577E+04  0.12888611874E+04  0.10000000000E+02 0. -1.
</event>
<event>
 5    1  0.1369527E-008  0.3839797E+03  0.7957747E-01  0.3434011E+00
         13   -1    0    0    0    0  0.00000000000E+00  0.00000000000E+00  0.14999999963E+04  0.15000000000E+04  0.10566000000E+00 0. -1.
        994   -1    0    0    0    0 -0.00000000000E+00 -0.00000000000E+00  0.11368683772E-12  0.17120000000E+03  0.17120000000E+03 0.  0.
         13    1    1    2    0    0  0.24421097613E+02  0.29702524406E+01  0.12347634927E+03  0.12590326605E+03  0.10566000000E+00 0. -1.
        994    1    1    2    0    0 -0.31937099405E+02 -0.90267212967E+01  0.57803599121E+01  0.17448298650E+03  0.17120000000E+03 0.  0.
        998    1    1    2    0    0  0.75160017916E+01  0.60564688561E+01  0.13707432871E+04  0.13708137475E+04  0.10000000000E+02 0. -1.
</event>
<event>
 5    1  0.1369527E-008  0.3824328E+03  0.7957747E-01  0.3440634E+00
         13   -1    0    0    0    0  0.00000000000E+00  0.00000000000E+00  0.14999999963E+04  0.15000000000E+04  0.10566000000E+00 0. -1.
        994   -1    0    0    0    0 -0.00000000000E+00 -0.00000000000E+00  0.11368683772E-12  0.17120000000E+03  0.17120000000E+03 0.  0.
         13    1    1    2    0    0 -0.23165856144E+02  0.16733731843E+02  0.13613362961E+03  0.13910086609E+03  0.10566000000E+00 0. -1.
        994    1    1    2    0    0  0.17136533375E+02 -0.11264669325E+02  0.43060145294E+01  0.17247763714E+03  0.17120000000E+03 0.  0.
        998    1    1    2    0    0  0.60293227684E+01 -0.54690625183E+01  0.13595603521E+04  0.13596214968E+04  0.10000000000E+02 0. -1.
</event>
<event>
 5    1  0.1369527E-008  0.3861340E+03  0.7957747E-01  0.3424877E+00
         13   -1    0    0    0    0  0.00000000000E+00  0.00000000000E+00  0.14999999963E+04  0.15000000000E+04  0.10566000000E+00 0. -1.
        994   -1    0    0    0    0 -0.00000000000E+00 -0.00000000000E+00  0.11368683772E-12  0.17120000000E+03  0.17120000000E+03 0.  0.
         13    1    1    2    0    0  0.11681246779E+02 -0.47096977713E+01  0.73189615979E+02  0.74265495559E+02  0.10566000000E+00 0. -1.
        994    1    1    2    0    0 -0.11393320589E+02  0.31782907908E+01  0.15267262294E+01  0.17161491829E+03  0.17120000000E+03 0.  0.
        998    1    1    2    0    0 -0.28792619049E+00  0.15314069805E+01  0.14252836541E+04  0.14253195862E+04  0.10000000000E+02 0. -1.
</event>
<event>
 5    1  0.1369527E-008  0.3727605E+03  0.7957747E-01  0.3483300E+00
         13   -1    0    0    0    0  0.00000000000E+00  0.00000000000E+00  0.14999999963E+04  0.15000000000E+04  0.10566000000E+00 0. -1.
        994   -1    0    0    0    0 -0.00000000000E+00 -0.00000000000E+00  0.11368683772E-12  0.17120000000E+03  0.17120000000E+03 0.  0.
         13    1    1    2    0    0 -0.46409831009E+02  0.39194204286E+02  0.32072658914E+03  0.32642857444E+03  0.10566000000E+00 0. -1.
        994    1    1    2    0    0  0.11133856467E+00  0.99389506177E+01  0.81717419980E+01  0.17168288355E+03  0.17120000000E+03 0.  0.
        998    1    1    2    0    0  0.46298492444E+02 -0.49133154904E+02  0.11711016651E+04  0.11730885420E+04  0.10000000000E+02 0. -1.
</event>
<event>
 5    1  0.1369527E-008  0.3783250E+03  0.7957747E-01  0.3458485E+00
         13   -1    0    0    0    0  0.00000000000E+00  0.00000000000E+00  0.14999999963E+04  0.15000000000E+04  0.10566000000E+00 0. -1.
        994   -1    0    0    0    0 -0.00000000000E+00 -0.00000000000E+00  0.11368683772E-12  0.17120000000E+03  0.17120000000E+03 0.  0.
         13    1    1    2    0    0  0.97403868935E+02 -0.37296067746E+02  0.50268913454E+03  0.51339544943E+03  0.10566000000E+00 0. -1.
        994    1    1    2    0    0 -0.12435777631E+03  0.44983232172E+02  0.66217300480E+02  0.22623553786E+03  0.17120000000E+03 0.  0.
        998    1    1    2    0    0  0.26953907379E+02 -0.76871644257E+01  0.93109356126E+03  0.93156901271E+03  0.10000000000E+02 0.  0.
</event>
<event>
 5    1  0.1369527E-008  0.3781309E+03  0.7957747E-01  0.3459338E+00
         13   -1    0    0    0    0  0.00000000000E+00  0.00000000000E+00  0.14999999963E+04  0.15000000000E+04  0.10566000000E+00 0.  1.
        994   -1    0    0    0    0 -0.00000000000E+00 -0.00000000000E+00  0.11368683772E-12  0.17120000000E+03  0.17120000000E+03 0.  0.
         13    1    1    2    0    0  0.44710535049E+02  0.12358742916E+02  0.65405997107E+02  0.80185572845E+02  0.10566000000E+00 0.  1.
        994    1    1    2    0    0 -0.33476716450E+02  0.14444356297E+02  0.20103441822E+02  0.17619000637E+03  0.17120000000E+03 0.  0.
        998    1    1    2    0    0 -0.11233818599E+02 -0.26803099212E+02  0.14144905573E+04  0.14148244208E+04  0.10000000000E+02 0.  1.
</event>
<event>
 5    1  0.1369527E-008  0.3746333E+03  0.7957747E-01  0.3474864E+00
         13   -1    0    0    0    0  0.00000000000E+00  0.00000000000E+00  0.14999999963E+04  0.15000000000E+04  0.10566000000E+00 0. -1.
        994   -1    0    0    0    0 -0.00000000000E+00 -0.00000000000E+00  0.11368683772E-12  0.17120000000E+03  0.17120000000E+03 0.  0.
         13    1    1    2    0    0 -0.10050449065E+02  0.20497811591E+01  0.45302249459E+01  0.11213707295E+02  0.10566000000E+00 0. -1.
        994    1    1    2    0    0  0.15380315902E+01 -0.84213328897E+01  0.71166170873E+01  0.17156156512E+03  0.17120000000E+03 0.  0.
        998    1    1    2    0    0  0.85124174750E+01  0.63715517307E+01  0.14883531542E+04  0.14884247276E+04  0.10000000000E+02 0. -1.
</event>
<event>
 5    1  0.1369527E-008  0.3850922E+03  0.7957747E-01  0.3429281E+00
         13   -1    0    0    0    0  0.00000000000E+00  0.00000000000E+00  0.14999999963E+04  0.15000000000E+04  0.10566000000E+00 0. -1.
        994   -1    0    0    0    0 -0.00000000000E+00 -0.00000000000E+00  0.11368683772E-12  0.17120000000E+03  0.17120000000E+03 0.  0.
         13    1    1    2    0    0 -0.15418703256E+02 -0.15151837937E+01  0.71337379711E+02  0.73000445890E+02  0.10566000000E+00 0. -1.
        994    1    1    2    0    0  0.19115465282E+02  0.34584637418E+01  0.28260035393E+01  0.17232175800E+03  0.17120000000E+03 0.  0.
        998    1    1    2    0    0 -0.36967620258E+01 -0.19432799481E+01  0.14258366130E+04  0.14258777961E+04  0.10000000000E+02 0. -1.
</event>
<event>
 5    1  0.1369527E-008  0.3727901E+03  0.7957747E-01  0.3483166E+00
         13   -1    0    0    0    0  0.00000000000E+00  0.00000000000E+00  0.14999999963E+04  0.15000000000E+04  0.10566000000E+00 0.  1.
        994   -1    0    0    0    0 -0.00000000000E+00 -0.00000000000E+00  0.11368683772E-12  0.17120000000E+03  0.17120000000E+03 0.  0.
         13    1    1    2    0    0 -0.20077756113E+01 -0.21116677828E+02  0.26291991931E+02  0.33782025534E+02  0.10566000000E+00 0.  1.
        994    1    1    2    0    0  0.12312089878E+02  0.13695481822E+01  0.83437074865E+01  0.17185028564E+03  0.17120000000E+03 0.  0.
        998    1    1    2    0    0 -0.10304314267E+02  0.19747129646E+02  0.14653642969E+04  0.14655676888E+04  0.10000000000E+02 0.  1.
</event>
<event>
 5    1  0.1369527E-008  0.3827860E+03  0.7957747E-01  0.3439117E+00
         13   -1    0    0    0    0  0.00000000000E+00  0.00000000000E+00  0.14999999963E+04  0.15000000000E+04  0.10566000000E+00 0.  1.
        994   -1    0    0    0    0 -0.00000000000E+00 -0.00000000000E+00  0.11368683772E-12  0.17120000000E+03  0.17120000000E+03 0.  0.
         13    1    1    2    0    0  0.24071936820E+02 -0.13964741677E+02  0.13124224770E+03  0.13416039244E+03  0.10566000000E+00 0.  1.
        994    1    1    2    0    0 -0.30313234458E+02  0.16362276728E+01  0.57919827799E+01  0.17396711324E+03  0.17120000000E+03 0.  0.
        998    1    1    2    0    0  0.62412976388E+01  0.12328514004E+02  0.13629657658E+04  0.13630724943E+04  0.10000000000E+02 0.  1.
</event>
<event>
 5    1  0.1369527E-008  0.3836506E+03  0.7957747E-01  0.3435416E+00
         13   -1    0    0    0    0  0.00000000000E+00  0.00000000000E+00  0.14999999963E+04  0.15000000000E+04  0.10566000000E+00 0.  1.
        994   -1    0    0    0    0 -0.00000000000E+00 -0.00000000000E+00  0.11368683772E-12  0.17120000000E+03  0.17120000000E+03 0.  0.
         13    1    1    2    0    0 -0.95919314945E+00  0.15867936886E+02  0.58992380556E+02  0.61096837890E+02  0.10566000000E+00 0.  1.
        994    1    1    2    0    0  0.18980429185E+01  0.54450845667E+01  0.24114392085E+01  0.17131405824E+03  0.17120000000E+03 0.  0.
        998    1    1    2    0    0 -0.93884976906E+00 -0.21313021452E+02  0.14385961765E+04  0.14387891039E+04  0.10000000000E+02 0.  1.
</event>
<event>
 5    1  0.1369527E-008  0.3817039E+03  0.7957747E-01  0.3443773E+00
         13   -1    0    0    0    0  0.00000000000E+00  0.00000000000E+00  0.14999999963E+04  0.15000000000E+04  0.10566000000E+00 0.  1.
        994   -1    0    0    0    0 -0.00000000000E+00 -0.00000000000E+00  0.11368683772E-12  0.17120000000E+03  0.17120000000E+03 0.  0.
         13    1    1    2    0    0 -0.15914258259E+02  0.17207502820E+02  0.86409069880E+02  0.89531560306E+02  0.10566000000E+00 0.  1.
        994    1    1    2    0    0  0.66792031637E+01 -0.27799913745E+01  0.34494948734E+01  0.17138751157E+03  0.17120000000E+03 0.  0.
        998    1    1    2    0    0  0.92350550953E+01 -0.14427511446E+02  0.14101414315E+04  0.14102809281E+04  0.10000000000E+02 0.  1.
</event>
<event>
 5    1  0.1369527E-008  0.3823015E+03  0.7957747E-01  0.3441198E+00
         13   -1    0    0    0    0  0.00000000000E+00  0.00000000000E+00  0.14999999963E+04  0.15000000000E+04  0.10566000000E+00 0.  1.
        994   -1    0    0    0    0 -0.00000000000E+00 -0.00000000000E+00  0.11368683772E-12  0.17120000000E+03  0.17120000000E+03 0.  0.
         13    1    1    2    0    0  0.22597269288E+01 -0.12644504845E+02  0.26793753252E+02  0.29713738336E+02  0.10566000000E+00 0.  1.
        994    1    1    2    0    0  0.16262637004E+01  0.72804756293E+01  0.31605108187E+01  0.17139159515E+03  0.17120000000E+03 0.  0.
        998    1    1    2    0    0 -0.38859906292E+01  0.53640292153E+01  0.14700457322E+04  0.14700946665E+04  0.10000000000E+02 0.  1.
</event>
<event>
 5    1  0.1369527E-008  0.3752032E+03  0.7957747E-01  0.3472314E+00
         13   -1    0    0    0    0  0.00000000000E+00  0.00000000000E+00  0.14999999963E+04  0.15000000000E+04  0.10566000000E+00 0. -1.
        994   -1    0    0    0    0 -0.00000000000E+00 -0.00000000000E+00  0.11368683772E-12  0.17120000000E+03  0.17120000000E+03 0.  0.
         13    1    1    2    0    0 -0.77405745436E+01 -0.36116015736E+02  0.91361650735E+02  0.98545651735E+02  0.10566000000E+00 0. -1.
        994    1    1    2    0    0  0.26733301102E+02  0.43824386270E+02  0.15579136061E+02  0.17940846050E+03  0.17120000000E+03 0.  0.
        998    1    1    2    0    0 -0.18992726559E+02 -0.77083705345E+01  0.13930592095E+04  0.13932458878E+04  0.10000000000E+02 0. -1.
</event>
<event>
 5    1  0.1369527E-008  0.3771496E+03  0.7957747E-01  0.3463665E+00
         13   -1    0    0    0    0  0.00000000000E+00  0.00000000000E+00  0.14999999963E+04  0.15000000000E+04  0.10566000000E+00 0. -1.
        994   -1    0    0    0    0 -0.00000000000E+00 -0.00000000000E+00  0.11368683772E-12  0.17120000000E+03  0.17120000000E+03 0.  0.
         13    1    1    2    0    0  0.12189732869E+03  0.17084644963E+03  0.10479653000E+04  0.10687744146E+04  0.10566000000E+00 0. -1.
        994    1    1    2    0    0 -0.99457486001E+02 -0.18160768925E+03  0.16744764032E+03  0.31657747324E+03  0.17120000000E+03 0.  0.
        998    1    1    2    0    0 -0.22439842691E+02  0.10761239621E+02  0.28458705594E+03  0.28584811217E+03  0.10000000000E+02 0. -1.
</event>
<event>
 5    1  0.1369527E-008  0.3708930E+03  0.7957747E-01  0.3491797E+00
         13   -1    0    0    0    0  0.00000000000E+00  0.00000000000E+00  0.14999999963E+04  0.15000000000E+04  0.10566000000E+00 0. -1.
        994   -1    0    0    0    0 -0.00000000000E+00 -0.00000000000E+00  0.11368683772E-12  0.17120000000E+03  0.17120000000E+03 0.  0.
         13    1    1    2    0    0  0.11787357975E+02 -0.21973484385E+02  0.31457798698E+02  0.40141999041E+02  0.10566000000E+00 0. -1.
        994    1    1    2    0    0 -0.12889310440E+02  0.16326941617E+02  0.10296006794E+02  0.17276617465E+03  0.17120000000E+03 0.  0.
        998    1    1    2    0    0  0.11019524655E+01  0.56465427673E+01  0.14582461908E+04  0.14582918263E+04  0.10000000000E+02 0. -1.
</event>
<event>
 5    1  0.1369527E-008  0.3853834E+03  0.7957747E-01  0.3428048E+00
         13   -1    0    0    0    0  0.00000000000E+00  0.00000000000E+00  0.14999999963E+04  0.15000000000E+04  0.10566000000E+00 0.  1.
        994   -1    0    0    0    0 -0.00000000000E+00 -0.00000000000E+00  0.11368683772E-12  0.17120000000E+03  0.17120000000E+03 0.  0.
         13    1    1    2    0    0 -0.55512004130E+02 -0.33915183980E+02  0.90937892381E+02  0.11181025777E+03  0.10566000000E+00 0.  1.
        994    1    1    2    0    0  0.98735821648E+02  0.13088456147E+00  0.56321458257E+02  0.20550018557E+03  0.17120000000E+03 0.  0.
        998    1    1    2    0    0 -0.43223817518E+02  0.33784299419E+02  0.13527406456E+04  0.13538895567E+04  0.10000000000E+02 0.  1.
</event>
<event>
 5    1  0.1369527E-008  0.3721178E+03  0.7957747E-01  0.3486214E+00
         13   -1    0    0    0    0  0.00000000000E+00  0.00000000000E+00  0.14999999963E+04  0.15000000000E+04  0.10566000000E+00 0.  1.
        994   -1    0    0    0    0 -0.00000000000E+00 -0.00000000000E+00  0.11368683772E-12  0.17120000000E+03  0.17120000000E+03 0.  0.
         13    1    1    2    0    0 -0.46023226088E+02 -0.43625578259E+02  0.35948411580E+03  0.36503447658E+03  0.10566000000E+00 0.  1.
        994    1    1    2    0    0  0.33813569760E+01 -0.18371424108E+02  0.93649760501E+01  0.17247053538E+03  0.17120000000E+03 0.  0.
        998    1    1    2    0    0  0.42641869112E+02  0.61997002367E+02  0.11311509044E+04  0.11336949880E+04  0.10000000000E+02 0.  1.
</event>
<event>
 5    1  0.1369527E-008  0.3744213E+03  0.7957747E-01  0.3475815E+00
         13   -1    0    0    0    0  0.00000000000E+00  0.00000000000E+00  0.14999999963E+04  0.15000000000E+04  0.10566000000E+00 0. -1.
        994   -1    0    0    0    0 -0.00000000000E+00 -0.00000000000E+00  0.11368683772E-12  0.17120000000E+03  0.17120000000E+03 0.  0.
         13    1    1    2    0    0  0.35455009186E+02  0.75167066078E+02  0.31230795714E+03  0.32317706719E+03  0.10566000000E+00 0. -1.
        994    1    1    2    0    0 -0.50273500139E+02 -0.98946234572E+02  0.50161316211E+02  0.21010325984E+03  0.17120000000E+03 0.  0.
        998    1    1    2    0    0  0.14818490953E+02  0.23779168494E+02  0.11375307229E+04  0.11379196730E+04  0.10000000000E+02 0.  1.
</event>
<event>
 5    1  0.1369527E-008  0.3856828E+03  0.7957747E-01  0.3426782E+00
         13   -1    0    0    0    0  0.00000000000E+00  0.00000000000E+00  0.14999999963E+04  0.15000000000E+04  0.10566000000E+00 0. -1.
        994   -1    0    0    0    0 -0.00000000000E+00 -0.00000000000E+00  0.11368683772E-12  0.17120000000E+03  0.17120000000E+03 0.  0.
         13    1    1    2    0    0  0.12772694053E+02 -0.52580488659E+01  0.75544066135E+02  0.76796522601E+02  0.10566000000E+00 0. -1.
        994    1    1    2    0    0 -0.76551408729E+01  0.40402268367E-01  0.14838492115E+01  0.17137749159E+03  0.17120000000E+03 0.  0.
        998    1    1    2    0    0 -0.51175531796E+01  0.52176465975E+01  0.14229720809E+04  0.14230259858E+04  0.10000000000E+02 0. -1.
</event>
<event>
 5    1  0.1369527E-008  0.3792881E+03  0.7957747E-01  0.3454264E+00
         13   -1    0    0    0    0  0.00000000000E+00  0.00000000000E+00  0.14999999963E+04  0.15000000000E+04  0.10566000000E+00 0. -1.
        994   -1    0    0    0    0 -0.00000000000E+00 -0.00000000000E+00  0.11368683772E-12  0.17120000000E+03  0.17120000000E+03 0.  0.
         13    1    1    2    0    0  0.19444407577E+02 -0.10209770636E+02  0.49852142112E+02  0.54475422345E+02  0.10566000000E+00 0. -1.
        994    1    1    2    0    0 -0.16455890937E+02  0.24249201326E+02  0.73760037662E+01  0.17384667251E+03  0.17120000000E+03 0.  0.
        998    1    1    2    0    0 -0.29885166400E+01 -0.14039430689E+02  0.14427718504E+04  0.14428779051E+04  0.10000000000E+02 0. -1.
</event>
<event>
 5    1  0.1369527E-008  0.3812619E+03  0.7957747E-01  0.3445682E+00
         13   -1    0    0    0    0  0.00000000000E+00  0.00000000000E+00  0.14999999963E+04  0.15000000000E+04  0.10566000000E+00 0.  1.
        994   -1    0    0    0    0 -0.00000000000E+00 -0.00000000000E+00  0.11368683772E-12  0.17120000000E+03  0.17120000000E+03 0.  0.
         13    1    1    2    0    0  0.15852111858E+01 -0.15157411177E+02  0.31024051827E+02  0.34565343393E+02  0.10566000000E+00 0.  1.
        994    1    1    2    0    0  0.66551942281E+01  0.19344631900E+02  0.48919407408E+01  0.17248732556E+03  0.17120000000E+03 0.  0.
        998    1    1    2    0    0 -0.82404054139E+01 -0.41872207234E+01  0.14640840037E+04  0.14641473311E+04  0.10000000000E+02 0.  1.
</event>
<event>
 5    1  0.1369527E-008  0.3790381E+03  0.7957747E-01  0.3455358E+00
         13   -1    0    0    0    0  0.00000000000E+00  0.00000000000E+00  0.14999999963E+04  0.15000000000E+04  0.10566000000E+00 0.  1.
        994   -1    0    0    0    0 -0.00000000000E+00 -0.00000000000E+00  0.11368683772E-12  0.17120000000E+03  0.17120000000E+03 0.  0.
         13    1    1    2    0    0 -0.11141683229E+02 -0.98339094589E+01  0.21443536339E+02  0.26089831260E+02  0.10566000000E+00 0.  1.
        994    1    1    2    0    0  0.11171177261E+02  0.16735582914E+02  0.59784664041E+01  0.17248204833E+03  0.17120000000E+03 0.  0.
        998    1    1    2    0    0 -0.29494032246E-01 -0.69016734547E+01  0.14725779935E+04  0.14726281204E+04  0.10000000000E+02 0.  1.
</event>
<event>
 5    1  0.1369527E-008  0.3797700E+03  0.7957747E-01  0.3452160E+00
         13   -1    0    0    0    0  0.00000000000E+00  0.00000000000E+00  0.14999999963E+04  0.15000000000E+04  0.10566000000E+00 0. -1.
        994   -1    0    0    0    0 -0.00000000000E+00 -0.00000000000E+00  0.11368683772E-12  0.17120000000E+03  0.17120000000E+03 0.  0.
         13    1    1    2    0    0 -0.22030854942E+02  0.47836202978E+01  0.54359547796E+02  0.58849071303E+02  0.10566000000E+00 0. -1.
        994    1    1    2    0    0  0.31652134278E+02 -0.72037444865E+01  0.77826007918E+01  0.17442408209E+03  0.17120000000E+03 0.  0.
        998    1    1    2    0    0 -0.96212793367E+01  0.24201241887E+01  0.14378578477E+04  0.14379268466E+04  0.10000000000E+02 0. -1.
</event>
<event>
 5    1  0.1369527E-008  0.3751044E+03  0.7957747E-01  0.3472756E+00
         13   -1    0    0    0    0  0.00000000000E+00  0.00000000000E+00  0.14999999963E+04  0.15000000000E+04  0.10566000000E+00 0.  1.
        994   -1    0    0    0    0 -0.00000000000E+00 -0.00000000000E+00  0.11368683772E-12  0.17120000000E+03  0.17120000000E+03 0.  0.
         13    1    1    2    0    0  0.30758771987E+02 -0.22775987952E+02  0.11735103735E+03  0.12343469857E+03  0.10566000000E+00 0.  1.
        994    1    1    2    0    0 -0.11081337335E+01  0.79428112823E+01  0.68437211005E+01  0.17152432110E+03  0.17120000000E+03 0.  0.
        998    1    1    2    0    0 -0.29650638253E+02  0.14833176670E+02  0.13758052378E+04  0.13762409803E+04  0.10000000000E+02 0.  1.
</event>
<event>
 5    1  0.1369527E-008  0.3838885E+03  0.7957747E-01  0.3434400E+00
         13   -1    0    0    0    0  0.00000000000E+00  0.00000000000E+00  0.14999999963E+04  0.15000000000E+04  0.10566000000E+00 0. -1.
        994   -1    0    0    0    0 -0.00000000000E+00 -0.00000000000E+00  0.11368683772E-12  0.17120000000E+03  0.17120000000E+03 0.  0.
         13    1    1    2    0    0 -0.20723752581E+02 -0.19785382738E+02  0.17025528860E+03  0.17264938387E+03  0.10566000000E+00 0. -1.
        994    1    1    2    0    0  0.15906932190E+02  0.23802257509E+02  0.48927443096E+01  0.17364606791E+03  0.17120000000E+03 0.  0.
        998    1    1    2    0    0  0.48168203912E+01 -0.40168747712E+01  0.13248519634E+04  0.13249045482E+04  0.10000000000E+02 0.  0.
</event>
<event>
 5    1  0.1369527E-008  0.3796534E+03  0.7957747E-01  0.3452669E+00
         13   -1    0    0    0    0  0.00000000000E+00  0.00000000000E+00  0.14999999963E+04  0.15000000000E+04  0.10566000000E+00 0.  1.
        994   -1    0    0    0    0 -0.00000000000E+00 -0.00000000000E+00  0.11368683772E-12  0.17120000000E+03  0.17120000000E+03 0.  0.
         13    1    1    2    0    0  0.20176143737E+02 -0.17674297765E+01  0.48528514403E+02  0.52585439604E+02  0.10566000000E+00 0.  1.
        994    1    1    2    0    0  0.12450594746E+01 -0.28352960285E+01  0.43403265659E+01  0.17128300415E+03  0.17120000000E+03 0.  0.
        998    1    1    2    0    0 -0.21421203212E+02  0.46027258049E+01  0.14471311553E+04  0.14473315562E+04  0.10000000000E+02 0.  1.
</event>
<event>
 5    1  0.1369527E-008  0.3200224E+03  0.7957747E-01  0.3762693E+00
         13   -1    0    0    0    0  0.00000000000E+00  0.00000000000E+00  0.14999999963E+04  0.15000000000E+04  0.10566000000E+00 0.  1.
        994   -1    0    0    0    0 -0.00000000000E+00 -0.00000000000E+00  0.11368683772E-12  0.17120000000E+03  0.17120000000E+03 0.  0.
         13    1    1    2    0    0 -0.12272248290E+03 -0.14948865327E+03  0.10732894797E+04  0.10905769040E+04  0.10566000000E+00 0.  1.
        994    1    1    2    0    0  0.29043244693E+02  0.66989920364E+02  0.63859282335E+02  0.19677044349E+03  0.17120000000E+03 0.  0.
        998    1    1    2    0    0  0.93679238203E+02  0.82498732904E+02  0.36285123429E+03  0.38385265249E+03  0.10000000000E+02 0. -1.
</event>
<event>
 5    1  0.1369527E-008  0.3706961E+03  0.7957747E-01  0.3492698E+00
         13   -1    0    0    0    0  0.00000000000E+00  0.00000000000E+00  0.14999999963E+04  0.15000000000E+04  0.10566000000E+00 0. -1.
        994   -1    0    0    0    0 -0.00000000000E+00 -0.00000000000E+00  0.11368683772E-12  0.17120000000E+03  0.17120000000E+03 0.  0.
         13    1    1    2    0    0 -0.19743324570E+02 -0.32556369673E+02  0.74571735646E+02  0.83729749747E+02  0.10566000000E+00 0. -1.
        994    1    1    2    0    0  0.12600895695E+02  0.37109919068E+02  0.14222270837E+02  0.17620340988E+03  0.17120000000E+03 0.  0.
        998    1    1    2    0    0  0.71424288755E+01 -0.45535493945E+01  0.14112059898E+04  0.14112668404E+04  0.10000000000E+02 0. -1.
</event>
<event>
 5    1  0.1369527E-008  0.3840456E+03  0.7957747E-01  0.3433730E+00
         13   -1    0    0    0    0  0.00000000000E+00  0.00000000000E+00  0.14999999963E+04  0.15000000000E+04  0.10566000000E+00 0.  1.
        994   -1    0    0    0    0 -0.00000000000E+00 -0.00000000000E+00  0.11368683772E-12  0.17120000000E+03  0.17120000000E+03 0.  0.
         13    1    1    2    0    0  0.16518690003E+02  0.13781922212E+02  0.12364355407E+03  0.12550118774E+03  0.10566000000E+00 0.  1.
        994    1    1    2    0    0  0.16179978907E+00  0.27180408635E+01  0.21291727710E+01  0.17123488927E+03  0.17120000000E+03 0.  0.
        998    1    1    2    0    0 -0.16680489792E+02 -0.16499963076E+02  0.13742272694E+04  0.13744639230E+04  0.10000000000E+02 0.  1.
</event>
<event>
 5    1  0.1369527E-008  0.3833252E+03  0.7957747E-01  0.3436807E+00
         13   -1    0    0    0    0  0.00000000000E+00  0.00000000000E+00  0.14999999963E+04  0.15000000000E+04  0.10566000000E+00 0. -1.
        994   -1    0    0    0    0 -0.00000000000E+00 -0.00000000000E+00  0.11368683772E-12  0.17120000000E+03  0.17120000000E+03 0.  0.
         13    1    1    2    0    0 -0.22434484232E+02 -0.14984866436E+02  0.15016639227E+03  0.15257066833E+03  0.10566000000E+00 0. -1.
        994    1    1    2    0    0  0.10549438546E+02  0.85979351337E+01  0.30766175742E+01  0.17176763583E+03  0.17120000000E+03 0.  0.
        998    1    1    2    0    0  0.11885045686E+02  0.63869313022E+01  0.13467569864E+04  0.13468616958E+04  0.10000000000E+02 0. -1.
</event>
<event>
 5    1  0.1369527E-008  0.3844272E+03  0.7957747E-01  0.3432105E+00
         13   -1    0    0    0    0  0.00000000000E+00  0.00000000000E+00  0.14999999963E+04  0.15000000000E+04  0.10566000000E+00 0.  1.
        994   -1    0    0    0    0 -0.00000000000E+00 -0.00000000000E+00  0.11368683772E-12  0.17120000000E+03  0.17120000000E+03 0.  0.
         13    1    1    2    0    0  0.14082007740E+02 -0.13928439988E+02  0.88664478916E+02  0.90849905713E+02  0.10566000000E+00 0.  1.
        994    1    1    2    0    0 -0.41919882494E+02  0.68075463916E+01  0.78800336413E+01  0.17656487240E+03  0.17120000000E+03 0.  0.
        998    1    1    2    0    0  0.27837874754E+02  0.71208935959E+01  0.14034554837E+04  0.14037852219E+04  0.10000000000E+02 0.  1.
</event>
<event>
 5    1  0.1369527E-008  0.3843224E+03  0.7957747E-01  0.3432551E+00
         13   -1    0    0    0    0  0.00000000000E+00  0.00000000000E+00  0.14999999963E+04  0.15000000000E+04  0.10566000000E+00 0. -1.
        994   -1    0    0    0    0 -0.00000000000E+00 -0.00000000000E+00  0.11368683772E-12  0.17120000000E+03  0.17120000000E+03 0.  0.
         13    1    1    2    0    0  0.16182686358E+02 -0.34389911075E+01  0.74338174166E+02  0.76156951751E+02  0.10566000000E+00 0. -1.
        994    1    1    2    0    0 -0.15269267246E+01 -0.90314589979E+01  0.22435011292E+01  0.17145953474E+03  0.17120000000E+03 0.  0.
        998    1    1    2    0    0 -0.14655759633E+02  0.12470450105E+02  0.14234183210E+04  0.14235835135E+04  0.10000000000E+02 0. -1.
</event>
<event>
 5    1  0.1369527E-008  0.3803323E+03  0.7957747E-01  0.3449713E+00
         13   -1    0    0    0    0  0.00000000000E+00  0.00000000000E+00  0.14999999963E+04  0.15000000000E+04  0.10566000000E+00 0. -1.
        994   -1    0    0    0    0 -0.00000000000E+00 -0.00000000000E+00  0.11368683772E-12  0.17120000000E+03  0.17120000000E+03 0.  0.
         13    1    1    2    0    0  0.98044606066E+01  0.22070032477E+01  0.11221942102E+02  0.15064576320E+02  0.10566000000E+00 0. -1.
        994    1    1    2    0    0 -0.41378647966E+00  0.83280341778E+01  0.41977195488E+01  0.17145433276E+03  0.17120000000E+03 0.  0.
        998    1    1    2    0    0 -0.93906741270E+01 -0.10535037425E+02  0.14845803346E+04  0.14846810909E+04  0.10000000000E+02 0. -1.
</event>
<event>
 5    1  0.1369527E-008  0.3765933E+03  0.7957747E-01  0.3466127E+00
         13   -1    0    0    0    0  0.00000000000E+00  0.00000000000E+00  0.14999999963E+04  0.15000000000E+04  0.10566000000E+00 0. -1.
        994   -1    0    0    0    0 -0.00000000000E+00 -0.00000000000E+00  0.11368683772E-12  0.17120000000E+03  0.17120000000E+03 0.  0.
         13    1    1    2    0    0  0.11736133833E+03  0.24362732621E+01  0.62971015177E+03  0.64055796425E+03  0.10566000000E+00 0. -1.
        994    1    1    2    0    0 -0.12108628857E+03  0.14640452890E+02  0.57940368611E+02  0.21804301974E+03  0.17120000000E+03 0.  0.
        998    1    1    2    0    0  0.37249502471E+01 -0.17076726152E+02  0.81234947590E+03  0.81259901601E+03  0.10000000000E+02 0. -1.
</event>
<event>
 5    1  0.1369527E-008  0.3835236E+03  0.7957747E-01  0.3435958E+00
         13   -1    0    0    0    0  0.00000000000E+00  0.00000000000E+00  0.14999999963E+04  0.15000000000E+04  0.10566000000E+00 0. -1.
        994   -1    0    0    0    0 -0.00000000000E+00 -0.00000000000E+00  0.11368683772E-12  0.17120000000E+03  0.17120000000E+03 0.  0.
         13    1    1    2    0    0 -0.96926590685E+01  0.24656017738E+01  0.20202797311E+02  0.22543092405E+02  0.10566000000E+00 0. -1.
        994    1    1    2    0    0  0.10029213100E+02  0.38367323368E+01  0.27460306651E+01  0.17155840497E+03  0.17120000000E+03 0.  0.
        998    1    1    2    0    0 -0.33655403171E+00 -0.63023341106E+01  0.14770511683E+04  0.14770985026E+04  0.10000000000E+02 0. -1.
</event>
<event>
 5    1  0.1369527E-008  0.3791919E+03  0.7957747E-01  0.3454685E+00
         13   -1    0    0    0    0  0.00000000000E+00  0.00000000000E+00  0.14999999963E+04  0.15000000000E+04  0.10566000000E+00 0. -1.
        994   -1    0    0    0    0 -0.00000000000E+00 -0.00000000000E+00  0.11368683772E-12  0.17120000000E+03  0.17120000000E+03 0.  0.
         13    1    1    2    0    0  0.20649113533E+02  0.83628479947E+01  0.53365501907E+02  0.57829154188E+02  0.10566000000E+00 0. -1.
        994    1    1    2    0    0 -0.73727079236E+01 -0.14546047226E+02  0.54335197841E+01  0.17206076673E+03  0.17120000000E+03 0.  0.
        998    1    1    2    0    0 -0.13276405609E+02  0.61831992316E+01  0.14412009746E+04  0.14413100791E+04  0.10000000000E+02 0. -1.
</event>
<event>
 5    1  0.1369527E-008  0.3842947E+03  0.7957747E-01  0.3432669E+00
         13   -1    0    0    0    0  0.00000000000E+00  0.00000000000E+00  0.14999999963E+04  0.15000000000E+04  0.10566000000E+00 0. -1.
        994   -1    0    0    0    0 -0.00000000000E+00 -0.00000000000E+00  0.11368683772E-12  0.17120000000E+03  0.17120000000E+03 0.  0.
         13    1    1    2    0    0 -0.18213858645E+02 -0.13085551321E+02  0.11636255014E+03  0.11850413723E+03  0.10566000000E+00 0. -1.
        994    1    1    2    0    0  0.17732893692E+02  0.18175564998E+02  0.41090233342E+01  0.17312172236E+03  0.17120000000E+03 0.  0.
        998    1    1    2    0    0  0.48096495350E+00 -0.50900136765E+01  0.13795284228E+04  0.13795741404E+04  0.10000000000E+02 0. -1.
</event>
<event>
 5    1  0.1369527E-008  0.3728101E+03  0.7957747E-01  0.3483075E+00
         13   -1    0    0    0    0  0.00000000000E+00  0.00000000000E+00  0.14999999963E+04  0.15000000000E+04  0.10566000000E+00 0. -1.
        994   -1    0    0    0    0 -0.00000000000E+00 -0.00000000000E+00  0.11368683772E-12  0.17120000000E+03  0.17120000000E+03 0.  0.
         13    1    1    2    0    0  0.22365365935E+02  0.28767835749E+02  0.78237677276E+02  0.86307260857E+02  0.10566000000E+00 0. -1.
        994    1    1    2    0    0 -0.29632871234E+02 -0.23527479286E+02  0.12726168987E+02  0.17579261849E+03  0.17120000000E+03 0.  0.
        998    1    1    2    0    0  0.72675052989E+01 -0.52403564631E+01  0.14090361500E+04  0.14091001207E+04  0.10000000000E+02 0. -1.
</event>
<event>
 5    1  0.1369527E-008  0.3823342E+03  0.7957747E-01  0.3441057E+00
         13   -1    0    0    0    0  0.00000000000E+00  0.00000000000E+00  0.14999999963E+04  0.15000000000E+04  0.10566000000E+00 0. -1.
        994   -1    0    0    0    0 -0.00000000000E+00 -0.00000000000E+00  0.11368683772E-12  0.17120000000E+03  0.17120000000E+03 0.  0.
         13    1    1    2    0    0 -0.21227761387E+02  0.23880096544E+02  0.18696166937E+03  0.18967222738E+03  0.10566000000E+00 0. -1.
        994    1    1    2    0    0  0.73204131441E+01 -0.48876719485E+01  0.32165341964E+01  0.17145630312E+03  0.17120000000E+03 0.  0.
        998    1    1    2    0    0  0.13907348243E+02 -0.18992424595E+02  0.13098217927E+04  0.13100714695E+04  0.10000000000E+02 0. -1.
</event>
<event>
 5    1  0.1369527E-008  0.3743693E+03  0.7957747E-01  0.3476048E+00
         13   -1    0    0    0    0  0.00000000000E+00  0.00000000000E+00  0.14999999963E+04  0.15000000000E+04  0.10566000000E+00 0.  1.
        994   -1    0    0    0    0 -0.00000000000E+00 -0.00000000000E+00  0.11368683772E-12  0.17120000000E+03  0.17120000000E+03 0.  0.
         13    1    1    2    0    0 -0.31403845647E+02 -0.20657666431E+02  0.47619490314E+02  0.60667682712E+02  0.10566000000E+00 0.  1.
        994    1    1    2    0    0  0.25427493001E+02  0.17292462116E+02  0.16632527583E+02  0.17473313258E+03  0.17120000000E+03 0.  0.
        998    1    1    2    0    0  0.59763526466E+01  0.33652043156E+01  0.14357479784E+04  0.14357991847E+04  0.10000000000E+02 0.  1.
</event>
<event>
 5    1  0.1369527E-008  0.3813544E+03  0.7957747E-01  0.3445282E+00
         13   -1    0    0    0    0  0.00000000000E+00  0.00000000000E+00  0.14999999963E+04  0.15000000000E+04  0.10566000000E+00 0.  1.
        994   -1    0    0    0    0 -0.00000000000E+00 -0.00000000000E+00  0.11368683772E-12  0.17120000000E+03  0.17120000000E+03 0.  0.
         13    1    1    2    0    0 -0.24820172169E+02  0.56954821734E+01  0.89485449740E+02  0.93038359523E+02  0.10566000000E+00 0.  1.
        994    1    1    2    0    0  0.22124406900E+02 -0.48518819684E+01  0.51602380690E+01  0.17276891560E+03  0.17120000000E+03 0.  0.
        998    1    1    2    0    0  0.26957652681E+01 -0.84360020499E+00  0.14053543085E+04  0.14053927249E+04  0.10000000000E+02 0.  1.
</event>
<event>
 5    1  0.1369527E-008  0.3807900E+03  0.7957747E-01  0.3447726E+00
         13   -1    0    0    0    0  0.00000000000E+00  0.00000000000E+00  0.14999999963E+04  0.15000000000E+04  0.10566000000E+00 0. -1.
        994   -1    0    0    0    0 -0.00000000000E+00 -0.00000000000E+00  0.11368683772E-12  0.17120000000E+03  0.17120000000E+03 0.  0.
         13    1    1    2    0    0  0.10411902161E+02 -0.15649902281E+02  0.39692596690E+02  0.43918567190E+02  0.10566000000E+00 0. -1.
        994    1    1    2    0    0 -0.52055896744E+02  0.29546767359E+02  0.15774506718E+02  0.18204697995E+03  0.17120000000E+03 0.  0.
        998    1    1    2    0    0  0.41643994583E+02 -0.13896865079E+02  0.14445328929E+04  0.14452344529E+04  0.10000000000E+02 0. -1.
</event>
<event>
 5    1  0.1369527E-008  0.3998679E+03  0.7957747E-01  0.3368963E+00
         13   -1    0    0    0    0  0.00000000000E+00  0.00000000000E+00  0.14999999963E+04  0.15000000000E+04  0.10566000000E+00 0. -1.
        994   -1    0    0    0    0 -0.00000000000E+00 -0.00000000000E+00  0.11368683772E-12  0.17120000000E+03  0.17120000000E+03 0.  0.
         13    1    1    2    0    0  0.98795256277E+02 -0.91463855661E+02  0.24590226616E+03  0.28034634869E+03  0.10566000000E+00 0. -1.
        994    1    1    2    0    0 -0.11157363400E+03  0.93381033760E+02  0.11639472754E+03  0.25303332956E+03  0.17120000000E+03 0.  0.
        998    1    1    2    0    0  0.12778377728E+02 -0.19171780984E+01  0.11377030026E+04  0.11378203218E+04  0.10000000000E+02 0. -1.
</event>
<event>
 5    1  0.1369527E-008  0.3857670E+03  0.7957747E-01  0.3426426E+00
         13   -1    0    0    0    0  0.00000000000E+00  0.00000000000E+00  0.14999999963E+04  0.15000000000E+04  0.10566000000E+00 0.  1.
        994   -1    0    0    0    0 -0.00000000000E+00 -0.00000000000E+00  0.11368683772E-12  0.17120000000E+03  0.17120000000E+03 0.  0.
         13    1    1    2    0    0 -0.66573799728E+01 -0.80484584017E+01  0.43940106223E+02  0.45164615461E+02  0.10566000000E+00 0.  1.
        994    1    1    2    0    0 -0.42752660810E+01  0.13039422113E+02  0.18677769599E+01  0.17175922980E+03  0.17120000000E+03 0.  0.
        998    1    1    2    0    0  0.10932646054E+02 -0.49909637117E+01  0.14541921131E+04  0.14542761547E+04  0.10000000000E+02 0.  1.
</event>
<event>
 5    1  0.1369527E-008  0.3740936E+03  0.7957747E-01  0.3477287E+00
         13   -1    0    0    0    0  0.00000000000E+00  0.00000000000E+00  0.14999999963E+04  0.15000000000E+04  0.10566000000E+00 0. -1.
        994   -1    0    0    0    0 -0.00000000000E+00 -0.00000000000E+00  0.11368683772E-12  0.17120000000E+03  0.17120000000E+03 0.  0.
         13    1    1    2    0    0  0.35568897864E+02 -0.61638450663E+01  0.93577184584E+02  0.10029875433E+03  0.10566000000E+00 0. -1.
        994    1    1    2    0    0 -0.13788080499E+02 -0.26294244050E+02  0.10156379532E+02  0.17405197637E+03  0.17120000000E+03 0.  0.
        998    1    1    2    0    0 -0.21780817365E+02  0.32458089116E+02  0.13962664322E+04  0.13968492693E+04  0.10000000000E+02 0. -1.
</event>
<event>
 5    1  0.1369527E-008  0.3829662E+03  0.7957747E-01  0.3438344E+00
         13   -1    0    0    0    0  0.00000000000E+00  0.00000000000E+00  0.14999999963E+04  0.15000000000E+04  0.10566000000E+00 0.  1.
        994   -1    0    0    0    0 -0.00000000000E+00 -0.00000000000E+00  0.11368683772E-12  0.17120000000E+03  0.17120000000E+03 0.  0.
         13    1    1    2    0    0 -0.14143553506E+02 -0.13051905463E+02  0.75723896091E+02  0.78131376189E+02  0.10566000000E+00 0.  1.
        994    1    1    2    0    0  0.29975769185E+01 -0.85723102234E+01  0.29163197880E+01  0.17146549184E+03  0.17120000000E+03 0.  0.
        998    1    1    2    0    0  0.11145976588E+02  0.21624215686E+02  0.14213597804E+04  0.14216031320E+04  0.10000000000E+02 0.  1.
</event>
<event>
 5    1  0.1369527E-008  0.3842320E+03  0.7957747E-01  0.3432936E+00
         13   -1    0    0    0    0  0.00000000000E+00  0.00000000000E+00  0.14999999963E+04  0.15000000000E+04  0.10566000000E+00 0.  1.
        994   -1    0    0    0    0 -0.00000000000E+00 -0.00000000000E+00  0.11368683772E-12  0.17120000000E+03  0.17120000000E+03 0.  0.
         13    1    1    2    0    0 -0.22626932112E+02 -0.14268418219E+02  0.15493228400E+03  0.15722464694E+03  0.10566000000E+00 0.  1.
        994    1    1    2    0    0  0.34722902275E+02  0.49605740656E+01  0.60785589867E+01  0.17486187725E+03  0.17120000000E+03 0.  0.
        998    1    1    2    0    0 -0.12095970162E+02  0.93078441539E+01  0.13389891533E+04  0.13391134758E+04  0.10000000000E+02 0.  1.
</event>
<event>
 5    1  0.1369527E-008  0.3842760E+03  0.7957747E-01  0.3432749E+00
         13   -1    0    0    0    0  0.00000000000E+00  0.00000000000E+00  0.14999999963E+04  0.15000000000E+04  0.10566000000E+00 0.  1.
        994   -1    0    0    0    0 -0.00000000000E+00 -0.00000000000E+00  0.11368683772E-12  0.17120000000E+03  0.17120000000E+03 0.  0.
         13    1    1    2    0    0  0.11963376980E+02  0.86048241886E+01  0.57374971540E+02  0.59237352333E+02  0.10566000000E+00 0.  1.
        994    1    1    2    0    0  0.17644392538E+01 -0.14537497037E+01  0.20072649978E+01  0.17122702984E+03  0.17120000000E+03 0.  0.
        998    1    1    2    0    0 -0.13727816234E+02 -0.71510744849E+01  0.14406177597E+04  0.14407356178E+04  0.10000000000E+02 0.  1.
</event>
<event>
 5    1  0.1369527E-008  0.3859895E+03  0.7957747E-01  0.3425487E+00
         13   -1    0    0    0    0  0.00000000000E+00  0.00000000000E+00  0.14999999963E+04  0.15000000000E+04  0.10566000000E+00 0. -1.
        994   -1    0    0    0    0 -0.00000000000E+00 -0.00000000000E+00  0.11368683772E-12  0.17120000000E+03  0.17120000000E+03 0.  0.
         13    1    1    2    0    0 -0.10814508092E+02  0.46766040535E+01  0.62404467199E+02  0.63507109060E+02  0.10566000000E+00 0. -1.
        994    1    1    2    0    0  0.38884057529E+01 -0.65502110041E+01  0.13299135662E+01  0.17137454196E+03  0.17120000000E+03 0.  0.
        998    1    1    2    0    0  0.69261023391E+01  0.18736069506E+01  0.14362656155E+04  0.14363183490E+04  0.10000000000E+02 0. -1.
</event>
<event>
 5    1  0.1369527E-008  0.3858140E+03  0.7957747E-01  0.3426227E+00
         13   -1    0    0    0    0  0.00000000000E+00  0.00000000000E+00  0.14999999963E+04  0.15000000000E+04  0.10566000000E+00 0. -1.
        994   -1    0    0    0    0 -0.00000000000E+00 -0.00000000000E+00  0.11368683772E-12  0.17120000000E+03  0.17120000000E+03 0.  0.
         13    1    1    2    0    0  0.81801500962E+01  0.93184596563E+01  0.61291930602E+02  0.62533674663E+02  0.10566000000E+00 0. -1.
        994    1    1    2    0    0 -0.90448631556E+01 -0.89962936623E+01  0.17605012233E+01  0.17168366904E+03  0.17120000000E+03 0.  0.
        998    1    1    2    0    0  0.86471305930E+00 -0.32216599395E+00  0.14369475645E+04  0.14369826563E+04  0.10000000000E+02 0. -1.
</event>
<event>
 5    1  0.1369527E-008  0.3847531E+03  0.7957747E-01  0.3430720E+00
         13   -1    0    0    0    0  0.00000000000E+00  0.00000000000E+00  0.14999999963E+04  0.15000000000E+04  0.10566000000E+00 0. -1.
        994   -1    0    0    0    0 -0.00000000000E+00 -0.00000000000E+00  0.11368683772E-12  0.17120000000E+03  0.17120000000E+03 0.  0.
         13    1    1    2    0    0  0.13119761558E+02 -0.10819152553E+02  0.87540900155E+02  0.89177365790E+02  0.10566000000E+00 0. -1.
        994    1    1    2    0    0 -0.73131621210E+00  0.31270811658E+01  0.17867104627E+01  0.17123943995E+03  0.17120000000E+03 0.  0.
        998    1    1    2    0    0 -0.12388445346E+02  0.76920713870E+01  0.14106723857E+04  0.14107831943E+04  0.10000000000E+02 0. -1.
</event>
<event>
 5    1  0.1369527E-008  0.3824545E+03  0.7957747E-01  0.3440540E+00
         13   -1    0    0    0    0  0.00000000000E+00  0.00000000000E+00  0.14999999963E+04  0.15000000000E+04  0.10566000000E+00 0.  1.
        994   -1    0    0    0    0 -0.00000000000E+00 -0.00000000000E+00  0.11368683772E-12  0.17120000000E+03  0.17120000000E+03 0.  0.
         13    1    1    2    0    0  0.29411934441E+02 -0.98363109761E+01  0.15778261218E+03  0.16080167528E+03  0.10566000000E+00 0.  1.
        994    1    1    2    0    0 -0.18854139327E+02  0.20844251802E+02  0.55231647770E+01  0.17357968416E+03  0.17120000000E+03 0.  0.
        998    1    1    2    0    0 -0.10557795114E+02 -0.11007940826E+02  0.13366942193E+04  0.13368186406E+04  0.10000000000E+02 0.  1.
</event>
<event>
 5    1  0.1430882E-008  0.3856690E+03  0.7957747E-01  0.3426840E+00
         13   -1    0    0    0    0  0.00000000000E+00  0.00000000000E+00  0.14999999963E+04  0.15000000000E+04  0.10566000000E+00 0. -1.
        994   -1    0    0    0    0 -0.00000000000E+00 -0.00000000000E+00  0.11368683772E-12  0.17120000000E+03  0.17120000000E+03 0.  0.
         13    1    1    2    0    0  0.14038511041E+02  0.37236338074E+01  0.86616129765E+02  0.87825453830E+02  0.10566000000E+00 0. -1.
        994    1    1    2    0    0 -0.22006070523E+01 -0.16167457505E+01  0.13228054034E+01  0.17122688560E+03  0.17120000000E+03 0.  0.
        998    1    1    2    0    0 -0.11837903989E+02 -0.21068880569E+01  0.14120610611E+04  0.14121476606E+04  0.10000000000E+02 0. -1.
</event>
<event>
 5    1  0.1369527E-008  0.3813601E+03  0.7957747E-01  0.3445258E+00
         13   -1    0    0    0    0  0.00000000000E+00  0.00000000000E+00  0.14999999963E+04  0.15000000000E+04  0.10566000000E+00 0. -1.
        994   -1    0    0    0    0 -0.00000000000E+00 -0.00000000000E+00  0.11368683772E-12  0.17120000000E+03  0.17120000000E+03 0.  0.
         13    1    1    2    0    0 -0.19124431644E+03  0.92282126659E+02  0.11243179687E+04  0.11441946012E+04  0.10566000000E+00 0. -1.
        994    1    1    2    0    0  0.18399131782E+03 -0.10933138219E+03  0.17490325886E+03  0.32512573894E+03  0.17120000000E+03 0.  0.
        998    1    1    2    0    0  0.72529986178E+01  0.17049255528E+02  0.20077876874E+03  0.20187965989E+03  0.10000000000E+02 0.  0.
</event>
<event>
 5    1  0.1369527E-008  0.3807929E+03  0.7957747E-01  0.3447713E+00
         13   -1    0    0    0    0  0.00000000000E+00  0.00000000000E+00  0.14999999963E+04  0.15000000000E+04  0.10566000000E+00 0.  1.
        994   -1    0    0    0    0 -0.00000000000E+00 -0.00000000000E+00  0.11368683772E-12  0.17120000000E+03  0.17120000000E+03 0.  0.
         13    1    1    2    0    0  0.21115417020E+02  0.15813004080E+02  0.11538275128E+03  0.11836005404E+03  0.10566000000E+00 0.  1.
        994    1    1    2    0    0 -0.89652990563E+01  0.45183624088E+02  0.10840918692E+02  0.17762010582E+03  0.17120000000E+03 0.  0.
        998    1    1    2    0    0 -0.12150117964E+02 -0.60996628168E+02  0.13737763263E+04  0.13752198401E+04  0.10000000000E+02 0.  1.
</event>
<event>
 5    1  0.1369527E-008  0.3860815E+03  0.7957747E-01  0.3425098E+00
         13   -1    0    0    0    0  0.00000000000E+00  0.00000000000E+00  0.14999999963E+04  0.15000000000E+04  0.10566000000E+00 0. -1.
        994   -1    0    0    0    0 -0.00000000000E+00 -0.00000000000E+00  0.11368683772E-12  0.17120000000E+03  0.17120000000E+03 0.  0.
         13    1    1    2    0    0  0.13288173599E+02 -0.18991095525E+01  0.73531844765E+02  0.74747077089E+02  0.10566000000E+00 0. -1.
        994    1    1    2    0    0 -0.24595536726E+02  0.19644257922E+01  0.30917963965E+01  0.17299652771E+03  0.17120000000E+03 0.  0.
        998    1    1    2    0    0  0.11307363128E+02 -0.65316239752E-01  0.14233763551E+04  0.14234563952E+04  0.10000000000E+02 0. -1.
</event>
<event>
 5    1  0.1369527E-008  0.3856810E+03  0.7957747E-01  0.3426789E+00
         13   -1    0    0    0    0  0.00000000000E+00  0.00000000000E+00  0.14999999963E+04  0.15000000000E+04  0.10566000000E+00 0.  1.
        994   -1    0    0    0    0 -0.00000000000E+00 -0.00000000000E+00  0.11368683772E-12  0.17120000000E+03  0.17120000000E+03 0.  0.
         13    1    1    2    0    0 -0.87330902715E+01  0.11889784645E+02  0.85830318831E+02  0.87088969677E+02  0.10566000000E+00 0.  1.
        994    1    1    2    0    0  0.51495024756E+01 -0.62843384993E+01  0.15090286126E+01  0.17139932162E+03  0.17120000000E+03 0.  0.
        998    1    1    2    0    0  0.35835877959E+01 -0.56054461456E+01  0.14126606488E+04  0.14127117087E+04  0.10000000000E+02 0.  1.
</event>
<event>
 5    1  0.1369527E-008  0.3833902E+03  0.7957747E-01  0.3436529E+00
         13   -1    0    0    0    0  0.00000000000E+00  0.00000000000E+00  0.14999999963E+04  0.15000000000E+04  0.10566000000E+00 0.  1.
        994   -1    0    0    0    0 -0.00000000000E+00 -0.00000000000E+00  0.11368683772E-12  0.17120000000E+03  0.17120000000E+03 0.  0.
         13    1    1    2    0    0 -0.26723874510E+02  0.10836620879E+01  0.15348781853E+03  0.15580071050E+03  0.10566000000E+00 0.  1.
        994    1    1    2    0    0  0.12270518029E+02  0.23270010719E+02  0.47227462770E+01  0.17327378147E+03  0.17120000000E+03 0.  0.
        998    1    1    2    0    0  0.14453356481E+02 -0.24353672807E+02  0.13417894315E+04  0.13421255080E+04  0.10000000000E+02 0.  1.
</event>
<event>
 5    1  0.1369527E-008  0.3792128E+03  0.7957747E-01  0.3454593E+00
         13   -1    0    0    0    0  0.00000000000E+00  0.00000000000E+00  0.14999999963E+04  0.15000000000E+04  0.10566000000E+00 0.  1.
        994   -1    0    0    0    0 -0.00000000000E+00 -0.00000000000E+00  0.11368683772E-12  0.17120000000E+03  0.17120000000E+03 0.  0.
         13    1    1    2    0    0  0.12299618341E+02 -0.20784769588E+01  0.15291017048E+02  0.19733905954E+02  0.10566000000E+00 0.  1.
        994    1    1    2    0    0 -0.67284802452E+01  0.13825269009E+01  0.46892207853E+01  0.17140190378E+03  0.17120000000E+03 0.  0.
        998    1    1    2    0    0 -0.55711380958E+01  0.69595005792E+00  0.14800197584E+04  0.14800641903E+04  0.10000000000E+02 0.  1.
</event>
<event>
 5    1  0.1369527E-008  0.3830184E+03  0.7957747E-01  0.3438120E+00
         13   -1    0    0    0    0  0.00000000000E+00  0.00000000000E+00  0.14999999963E+04  0.15000000000E+04  0.10566000000E+00 0. -1.
        994   -1    0    0    0    0 -0.00000000000E+00 -0.00000000000E+00  0.11368683772E-12  0.17120000000E+03  0.17120000000E+03 0.  0.
         13    1    1    2    0    0  0.35953308222E-01  0.13315435304E+02  0.32949196405E+02  0.35538188161E+02  0.10566000000E+00 0. -1.
        994    1    1    2    0    0  0.91459657591E+00 -0.95376740055E+01  0.29211084868E+01  0.17149278873E+03  0.17120000000E+03 0.  0.
        998    1    1    2    0    0 -0.95054988413E+00 -0.37777612989E+01  0.14641296914E+04  0.14641690231E+04  0.10000000000E+02 0. -1.
</event>
<event>
 5    1  0.1369527E-008  0.3806145E+03  0.7957747E-01  0.3448487E+00
         13   -1    0    0    0    0  0.00000000000E+00  0.00000000000E+00  0.14999999963E+04  0.15000000000E+04  0.10566000000E+00 0. -1.
        994   -1    0    0    0    0 -0.00000000000E+00 -0.00000000000E+00  0.11368683772E-12  0.17120000000E+03  0.17120000000E+03 0.  0.
         13    1    1    2    0    0 -0.36998401703E+02 -0.27117326424E+02  0.22074201330E+03  0.22545793115E+03  0.10566000000E+00 0. -1.
        994    1    1    2    0    0  0.44132694897E+02  0.31026201697E+02  0.13594235879E+02  0.18001267511E+03  0.17120000000E+03 0.  0.
        998    1    1    2    0    0 -0.71342931939E+01 -0.39088752734E+01  0.12656637471E+04  0.12657293937E+04  0.10000000000E+02 0. -1.
</event>
<event>
 5    1  0.1369527E-008  0.3840100E+03  0.7957747E-01  0.3433882E+00
         13   -1    0    0    0    0  0.00000000000E+00  0.00000000000E+00  0.14999999963E+04  0.15000000000E+04  0.10566000000E+00 0. -1.
        994   -1    0    0    0    0 -0.00000000000E+00 -0.00000000000E+00  0.11368683772E-12  0.17120000000E+03  0.17120000000E+03 0.  0.
         13    1    1    2    0    0  0.24307036398E+02  0.11343397129E+02  0.15018940806E+03  0.15256596650E+03  0.10566000000E+00 0. -1.
        994    1    1    2    0    0 -0.25445833886E+02 -0.16956994348E+02  0.52134398696E+01  0.17398749977E+03  0.17120000000E+03 0.  0.
        998    1    1    2    0    0  0.11387974882E+01  0.56135972188E+01  0.13445971483E+04  0.13446465337E+04  0.10000000000E+02 0. -1.
</event>
<event>
 5    1  0.1369527E-008  0.3757847E+03  0.7957747E-01  0.3469721E+00
         13   -1    0    0    0    0  0.00000000000E+00  0.00000000000E+00  0.14999999963E+04  0.15000000000E+04  0.10566000000E+00 0.  1.
        994   -1    0    0    0    0 -0.00000000000E+00 -0.00000000000E+00  0.11368683772E-12  0.17120000000E+03  0.17120000000E+03 0.  0.
         13    1    1    2    0    0  0.10844409375E+03 -0.56875760214E+02  0.49630989697E+03  0.51119321060E+03  0.10566000000E+00 0.  1.
        994    1    1    2    0    0 -0.68987820866E+02  0.41446902905E+02  0.37522227723E+02  0.19285881562E+03  0.17120000000E+03 0.  0.
        998    1    1    2    0    0 -0.39456272882E+02  0.15428857308E+02  0.96616787159E+03  0.96714797379E+03  0.10000000000E+02 0.  1.
</event>
<event>
 5    1  0.1369527E-008  0.3758150E+03  0.7957747E-01  0.3469586E+00
         13   -1    0    0    0    0  0.00000000000E+00  0.00000000000E+00  0.14999999963E+04  0.15000000000E+04  0.10566000000E+00 0.  1.
        994   -1    0    0    0    0 -0.00000000000E+00 -0.00000000000E+00  0.11368683772E-12  0.17120000000E+03  0.17120000000E+03 0.  0.
         13    1    1    2    0    0  0.20255201333E+02  0.56058983777E+02  0.33973739506E+03  0.34492664671E+03  0.10566000000E+00 0.  1.
        994    1    1    2    0    0  0.17486679874E+02 -0.20514437157E+02  0.87279061727E+01  0.17352879430E+03  0.17120000000E+03 0.  0.
        998    1    1    2    0    0 -0.37741881208E+02 -0.35544546620E+02  0.11515346950E+04  0.11527445590E+04  0.10000000000E+02 0.  1.
</event>
<event>
 5    1  0.1369527E-008  0.3832535E+03  0.7957747E-01  0.3437113E+00
         13   -1    0    0    0    0  0.00000000000E+00  0.00000000000E+00  0.14999999963E+04  0.15000000000E+04  0.10566000000E+00 0.  1.
        994   -1    0    0    0    0 -0.00000000000E+00 -0.00000000000E+00  0.11368683772E-12  0.17120000000E+03  0.17120000000E+03 0.  0.
         13    1    1    2    0    0  0.17022717677E+02 -0.26827553669E+00  0.56949008843E+02  0.59439428506E+02  0.10566000000E+00 0.  1.
        994    1    1    2    0    0 -0.12471141703E+02 -0.74396428054E+01  0.31974931606E+01  0.17184452747E+03  0.17120000000E+03 0.  0.
        998    1    1    2    0    0 -0.45515759735E+01  0.77079183421E+01  0.14398534943E+04  0.14399160440E+04  0.10000000000E+02 0.  1.
</event>
<event>
 5    1  0.1369527E-008  0.3794490E+03  0.7957747E-01  0.3453561E+00
         13   -1    0    0    0    0  0.00000000000E+00  0.00000000000E+00  0.14999999963E+04  0.15000000000E+04  0.10566000000E+00 0.  1.
        994   -1    0    0    0    0 -0.00000000000E+00 -0.00000000000E+00  0.11368683772E-12  0.17120000000E+03  0.17120000000E+03 0.  0.
         13    1    1    2    0    0  0.19559372990E+01 -0.22152841496E+02  0.52513984195E+02  0.57028973137E+02  0.10566000000E+00 0.  1.
        994    1    1    2    0    0  0.14349359575E+02  0.25296963701E+02  0.72494387835E+01  0.17380401277E+03  0.17120000000E+03 0.  0.
        998    1    1    2    0    0 -0.16305296874E+02 -0.31441222044E+01  0.14402365733E+04  0.14403670141E+04  0.10000000000E+02 0.  1.
</event>
<event>
 5    1  0.1369527E-008  0.3831557E+03  0.7957747E-01  0.3437532E+00
         13   -1    0    0    0    0  0.00000000000E+00  0.00000000000E+00  0.14999999963E+04  0.15000000000E+04  0.10566000000E+00 0. -1.
        994   -1    0    0    0    0 -0.00000000000E+00 -0.00000000000E+00  0.11368683772E-12  0.17120000000E+03  0.17120000000E+03 0.  0.
         13    1    1    2    0    0 -0.12056804862E+00  0.10522388486E+02  0.20479326226E+02  0.23024968248E+02  0.10566000000E+00 0. -1.
        994    1    1    2    0    0  0.38674185536E+01 -0.12211221650E+02  0.30915677373E+01  0.17170634424E+03  0.17120000000E+03 0.  0.
        998    1    1    2    0    0 -0.37468505050E+01  0.16888331635E+01  0.14764291023E+04  0.14764686875E+04  0.10000000000E+02 0. -1.
</event>
<event>
 5    1  0.1369527E-008  0.3824353E+03  0.7957747E-01  0.3440623E+00
         13   -1    0    0    0    0  0.00000000000E+00  0.00000000000E+00  0.14999999963E+04  0.15000000000E+04  0.10566000000E+00 0.  1.
        994   -1    0    0    0    0 -0.00000000000E+00 -0.00000000000E+00  0.11368683772E-12  0.17120000000E+03  0.17120000000E+03 0.  0.
         13    1    1    2    0    0 -0.14869656307E+02 -0.48151524196E+01  0.40203886174E+02  0.43135321942E+02  0.10566000000E+00 0.  1.
        994    1    1    2    0    0  0.24986457832E+02 -0.25774640397E+02  0.71941059278E+01  0.17507098652E+03  0.17120000000E+03 0.  0.
        998    1    1    2    0    0 -0.10116801525E+02  0.30589792817E+02  0.14526020042E+04  0.14529936915E+04  0.10000000000E+02 0.  1.
</event>
<event>
 5    1  0.1369527E-008  0.3830613E+03  0.7957747E-01  0.3437936E+00
         13   -1    0    0    0    0  0.00000000000E+00  0.00000000000E+00  0.14999999963E+04  0.15000000000E+04  0.10566000000E+00 0. -1.
        994   -1    0    0    0    0 -0.00000000000E+00 -0.00000000000E+00  0.11368683772E-12  0.17120000000E+03  0.17120000000E+03 0.  0.
         13    1    1    2    0    0 -0.23507857525E+02 -0.10128300168E+02  0.11384041486E+03  0.11668270244E+03  0.10566000000E+00 0. -1.
        994    1    1    2    0    0  0.29409327462E+02  0.81671842807E+01  0.56849523512E+01  0.17399244272E+03  0.17120000000E+03 0.  0.
        998    1    1    2    0    0 -0.59014699372E+01  0.19611158872E+01  0.13804746291E+04  0.13805248548E+04  0.10000000000E+02 0. -1.
</event>
<event>
 5    1  0.1369527E-008  0.3851021E+03  0.7957747E-01  0.3429239E+00
         13   -1    0    0    0    0  0.00000000000E+00  0.00000000000E+00  0.14999999963E+04  0.15000000000E+04  0.10566000000E+00 0. -1.
        994   -1    0    0    0    0 -0.00000000000E+00 -0.00000000000E+00  0.11368683772E-12  0.17120000000E+03  0.17120000000E+03 0.  0.
         13    1    1    2    0    0 -0.80897360993E+01  0.14074134518E+02  0.89528393961E+02  0.90988293653E+02  0.10566000000E+00 0. -1.
        994    1    1    2    0    0 -0.43533548219E+01 -0.42429768319E+01  0.17009768883E+01  0.17131633860E+03  0.17120000000E+03 0.  0.
        998    1    1    2    0    0  0.12443090921E+02 -0.98311576861E+01  0.14087706254E+04  0.14088953677E+04  0.10000000000E+02 0. -1.
</event>
<event>
 5    1  0.1369527E-008  0.3837968E+03  0.7957747E-01  0.3434791E+00
         13   -1    0    0    0    0  0.00000000000E+00  0.00000000000E+00  0.14999999963E+04  0.15000000000E+04  0.10566000000E+00 0.  1.
        994   -1    0    0    0    0 -0.00000000000E+00 -0.00000000000E+00  0.11368683772E-12  0.17120000000E+03  0.17120000000E+03 0.  0.
         13    1    1    2    0    0 -0.56757779481E+01  0.11787524185E+02  0.39434586128E+02  0.41548260239E+02  0.10566000000E+00 0.  1.
        994    1    1    2    0    0  0.90837152344E+01  0.52405973677E+01  0.25918569639E+01  0.17154047763E+03  0.17120000000E+03 0.  0.
        998    1    1    2    0    0 -0.34079372864E+01 -0.17028121553E+02  0.14579735532E+04  0.14581112621E+04  0.10000000000E+02 0.  1.
</event>
<event>
 5    1  0.1369527E-008  0.3756105E+03  0.7957747E-01  0.3470497E+00
         13   -1    0    0    0    0  0.00000000000E+00  0.00000000000E+00  0.14999999963E+04  0.15000000000E+04  0.10566000000E+00 0.  1.
        994   -1    0    0    0    0 -0.00000000000E+00 -0.00000000000E+00  0.11368683772E-12  0.17120000000E+03  0.17120000000E+03 0.  0.
         13    1    1    2    0    0  0.41279202639E+02 -0.47069924089E+01  0.55158590693E+02  0.69055120298E+02  0.10566000000E+00 0.  1.
        994    1    1    2    0    0 -0.38257829549E+02  0.10210338252E+02  0.19549046205E+02  0.17680361347E+03  0.17120000000E+03 0.  0.
        998    1    1    2    0    0 -0.30213730902E+01 -0.55033458431E+01  0.14252923594E+04  0.14253412662E+04  0.10000000000E+02 0.  1.
</event>
<event>
 5    1  0.1369527E-008  0.3853590E+03  0.7957747E-01  0.3428151E+00
         13   -1    0    0    0    0  0.00000000000E+00  0.00000000000E+00  0.14999999963E+04  0.15000000000E+04  0.10566000000E+00 0.  1.
        994   -1    0    0    0    0 -0.00000000000E+00 -0.00000000000E+00  0.11368683772E-12  0.17120000000E+03  0.17120000000E+03 0.  0.
         13    1    1    2    0    0  0.27596261156E+00 -0.11045328828E+02  0.46082296843E+02  0.47388444695E+02  0.10566000000E+00 0.  1.
        994    1    1    2    0    0 -0.31413154933E+01 -0.83138760977E+01  0.17115081075E+01  0.17143907856E+03  0.17120000000E+03 0.  0.
        998    1    1    2    0    0  0.28653528818E+01  0.19359204926E+02  0.14522061913E+04  0.14523724767E+04  0.10000000000E+02 0.  1.
</event>
<event>
 5    1  0.1369527E-008  0.3752848E+03  0.7957747E-01  0.3471950E+00
         13   -1    0    0    0    0  0.00000000000E+00  0.00000000000E+00  0.14999999963E+04  0.15000000000E+04  0.10566000000E+00 0. -1.
        994   -1    0    0    0    0 -0.00000000000E+00 -0.00000000000E+00  0.11368683772E-12  0.17120000000E+03  0.17120000000E+03 0.  0.
         13    1    1    2    0    0 -0.18138732110E+02 -0.12564234129E+03  0.65221345053E+03  0.66445271295E+03  0.10566000000E+00 0. -1.
        994    1    1    2    0    0  0.18953099196E+02  0.12627423797E+03  0.64085268290E+02  0.22298153456E+03  0.17120000000E+03 0.  0.
        998    1    1    2    0    0 -0.81436708671E+00 -0.63189667156E+00  0.78370127745E+03  0.78376575249E+03  0.10000000000E+02 0.  0.
</event>
<event>
 5    1  0.1369527E-008  0.3778241E+03  0.7957747E-01  0.3460688E+00
         13   -1    0    0    0    0  0.00000000000E+00  0.00000000000E+00  0.14999999963E+04  0.15000000000E+04  0.10566000000E+00 0.  1.
        994   -1    0    0    0    0 -0.00000000000E+00 -0.00000000000E+00  0.11368683772E-12  0.17120000000E+03  0.17120000000E+03 0.  0.
         13    1    1    2    0    0  0.11027470144E+02 -0.46348575603E+01  0.11748657781E+02  0.16766905680E+02  0.10566000000E+00 0.  1.
        994    1    1    2    0    0  0.37884328660E+01 -0.89187362082E+01  0.55517897587E+01  0.17156386114E+03  0.17120000000E+03 0.  0.
        998    1    1    2    0    0 -0.14815903010E+02  0.13553593768E+02  0.14826995487E+04  0.14828692332E+04  0.10000000000E+02 0.  1.
</event>
<event>
 5    1  0.1369527E-008  0.3849607E+03  0.7957747E-01  0.3429839E+00
         13   -1    0    0    0    0  0.00000000000E+00  0.00000000000E+00  0.14999999963E+04  0.15000000000E+04  0.10566000000E+00 0. -1.
        994   -1    0    0    0    0 -0.00000000000E+00 -0.00000000000E+00  0.11368683772E-12  0.17120000000E+03  0.17120000000E+03 0.  0.
         13    1    1    2    0    0 -0.90267653924E+01  0.19600082061E+02  0.12279656949E+03  0.12467820320E+03  0.10566000000E+00 0. -1.
        994    1    1    2    0    0  0.25088055019E+02 -0.21731120051E+02  0.52814615808E+01  0.17446772171E+03  0.17120000000E+03 0.  0.
        998    1    1    2    0    0 -0.16061289626E+02  0.21310379900E+01  0.13719219652E+04  0.13720540751E+04  0.10000000000E+02 0. -1.
</event>
<event>
 5    1  0.1369527E-008  0.3710318E+03  0.7957747E-01  0.3491162E+00
         13   -1    0    0    0    0  0.00000000000E+00  0.00000000000E+00  0.14999999963E+04  0.15000000000E+04  0.10566000000E+00 0. -1.
        994   -1    0    0    0    0 -0.00000000000E+00 -0.00000000000E+00  0.11368683772E-12  0.17120000000E+03  0.17120000000E+03 0.  0.
         13    1    1    2    0    0  0.72144405240E+02  0.65789847260E+02  0.39002358794E+03  0.40205911198E+03  0.10566000000E+00 0. -1.
        994    1    1    2    0    0 -0.72117379405E+02 -0.68550511279E+02  0.43655043640E+02  0.20276906037E+03  0.17120000000E+03 0.  0.
        998    1    1    2    0    0 -0.27025834879E-01  0.27606640190E+01  0.10663213647E+04  0.10663718276E+04  0.10000000000E+02 0. -1.
</event>
<event>
 5    1  0.1369527E-008  0.3839937E+03  0.7957747E-01  0.3433951E+00
         13   -1    0    0    0    0  0.00000000000E+00  0.00000000000E+00  0.14999999963E+04  0.15000000000E+04  0.10566000000E+00 0. -1.
        994   -1    0    0    0    0 -0.00000000000E+00 -0.00000000000E+00  0.11368683772E-12  0.17120000000E+03  0.17120000000E+03 0.  0.
         13    1    1    2    0    0 -0.52573064315E+01  0.15160468567E+02  0.61437564264E+02  0.63498539706E+02  0.10566000000E+00 0. -1.
        994    1    1    2    0    0 -0.23846879807E+01 -0.73358821105E+01  0.23269155178E+01  0.17138948754E+03  0.17120000000E+03 0.  0.
        998    1    1    2    0    0  0.76419944122E+01 -0.78245864562E+01  0.14362355165E+04  0.14363119728E+04  0.10000000000E+02 0. -1.
</event>
<event>
 5    1  0.1369527E-008  0.3846528E+03  0.7957747E-01  0.3431146E+00
         13   -1    0    0    0    0  0.00000000000E+00  0.00000000000E+00  0.14999999963E+04  0.15000000000E+04  0.10566000000E+00 0. -1.
        994   -1    0    0    0    0 -0.00000000000E+00 -0.00000000000E+00  0.11368683772E-12  0.17120000000E+03  0.17120000000E+03 0.  0.
         13    1    1    2    0    0 -0.17277264287E+01  0.10943333557E+02  0.33491386570E+02  0.35276418842E+02  0.10566000000E+00 0. -1.
        994    1    1    2    0    0 -0.48622551643E+00 -0.92192754725E+01  0.20832588072E+01  0.17146139922E+03  0.17120000000E+03 0.  0.
        998    1    1    2    0    0  0.22139519452E+01 -0.17240580841E+01  0.14644253509E+04  0.14644621819E+04  0.10000000000E+02 0. -1.
</event>
<event>
 5    1  0.1369527E-008  0.3845459E+03  0.7957747E-01  0.3431600E+00
         13   -1    0    0    0    0  0.00000000000E+00  0.00000000000E+00  0.14999999963E+04  0.15000000000E+04  0.10566000000E+00 0.  1.
        994   -1    0    0    0    0 -0.00000000000E+00 -0.00000000000E+00  0.11368683772E-12  0.17120000000E+03  0.17120000000E+03 0.  0.
         13    1    1    2    0    0 -0.29510140280E+01 -0.13642691217E+02  0.53642502676E+02  0.55428880241E+02  0.10566000000E+00 0.  1.
        994    1    1    2    0    0  0.48207714516E+01  0.35133684079E+01  0.19729709356E+01  0.17131525387E+03  0.17120000000E+03 0.  0.
        998    1    1    2    0    0 -0.18697574235E+01  0.10129322809E+02  0.14443845227E+04  0.14444558659E+04  0.10000000000E+02 0.  1.
</event>
<event>
 5    1  0.1369527E-008  0.3847870E+03  0.7957747E-01  0.3430576E+00
         13   -1    0    0    0    0  0.00000000000E+00  0.00000000000E+00  0.14999999963E+04  0.15000000000E+04  0.10566000000E+00 0. -1.
        994   -1    0    0    0    0 -0.00000000000E+00 -0.00000000000E+00  0.11368683772E-12  0.17120000000E+03  0.17120000000E+03 0.  0.
         13    1    1    2    0    0 -0.66972851148E+01  0.86607573630E+01  0.33348181266E+02  0.35099497201E+02  0.10566000000E+00 0. -1.
        994    1    1    2    0    0  0.50649052021E+01 -0.13003026876E+02  0.23770383268E+01  0.17178423177E+03  0.17120000000E+03 0.  0.
        998    1    1    2    0    0  0.16323799126E+01  0.43422695126E+01  0.14642747767E+04  0.14643162710E+04  0.10000000000E+02 0. -1.
</event>
<event>
 5    1  0.1369527E-008  0.3826313E+03  0.7957747E-01  0.3439781E+00
         13   -1    0    0    0    0  0.00000000000E+00  0.00000000000E+00  0.14999999963E+04  0.15000000000E+04  0.10566000000E+00 0. -1.
        994   -1    0    0    0    0 -0.00000000000E+00 -0.00000000000E+00  0.11368683772E-12  0.17120000000E+03  0.17120000000E+03 0.  0.
         13    1    1    2    0    0 -0.21656849453E+02 -0.19271690134E+02  0.13471523093E+03  0.13779920819E+03  0.10566000000E+00 0. -1.
        994    1    1    2    0    0  0.21606793739E+02  0.22952811201E+02  0.61109006460E+01  0.17418515489E+03  0.17120000000E+03 0.  0.
        998    1    1    2    0    0  0.50055713534E-01 -0.36811210667E+01  0.13591738647E+04  0.13592156369E+04  0.10000000000E+02 0. -1.
</event>
<event>
 5    1  0.1369527E-008  0.3851719E+03  0.7957747E-01  0.3428944E+00
         13   -1    0    0    0    0  0.00000000000E+00  0.00000000000E+00  0.14999999963E+04  0.15000000000E+04  0.10566000000E+00 0.  1.
        994   -1    0    0    0    0 -0.00000000000E+00 -0.00000000000E+00  0.11368683772E-12  0.17120000000E+03  0.17120000000E+03 0.  0.
         13    1    1    2    0    0 -0.16651207482E+02  0.62709675054E+00  0.91783353854E+02  0.93283713314E+02  0.10566000000E+00 0.  1.
        994    1    1    2    0    0  0.90383274676E+01  0.12717007543E+02  0.23452885696E+01  0.17192543158E+03  0.17120000000E+03 0.  0.
        998    1    1    2    0    0  0.76128800141E+01 -0.13344104294E+02  0.14058713539E+04  0.14059908551E+04  0.10000000000E+02 0.  1.
</event>
<event>
 5    1  0.1369527E-008  0.4032082E+03  0.7957747E-01  0.3355938E+00
         13   -1    0    0    0    0  0.00000000000E+00  0.00000000000E+00  0.14999999963E+04  0.15000000000E+04  0.10566000000E+00 0.  1.
        994   -1    0    0    0    0 -0.00000000000E+00 -0.00000000000E+00  0.11368683772E-12  0.17120000000E+03  0.17120000000E+03 0.  0.
         13    1    1    2    0    0 -0.32389042795E+02  0.16200321173E+03  0.35529829697E+03  0.39183029706E+03  0.10566000000E+00 0.  1.
        994    1    1    2    0    0  0.42054943243E+02 -0.14250937709E+03  0.12399652983E+03  0.25838366864E+03  0.17120000000E+03 0.  0.
        998    1    1    2    0    0 -0.96659004488E+01 -0.19493834647E+02  0.10207051695E+04  0.10209860343E+04  0.10000000000E+02 0. -1.
</event>
<event>
 5    1  0.1369527E-008  0.3843646E+03  0.7957747E-01  0.3432372E+00
         13   -1    0    0    0    0  0.00000000000E+00  0.00000000000E+00  0.14999999963E+04  0.15000000000E+04  0.10566000000E+00 0. -1.
        994   -1    0    0    0    0 -0.00000000000E+00 -0.00000000000E+00  0.11368683772E-12  0.17120000000E+03  0.17120000000E+03 0.  0.
         13    1    1    2    0    0  0.13193675430E+00 -0.28187866327E+02  0.16620953587E+03  0.16858290006E+03  0.10566000000E+00 0. -1.
        994    1    1    2    0    0 -0.27287152678E+01  0.39277539701E+02  0.70712341004E+01  0.17581130044E+03  0.17120000000E+03 0.  0.
        998    1    1    2    0    0  0.25967785135E+01 -0.11089673374E+02  0.13267192263E+04  0.13268057995E+04  0.10000000000E+02 0. -1.
</event>
<event>
 5    1  0.1369527E-008  0.3824509E+03  0.7957747E-01  0.3440556E+00
         13   -1    0    0    0    0  0.00000000000E+00  0.00000000000E+00  0.14999999963E+04  0.15000000000E+04  0.10566000000E+00 0. -1.
        994   -1    0    0    0    0 -0.00000000000E+00 -0.00000000000E+00  0.11368683772E-12  0.17120000000E+03  0.17120000000E+03 0.  0.
         13    1    1    2    0    0 -0.14248808873E+01 -0.19915012749E+02  0.65202510082E+02  0.68191029494E+02  0.10566000000E+00 0. -1.
        994    1    1    2    0    0 -0.17308984739E+01  0.20995650111E+02  0.43741247044E+01  0.17254676555E+03  0.17120000000E+03 0.  0.
        998    1    1    2    0    0  0.31557793612E+01 -0.10806373618E+01  0.14304233615E+04  0.14304622050E+04  0.10000000000E+02 0. -1.
</event>
<event>
 5    1  0.1369527E-008  0.3831020E+03  0.7957747E-01  0.3437762E+00
         13   -1    0    0    0    0  0.00000000000E+00  0.00000000000E+00  0.14999999963E+04  0.15000000000E+04  0.10566000000E+00 0.  1.
        994   -1    0    0    0    0 -0.00000000000E+00 -0.00000000000E+00  0.11368683772E-12  0.17120000000E+03  0.17120000000E+03 0.  0.
         13    1    1    2    0    0 -0.41944755938E+01 -0.38919893247E+02  0.23283050511E+03  0.23609829942E+03  0.10566000000E+00 0.  1.
        994    1    1    2    0    0  0.16340619179E+02  0.46707588513E+02  0.10720485925E+02  0.17853006323E+03  0.17120000000E+03 0.  0.
        998    1    1    2    0    0 -0.12146143585E+02 -0.77876952666E+01  0.12564490052E+04  0.12565716373E+04  0.10000000000E+02 0.  1.
</event>
<event>
 5    1  0.1369527E-008  0.3822760E+03  0.7957747E-01  0.3441308E+00
         13   -1    0    0    0    0  0.00000000000E+00  0.00000000000E+00  0.14999999963E+04  0.15000000000E+04  0.10566000000E+00 0.  1.
        994   -1    0    0    0    0 -0.00000000000E+00 -0.00000000000E+00  0.11368683772E-12  0.17120000000E+03  0.17120000000E+03 0.  0.
         13    1    1    2    0    0 -0.23604798324E+02  0.32715546707E+01  0.90257511991E+02  0.93350517988E+02  0.10566000000E+00 0.  1.
        994    1    1    2    0    0  0.21411416016E+02 -0.70098249041E+01  0.46746084658E+01  0.17273933642E+03  0.17120000000E+03 0.  0.
        998    1    1    2    0    0  0.21933823076E+01  0.37382702334E+01  0.14050678758E+04  0.14051101456E+04  0.10000000000E+02 0.  1.
</event>
<event>
 5    1  0.1369527E-008  0.3837380E+03  0.7957747E-01  0.3435042E+00
         13   -1    0    0    0    0  0.00000000000E+00  0.00000000000E+00  0.14999999963E+04  0.15000000000E+04  0.10566000000E+00 0.  1.
        994   -1    0    0    0    0 -0.00000000000E+00 -0.00000000000E+00  0.11368683772E-12  0.17120000000E+03  0.17120000000E+03 0.  0.
         13    1    1    2    0    0  0.85273149552E+01 -0.11003119770E+02  0.43369020178E+02  0.45548510626E+02  0.10566000000E+00 0.  1.
        994    1    1    2    0    0 -0.58156831918E+01  0.46042121330E+00  0.23703787956E+01  0.17131576943E+03  0.17120000000E+03 0.  0.
        998    1    1    2    0    0 -0.27116317634E+01  0.10542698557E+02  0.14542605973E+04  0.14543357199E+04  0.10000000000E+02 0.  1.
</event>
<event>
 5    1  0.1677775E-008  0.3858650E+03  0.7957747E-01  0.3426012E+00
         13   -1    0    0    0    0  0.00000000000E+00  0.00000000000E+00  0.14999999963E+04  0.15000000000E+04  0.10566000000E+00 0. -1.
        994   -1    0    0    0    0 -0.00000000000E+00 -0.00000000000E+00  0.11368683772E-12  0.17120000000E+03  0.17120000000E+03 0.  0.
         13    1    1    2    0    0  0.66740109544E+01 -0.84122187429E+01  0.49966049814E+02  0.51106997021E+02  0.10566000000E+00 0. -1.
        994    1    1    2    0    0 -0.16212547789E+01  0.18508204314E+01  0.12211566529E+01  0.17122203488E+03  0.17120000000E+03 0.  0.
        998    1    1    2    0    0 -0.50527561755E+01  0.65613983115E+01  0.14488127898E+04  0.14488709681E+04  0.10000000000E+02 0. -1.
</event>
<event>
 5    1  0.1369527E-008  0.3859385E+03  0.7957747E-01  0.3425701E+00
         13   -1    0    0    0    0  0.00000000000E+00  0.00000000000E+00  0.14999999963E+04  0.15000000000E+04  0.10566000000E+00 0. -1.
        994   -1    0    0    0    0 -0.00000000000E+00 -0.00000000000E+00  0.11368683772E-12  0.17120000000E+03  0.17120000000E+03 0.  0.
         13    1    1    2    0    0  0.58516234694E+02 -0.82843498104E+02  0.40694369463E+03  0.41939286673E+03  0.10566000000E+00 0. -1.
        994    1    1    2    0    0  0.65155503295E+02  0.37862985551E+02  0.40983501526E+02  0.19148872730E+03  0.17120000000E+03 0.  0.
        998    1    1    2    0    0 -0.12367173799E+03  0.44980512553E+02  0.10520728001E+04  0.10603184060E+04  0.10000000000E+02 0. -1.
</event>
<event>
 5    1  0.1369527E-008  0.3830980E+03  0.7957747E-01  0.3437779E+00
         13   -1    0    0    0    0  0.00000000000E+00  0.00000000000E+00  0.14999999963E+04  0.15000000000E+04  0.10566000000E+00 0.  1.
        994   -1    0    0    0    0 -0.00000000000E+00 -0.00000000000E+00  0.11368683772E-12  0.17120000000E+03  0.17120000000E+03 0.  0.
         13    1    1    2    0    0 -0.89808431671E+01 -0.16669386426E+02  0.65348339789E+02  0.68036318721E+02  0.10566000000E+00 0.  1.
        994    1    1    2    0    0  0.12435270672E+02  0.18644946654E+02  0.42412266120E+01  0.17271276153E+03  0.17120000000E+03 0.  0.
        998    1    1    2    0    0 -0.34544275044E+01 -0.19755602276E+01  0.14304104299E+04  0.14304509197E+04  0.10000000000E+02 0.  1.
</event>
<event>
 5    1  0.2076808E-008  0.3855205E+03  0.7957747E-01  0.3427468E+00
         13   -1    0    0    0    0  0.00000000000E+00  0.00000000000E+00  0.14999999963E+04  0.15000000000E+04  0.10566000000E+00 0. -1.
        994   -1    0    0    0    0 -0.00000000000E+00 -0.00000000000E+00  0.11368683772E-12  0.17120000000E+03  0.17120000000E+03 0.  0.
         13    1    1    2    0    0 -0.72693574499E+01  0.10208351740E+02  0.60920261231E+02  0.62196007874E+02  0.10566000000E+00 0. -1.
        994    1    1    2    0    0 -0.18879034346E+01 -0.11665371966E+01  0.13881238229E+01  0.17122001015E+03  0.17120000000E+03 0.  0.
        998    1    1    2    0    0  0.91572608845E+01 -0.90418145436E+01  0.14376916112E+04  0.14377839820E+04  0.10000000000E+02 0. -1.
</event>
<event>
 5    1  0.1369527E-008  0.3737446E+03  0.7957747E-01  0.3478857E+00
         13   -1    0    0    0    0  0.00000000000E+00  0.00000000000E+00  0.14999999963E+04  0.15000000000E+04  0.10566000000E+00 0.  1.
        994   -1    0    0    0    0 -0.00000000000E+00 -0.00000000000E+00  0.11368683772E-12  0.17120000000E+03  0.17120000000E+03 0.  0.
         13    1    1    2    0    0 -0.39772861356E+02 -0.21370202405E+01  0.97245414749E+02  0.10508629411E+03  0.10566000000E+00 0.  1.
        994    1    1    2    0    0  0.45016521339E+02  0.55392434373E+01  0.14379998394E+02  0.17768903952E+03  0.17120000000E+03 0.  0.
        998    1    1    2    0    0 -0.52436599829E+01 -0.34022231969E+01  0.13883745831E+04  0.13884246664E+04  0.10000000000E+02 0.  1.
</event>
<event>
 5    1  0.1369527E-008  0.3855623E+03  0.7957747E-01  0.3427291E+00
         13   -1    0    0    0    0  0.00000000000E+00  0.00000000000E+00  0.14999999963E+04  0.15000000000E+04  0.10566000000E+00 0.  1.
        994   -1    0    0    0    0 -0.00000000000E+00 -0.00000000000E+00  0.11368683772E-12  0.17120000000E+03  0.17120000000E+03 0.  0.
         13    1    1    2    0    0 -0.33685015215E+01  0.12637255328E+02  0.66539184960E+02  0.67812398011E+02  0.10566000000E+00 0.  1.
        994    1    1    2    0    0  0.68582990592E+00 -0.23132939405E+01  0.13703322254E+01  0.17122248539E+03  0.17120000000E+03 0.  0.
        998    1    1    2    0    0  0.26826716156E+01 -0.10323961388E+02  0.14320904791E+04  0.14321651166E+04  0.10000000000E+02 0.  1.
</event>
<event>
 5    1  0.1369527E-008  0.3727015E+03  0.7957747E-01  0.3483567E+00
         13   -1    0    0    0    0  0.00000000000E+00  0.00000000000E+00  0.14999999963E+04  0.15000000000E+04  0.10566000000E+00 0.  1.
        994   -1    0    0    0    0 -0.00000000000E+00 -0.00000000000E+00  0.11368683772E-12  0.17120000000E+03  0.17120000000E+03 0.  0.
         13    1    1    2    0    0  0.14221576148E+03 -0.29088917587E+01  0.83444521622E+03  0.84648249509E+03  0.10566000000E+00 0.  1.
        994    1    1    2    0    0 -0.11690656809E+03  0.47982142097E+01  0.56324529488E+02  0.21487685111E+03  0.17120000000E+03 0.  0.
        998    1    1    2    0    0 -0.25309193396E+02 -0.18893224510E+01  0.60923025057E+03  0.60984065380E+03  0.10000000000E+02 0. -1.
</event>
<event>
 5    1  0.1369527E-008  0.3808013E+03  0.7957747E-01  0.3447677E+00
         13   -1    0    0    0    0  0.00000000000E+00  0.00000000000E+00  0.14999999963E+04  0.15000000000E+04  0.10566000000E+00 0. -1.
        994   -1    0    0    0    0 -0.00000000000E+00 -0.00000000000E+00  0.11368683772E-12  0.17120000000E+03  0.17120000000E+03 0.  0.
         13    1    1    2    0    0 -0.28506547044E+02 -0.73787159418E+02  0.44626625312E+03  0.45322262516E+03  0.10566000000E+00 0. -1.
        994    1    1    2    0    0  0.31469330785E+02  0.95956372702E+02  0.38513486084E+02  0.20246153425E+03  0.17120000000E+03 0.  0.
        998    1    1    2    0    0 -0.29627837403E+01 -0.22169213284E+02  0.10152202571E+04  0.10155158406E+04  0.10000000000E+02 0. -1.
</event>
<event>
 5    1  0.1369527E-008  0.3833413E+03  0.7957747E-01  0.3436738E+00
         13   -1    0    0    0    0  0.00000000000E+00  0.00000000000E+00  0.14999999963E+04  0.15000000000E+04  0.10566000000E+00 0.  1.
        994   -1    0    0    0    0 -0.00000000000E+00 -0.00000000000E+00  0.11368683772E-12  0.17120000000E+03  0.17120000000E+03 0.  0.
         13    1    1    2    0    0 -0.14818515561E+02 -0.48280134700E+01  0.50787143275E+02  0.53124788974E+02  0.10566000000E+00 0.  1.
        994    1    1    2    0    0  0.14981880184E+00  0.49442105218E+01  0.25368021849E+01  0.17129023039E+03  0.17120000000E+03 0.  0.
        998    1    1    2    0    0  0.14668696759E+02 -0.11619705174E+00  0.14466760508E+04  0.14467849806E+04  0.10000000000E+02 0.  1.
</event>
<event>
 5    1  0.1369527E-008  0.3704677E+03  0.7957747E-01  0.3493744E+00
         13   -1    0    0    0    0  0.00000000000E+00  0.00000000000E+00  0.14999999963E+04  0.15000000000E+04  0.10566000000E+00 0. -1.
        994   -1    0    0    0    0 -0.00000000000E+00 -0.00000000000E+00  0.11368683772E-12  0.17120000000E+03  0.17120000000E+03 0.  0.
         13    1    1    2    0    0 -0.12279071011E+03 -0.30057270551E+02  0.64678102726E+03  0.65901950380E+03  0.10566000000E+00 0. -1.
        994    1    1    2    0    0  0.98704315146E+02  0.30540205833E+02  0.46833139465E+02  0.20537290219E+03  0.17120000000E+03 0.  0.
        998    1    1    2    0    0  0.24086394968E+02 -0.48293528219E+00  0.80638582956E+03  0.80680759402E+03  0.10000000000E+02 0. -1.
</event>
<event>
 5    1  0.1369527E-008  0.3858433E+03  0.7957747E-01  0.3426103E+00
         13   -1    0    0    0    0  0.00000000000E+00  0.00000000000E+00  0.14999999963E+04  0.15000000000E+04  0.10566000000E+00 0. -1.
        994   -1    0    0    0    0 -0.00000000000E+00 -0.00000000000E+00  0.11368683772E-12  0.17120000000E+03  0.17120000000E+03 0.  0.
         13    1    1    2    0    0 -0.12858490414E+02  0.32588832586E+01  0.76013085997E+02  0.77161917437E+02  0.10566000000E+00 0. -1.
        994    1    1    2    0    0  0.42608464209E+01  0.66132973187E-01  0.12715816223E+01  0.17125774758E+03  0.17120000000E+03 0.  0.
        998    1    1    2    0    0  0.85976439931E+01 -0.33250162318E+01  0.14227153287E+04  0.14227803350E+04  0.10000000000E+02 0. -1.
</event>
<event>
 5    1  0.1369527E-008  0.3821703E+03  0.7957747E-01  0.3441763E+00
         13   -1    0    0    0    0  0.00000000000E+00  0.00000000000E+00  0.14999999963E+04  0.15000000000E+04  0.10566000000E+00 0. -1.
        994   -1    0    0    0    0 -0.00000000000E+00 -0.00000000000E+00  0.11368683772E-12  0.17120000000E+03  0.17120000000E+03 0.  0.
         13    1    1    2    0    0  0.16247329413E+02 -0.12347121389E+02  0.70259031992E+02  0.73162626115E+02  0.10566000000E+00 0. -1.
        994    1    1    2    0    0  0.43040134538E+01  0.14019262225E+02  0.37557163339E+01  0.17186800066E+03  0.17120000000E+03 0.  0.
        998    1    1    2    0    0 -0.20551342867E+02 -0.16721408363E+01  0.14259852480E+04  0.14261693732E+04  0.10000000000E+02 0. -1.
</event>
<event>
 5    1  0.1369527E-008  0.3765717E+03  0.7957747E-01  0.3466223E+00
         13   -1    0    0    0    0  0.00000000000E+00  0.00000000000E+00  0.14999999963E+04  0.15000000000E+04  0.10566000000E+00 0.  1.
        994   -1    0    0    0    0 -0.00000000000E+00 -0.00000000000E+00  0.11368683772E-12  0.17120000000E+03  0.17120000000E+03 0.  0.
         13    1    1    2    0    0  0.25297157827E+02 -0.15701563905E+01  0.52543519914E+02  0.58337331394E+02  0.10566000000E+00 0.  1.
        994    1    1    2    0    0 -0.15400462275E+02  0.74000525512E+01  0.68615751024E+01  0.17218727081E+03  0.17120000000E+03 0.  0.
        998    1    1    2    0    0 -0.98966955522E+01 -0.58298961606E+01  0.14405949013E+04  0.14406753978E+04  0.10000000000E+02 0.  1.
</event>
<event>
 5    1  0.1581571E-008  0.3861822E+03  0.7957747E-01  0.3424674E+00
         13   -1    0    0    0    0  0.00000000000E+00  0.00000000000E+00  0.14999999963E+04  0.15000000000E+04  0.10566000000E+00 0.  1.
        994   -1    0    0    0    0 -0.00000000000E+00 -0.00000000000E+00  0.11368683772E-12  0.17120000000E+03  0.17120000000E+03 0.  0.
         13    1    1    2    0    0  0.10375741945E+02  0.10826907730E+00  0.56297585764E+02  0.57245934965E+02  0.10566000000E+00 0.  1.
        994    1    1    2    0    0  0.28935357327E+01 -0.16049987585E+01  0.10801833883E+01  0.17123538001E+03  0.17120000000E+03 0.  0.
        998    1    1    2    0    0 -0.13269277678E+02  0.14967296812E+01  0.14426222271E+04  0.14427186850E+04  0.10000000000E+02 0.  1.
</event>
<event>
 5    1  0.1369527E-008  0.3862064E+03  0.7957747E-01  0.3424572E+00
         13   -1    0    0    0    0  0.00000000000E+00  0.00000000000E+00  0.14999999963E+04  0.15000000000E+04  0.10566000000E+00 0. -1.
        994   -1    0    0    0    0 -0.00000000000E+00 -0.00000000000E+00  0.11368683772E-12  0.17120000000E+03  0.17120000000E+03 0.  0.
         13    1    1    2    0    0  0.97026958941E+01  0.48620205853E+01  0.58097586689E+02  0.59102642029E+02  0.10566000000E+00 0. -1.
        994    1    1    2    0    0 -0.41793661512E+01 -0.71203683128E+01  0.12556846544E+01  0.17140356907E+03  0.17120000000E+03 0.  0.
        998    1    1    2    0    0 -0.55233297428E+01  0.22583477275E+01  0.14406467249E+04  0.14406937889E+04  0.10000000000E+02 0. -1.
</event>
<event>
 5    1  0.1369527E-008  0.3813821E+03  0.7957747E-01  0.3445163E+00
         13   -1    0    0    0    0  0.00000000000E+00  0.00000000000E+00  0.14999999963E+04  0.15000000000E+04  0.10566000000E+00 0. -1.
        994   -1    0    0    0    0 -0.00000000000E+00 -0.00000000000E+00  0.11368683772E-12  0.17120000000E+03  0.17120000000E+03 0.  0.
         13    1    1    2    0    0 -0.57777836639E+02 -0.16436973382E+03  0.96841777486E+03  0.98396579496E+03  0.10566000000E+00 0. -1.
        994    1    1    2    0    0  0.91492611849E+02  0.16859311004E+03  0.13750313978E+03  0.29156661027E+03  0.17120000000E+03 0.  0.
        998    1    1    2    0    0 -0.33714775210E+02 -0.42233762110E+01  0.39407908163E+03  0.39566759478E+03  0.10000000000E+02 0. -1.
</event>
<event>
 5    1  0.1369527E-008  0.3959328E+03  0.7957747E-01  0.3384588E+00
         13   -1    0    0    0    0  0.00000000000E+00  0.00000000000E+00  0.14999999963E+04  0.15000000000E+04  0.10566000000E+00 0. -1.
        994   -1    0    0    0    0 -0.00000000000E+00 -0.00000000000E+00  0.11368683772E-12  0.17120000000E+03  0.17120000000E+03 0.  0.
         13    1    1    2    0    0  0.21481277923E+02  0.48072875523E+00 -0.20396242905E+01  0.21583503716E+02  0.10566000000E+00 0. -1.
        994    1    1    2    0    0 -0.19738799770E+02 -0.43919328148E+01  0.26946680157E+02  0.17448344581E+03  0.17120000000E+03 0.  0.
        998    1    1    2    0    0 -0.17424781531E+01  0.39112040596E+01  0.14750929404E+04  0.14751330505E+04  0.10000000000E+02 0. -1.
</event>
<event>
 5    1  0.1369527E-008  0.3819473E+03  0.7957747E-01  0.3442723E+00
         13   -1    0    0    0    0  0.00000000000E+00  0.00000000000E+00  0.14999999963E+04  0.15000000000E+04  0.10566000000E+00 0.  1.
        994   -1    0    0    0    0 -0.00000000000E+00 -0.00000000000E+00  0.11368683772E-12  0.17120000000E+03  0.17120000000E+03 0.  0.
         13    1    1    2    0    0  0.10034873737E+02  0.69808605329E+01  0.23536790108E+02  0.26522118266E+02  0.10566000000E+00 0.  1.
        994    1    1    2    0    0  0.10280949144E+02 -0.32833721530E+01  0.35403831887E+01  0.17157637588E+03  0.17120000000E+03 0.  0.
        998    1    1    2    0    0 -0.20315822881E+02 -0.36974883799E+01  0.14729228230E+04  0.14731015059E+04  0.10000000000E+02 0.  1.
</event>
<event>
 5    1  0.1369527E-008  0.3763570E+03  0.7957747E-01  0.3467176E+00
         13   -1    0    0    0    0  0.00000000000E+00  0.00000000000E+00  0.14999999963E+04  0.15000000000E+04  0.10566000000E+00 0.  1.
        994   -1    0    0    0    0 -0.00000000000E+00 -0.00000000000E+00  0.11368683772E-12  0.17120000000E+03  0.17120000000E+03 0.  0.
         13    1    1    2    0    0 -0.46945079134E+02  0.92293692279E+02  0.61585615260E+03  0.62450042270E+03  0.10566000000E+00 0.  1.
        994    1    1    2    0    0  0.36763937756E+02 -0.83356645541E+02  0.34605847095E+02  0.19699472614E+03  0.17120000000E+03 0.  0.
        998    1    1    2    0    0  0.10181141378E+02 -0.89370467377E+01  0.84953799658E+03  0.84970485116E+03  0.10000000000E+02 0.  1.
</event>
<event>
 5    1  0.1369527E-008  0.3801968E+03  0.7957747E-01  0.3450302E+00
         13   -1    0    0    0    0  0.00000000000E+00  0.00000000000E+00  0.14999999963E+04  0.15000000000E+04  0.10566000000E+00 0.  1.
        994   -1    0    0    0    0 -0.00000000000E+00 -0.00000000000E+00  0.11368683772E-12  0.17120000000E+03  0.17120000000E+03 0.  0.
         13    1    1    2    0    0  0.87096786543E+01 -0.21092057083E+02  0.62299448278E+02  0.66347311883E+02  0.10566000000E+00 0.  1.
        994    1    1    2    0    0 -0.23738609473E+02  0.93804057725E+01  0.62133917814E+01  0.17320381009E+03  0.17120000000E+03 0.  0.
        998    1    1    2    0    0  0.15028930819E+02  0.11711651310E+02  0.14314871562E+04  0.14316488780E+04  0.10000000000E+02 0.  1.
</event>
<event>
 5    1  0.1369527E-008  0.3855293E+03  0.7957747E-01  0.3427430E+00
         13   -1    0    0    0    0  0.00000000000E+00  0.00000000000E+00  0.14999999963E+04  0.15000000000E+04  0.10566000000E+00 0.  1.
        994   -1    0    0    0    0 -0.00000000000E+00 -0.00000000000E+00  0.11368683772E-12  0.17120000000E+03  0.17120000000E+03 0.  0.
         13    1    1    2    0    0 -0.99447828191E+01  0.74654233622E+01  0.57837582738E+02  0.59159347464E+02  0.10566000000E+00 0.  1.
        994    1    1    2    0    0  0.13382692257E+00 -0.92686759262E+01  0.16497136699E+01  0.17145870587E+03  0.17120000000E+03 0.  0.
        998    1    1    2    0    0  0.98109558965E+01  0.18032525640E+01  0.14405126999E+04  0.14405819467E+04  0.10000000000E+02 0.  1.
</event>
<event>
 5    1  0.1369527E-008  0.3842537E+03  0.7957747E-01  0.3432843E+00
         13   -1    0    0    0    0  0.00000000000E+00  0.00000000000E+00  0.14999999963E+04  0.15000000000E+04  0.10566000000E+00 0. -1.
        994   -1    0    0    0    0 -0.00000000000E+00 -0.00000000000E+00  0.11368683772E-12  0.17120000000E+03  0.17120000000E+03 0.  0.
         13    1    1    2    0    0 -0.91747177702E+01  0.79198944493E+01  0.36052347337E+02  0.38035287389E+02  0.10566000000E+00 0. -1.
        994    1    1    2    0    0  0.85455316340E+01 -0.45695036680E+01  0.23107282280E+01  0.17148960884E+03  0.17120000000E+03 0.  0.
        998    1    1    2    0    0  0.62918613623E+00 -0.33503907812E+01  0.14616369207E+04  0.14616751038E+04  0.10000000000E+02 0. -1.
</event>
<event>
 5    1  0.1369527E-008  0.3787238E+03  0.7957747E-01  0.3456734E+00
         13   -1    0    0    0    0  0.00000000000E+00  0.00000000000E+00  0.14999999963E+04  0.15000000000E+04  0.10566000000E+00 0.  1.
        994   -1    0    0    0    0 -0.00000000000E+00 -0.00000000000E+00  0.11368683772E-12  0.17120000000E+03  0.17120000000E+03 0.  0.
         13    1    1    2    0    0  0.14094873317E+02 -0.39256745628E+01  0.20578029489E+02  0.25249610616E+02  0.10566000000E+00 0.  1.
        994    1    1    2    0    0 -0.72444558242E+01 -0.13119631199E+01  0.49607244820E+01  0.17143002122E+03  0.17120000000E+03 0.  0.
        998    1    1    2    0    0 -0.68504174923E+01  0.52376376827E+01  0.14744612423E+04  0.14745203682E+04  0.10000000000E+02 0.  1.
</event>
<event>
 5    1  0.1369527E-008  0.3858575E+03  0.7957747E-01  0.3426043E+00
         13   -1    0    0    0    0  0.00000000000E+00  0.00000000000E+00  0.14999999963E+04  0.15000000000E+04  0.10566000000E+00 0. -1.
        994   -1    0    0    0    0 -0.00000000000E+00 -0.00000000000E+00  0.11368683772E-12  0.17120000000E+03  0.17120000000E+03 0.  0.
         13    1    1    2    0    0  0.26359806053E+01 -0.13600137208E+02  0.82169936133E+02  0.83329596747E+02  0.10566000000E+00 0. -1.
        994    1    1    2    0    0 -0.22648318179E+01  0.60875844899E+01  0.13433603901E+01  0.17132843537E+03  0.17120000000E+03 0.  0.
        998    1    1    2    0    0 -0.37114878742E+00  0.75125527178E+01  0.14164866998E+04  0.14165419679E+04  0.10000000000E+02 0. -1.
</event>
<event>
 5    1  0.1369527E-008  0.3696406E+03  0.7957747E-01  0.3497544E+00
         13   -1    0    0    0    0  0.00000000000E+00  0.00000000000E+00  0.14999999963E+04  0.15000000000E+04  0.10566000000E+00 0.  1.
        994   -1    0    0    0    0 -0.00000000000E+00 -0.00000000000E+00  0.11368683772E-12  0.17120000000E+03  0.17120000000E+03 0.  0.
         13    1    1    2    0    0  0.30515432275E+02  0.63507171710E+01  0.45580194082E+02  0.55218551884E+02  0.10566000000E+00 0.  1.
        994    1    1    2    0    0 -0.36283537526E+02 -0.76411236419E+01  0.14231795670E+02  0.17574659563E+03  0.17120000000E+03 0.  0.
        998    1    1    2    0    0  0.57681052515E+01  0.12904064710E+01  0.14401880065E+04  0.14402348525E+04  0.10000000000E+02 0.  1.
</event>
<event>
 5    1  0.1369527E-008  0.3716235E+03  0.7957747E-01  0.3488463E+00
         13   -1    0    0    0    0  0.00000000000E+00  0.00000000000E+00  0.14999999963E+04  0.15000000000E+04  0.10566000000E+00 0.  1.
        994   -1    0    0    0    0 -0.00000000000E+00 -0.00000000000E+00  0.11368683772E-12  0.17120000000E+03  0.17120000000E+03 0.  0.
         13    1    1    2    0    0  0.37837681316E+02 -0.87266295054E+02  0.40048116660E+03  0.41162151590E+03  0.10566000000E+00 0.  1.
        994    1    1    2    0    0 -0.29816680585E+02  0.86416623755E+02  0.37729539459E+02  0.19771147020E+03  0.17120000000E+03 0.  0.
        998    1    1    2    0    0 -0.80210007310E+01  0.84967129981E+00  0.10617892902E+04  0.10618670139E+04  0.10000000000E+02 0.  1.
</event>
<event>
 5    1  0.1369527E-008  0.3860869E+03  0.7957747E-01  0.3425075E+00
         13   -1    0    0    0    0  0.00000000000E+00  0.00000000000E+00  0.14999999963E+04  0.15000000000E+04  0.10566000000E+00 0.  1.
        994   -1    0    0    0    0 -0.00000000000E+00 -0.00000000000E+00  0.11368683772E-12  0.17120000000E+03  0.17120000000E+03 0.  0.
         13    1    1    2    0    0  0.32711529867E+01  0.99732036382E+01  0.51893879019E+02  0.52944792722E+02  0.10566000000E+00 0.  1.
        994    1    1    2    0    0 -0.71801889236E+01 -0.28912156962E+01  0.12878133730E+01  0.17137973248E+03  0.17120000000E+03 0.  0.
        998    1    1    2    0    0  0.39090359369E+01 -0.70819879420E+01  0.14468183039E+04  0.14468754748E+04  0.10000000000E+02 0.  1.
</event>
<event>
 5    1  0.1369527E-008  0.3857150E+03  0.7957747E-01  0.3426645E+00
         13   -1    0    0    0    0  0.00000000000E+00  0.00000000000E+00  0.14999999963E+04  0.15000000000E+04  0.10566000000E+00 0. -1.
        994   -1    0    0    0    0 -0.00000000000E+00 -0.00000000000E+00  0.11368683772E-12  0.17120000000E+03  0.17120000000E+03 0.  0.
         13    1    1    2    0    0 -0.56111143978E+01  0.85369440343E+01  0.40296729812E+02  0.41571644372E+02  0.10566000000E+00 0. -1.
        994    1    1    2    0    0  0.53015688545E+01 -0.93175087382E+01  0.16527163097E+01  0.17154327172E+03  0.17120000000E+03 0.  0.
        998    1    1    2    0    0  0.30954554326E+00  0.78056470386E+00  0.14580505502E+04  0.14580850839E+04  0.10000000000E+02 0. -1.
</event>
<event>
 5    1  0.1369527E-008  0.3783457E+03  0.7957747E-01  0.3458394E+00
         13   -1    0    0    0    0  0.00000000000E+00  0.00000000000E+00  0.14999999963E+04  0.15000000000E+04  0.10566000000E+00 0.  1.
        994   -1    0    0    0    0 -0.00000000000E+00 -0.00000000000E+00  0.11368683772E-12  0.17120000000E+03  0.17120000000E+03 0.  0.
         13    1    1    2    0    0 -0.44907227622E+02  0.12402443181E+02  0.18511326806E+03  0.19088586346E+03  0.10566000000E+00 0.  1.
        994    1    1    2    0    0  0.46973671920E+02 -0.24246125056E+02  0.14421498430E+02  0.17975488881E+03  0.17120000000E+03 0.  0.
        998    1    1    2    0    0 -0.20664442987E+01  0.11843681875E+02  0.13004652298E+04  0.13005592477E+04  0.10000000000E+02 0.  1.
</event>
<event>
 5    1  0.1369527E-008  0.3847480E+03  0.7957747E-01  0.3430741E+00
         13   -1    0    0    0    0  0.00000000000E+00  0.00000000000E+00  0.14999999963E+04  0.15000000000E+04  0.10566000000E+00 0. -1.
        994   -1    0    0    0    0 -0.00000000000E+00 -0.00000000000E+00  0.11368683772E-12  0.17120000000E+03  0.17120000000E+03 0.  0.
         13    1    1    2    0    0  0.59100583468E+00  0.10581315878E+02  0.31503908545E+02  0.33238847021E+02  0.10566000000E+00 0. -1.
        994    1    1    2    0    0  0.12186006722E+01 -0.85658186029E+01  0.20017061989E+01  0.17143017548E+03  0.17120000000E+03 0.  0.
        998    1    1    2    0    0 -0.18096065069E+01 -0.20154972751E+01  0.14664943815E+04  0.14665309775E+04  0.10000000000E+02 0. -1.
</event>
<event>
 5    1  0.1577911E-008  0.3859004E+03  0.7957747E-01  0.3425863E+00
         13   -1    0    0    0    0  0.00000000000E+00  0.00000000000E+00  0.14999999963E+04  0.15000000000E+04  0.10566000000E+00 0. -1.
        994   -1    0    0    0    0 -0.00000000000E+00 -0.00000000000E+00  0.11368683772E-12  0.17120000000E+03  0.17120000000E+03 0.  0.
         13    1    1    2    0    0 -0.11512538822E+02  0.27802703235E+01  0.58781717557E+02  0.59963071437E+02  0.10566000000E+00 0. -1.
        994    1    1    2    0    0  0.10122813917E+02 -0.28000448405E+01  0.15455834113E+01  0.17152883268E+03  0.17120000000E+03 0.  0.
        998    1    1    2    0    0  0.13897249050E+01  0.19774517009E-01  0.14396726953E+04  0.14397080959E+04  0.10000000000E+02 0. -1.
</event>
<event>
 5    1  0.1369527E-008  0.3836241E+03  0.7957747E-01  0.3435529E+00
         13   -1    0    0    0    0  0.00000000000E+00  0.00000000000E+00  0.14999999963E+04  0.15000000000E+04  0.10566000000E+00 0.  1.
        994   -1    0    0    0    0 -0.00000000000E+00 -0.00000000000E+00  0.11368683772E-12  0.17120000000E+03  0.17120000000E+03 0.  0.
         13    1    1    2    0    0  0.11482762495E+01  0.23630110849E+02  0.10705553093E+03  0.10963849024E+03  0.10566000000E+00 0.  1.
        994    1    1    2    0    0 -0.66876852815E+01 -0.31597249904E+02  0.57682381248E+01  0.17431530027E+03  0.17120000000E+03 0.  0.
        998    1    1    2    0    0  0.55394090319E+01  0.79671390545E+01  0.13871762272E+04  0.13872462095E+04  0.10000000000E+02 0.  1.
</event>
<event>
 5    1  0.1369527E-008  0.3828876E+03  0.7957747E-01  0.3438681E+00
         13   -1    0    0    0    0  0.00000000000E+00  0.00000000000E+00  0.14999999963E+04  0.15000000000E+04  0.10566000000E+00 0.  1.
        994   -1    0    0    0    0 -0.00000000000E+00 -0.00000000000E+00  0.11368683772E-12  0.17120000000E+03  0.17120000000E+03 0.  0.
         13    1    1    2    0    0 -0.19856924250E+02 -0.20166633590E+02  0.13544965537E+03  0.13837489243E+03  0.10566000000E+00 0.  1.
        994    1    1    2    0    0  0.20323276450E+02  0.21774470926E+02  0.56257989661E+01  0.17386274116E+03  0.17120000000E+03 0.  0.
        998    1    1    2    0    0 -0.46635219934E+00 -0.16078373359E+01  0.13589245419E+04  0.13589623664E+04  0.10000000000E+02 0.  1.
</event>
<event>
 5    1  0.1369527E-008  0.3853567E+03  0.7957747E-01  0.3428161E+00
         13   -1    0    0    0    0  0.00000000000E+00  0.00000000000E+00  0.14999999963E+04  0.15000000000E+04  0.10566000000E+00 0. -1.
        994   -1    0    0    0    0 -0.00000000000E+00 -0.00000000000E+00  0.11368683772E-12  0.17120000000E+03  0.17120000000E+03 0.  0.
         13    1    1    2    0    0 -0.72575789197E+01  0.16209752820E+02  0.93246662559E+02  0.94923020289E+02  0.10566000000E+00 0. -1.
        994    1    1    2    0    0  0.31607028332E+02 -0.20894196218E+02  0.61830640490E+01  0.17545153734E+03  0.17120000000E+03 0.  0.
        998    1    1    2    0    0 -0.24349449412E+02  0.46844433978E+01  0.14005702697E+04  0.14008254424E+04  0.10000000000E+02 0. -1.
</event>
<event>
 5    1  0.1369527E-008  0.3816176E+03  0.7957747E-01  0.3444145E+00
         13   -1    0    0    0    0  0.00000000000E+00  0.00000000000E+00  0.14999999963E+04  0.15000000000E+04  0.10566000000E+00 0. -1.
        994   -1    0    0    0    0 -0.00000000000E+00 -0.00000000000E+00  0.11368683772E-12  0.17120000000E+03  0.17120000000E+03 0.  0.
         13    1    1    2    0    0  0.22010848998E+02  0.28701646780E+02  0.19141686535E+03  0.19480423380E+03  0.10566000000E+00 0. -1.
        994    1    1    2    0    0 -0.15134080951E+02 -0.18612026264E+02  0.52346150026E+01  0.17295169592E+03  0.17120000000E+03 0.  0.
        998    1    1    2    0    0 -0.68767680468E+01 -0.10089620516E+02  0.13033485159E+04  0.13034440703E+04  0.10000000000E+02 0. -1.
</event>
<event>
 5    1  0.1369527E-008  0.3810642E+03  0.7957747E-01  0.3446538E+00
         13   -1    0    0    0    0  0.00000000000E+00  0.00000000000E+00  0.14999999963E+04  0.15000000000E+04  0.10566000000E+00 0.  1.
        994   -1    0    0    0    0 -0.00000000000E+00 -0.00000000000E+00  0.11368683772E-12  0.17120000000E+03  0.17120000000E+03 0.  0.
         13    1    1    2    0    0  0.52721296057E+02 -0.13706377977E+02  0.32367951208E+03  0.32823137809E+03  0.10566000000E+00 0.  1.
        994    1    1    2    0    0 -0.50481622325E+02  0.25311533565E+02  0.14294241738E+02  0.18083924704E+03  0.17120000000E+03 0.  0.
        998    1    1    2    0    0 -0.22396737324E+01 -0.11605155588E+02  0.11620262425E+04  0.11621293749E+04  0.10000000000E+02 0.  1.
</event>
<event>
 5    1  0.1369527E-008  0.3829344E+03  0.7957747E-01  0.3438480E+00
         13   -1    0    0    0    0  0.00000000000E+00  0.00000000000E+00  0.14999999963E+04  0.15000000000E+04  0.10566000000E+00 0.  1.
        994   -1    0    0    0    0 -0.00000000000E+00 -0.00000000000E+00  0.11368683772E-12  0.17120000000E+03  0.17120000000E+03 0.  0.
         13    1    1    2    0    0  0.20514262013E+02 -0.12251430307E+02  0.11621895387E+03  0.11864985838E+03  0.10566000000E+00 0.  1.
        994    1    1    2    0    0 -0.44651178991E+01 -0.34178811334E+01  0.27638551773E+01  0.17131461725E+03  0.17120000000E+03 0.  0.
        998    1    1    2    0    0 -0.16049144114E+02  0.15669311440E+02  0.13810171872E+04  0.13812355244E+04  0.10000000000E+02 0.  1.
</event>
<event>
 5    1  0.1369527E-008  0.3843166E+03  0.7957747E-01  0.3432576E+00
         13   -1    0    0    0    0  0.00000000000E+00  0.00000000000E+00  0.14999999963E+04  0.15000000000E+04  0.10566000000E+00 0.  1.
        994   -1    0    0    0    0 -0.00000000000E+00 -0.00000000000E+00  0.11368683772E-12  0.17120000000E+03  0.17120000000E+03 0.  0.
         13    1    1    2    0    0 -0.18006674050E+02 -0.46278665463E+01  0.84366850151E+02  0.86391168690E+02  0.10566000000E+00 0.  1.
        994    1    1    2    0    0  0.17114944204E+02  0.31311403432E+01  0.29682369706E+01  0.17210745418E+03  0.17120000000E+03 0.  0.
        998    1    1    2    0    0  0.89172984564E+00  0.14967262031E+01  0.14126649092E+04  0.14127013771E+04  0.10000000000E+02 0.  1.
</event>
<event>
 5    1  0.1369527E-008  0.3801788E+03  0.7957747E-01  0.3450380E+00
         13   -1    0    0    0    0  0.00000000000E+00  0.00000000000E+00  0.14999999963E+04  0.15000000000E+04  0.10566000000E+00 0. -1.
        994   -1    0    0    0    0 -0.00000000000E+00 -0.00000000000E+00  0.11368683772E-12  0.17120000000E+03  0.17120000000E+03 0.  0.
         13    1    1    2    0    0  0.51390132990E+02 -0.48110124929E+01  0.28593193980E+03  0.29055322572E+03  0.10566000000E+00 0. -1.
        994    1    1    2    0    0 -0.43923308821E+02  0.11798486651E+02  0.10984649255E+02  0.17747834759E+03  0.17120000000E+03 0.  0.
        998    1    1    2    0    0 -0.74668241689E+01 -0.69874741585E+01  0.12030834072E+04  0.12031684267E+04  0.10000000000E+02 0. -1.
</event>
<event>
 5    1  0.1369527E-008  0.3831869E+03  0.7957747E-01  0.3437398E+00
         13   -1    0    0    0    0  0.00000000000E+00  0.00000000000E+00  0.14999999963E+04  0.15000000000E+04  0.10566000000E+00 0.  1.
        994   -1    0    0    0    0 -0.00000000000E+00 -0.00000000000E+00  0.11368683772E-12  0.17120000000E+03  0.17120000000E+03 0.  0.
         13    1    1    2    0    0 -0.12045403919E+01  0.10500226658E+02  0.21277216469E+02  0.23757878317E+02  0.10566000000E+00 0.  1.
        994    1    1    2    0    0 -0.33769453072E-01 -0.53631684075E+01  0.26281390553E+01  0.17130415007E+03  0.17120000000E+03 0.  0.
        998    1    1    2    0    0  0.12383098449E+01 -0.51370582504E+01  0.14760946408E+04  0.14761379716E+04  0.10000000000E+02 0.  1.
</event>
<event>
 5    1  0.1369527E-008  0.3811129E+03  0.7957747E-01  0.3446327E+00
         13   -1    0    0    0    0  0.00000000000E+00  0.00000000000E+00  0.14999999963E+04  0.15000000000E+04  0.10566000000E+00 0. -1.
        994   -1    0    0    0    0 -0.00000000000E+00 -0.00000000000E+00  0.11368683772E-12  0.17120000000E+03  0.17120000000E+03 0.  0.
         13    1    1    2    0    0  0.29785609934E+02  0.14029626700E+02  0.14311390298E+03  0.14685235230E+03  0.10566000000E+00 0. -1.
        994    1    1    2    0    0 -0.28048882939E+02 -0.44257567614E+01  0.62626410021E+01  0.17365191571E+03  0.17120000000E+03 0.  0.
        998    1    1    2    0    0 -0.17367269950E+01 -0.96038699384E+01  0.13506234523E+04  0.13506957320E+04  0.10000000000E+02 0. -1.
</event>
<event>
 5    1  0.1369527E-008  0.3809614E+03  0.7957747E-01  0.3446983E+00
         13   -1    0    0    0    0  0.00000000000E+00  0.00000000000E+00  0.14999999963E+04  0.15000000000E+04  0.10566000000E+00 0. -1.
        994   -1    0    0    0    0 -0.00000000000E+00 -0.00000000000E+00  0.11368683772E-12  0.17120000000E+03  0.17120000000E+03 0.  0.
         13    1    1    2    0    0 -0.14863851364E+02 -0.83995959549E+01  0.36799339347E+02  0.40567102805E+02  0.10566000000E+00 0. -1.
        994    1    1    2    0    0  0.14717965872E+02  0.24841180449E+02  0.64317665607E+01  0.17373689990E+03  0.17120000000E+03 0.  0.
        998    1    1    2    0    0  0.14588549225E+00 -0.16441584494E+02  0.14567688904E+04  0.14568959973E+04  0.10000000000E+02 0. -1.
</event>
<event>
 5    1  0.1369527E-008  0.3761971E+03  0.7957747E-01  0.3467886E+00
         13   -1    0    0    0    0  0.00000000000E+00  0.00000000000E+00  0.14999999963E+04  0.15000000000E+04  0.10566000000E+00 0. -1.
        994   -1    0    0    0    0 -0.00000000000E+00 -0.00000000000E+00  0.11368683772E-12  0.17120000000E+03  0.17120000000E+03 0.  0.
         13    1    1    2    0    0 -0.60104314071E+02  0.80526487795E+02  0.58691062369E+03  0.59545036332E+03  0.10566000000E+00 0. -1.
        994    1    1    2    0    0  0.56125376806E+02 -0.67877749251E+02  0.32797617463E+02  0.19530123009E+03  0.17120000000E+03 0.  0.
        998    1    1    2    0    0  0.39789372644E+01 -0.12648738544E+02  0.88029175512E+03  0.88044840659E+03  0.10000000000E+02 0. -1.
</event>
<event>
 5    1  0.1369527E-008  0.3832935E+03  0.7957747E-01  0.3436942E+00
         13   -1    0    0    0    0  0.00000000000E+00  0.00000000000E+00  0.14999999963E+04  0.15000000000E+04  0.10566000000E+00 0.  1.
        994   -1    0    0    0    0 -0.00000000000E+00 -0.00000000000E+00  0.11368683772E-12  0.17120000000E+03  0.17120000000E+03 0.  0.
         13    1    1    2    0    0  0.13996315598E+01 -0.22764030193E+02  0.91177744422E+02  0.93986979317E+02  0.10566000000E+00 0.  1.
        994    1    1    2    0    0  0.59814731261E+00  0.36440059805E+02  0.68845744963E+01  0.17517155335E+03  0.17120000000E+03 0.  0.
        998    1    1    2    0    0 -0.19977788724E+01 -0.13676029612E+02  0.14019376774E+04  0.14020414673E+04  0.10000000000E+02 0.  1.
</event>
<event>
 5    1  0.1409021E-008  0.3856771E+03  0.7957747E-01  0.3426805E+00
         13   -1    0    0    0    0  0.00000000000E+00  0.00000000000E+00  0.14999999963E+04  0.15000000000E+04  0.10566000000E+00 0.  1.
        994   -1    0    0    0    0 -0.00000000000E+00 -0.00000000000E+00  0.11368683772E-12  0.17120000000E+03  0.17120000000E+03 0.  0.
         13    1    1    2    0    0  0.92240015456E+01 -0.43219887700E+01  0.42501619916E+02  0.43705384690E+02  0.10566000000E+00 0.  1.
        994    1    1    2    0    0  0.35119472163E+01  0.22435903406E+01  0.13513218081E+01  0.17125604673E+03  0.17120000000E+03 0.  0.
        998    1    1    2    0    0 -0.12735948762E+02  0.20783984293E+01  0.14561470546E+04  0.14562385686E+04  0.10000000000E+02 0.  1.
</event>
<event>
 5    1  0.1369527E-008  0.3724476E+03  0.7957747E-01  0.3484717E+00
         13   -1    0    0    0    0  0.00000000000E+00  0.00000000000E+00  0.14999999963E+04  0.15000000000E+04  0.10566000000E+00 0. -1.
        994   -1    0    0    0    0 -0.00000000000E+00 -0.00000000000E+00  0.11368683772E-12  0.17120000000E+03  0.17120000000E+03 0.  0.
         13    1    1    2    0    0  0.20419877971E+02 -0.52302062562E+02  0.23598885718E+03  0.24257623346E+03  0.10566000000E+00 0. -1.
        994    1    1    2    0    0 -0.81113106622E+01 -0.13376308071E+01  0.82270801346E+01  0.17159460208E+03  0.17120000000E+03 0.  0.
        998    1    1    2    0    0 -0.12308567309E+02  0.53639693369E+02  0.12557840590E+04  0.12570291645E+04  0.10000000000E+02 0. -1.
</event>
<event>
 5    1  0.1369527E-008  0.3856993E+03  0.7957747E-01  0.3426712E+00
         13   -1    0    0    0    0  0.00000000000E+00  0.00000000000E+00  0.14999999963E+04  0.15000000000E+04  0.10566000000E+00 0.  1.
        994   -1    0    0    0    0 -0.00000000000E+00 -0.00000000000E+00  0.11368683772E-12  0.17120000000E+03  0.17120000000E+03 0.  0.
         13    1    1    2    0    0 -0.93743165331E+02  0.14829754269E+01  0.24425227015E+03  0.26162790925E+03  0.10566000000E+00 0.  1.
        994    1    1    2    0    0  0.35039896291E+02  0.21703292563E+02  0.25807339659E+02  0.17797271145E+03  0.17120000000E+03 0.  0.
        998    1    1    2    0    0  0.58703269040E+02 -0.23186267990E+02  0.12299403865E+04  0.12315993793E+04  0.10000000000E+02 0.  1.
</event>
<event>
 5    1  0.1369527E-008  0.3821104E+03  0.7957747E-01  0.3442020E+00
         13   -1    0    0    0    0  0.00000000000E+00  0.00000000000E+00  0.14999999963E+04  0.15000000000E+04  0.10566000000E+00 0. -1.
        994   -1    0    0    0    0 -0.00000000000E+00 -0.00000000000E+00  0.11368683772E-12  0.17120000000E+03  0.17120000000E+03 0.  0.
         13    1    1    2    0    0 -0.14183517388E+02 -0.40603073287E+02  0.24877442772E+03  0.25246486642E+03  0.10566000000E+00 0. -1.
        994    1    1    2    0    0  0.27197367662E+01  0.46954432622E+02  0.10450343234E+02  0.17785040170E+03  0.17120000000E+03 0.  0.
        998    1    1    2    0    0  0.11463780622E+02 -0.63513593357E+01  0.12407752253E+04  0.12408847319E+04  0.10000000000E+02 0. -1.
</event>
<event>
 5    1  0.1369527E-008  0.3834156E+03  0.7957747E-01  0.3436420E+00
         13   -1    0    0    0    0  0.00000000000E+00  0.00000000000E+00  0.14999999963E+04  0.15000000000E+04  0.10566000000E+00 0.  1.
        994   -1    0    0    0    0 -0.00000000000E+00 -0.00000000000E+00  0.11368683772E-12  0.17120000000E+03  0.17120000000E+03 0.  0.
         13    1    1    2    0    0  0.49694634861E+01  0.97614865140E+01  0.23130027413E+02  0.25592802083E+02  0.10566000000E+00 0.  1.
        994    1    1    2    0    0 -0.62298227799E+01 -0.17333487663E+02  0.35410914903E+01  0.17222438798E+03  0.17120000000E+03 0.  0.
        998    1    1    2    0    0  0.12603592938E+01  0.75720011485E+01  0.14733288774E+04  0.14733828099E+04  0.10000000000E+02 0.  1.
</event>
<event>
 5    1  0.1369527E-008  0.3745901E+03  0.7957747E-01  0.3475058E+00
         13   -1    0    0    0    0  0.00000000000E+00  0.00000000000E+00  0.14999999963E+04  0.15000000000E+04  0.10566000000E+00 0.  1.
        994   -1    0    0    0    0 -0.00000000000E+00 -0.00000000000E+00  0.11368683772E-12  0.17120000000E+03  0.17120000000E+03 0.  0.
         13    1    1    2    0    0  0.13620292388E+02  0.24766971245E+02  0.24037790160E+02  0.37104470744E+02  0.10566000000E+00 0.  1.
        994    1    1    2    0    0 -0.12599411658E+02 -0.22298788979E+02  0.15720997051E+02  0.17381763694E+03  0.17120000000E+03 0.  0.
        998    1    1    2    0    0 -0.10208807300E+01 -0.24681822659E+01  0.14602412091E+04  0.14602778923E+04  0.10000000000E+02 0.  1.
</event>
<event>
 5    1  0.1369527E-008  0.3852374E+03  0.7957747E-01  0.3428666E+00
         13   -1    0    0    0    0  0.00000000000E+00  0.00000000000E+00  0.14999999963E+04  0.15000000000E+04  0.10566000000E+00 0.  1.
        994   -1    0    0    0    0 -0.00000000000E+00 -0.00000000000E+00  0.11368683772E-12  0.17120000000E+03  0.17120000000E+03 0.  0.
         13    1    1    2    0    0  0.78721616822E+01  0.13905585961E+02  0.87651489545E+02  0.89096189784E+02  0.10566000000E+00 0.  1.
        994    1    1    2    0    0 -0.14873175680E+01 -0.58142374929E+01  0.16307111832E+01  0.17131292038E+03  0.17120000000E+03 0.  0.
        998    1    1    2    0    0 -0.63848441142E+01 -0.80913484678E+01  0.14107177956E+04  0.14107908898E+04  0.10000000000E+02 0.  1.
</event>
<event>
 5    1  0.1369527E-008  0.3699103E+03  0.7957747E-01  0.3496303E+00
         13   -1    0    0    0    0  0.00000000000E+00  0.00000000000E+00  0.14999999963E+04  0.15000000000E+04  0.10566000000E+00 0. -1.
        994   -1    0    0    0    0 -0.00000000000E+00 -0.00000000000E+00  0.11368683772E-12  0.17120000000E+03  0.17120000000E+03 0.  0.
         13    1    1    2    0    0  0.12273178249E+03  0.64924163856E+02  0.63922484180E+03  0.65413045108E+03  0.10566000000E+00 0. -1.
        994    1    1    2    0    0 -0.10653315332E+03 -0.43044582579E+02  0.58570844054E+02  0.21434115941E+03  0.17120000000E+03 0.  0.
        998    1    1    2    0    0 -0.16198629170E+02 -0.21879581277E+02  0.80220431042E+03  0.80272838951E+03  0.10000000000E+02 0. -1.
</event>
<event>
 5    1  0.1369527E-008  0.3811717E+03  0.7957747E-01  0.3446072E+00
         13   -1    0    0    0    0  0.00000000000E+00  0.00000000000E+00  0.14999999963E+04  0.15000000000E+04  0.10566000000E+00 0. -1.
        994   -1    0    0    0    0 -0.00000000000E+00 -0.00000000000E+00  0.11368683772E-12  0.17120000000E+03  0.17120000000E+03 0.  0.
         13    1    1    2    0    0 -0.75093031082E+00  0.27039543239E+02  0.97598857805E+02  0.10127807761E+03  0.10566000000E+00 0. -1.
        994    1    1    2    0    0  0.13898514862E+01 -0.24801768535E+02  0.56003502541E+01  0.17308339993E+03  0.17120000000E+03 0.  0.
        998    1    1    2    0    0 -0.63892117535E+00 -0.22377747036E+01  0.13968007882E+04  0.13968385225E+04  0.10000000000E+02 0. -1.
</event>
<event>
 5    1  0.1369527E-008  0.3848277E+03  0.7957747E-01  0.3430403E+00
         13   -1    0    0    0    0  0.00000000000E+00  0.00000000000E+00  0.14999999963E+04  0.15000000000E+04  0.10566000000E+00 0. -1.
        994   -1    0    0    0    0 -0.00000000000E+00 -0.00000000000E+00  0.11368683772E-12  0.17120000000E+03  0.17120000000E+03 0.  0.
         13    1    1    2    0    0 -0.49820508326E+01  0.93409419527E+01  0.33000970725E+02  0.34657600319E+02  0.10566000000E+00 0. -1.
        994    1    1    2    0    0  0.12662508226E+01 -0.27647190656E+01  0.17461251422E+01  0.17123590750E+03  0.17120000000E+03 0.  0.
        998    1    1    2    0    0  0.37158000100E+01 -0.65762228872E+01  0.14652529004E+04  0.14653064922E+04  0.10000000000E+02 0. -1.
</event>
<event>
 5    1  0.1369527E-008  0.3770646E+03  0.7957747E-01  0.3464040E+00
         13   -1    0    0    0    0  0.00000000000E+00  0.00000000000E+00  0.14999999963E+04  0.15000000000E+04  0.10566000000E+00 0. -1.
        994   -1    0    0    0    0 -0.00000000000E+00 -0.00000000000E+00  0.11368683772E-12  0.17120000000E+03  0.17120000000E+03 0.  0.
         13    1    1    2    0    0  0.45395855827E+02 -0.16642616208E+02  0.24216567613E+03  0.24694531026E+03  0.10566000000E+00 0. -1.
        994    1    1    2    0    0 -0.59853488832E+01  0.58585711547E+00  0.57444092115E+01  0.17140188408E+03  0.17120000000E+03 0.  0.
        998    1    1    2    0    0 -0.39410506944E+02  0.16056759092E+02  0.12520899109E+04  0.12528528057E+04  0.10000000000E+02 0. -1.
</event>
<event>
 5    1  0.1369527E-008  0.3831657E+03  0.7957747E-01  0.3437489E+00
         13   -1    0    0    0    0  0.00000000000E+00  0.00000000000E+00  0.14999999963E+04  0.15000000000E+04  0.10566000000E+00 0.  1.
        994   -1    0    0    0    0 -0.00000000000E+00 -0.00000000000E+00  0.11368683772E-12  0.17120000000E+03  0.17120000000E+03 0.  0.
         13    1    1    2    0    0 -0.22654128672E+02 -0.14006919138E+02  0.12587610151E+03  0.12866315488E+03  0.10566000000E+00 0.  1.
        994    1    1    2    0    0  0.17085922603E+02  0.29858405077E+02  0.64687144316E+01  0.17474191647E+03  0.17120000000E+03 0.  0.
        998    1    1    2    0    0  0.55682060695E+01 -0.15851485939E+02  0.13676551803E+04  0.13677949286E+04  0.10000000000E+02 0.  1.
</event>
<event>
 5    1  0.1369527E-008  0.3843519E+03  0.7957747E-01  0.3432426E+00
         13   -1    0    0    0    0  0.00000000000E+00  0.00000000000E+00  0.14999999963E+04  0.15000000000E+04  0.10566000000E+00 0. -1.
        994   -1    0    0    0    0 -0.00000000000E+00 -0.00000000000E+00  0.11368683772E-12  0.17120000000E+03  0.17120000000E+03 0.  0.
         13    1    1    2    0    0 -0.60750229762E+01  0.16557037105E+02  0.87581707941E+02  0.89339846159E+02  0.10566000000E+00 0. -1.
        994    1    1    2    0    0 -0.19185741029E+01  0.24596882468E+01  0.19843395448E+01  0.17123991531E+03  0.17120000000E+03 0.  0.
        998    1    1    2    0    0  0.79935970790E+01 -0.19016725352E+02  0.14104339488E+04  0.14106202385E+04  0.10000000000E+02 0. -1.
</event>
<event>
 5    1  0.1369527E-008  0.3833013E+03  0.7957747E-01  0.3436909E+00
         13   -1    0    0    0    0  0.00000000000E+00  0.00000000000E+00  0.14999999963E+04  0.15000000000E+04  0.10566000000E+00 0. -1.
        994   -1    0    0    0    0 -0.00000000000E+00 -0.00000000000E+00  0.11368683772E-12  0.17120000000E+03  0.17120000000E+03 0.  0.
         13    1    1    2    0    0 -0.30385518761E+01 -0.26646862999E+02  0.12867389586E+03  0.13143922834E+03  0.10566000000E+00 0. -1.
        994    1    1    2    0    0  0.72002769129E+01  0.31750514978E+02  0.59888291531E+01  0.17437099892E+03  0.17120000000E+03 0.  0.
        998    1    1    2    0    0 -0.41617250368E+01 -0.51036519786E+01  0.13653372713E+04  0.13653897727E+04  0.10000000000E+02 0. -1.
</event>
<event>
 5    1  0.1369527E-008  0.3825772E+03  0.7957747E-01  0.3440013E+00
         13   -1    0    0    0    0  0.00000000000E+00  0.00000000000E+00  0.14999999963E+04  0.15000000000E+04  0.10566000000E+00 0.  1.
        994   -1    0    0    0    0 -0.00000000000E+00 -0.00000000000E+00  0.11368683772E-12  0.17120000000E+03  0.17120000000E+03 0.  0.
         13    1    1    2    0    0  0.11960370467E+02 -0.29665707833E+00  0.24841863103E+02  0.27572954024E+02  0.10566000000E+00 0.  1.
        994    1    1    2    0    0 -0.83866717607E-01 -0.65537901332E+01  0.29802292093E+01  0.17135133780E+03  0.17120000000E+03 0.  0.
        998    1    1    2    0    0 -0.11876503749E+02  0.68504472115E+01  0.14721779040E+04  0.14722757082E+04  0.10000000000E+02 0.  1.
</event>
<event>
 5    1  0.1369527E-008  0.4443272E+03  0.7957747E-01  0.3211414E+00
         13   -1    0    0    0    0  0.00000000000E+00  0.00000000000E+00  0.14999999963E+04  0.15000000000E+04  0.10566000000E+00 0. -1.
        994   -1    0    0    0    0 -0.00000000000E+00 -0.00000000000E+00  0.11368683772E-12  0.17120000000E+03  0.17120000000E+03 0.  0.
         13    1    1    2    0    0  0.66246095537E+01  0.58579928928E+02  0.98652497372E+01  0.59773136452E+02  0.10566000000E+00 0. -1.
        994    1    1    2    0    0 -0.10103494854E+02 -0.59478569282E+02  0.75244482880E+02  0.19649669976E+03  0.17120000000E+03 0.  0.
        998    1    1    2    0    0  0.34788853002E+01  0.89864035497E+00  0.14148902637E+04  0.14149301638E+04  0.10000000000E+02 0. -1.
</event>
<event>
 5    1  0.1369527E-008  0.3857682E+03  0.7957747E-01  0.3426421E+00
         13   -1    0    0    0    0  0.00000000000E+00  0.00000000000E+00  0.14999999963E+04  0.15000000000E+04  0.10566000000E+00 0. -1.
        994   -1    0    0    0    0 -0.00000000000E+00 -0.00000000000E+00  0.11368683772E-12  0.17120000000E+03  0.17120000000E+03 0.  0.
         13    1    1    2    0    0 -0.14918423427E+02  0.19383743574E+01  0.87754488133E+02  0.89034701124E+02  0.10566000000E+00 0. -1.
        994    1    1    2    0    0  0.13672295616E+02 -0.82090949725E+01  0.20839419336E+01  0.17195378368E+03  0.17120000000E+03 0.  0.
        998    1    1    2    0    0  0.12461278109E+01  0.62707206151E+01  0.14101615662E+04  0.14102115152E+04  0.10000000000E+02 0. -1.
</event>
<event>
 5    1  0.1369527E-008  0.3853642E+03  0.7957747E-01  0.3428129E+00
         13   -1    0    0    0    0  0.00000000000E+00  0.00000000000E+00  0.14999999963E+04  0.15000000000E+04  0.10566000000E+00 0.  1.
        994   -1    0    0    0    0 -0.00000000000E+00 -0.00000000000E+00  0.11368683772E-12  0.17120000000E+03  0.17120000000E+03 0.  0.
         13    1    1    2    0    0 -0.25241133185E+01  0.14715917529E+02  0.78377505538E+02  0.79787053556E+02  0.10566000000E+00 0.  1.
        994    1    1    2    0    0  0.18765390554E+02 -0.50671042011E+01  0.26914487118E+01  0.17232091958E+03  0.17120000000E+03 0.  0.
        998    1    1    2    0    0 -0.16241277235E+02 -0.96488133280E+01  0.14189310420E+04  0.14190920269E+04  0.10000000000E+02 0.  1.
</event>
<event>
 5    1  0.1369527E-008  0.3825781E+03  0.7957747E-01  0.3440009E+00
         13   -1    0    0    0    0  0.00000000000E+00  0.00000000000E+00  0.14999999963E+04  0.15000000000E+04  0.10566000000E+00 0.  1.
        994   -1    0    0    0    0 -0.00000000000E+00 -0.00000000000E+00  0.11368683772E-12  0.17120000000E+03  0.17120000000E+03 0.  0.
         13    1    1    2    0    0 -0.15520350737E+02 -0.18370715323E+02  0.11319291550E+03  0.11571953920E+03  0.10566000000E+00 0.  1.
        994    1    1    2    0    0  0.14641631517E+01 -0.43784358495E+01  0.29080086843E+01  0.17128692591E+03  0.17120000000E+03 0.  0.
        998    1    1    2    0    0  0.14056187585E+02  0.22749151173E+02  0.13838990721E+04  0.13841935349E+04  0.10000000000E+02 0.  1.
</event>
<event>
 5    1  0.1369527E-008  0.3849751E+03  0.7957747E-01  0.3429778E+00
         13   -1    0    0    0    0  0.00000000000E+00  0.00000000000E+00  0.14999999963E+04  0.15000000000E+04  0.10566000000E+00 0. -1.
        994   -1    0    0    0    0 -0.00000000000E+00 -0.00000000000E+00  0.11368683772E-12  0.17120000000E+03  0.17120000000E+03 0.  0.
         13    1    1    2    0    0  0.97162055685E-01 -0.11205360477E+02  0.39444187174E+02  0.41005177840E+02  0.10566000000E+00 0. -1.
        994    1    1    2    0    0 -0.21582965445E+01  0.45987689637E+00  0.16585409460E+01  0.17122225465E+03  0.17120000000E+03 0.  0.
        998    1    1    2    0    0  0.20611344889E+01  0.10745483580E+02  0.14588972682E+04  0.14589725675E+04  0.10000000000E+02 0. -1.
</event>
<event>
 5    1  0.1369527E-008  0.3812370E+03  0.7957747E-01  0.3445790E+00
         13   -1    0    0    0    0  0.00000000000E+00  0.00000000000E+00  0.14999999963E+04  0.15000000000E+04  0.10566000000E+00 0. -1.
        994   -1    0    0    0    0 -0.00000000000E+00 -0.00000000000E+00  0.11368683772E-12  0.17120000000E+03  0.17120000000E+03 0.  0.
         13    1    1    2    0    0 -0.40317638733E+02  0.26714663667E+02  0.27618812232E+03  0.28039093303E+03  0.10566000000E+00 0. -1.
        994    1    1    2    0    0  0.40600625475E+02 -0.24575076148E+02  0.11045350488E+02  0.17799939585E+03  0.17120000000E+03 0.  0.
        998    1    1    2    0    0 -0.28298674162E+00 -0.21395875191E+01  0.12127665235E+04  0.12128096711E+04  0.10000000000E+02 0.  0.
</event>
<event>
 5    1  0.1369527E-008  0.3807156E+03  0.7957747E-01  0.3448049E+00
         13   -1    0    0    0    0  0.00000000000E+00  0.00000000000E+00  0.14999999963E+04  0.15000000000E+04  0.10566000000E+00 0.  1.
        994   -1    0    0    0    0 -0.00000000000E+00 -0.00000000000E+00  0.11368683772E-12  0.17120000000E+03  0.17120000000E+03 0.  0.
         13    1    1    2    0    0  0.66477094669E+01  0.15075198014E+02  0.35304691663E+02  0.38960057158E+02  0.10566000000E+00 0.  1.
        994    1    1    2    0    0 -0.12664057510E+02  0.56367068422E+00  0.43084608060E+01  0.17172273848E+03  0.17120000000E+03 0.  0.
        998    1    1    2    0    0  0.60163480432E+01 -0.15638868699E+02  0.14603868438E+04  0.14605172044E+04  0.10000000000E+02 0.  1.
</event>
<event>
 5    1  0.1369527E-008  0.3837532E+03  0.7957747E-01  0.3434977E+00
         13   -1    0    0    0    0  0.00000000000E+00  0.00000000000E+00  0.14999999963E+04  0.15000000000E+04  0.10566000000E+00 0. -1.
        994   -1    0    0    0    0 -0.00000000000E+00 -0.00000000000E+00  0.11368683772E-12  0.17120000000E+03  0.17120000000E+03 0.  0.
         13    1    1    2    0    0 -0.12226863764E+03 -0.54683776521E+02  0.35364717969E+03  0.37816170355E+03  0.10566000000E+00 0. -1.
        994    1    1    2    0    0  0.12644055254E+03  0.46391331868E+02  0.88534894223E+02  0.23513238079E+03  0.17120000000E+03 0.  0.
        998    1    1    2    0    0 -0.41719148977E+01  0.82924446525E+01  0.10578179224E+04  0.10579059157E+04  0.10000000000E+02 0.  0.
</event>
<event>
 5    1  0.1369527E-008  0.3723177E+03  0.7957747E-01  0.3485307E+00
         13   -1    0    0    0    0  0.00000000000E+00  0.00000000000E+00  0.14999999963E+04  0.15000000000E+04  0.10566000000E+00 0. -1.
        994   -1    0    0    0    0 -0.00000000000E+00 -0.00000000000E+00  0.11368683772E-12  0.17120000000E+03  0.17120000000E+03 0.  0.
         13    1    1    2    0    0 -0.17493320488E+02  0.39856579924E+02  0.13067281583E+03  0.13773147493E+03  0.10566000000E+00 0. -1.
        994    1    1    2    0    0 -0.14169113304E+02 -0.35522429219E+01  0.87949192436E+01  0.17204700755E+03  0.17120000000E+03 0.  0.
        998    1    1    2    0    0  0.31662433791E+02 -0.36304337002E+02  0.13605322612E+04  0.13614215175E+04  0.10000000000E+02 0. -1.
</event>
<event>
 5    1  0.1369527E-008  0.3775447E+03  0.7957747E-01  0.3461920E+00
         13   -1    0    0    0    0  0.00000000000E+00  0.00000000000E+00  0.14999999963E+04  0.15000000000E+04  0.10566000000E+00 0. -1.
        994   -1    0    0    0    0 -0.00000000000E+00 -0.00000000000E+00  0.11368683772E-12  0.17120000000E+03  0.17120000000E+03 0.  0.
         13    1    1    2    0    0  0.24788690250E+02  0.94880113657E+01  0.62218696880E+02  0.67643764897E+02  0.10566000000E+00 0. -1.
        994    1    1    2    0    0 -0.19203444005E+02 -0.12395940619E+02  0.71404601544E+01  0.17286658953E+03  0.17120000000E+03 0.  0.
        998    1    1    2    0    0 -0.55852462451E+01  0.29079292533E+01  0.14306408392E+04  0.14306896456E+04  0.10000000000E+02 0. -1.
</event>
<event>
 5    1  0.1369527E-008  0.3828179E+03  0.7957747E-01  0.3438980E+00
         13   -1    0    0    0    0  0.00000000000E+00  0.00000000000E+00  0.14999999963E+04  0.15000000000E+04  0.10566000000E+00 0. -1.
        994   -1    0    0    0    0 -0.00000000000E+00 -0.00000000000E+00  0.11368683772E-12  0.17120000000E+03  0.17120000000E+03 0.  0.
         13    1    1    2    0    0 -0.30954054945E+02 -0.16819387672E+02  0.20052665106E+03  0.20359762835E+03  0.10566000000E+00 0. -1.
        994    1    1    2    0    0  0.36128368126E+02  0.70530251797E+01  0.72182976114E+01  0.17526137044E+03  0.17120000000E+03 0.  0.
        998    1    1    2    0    0 -0.51743131812E+01  0.97663624924E+01  0.12922550476E+04  0.12923410012E+04  0.10000000000E+02 0. -1.
</event>
<event>
 5    1  0.1369527E-008  0.3851750E+03  0.7957747E-01  0.3428930E+00
         13   -1    0    0    0    0  0.00000000000E+00  0.00000000000E+00  0.14999999963E+04  0.15000000000E+04  0.10566000000E+00 0. -1.
        994   -1    0    0    0    0 -0.00000000000E+00 -0.00000000000E+00  0.11368683772E-12  0.17120000000E+03  0.17120000000E+03 0.  0.
         13    1    1    2    0    0  0.98483930982E+01 -0.38703091567E+01  0.37570035983E+02  0.39031896026E+02  0.10566000000E+00 0. -1.
        994    1    1    2    0    0 -0.18385354405E+01 -0.53389970250E+01  0.16480970703E+01  0.17130102547E+03  0.17120000000E+03 0.  0.
        998    1    1    2    0    0 -0.80098576577E+01  0.92093061816E+01  0.14607818632E+04  0.14608670785E+04  0.10000000000E+02 0. -1.
</event>
<event>
 5    1  0.1369527E-008  0.3851094E+03  0.7957747E-01  0.3429208E+00
         13   -1    0    0    0    0  0.00000000000E+00  0.00000000000E+00  0.14999999963E+04  0.15000000000E+04  0.10566000000E+00 0. -1.
        994   -1    0    0    0    0 -0.00000000000E+00 -0.00000000000E+00  0.11368683772E-12  0.17120000000E+03  0.17120000000E+03 0.  0.
         13    1    1    2    0    0 -0.39543505026E+01  0.13294053524E+02  0.65636375537E+02  0.67085868145E+02  0.10566000000E+00 0. -1.
        994    1    1    2    0    0  0.26304983398E+00  0.19107044599E+01  0.15880421173E+01  0.17121822877E+03  0.17120000000E+03 0.  0.
        998    1    1    2    0    0  0.36913006687E+01 -0.15204757984E+02  0.14327755786E+04  0.14328959031E+04  0.10000000000E+02 0. -1.
</event>
<event>
 5    1  0.1369527E-008  0.3792794E+03  0.7957747E-01  0.3454302E+00
         13   -1    0    0    0    0  0.00000000000E+00  0.00000000000E+00  0.14999999963E+04  0.15000000000E+04  0.10566000000E+00 0. -1.
        994   -1    0    0    0    0 -0.00000000000E+00 -0.00000000000E+00  0.11368683772E-12  0.17120000000E+03  0.17120000000E+03 0.  0.
         13    1    1    2    0    0 -0.47986508294E+01  0.12069121299E+02  0.16729683274E+02  0.21179806542E+02  0.10566000000E+00 0. -1.
        994    1    1    2    0    0  0.41822916046E+01 -0.10830633141E+02  0.49491698282E+01  0.17166458126E+03  0.17120000000E+03 0.  0.
        998    1    1    2    0    0  0.61635922471E+00 -0.12384881571E+01  0.14783211432E+04  0.14783556122E+04  0.10000000000E+02 0. -1.
</event>
<event>
 5    1  0.1369527E-008  0.3270307E+03  0.7957747E-01  0.3720137E+00
         13   -1    0    0    0    0  0.00000000000E+00  0.00000000000E+00  0.14999999963E+04  0.15000000000E+04  0.10566000000E+00 0.  1.
        994   -1    0    0    0    0 -0.00000000000E+00 -0.00000000000E+00  0.11368683772E-12  0.17120000000E+03  0.17120000000E+03 0.  0.
         13    1    1    2    0    0  0.10702916041E+02  0.18818265689E+03  0.89902589649E+03  0.91857217381E+03  0.10566000000E+00 0.  1.
        994    1    1    2    0    0  0.42536470341E+02 -0.16411562373E+03  0.12212625397E+03  0.27012506579E+03  0.17120000000E+03 0.  0.
        998    1    1    2    0    0 -0.53239386382E+02 -0.24067033158E+02  0.47884784582E+03  0.48250276040E+03  0.10000000000E+02 0. -1.
</event>
<event>
 5    1  0.1369527E-008  0.3808275E+03  0.7957747E-01  0.3447563E+00
         13   -1    0    0    0    0  0.00000000000E+00  0.00000000000E+00  0.14999999963E+04  0.15000000000E+04  0.10566000000E+00 0.  1.
        994   -1    0    0    0    0 -0.00000000000E+00 -0.00000000000E+00  0.11368683772E-12  0.17120000000E+03  0.17120000000E+03 0.  0.
         13    1    1    2    0    0 -0.43592053458E+01  0.11144280342E+02  0.17924482336E+02  0.21552166635E+02  0.10566000000E+00 0.  1.
        994    1    1    2    0    0  0.56503741748E+00 -0.43112654804E+01  0.37790621090E+01  0.17129689894E+03  0.17120000000E+03 0.  0.
        998    1    1    2    0    0  0.37941679284E+01 -0.68330148614E+01  0.14782964518E+04  0.14783509344E+04  0.10000000000E+02 0.  1.
</event>
<event>
 5    1  0.1369527E-008  0.3837652E+03  0.7957747E-01  0.3434926E+00
         13   -1    0    0    0    0  0.00000000000E+00  0.00000000000E+00  0.14999999963E+04  0.15000000000E+04  0.10566000000E+00 0. -1.
        994   -1    0    0    0    0 -0.00000000000E+00 -0.00000000000E+00  0.11368683772E-12  0.17120000000E+03  0.17120000000E+03 0.  0.
         13    1    1    2    0    0 -0.88978433996E+00  0.13132453560E+02  0.38507172549E+02  0.40694797633E+02  0.10566000000E+00 0. -1.
        994    1    1    2    0    0  0.85981516325E+01 -0.51949119752E+01  0.25776958078E+01  0.17151384736E+03  0.17120000000E+03 0.  0.
        998    1    1    2    0    0 -0.77083672925E+01 -0.79375415848E+01  0.14589151279E+04  0.14589913550E+04  0.10000000000E+02 0. -1.
</event>
<event>
 5    1  0.1369527E-008  0.3789647E+03  0.7957747E-01  0.3455679E+00
         13   -1    0    0    0    0  0.00000000000E+00  0.00000000000E+00  0.14999999963E+04  0.15000000000E+04  0.10566000000E+00 0. -1.
        994   -1    0    0    0    0 -0.00000000000E+00 -0.00000000000E+00  0.11368683772E-12  0.17120000000E+03  0.17120000000E+03 0.  0.
         13    1    1    2    0    0  0.13727997650E+02 -0.36209864082E+01  0.19508980556E+02  0.24128426149E+02  0.10566000000E+00 0. -1.
        994    1    1    2    0    0 -0.13248284982E+02  0.16930073426E+01  0.52552573192E+01  0.17180058515E+03  0.17120000000E+03 0.  0.
        998    1    1    2    0    0 -0.47971266844E+00  0.19279790656E+01  0.14752357584E+04  0.14752709887E+04  0.10000000000E+02 0. -1.
</event>
<event>
 5    1  0.1369527E-008  0.3800892E+03  0.7957747E-01  0.3450770E+00
         13   -1    0    0    0    0  0.00000000000E+00  0.00000000000E+00  0.14999999963E+04  0.15000000000E+04  0.10566000000E+00 0.  1.
        994   -1    0    0    0    0 -0.00000000000E+00 -0.00000000000E+00  0.11368683772E-12  0.17120000000E+03  0.17120000000E+03 0.  0.
         13    1    1    2    0    0  0.10996397629E+02  0.11456510659E+02  0.28701730081E+02  0.32802025409E+02  0.10566000000E+00 0.  1.
        994    1    1    2    0    0 -0.16569901532E+02 -0.72048823005E+01  0.51799061165E+01  0.17222875310E+03  0.17120000000E+03 0.  0.
        998    1    1    2    0    0  0.55735039027E+01 -0.42516283582E+01  0.14661183601E+04  0.14661692215E+04  0.10000000000E+02 0.  1.
</event>
<event>
 5    1  0.1369527E-008  0.3761281E+03  0.7957747E-01  0.3468193E+00
         13   -1    0    0    0    0  0.00000000000E+00  0.00000000000E+00  0.14999999963E+04  0.15000000000E+04  0.10566000000E+00 0.  1.
        994   -1    0    0    0    0 -0.00000000000E+00 -0.00000000000E+00  0.11368683772E-12  0.17120000000E+03  0.17120000000E+03 0.  0.
         13    1    1    2    0    0  0.36068875708E+02 -0.54420726916E+02  0.18472437477E+03  0.19592265084E+03  0.10566000000E+00 0.  1.
        994    1    1    2    0    0  0.30938532790E+02  0.30240287507E+01  0.17676780844E+02  0.17489495745E+03  0.17120000000E+03 0.  0.
        998    1    1    2    0    0 -0.67007408498E+02  0.51396698165E+02  0.12975988407E+04  0.13003823917E+04  0.10000000000E+02 0.  1.
</event>
<event>
 5    1  0.1369527E-008  0.3820036E+03  0.7957747E-01  0.3442481E+00
         13   -1    0    0    0    0  0.00000000000E+00  0.00000000000E+00  0.14999999963E+04  0.15000000000E+04  0.10566000000E+00 0.  1.
        994   -1    0    0    0    0 -0.00000000000E+00 -0.00000000000E+00  0.11368683772E-12  0.17120000000E+03  0.17120000000E+03 0.  0.
         13    1    1    2    0    0 -0.21394243672E+02  0.18641103439E+02  0.14837942681E+03  0.15106842776E+03  0.10566000000E+00 0.  1.
        994    1    1    2    0    0 -0.16763466153E+01  0.32591297775E+01  0.31697715301E+01  0.17126855963E+03  0.17120000000E+03 0.  0.
        998    1    1    2    0    0  0.23070590288E+02 -0.21900233217E+02  0.13484507979E+04  0.13488630126E+04  0.10000000000E+02 0.  1.
</event>
<event>
 5    1  0.1369527E-008  0.3846709E+03  0.7957747E-01  0.3431069E+00
         13   -1    0    0    0    0  0.00000000000E+00  0.00000000000E+00  0.14999999963E+04  0.15000000000E+04  0.10566000000E+00 0. -1.
        994   -1    0    0    0    0 -0.00000000000E+00 -0.00000000000E+00  0.11368683772E-12  0.17120000000E+03  0.17120000000E+03 0.  0.
         13    1    1    2    0    0 -0.16802506567E+02 -0.32659768762E+01  0.71575212128E+02  0.73593566207E+02  0.10566000000E+00 0. -1.
        994    1    1    2    0    0  0.31254844733E+02  0.73782349734E+01  0.51962312394E+01  0.17426343417E+03  0.17120000000E+03 0.  0.
        998    1    1    2    0    0 -0.14452338166E+02 -0.41122580972E+01  0.14232285529E+04  0.14233429996E+04  0.10000000000E+02 0. -1.
</event>
<event>
 5    1  0.1369527E-008  0.3840510E+03  0.7957747E-01  0.3433707E+00
         13   -1    0    0    0    0  0.00000000000E+00  0.00000000000E+00  0.14999999963E+04  0.15000000000E+04  0.10566000000E+00 0.  1.
        994   -1    0    0    0    0 -0.00000000000E+00 -0.00000000000E+00  0.11368683772E-12  0.17120000000E+03  0.17120000000E+03 0.  0.
         13    1    1    2    0    0  0.36542346019E+01 -0.19204188815E+02  0.10500543924E+03  0.10680967995E+03  0.10566000000E+00 0.  1.
        994    1    1    2    0    0  0.43720196302E+01 -0.71709946095E+01  0.23347765217E+01  0.17142178654E+03  0.17120000000E+03 0.  0.
        998    1    1    2    0    0 -0.80262542321E+01  0.26375183424E+02  0.13926597805E+04  0.13929685335E+04  0.10000000000E+02 0.  1.
</event>
<event>
 5    1  0.1369527E-008  0.3826149E+03  0.7957747E-01  0.3439851E+00
         13   -1    0    0    0    0  0.00000000000E+00  0.00000000000E+00  0.14999999963E+04  0.15000000000E+04  0.10566000000E+00 0. -1.
        994   -1    0    0    0    0 -0.00000000000E+00 -0.00000000000E+00  0.11368683772E-12  0.17120000000E+03  0.17120000000E+03 0.  0.
         13    1    1    2    0    0  0.11815921154E+02 -0.11020385445E+02  0.46696880680E+02  0.49413305064E+02  0.10566000000E+00 0. -1.
        994    1    1    2    0    0  0.19026720388E+01  0.80296377642E+01  0.30446632716E+01  0.17142580091E+03  0.17120000000E+03 0.  0.
        998    1    1    2    0    0 -0.13718593193E+02  0.29907476808E+01  0.14502584523E+04  0.14503608940E+04  0.10000000000E+02 0. -1.
</event>
<event>
 5    1  0.1369527E-008  0.3805941E+03  0.7957747E-01  0.3448576E+00
         13   -1    0    0    0    0  0.00000000000E+00  0.00000000000E+00  0.14999999963E+04  0.15000000000E+04  0.10566000000E+00 0.  1.
        994   -1    0    0    0    0 -0.00000000000E+00 -0.00000000000E+00  0.11368683772E-12  0.17120000000E+03  0.17120000000E+03 0.  0.
         13    1    1    2    0    0 -0.72983607438E+01 -0.97752659074E+01  0.17897570109E+02  0.21660010917E+02  0.10566000000E+00 0.  1.
        994    1    1    2    0    0  0.10151430350E+02  0.83051106993E+00  0.41797288570E+01  0.17155364007E+03  0.17120000000E+03 0.  0.
        998    1    1    2    0    0 -0.28530696059E+01  0.89447548374E+01  0.14779226973E+04  0.14779863490E+04  0.10000000000E+02 0.  1.
</event>
<event>
 5    1  0.1369527E-008  0.3849414E+03  0.7957747E-01  0.3429921E+00
         13   -1    0    0    0    0  0.00000000000E+00  0.00000000000E+00  0.14999999963E+04  0.15000000000E+04  0.10566000000E+00 0. -1.
        994   -1    0    0    0    0 -0.00000000000E+00 -0.00000000000E+00  0.11368683772E-12  0.17120000000E+03  0.17120000000E+03 0.  0.
         13    1    1    2    0    0  0.81165503131E+00 -0.12803030716E+02  0.49041432955E+02  0.50691712239E+02  0.10566000000E+00 0. -1.
        994    1    1    2    0    0  0.38818009894E+00  0.10351943597E+02  0.20122860893E+01  0.17152493322E+03  0.17120000000E+03 0.  0.
        998    1    1    2    0    0 -0.11998351303E+01  0.24510871194E+01  0.14489462772E+04  0.14489833545E+04  0.10000000000E+02 0. -1.
</event>
<event>
 5    1  0.1369527E-008  0.3821397E+03  0.7957747E-01  0.3441894E+00
         13   -1    0    0    0    0  0.00000000000E+00  0.00000000000E+00  0.14999999963E+04  0.15000000000E+04  0.10566000000E+00 0. -1.
        994   -1    0    0    0    0 -0.00000000000E+00 -0.00000000000E+00  0.11368683772E-12  0.17120000000E+03  0.17120000000E+03 0.  0.
         13    1    1    2    0    0 -0.22941670290E+02 -0.24422771338E+02  0.18570747747E+03  0.18870630712E+03  0.10566000000E+00 0. -1.
        994    1    1    2    0    0  0.15792252879E+02  0.92911648686E+01  0.41721157406E+01  0.17222824259E+03  0.17120000000E+03 0.  0.
        998    1    1    2    0    0  0.71494174107E+01  0.15131606469E+02  0.13101204031E+04  0.13102654503E+04  0.10000000000E+02 0. -1.
</event>
<event>
 5    1  0.1369527E-008  0.3795135E+03  0.7957747E-01  0.3453280E+00
         13   -1    0    0    0    0  0.00000000000E+00  0.00000000000E+00  0.14999999963E+04  0.15000000000E+04  0.10566000000E+00 0.  1.
        994   -1    0    0    0    0 -0.00000000000E+00 -0.00000000000E+00  0.11368683772E-12  0.17120000000E+03  0.17120000000E+03 0.  0.
         13    1    1    2    0    0  0.23561703288E+02  0.29844539800E+02  0.14466758342E+03  0.14958131994E+03  0.10566000000E+00 0.  1.
        994    1    1    2    0    0 -0.36601266872E+02 -0.26110441290E+02  0.11177124107E+02  0.17735776268E+03  0.17120000000E+03 0.  0.
        998    1    1    2    0    0  0.13039563584E+02 -0.37340985096E+01  0.13441552888E+04  0.13442609174E+04  0.10000000000E+02 0.  1.
</event>
<event>
 5    1  0.2057234E-008  0.3863142E+03  0.7957747E-01  0.3424117E+00
         13   -1    0    0    0    0  0.00000000000E+00  0.00000000000E+00  0.14999999963E+04  0.15000000000E+04  0.10566000000E+00 0. -1.
        994   -1    0    0    0    0 -0.00000000000E+00 -0.00000000000E+00  0.11368683772E-12  0.17120000000E+03  0.17120000000E+03 0.  0.
         13    1    1    2    0    0 -0.76562476101E+01  0.66546880915E+01  0.57661247771E+02  0.58546850126E+02  0.10566000000E+00 0. -1.
        994    1    1    2    0    0 -0.17091993041E+01  0.24009142522E+01  0.10074897167E+01  0.17122832939E+03  0.17120000000E+03 0.  0.
        998    1    1    2    0    0  0.93654469142E+01 -0.90556023437E+01  0.14413312588E+04  0.14414248205E+04  0.10000000000E+02 0. -1.
</event>
<event>
 5    1  0.1369527E-008  0.3850278E+03  0.7957747E-01  0.3429554E+00
         13   -1    0    0    0    0  0.00000000000E+00  0.00000000000E+00  0.14999999963E+04  0.15000000000E+04  0.10566000000E+00 0.  1.
        994   -1    0    0    0    0 -0.00000000000E+00 -0.00000000000E+00  0.11368683772E-12  0.17120000000E+03  0.17120000000E+03 0.  0.
         13    1    1    2    0    0 -0.45541074894E+01 -0.92656651391E+01  0.33902348023E+02  0.35439706700E+02  0.10566000000E+00 0.  1.
        994    1    1    2    0    0 -0.71315709330E+01  0.34246260894E+01  0.18221566758E+01  0.17139237913E+03  0.17120000000E+03 0.  0.
        998    1    1    2    0    0  0.11685678422E+02  0.58410390497E+01  0.14642754916E+04  0.14643679142E+04  0.10000000000E+02 0.  1.
</event>
<event>
 5    1  0.1369527E-008  0.3809537E+03  0.7957747E-01  0.3447016E+00
         13   -1    0    0    0    0  0.00000000000E+00  0.00000000000E+00  0.14999999963E+04  0.15000000000E+04  0.10566000000E+00 0.  1.
        994   -1    0    0    0    0 -0.00000000000E+00 -0.00000000000E+00  0.11368683772E-12  0.17120000000E+03  0.17120000000E+03 0.  0.
         13    1    1    2    0    0 -0.74937425208E+01 -0.24813513724E+02  0.96126537684E+02  0.99559977157E+02  0.10566000000E+00 0.  1.
        994    1    1    2    0    0 -0.15642675852E+02  0.10434653934E+02  0.48316412759E+01  0.17229730139E+03  0.17120000000E+03 0.  0.
        998    1    1    2    0    0  0.23136418373E+02  0.14378859790E+02  0.13990418173E+04  0.13993427214E+04  0.10000000000E+02 0.  1.
</event>
<event>
 5    1  0.1369527E-008  0.3788565E+03  0.7957747E-01  0.3456153E+00
         13   -1    0    0    0    0  0.00000000000E+00  0.00000000000E+00  0.14999999963E+04  0.15000000000E+04  0.10566000000E+00 0.  1.
        994   -1    0    0    0    0 -0.00000000000E+00 -0.00000000000E+00  0.11368683772E-12  0.17120000000E+03  0.17120000000E+03 0.  0.
         13    1    1    2    0    0 -0.39287150006E+02  0.94201670195E+01  0.21070146331E+03  0.21453982732E+03  0.10566000000E+00 0.  1.
        994    1    1    2    0    0  0.20883108397E+02  0.70271629005E+02  0.22961960207E+02  0.18764567055E+03  0.17120000000E+03 0.  0.
        998    1    1    2    0    0  0.18404041608E+02 -0.79691796024E+02  0.12663365728E+04  0.12690145021E+04  0.10000000000E+02 0.  1.
</event>
<event>
 5    1  0.1369527E-008  0.3836103E+03  0.7957747E-01  0.3435587E+00
         13   -1    0    0    0    0  0.00000000000E+00  0.00000000000E+00  0.14999999963E+04  0.15000000000E+04  0.10566000000E+00 0. -1.
        994   -1    0    0    0    0 -0.00000000000E+00 -0.00000000000E+00  0.11368683772E-12  0.17120000000E+03  0.17120000000E+03 0.  0.
         13    1    1    2    0    0 -0.19954424408E+02 -0.11729990508E+02  0.10614675188E+03  0.10864122528E+03  0.10566000000E+00 0. -1.
        994    1    1    2    0    0  0.21154727746E+02  0.15126057987E+02  0.45591029765E+01  0.17322397512E+03  0.17120000000E+03 0.  0.
        998    1    1    2    0    0 -0.12003033383E+01 -0.33960674783E+01  0.13892941414E+04  0.13893347996E+04  0.10000000000E+02 0. -1.
</event>
<event>
 5    1  0.1369527E-008  0.3824803E+03  0.7957747E-01  0.3440429E+00
         13   -1    0    0    0    0  0.00000000000E+00  0.00000000000E+00  0.14999999963E+04  0.15000000000E+04  0.10566000000E+00 0.  1.
        994   -1    0    0    0    0 -0.00000000000E+00 -0.00000000000E+00  0.11368683772E-12  0.17120000000E+03  0.17120000000E+03 0.  0.
         13    1    1    2    0    0  0.12076774086E+02  0.15232013993E+02  0.61640773047E+02  0.64633263793E+02  0.10566000000E+00 0.  1.
        994    1    1    2    0    0 -0.15035639839E+02 -0.16454572419E+02  0.45354005207E+01  0.17270446803E+03  0.17120000000E+03 0.  0.
        998    1    1    2    0    0  0.29588657533E+01  0.12225584260E+01  0.14338238227E+04  0.14338622682E+04  0.10000000000E+02 0.  1.
</event>
<event>
 5    1  0.1369527E-008  0.3803542E+03  0.7957747E-01  0.3449618E+00
         13   -1    0    0    0    0  0.00000000000E+00  0.00000000000E+00  0.14999999963E+04  0.15000000000E+04  0.10566000000E+00 0. -1.
        994   -1    0    0    0    0 -0.00000000000E+00 -0.00000000000E+00  0.11368683772E-12  0.17120000000E+03  0.17120000000E+03 0.  0.
         13    1    1    2    0    0 -0.60218109010E+01 -0.11598914238E+02  0.19737999467E+02  0.23672701684E+02  0.10566000000E+00 0. -1.
        994    1    1    2    0    0  0.74163900925E+01  0.11041608242E+02  0.45454216517E+01  0.17177607753E+03  0.17120000000E+03 0.  0.
        998    1    1    2    0    0 -0.13945791915E+01  0.55730599609E+00  0.14757165752E+04  0.14757512208E+04  0.10000000000E+02 0. -1.
</event>
<event>
 5    1  0.1369527E-008  0.3712839E+03  0.7957747E-01  0.3490011E+00
         13   -1    0    0    0    0  0.00000000000E+00  0.00000000000E+00  0.14999999963E+04  0.15000000000E+04  0.10566000000E+00 0. -1.
        994   -1    0    0    0    0 -0.00000000000E+00 -0.00000000000E+00  0.11368683772E-12  0.17120000000E+03  0.17120000000E+03 0.  0.
         13    1    1    2    0    0 -0.38604087742E+00  0.15811891564E+02  0.10577350746E+02  0.19027781143E+02  0.10566000000E+00 0. -1.
        994    1    1    2    0    0  0.19282903792E+01 -0.16865180808E+02  0.95920985563E+01  0.17230670614E+03  0.17120000000E+03 0.  0.
        998    1    1    2    0    0 -0.15422495018E+01  0.10532892440E+01  0.14798305470E+04  0.14798655127E+04  0.10000000000E+02 0. -1.
</event>
<event>
 5    1  0.1369527E-008  0.3834550E+03  0.7957747E-01  0.3436251E+00
         13   -1    0    0    0    0  0.00000000000E+00  0.00000000000E+00  0.14999999963E+04  0.15000000000E+04  0.10566000000E+00 0.  1.
        994   -1    0    0    0    0 -0.00000000000E+00 -0.00000000000E+00  0.11368683772E-12  0.17120000000E+03  0.17120000000E+03 0.  0.
         13    1    1    2    0    0 -0.71310822978E+01 -0.16431525191E+02  0.63637702880E+02  0.66110632630E+02  0.10566000000E+00 0.  1.
        994    1    1    2    0    0  0.64920827432E+01  0.18217362535E+02  0.36363332320E+01  0.17232725366E+03  0.17120000000E+03 0.  0.
        998    1    1    2    0    0  0.63899955458E+00 -0.17858373445E+01  0.14327259602E+04  0.14327621137E+04  0.10000000000E+02 0.  1.
</event>
<event>
 5    1  0.1369527E-008  0.3757825E+03  0.7957747E-01  0.3469730E+00
         13   -1    0    0    0    0  0.00000000000E+00  0.00000000000E+00  0.14999999963E+04  0.15000000000E+04  0.10566000000E+00 0.  1.
        994   -1    0    0    0    0 -0.00000000000E+00 -0.00000000000E+00  0.11368683772E-12  0.17120000000E+03  0.17120000000E+03 0.  0.
         13    1    1    2    0    0  0.49226304574E+02  0.91701702876E+02  0.33857728674E+03  0.35421324317E+03  0.10566000000E+00 0.  1.
        994    1    1    2    0    0 -0.58769528714E+02 -0.61203587243E+02  0.40190715994E+02  0.19525488534E+03  0.17120000000E+03 0.  0.
        998    1    1    2    0    0  0.95432241399E+01 -0.30498115633E+02  0.11212319935E+04  0.11217318715E+04  0.10000000000E+02 0.  1.
</event>
<event>
 5    1  0.1369527E-008  0.3805522E+03  0.7957747E-01  0.3448758E+00
         13   -1    0    0    0    0  0.00000000000E+00  0.00000000000E+00  0.14999999963E+04  0.15000000000E+04  0.10566000000E+00 0. -1.
        994   -1    0    0    0    0 -0.00000000000E+00 -0.00000000000E+00  0.11368683772E-12  0.17120000000E+03  0.17120000000E+03 0.  0.
         13    1    1    2    0    0  0.27068919079E+02  0.13287007301E+02  0.10886509319E+03  0.11296411210E+03  0.10566000000E+00 0. -1.
        994    1    1    2    0    0 -0.29276667352E+02 -0.10180848344E+02  0.70672328298E+01  0.17412684659E+03  0.17120000000E+03 0.  0.
        998    1    1    2    0    0  0.22077482734E+01 -0.31061589572E+01  0.13840676703E+04  0.13841090413E+04  0.10000000000E+02 0. -1.
</event>
<event>
 5    1  0.1369527E-008  0.3850503E+03  0.7957747E-01  0.3429459E+00
         13   -1    0    0    0    0  0.00000000000E+00  0.00000000000E+00  0.14999999963E+04  0.15000000000E+04  0.10566000000E+00 0.  1.
        994   -1    0    0    0    0 -0.00000000000E+00 -0.00000000000E+00  0.11368683772E-12  0.17120000000E+03  0.17120000000E+03 0.  0.
         13    1    1    2    0    0 -0.17918539162E+02  0.60917160853E+00  0.92032450232E+02  0.93762616194E+02  0.10566000000E+00 0.  1.
        994    1    1    2    0    0  0.22984649225E+02  0.16647136615E+01  0.33533254408E+01  0.17277659032E+03  0.17120000000E+03 0.  0.
        998    1    1    2    0    0 -0.50661100630E+01 -0.22738852700E+01  0.14046142206E+04  0.14046607935E+04  0.10000000000E+02 0.  1.
</event>
<event>
 5    1  0.1369527E-008  0.3770767E+03  0.7957747E-01  0.3463987E+00
         13   -1    0    0    0    0  0.00000000000E+00  0.00000000000E+00  0.14999999963E+04  0.15000000000E+04  0.10566000000E+00 0.  1.
        994   -1    0    0    0    0 -0.00000000000E+00 -0.00000000000E+00  0.11368683772E-12  0.17120000000E+03  0.17120000000E+03 0.  0.
         13    1    1    2    0    0  0.93070460485E+01  0.10909503819E+02  0.16757304003E+02  0.22055765261E+02  0.10566000000E+00 0.  1.
        994    1    1    2    0    0  0.91570621053E+01  0.88942573280E+01  0.61664290062E+01  0.17178598443E+03  0.17120000000E+03 0.  0.
        998    1    1    2    0    0 -0.18464108154E+02 -0.19803761147E+02  0.14770762633E+04  0.14773582503E+04  0.10000000000E+02 0.  1.
</event>
<event>
 5    1  0.1369527E-008  0.3850784E+03  0.7957747E-01  0.3429340E+00
         13   -1    0    0    0    0  0.00000000000E+00  0.00000000000E+00  0.14999999963E+04  0.15000000000E+04  0.10566000000E+00 0. -1.
        994   -1    0    0    0    0 -0.00000000000E+00 -0.00000000000E+00  0.11368683772E-12  0.17120000000E+03  0.17120000000E+03 0.  0.
         13    1    1    2    0    0 -0.86135234855E+01  0.56620399203E+01  0.31625566064E+02  0.33263178979E+02  0.10566000000E+00 0. -1.
        994    1    1    2    0    0  0.22078033641E+01 -0.29700913177E+02  0.45130144622E+01  0.17382987643E+03  0.17120000000E+03 0.  0.
        998    1    1    2    0    0  0.64057201214E+01  0.24038873257E+02  0.14638614158E+04  0.14641069446E+04  0.10000000000E+02 0. -1.
</event>
<event>
 5    1  0.1369527E-008  0.3946217E+03  0.7957747E-01  0.3389863E+00
         13   -1    0    0    0    0  0.00000000000E+00  0.00000000000E+00  0.14999999963E+04  0.15000000000E+04  0.10566000000E+00 0. -1.
        994   -1    0    0    0    0 -0.00000000000E+00 -0.00000000000E+00  0.11368683772E-12  0.17120000000E+03  0.17120000000E+03 0.  0.
         13    1    1    2    0    0 -0.75502920330E+02  0.89670086811E+02  0.18051465332E+03  0.21523700117E+03  0.10566000000E+00 0. -1.
        994    1    1    2    0    0  0.21519445610E+03 -0.35991651101E+02  0.24195087125E+03  0.36804037412E+03  0.17120000000E+03 0.  0.
        998    1    1    2    0    0 -0.13969153577E+03 -0.53678435710E+02  0.10775344717E+04  0.10879226247E+04  0.10000000000E+02 0. -1.
</event>
<event>
 5    1  0.1369527E-008  0.3748854E+03  0.7957747E-01  0.3473735E+00
         13   -1    0    0    0    0  0.00000000000E+00  0.00000000000E+00  0.14999999963E+04  0.15000000000E+04  0.10566000000E+00 0. -1.
        994   -1    0    0    0    0 -0.00000000000E+00 -0.00000000000E+00  0.11368683772E-12  0.17120000000E+03  0.17120000000E+03 0.  0.
         13    1    1    2    0    0 -0.23305709213E+03  0.14417767731E+03  0.11039079296E+04  0.11374161679E+04  0.10566000000E+00 0. -1.
        994    1    1    2    0    0  0.24149361223E+03 -0.12154323321E+03  0.31679931132E+03  0.45029231166E+03  0.17120000000E+03 0.  0.
        998    1    1    2    0    0 -0.84365201017E+01 -0.22634444101E+02  0.79292755337E+02  0.83491520408E+02  0.10000000000E+02 0.  1.
</event>
<event>
 5    1  0.1369527E-008  0.3848410E+03  0.7957747E-01  0.3430347E+00
         13   -1    0    0    0    0  0.00000000000E+00  0.00000000000E+00  0.14999999963E+04  0.15000000000E+04  0.10566000000E+00 0. -1.
        994   -1    0    0    0    0 -0.00000000000E+00 -0.00000000000E+00  0.11368683772E-12  0.17120000000E+03  0.17120000000E+03 0.  0.
         13    1    1    2    0    0  0.74396220530E+01 -0.16428811788E+02  0.87153453258E+02  0.88999940516E+02  0.10566000000E+00 0. -1.
        994    1    1    2    0    0 -0.10095323859E+02  0.21740996927E+02  0.36019689663E+01  0.17290749172E+03  0.17120000000E+03 0.  0.
        998    1    1    2    0    0  0.26557018065E+01 -0.53121851388E+01  0.14092445741E+04  0.14092925678E+04  0.10000000000E+02 0. -1.
</event>
<event>
 5    1  0.1369527E-008  0.3751921E+03  0.7957747E-01  0.3472364E+00
         13   -1    0    0    0    0  0.00000000000E+00  0.00000000000E+00  0.14999999963E+04  0.15000000000E+04  0.10566000000E+00 0.  1.
        994   -1    0    0    0    0 -0.00000000000E+00 -0.00000000000E+00  0.11368683772E-12  0.17120000000E+03  0.17120000000E+03 0.  0.
         13    1    1    2    0    0  0.27742476660E+02 -0.38342333507E+02  0.19454579078E+03  0.20021951809E+03  0.10566000000E+00 0.  1.
        994    1    1    2    0    0 -0.48843013872E+02 -0.27126873618E+02  0.17258693641E+02  0.18091105489E+03  0.17120000000E+03 0.  0.
        998    1    1    2    0    0  0.21100537212E+02  0.65469207125E+02  0.12881955119E+04  0.12900694270E+04  0.10000000000E+02 0.  1.
</event>
<event>
 5    1  0.1369527E-008  0.3764624E+03  0.7957747E-01  0.3466708E+00
         13   -1    0    0    0    0  0.00000000000E+00  0.00000000000E+00  0.14999999963E+04  0.15000000000E+04  0.10566000000E+00 0. -1.
        994   -1    0    0    0    0 -0.00000000000E+00 -0.00000000000E+00  0.11368683772E-12  0.17120000000E+03  0.17120000000E+03 0.  0.
         13    1    1    2    0    0 -0.14047152556E+02 -0.32645113601E+02  0.39005751640E+02  0.52768226823E+02  0.10566000000E+00 0. -1.
        994    1    1    2    0    0  0.16322404527E+02  0.12107639981E+02  0.15876273025E+02  0.17313148726E+03  0.17120000000E+03 0.  0.
        998    1    1    2    0    0 -0.22752519711E+01  0.20537473620E+02  0.14451179716E+04  0.14453002859E+04  0.10000000000E+02 0. -1.
</event>
<event>
 5    1  0.1369527E-008  0.2595814E+03  0.7957747E-01  0.4234827E+00
         13   -1    0    0    0    0  0.00000000000E+00  0.00000000000E+00  0.14999999963E+04  0.15000000000E+04  0.10566000000E+00 0. -1.
        994   -1    0    0    0    0 -0.00000000000E+00 -0.00000000000E+00  0.11368683772E-12  0.17120000000E+03  0.17120000000E+03 0.  0.
         13    1    1    2    0    0  0.14224688743E+03 -0.67547759320E+02  0.48900072395E+03  0.51373008084E+03  0.10566000000E+00 0. -1.
        994    1    1    2    0    0 -0.76551365379E+02  0.38763444404E+02  0.55708580888E+02  0.19943821637E+03  0.17120000000E+03 0.  0.
        998    1    1    2    0    0 -0.65695522048E+02  0.28784314916E+02  0.95529069144E+03  0.95803170279E+03  0.10000000000E+02 0. -1.
</event>
<event>
 5    1  0.1369527E-008  0.3814557E+03  0.7957747E-01  0.3444845E+00
         13   -1    0    0    0    0  0.00000000000E+00  0.00000000000E+00  0.14999999963E+04  0.15000000000E+04  0.10566000000E+00 0.  1.
        994   -1    0    0    0    0 -0.00000000000E+00 -0.00000000000E+00  0.11368683772E-12  0.17120000000E+03  0.17120000000E+03 0.  0.
         13    1    1    2    0    0  0.58180592392E+01 -0.33875764613E+02  0.18340848253E+03  0.18660144659E+03  0.10566000000E+00 0.  1.
        994    1    1    2    0    0 -0.37096615890E+01  0.11792476414E+02  0.39087288104E+01  0.17169025089E+03  0.17120000000E+03 0.  0.
        998    1    1    2    0    0 -0.21083976501E+01  0.22083288199E+02  0.13126827849E+04  0.13129083025E+04  0.10000000000E+02 0.  1.
</event>
<event>
 5    1  0.1369527E-008  0.3847422E+03  0.7957747E-01  0.3430766E+00
         13   -1    0    0    0    0  0.00000000000E+00  0.00000000000E+00  0.14999999963E+04  0.15000000000E+04  0.10566000000E+00 0. -1.
        994   -1    0    0    0    0 -0.00000000000E+00 -0.00000000000E+00  0.11368683772E-12  0.17120000000E+03  0.17120000000E+03 0.  0.
         13    1    1    2    0    0  0.20305994028E+01  0.10215314150E+02  0.32640204409E+02  0.34261787534E+02  0.10566000000E+00 0. -1.
        994    1    1    2    0    0 -0.14821348955E+02  0.10841545340E+02  0.28688672076E+01  0.17220592873E+03  0.17120000000E+03 0.  0.
        998    1    1    2    0    0  0.12790749552E+02 -0.21056859490E+02  0.14644909247E+04  0.14647322837E+04  0.10000000000E+02 0. -1.
</event>
<event>
 5    1  0.1369527E-008  0.3744543E+03  0.7957747E-01  0.3475667E+00
         13   -1    0    0    0    0  0.00000000000E+00  0.00000000000E+00  0.14999999963E+04  0.15000000000E+04  0.10566000000E+00 0.  1.
        994   -1    0    0    0    0 -0.00000000000E+00 -0.00000000000E+00  0.11368683772E-12  0.17120000000E+03  0.17120000000E+03 0.  0.
         13    1    1    2    0    0 -0.29810162054E+02  0.43597052343E+02  0.19951708608E+03  0.20638901990E+03  0.10566000000E+00 0.  1.
        994    1    1    2    0    0  0.96844927124E+01 -0.29175987586E+02  0.10184202437E+02  0.17423600555E+03  0.17120000000E+03 0.  0.
        998    1    1    2    0    0  0.20125669341E+02 -0.14421064757E+02  0.12902987078E+04  0.12905749745E+04  0.10000000000E+02 0.  1.
</event>
<event>
 5    1  0.1369527E-008  0.3769959E+03  0.7957747E-01  0.3464344E+00
         13   -1    0    0    0    0  0.00000000000E+00  0.00000000000E+00  0.14999999963E+04  0.15000000000E+04  0.10566000000E+00 0. -1.
        994   -1    0    0    0    0 -0.00000000000E+00 -0.00000000000E+00  0.11368683772E-12  0.17120000000E+03  0.17120000000E+03 0.  0.
         13    1    1    2    0    0 -0.42662122335E+01  0.40708723603E+02  0.14038253937E+03  0.14622814117E+03  0.10566000000E+00 0. -1.
        994    1    1    2    0    0 -0.41481288169E+01 -0.32420082347E+02  0.92727927389E+01  0.17453851551E+03  0.17120000000E+03 0.  0.
        998    1    1    2    0    0  0.84143410504E+01 -0.82886412562E+01  0.13503446642E+04  0.13504333433E+04  0.10000000000E+02 0.  0.
</event>
<event>
 5    1  0.1369527E-008  0.3701845E+03  0.7957747E-01  0.3495043E+00
         13   -1    0    0    0    0  0.00000000000E+00  0.00000000000E+00  0.14999999963E+04  0.15000000000E+04  0.10566000000E+00 0. -1.
        994   -1    0    0    0    0 -0.00000000000E+00 -0.00000000000E+00  0.11368683772E-12  0.17120000000E+03  0.17120000000E+03 0.  0.
         13    1    1    2    0    0 -0.38341686268E+01  0.18746199398E+02  0.11698228973E+02  0.22427228230E+02  0.10566000000E+00 0. -1.
        994    1    1    2    0    0 -0.64898302181E+01 -0.17014310140E+02  0.12197256516E+02  0.17259727029E+03  0.17120000000E+03 0.  0.
        998    1    1    2    0    0  0.10323998845E+02 -0.17318892575E+01  0.14761045108E+04  0.14761755015E+04  0.10000000000E+02 0. -1.
</event>
<event>
 5    1  0.1369527E-008  0.3851776E+03  0.7957747E-01  0.3428919E+00
         13   -1    0    0    0    0  0.00000000000E+00  0.00000000000E+00  0.14999999963E+04  0.15000000000E+04  0.10566000000E+00 0.  1.
        994   -1    0    0    0    0 -0.00000000000E+00 -0.00000000000E+00  0.11368683772E-12  0.17120000000E+03  0.17120000000E+03 0.  0.
         13    1    1    2    0    0 -0.10824684684E+02 -0.13258992236E+02  0.90272209759E+02  0.91880670940E+02  0.10566000000E+00 0.  1.
        994    1    1    2    0    0  0.31241715258E+02 -0.99438657740E+00  0.47598469818E+01  0.17409517432E+03  0.17120000000E+03 0.  0.
        998    1    1    2    0    0 -0.20417030574E+02  0.14253378813E+02  0.14049679395E+04  0.14052241547E+04  0.10000000000E+02 0.  1.
</event>
<event>
 5    1  0.1369527E-008  0.4059396E+03  0.7957747E-01  0.3345446E+00
         13   -1    0    0    0    0  0.00000000000E+00  0.00000000000E+00  0.14999999963E+04  0.15000000000E+04  0.10566000000E+00 0.  1.
        994   -1    0    0    0    0 -0.00000000000E+00 -0.00000000000E+00  0.11368683772E-12  0.17120000000E+03  0.17120000000E+03 0.  0.
         13    1    1    2    0    0  0.10494284821E+03  0.50954392669E+02  0.18965955210E+03  0.22266591205E+03  0.10566000000E+00 0.  1.
        994    1    1    2    0    0 -0.10060314855E+03 -0.30324676718E+02  0.77237969046E+02  0.21521088118E+03  0.17120000000E+03 0.  0.
        998    1    1    2    0    0 -0.43396996627E+01 -0.20629715952E+02  0.12331024751E+04  0.12333232068E+04  0.10000000000E+02 0.  1.
</event>
<event>
 5    1  0.1369527E-008  0.3771870E+03  0.7957747E-01  0.3463499E+00
         13   -1    0    0    0    0  0.00000000000E+00  0.00000000000E+00  0.14999999963E+04  0.15000000000E+04  0.10566000000E+00 0. -1.
        994   -1    0    0    0    0 -0.00000000000E+00 -0.00000000000E+00  0.11368683772E-12  0.17120000000E+03  0.17120000000E+03 0.  0.
         13    1    1    2    0    0  0.15765872507E+02  0.10582264521E+02  0.30202777728E+02  0.35675846238E+02  0.10566000000E+00 0. -1.
        994    1    1    2    0    0 -0.15091197687E+02  0.38175076159E+00  0.63292354018E+01  0.17198078149E+03  0.17120000000E+03 0.  0.
        998    1    1    2    0    0 -0.67467482036E+00 -0.10964015283E+02  0.14634679831E+04  0.14635433723E+04  0.10000000000E+02 0. -1.
</event>
<event>
 5    1  0.1369527E-008  0.3706524E+03  0.7957747E-01  0.3492898E+00
         13   -1    0    0    0    0  0.00000000000E+00  0.00000000000E+00  0.14999999963E+04  0.15000000000E+04  0.10566000000E+00 0. -1.
        994   -1    0    0    0    0 -0.00000000000E+00 -0.00000000000E+00  0.11368683772E-12  0.17120000000E+03  0.17120000000E+03 0.  0.
         13    1    1    2    0    0 -0.72013132670E+02  0.40497854015E+02  0.34351294763E+03  0.35330882215E+03  0.10566000000E+00 0. -1.
        994    1    1    2    0    0  0.46996854182E+02  0.23329660217E+02  0.20993735036E+02  0.18028631190E+03  0.17120000000E+03 0.  0.
        998    1    1    2    0    0  0.25016278488E+02 -0.63827514232E+02  0.11354933136E+04  0.11376048659E+04  0.10000000000E+02 0. -1.
</event>
<event>
 5    1  0.1369527E-008  0.2640158E+03  0.7957747E-01  0.4191932E+00
         13   -1    0    0    0    0  0.00000000000E+00  0.00000000000E+00  0.14999999963E+04  0.15000000000E+04  0.10566000000E+00 0. -1.
        994   -1    0    0    0    0 -0.00000000000E+00 -0.00000000000E+00  0.11368683772E-12  0.17120000000E+03  0.17120000000E+03 0.  0.
         13    1    1    2    0    0 -0.12874367993E+03  0.15323237460E+03  0.34833115229E+03  0.40173336750E+03  0.10566000000E+00 0. -1.
        994    1    1    2    0    0  0.12937961651E+03 -0.12321102601E+03  0.20242615368E+03  0.31969646509E+03  0.17120000000E+03 0.  0.
        998    1    1    2    0    0 -0.63593657614E+00 -0.30021348588E+02  0.94924269031E+03  0.94977016740E+03  0.10000000000E+02 0. -1.
</event>
<event>
 5    1  0.1369527E-008  0.3847107E+03  0.7957747E-01  0.3430900E+00
         13   -1    0    0    0    0  0.00000000000E+00  0.00000000000E+00  0.14999999963E+04  0.15000000000E+04  0.10566000000E+00 0.  1.
        994   -1    0    0    0    0 -0.00000000000E+00 -0.00000000000E+00  0.11368683772E-12  0.17120000000E+03  0.17120000000E+03 0.  0.
         13    1    1    2    0    0  0.10624496897E+02  0.61274596951E+01  0.46287670818E+02  0.47885126401E+02  0.10566000000E+00 0.  1.
        994    1    1    2    0    0 -0.18880336741E+01  0.21623334288E+02  0.33262249007E+01  0.17260254062E+03  0.17120000000E+03 0.  0.
        998    1    1    2    0    0 -0.87364632231E+01 -0.27750793983E+02  0.14503861006E+04  0.14507123330E+04  0.10000000000E+02 0.  1.
</event>
<event>
 5    1  0.1551417E-008  0.3855394E+03  0.7957747E-01  0.3427388E+00
         13   -1    0    0    0    0  0.00000000000E+00  0.00000000000E+00  0.14999999963E+04  0.15000000000E+04  0.10566000000E+00 0.  1.
        994   -1    0    0    0    0 -0.00000000000E+00 -0.00000000000E+00  0.11368683772E-12  0.17120000000E+03  0.17120000000E+03 0.  0.
         13    1    1    2    0    0  0.35491075465E+01  0.11918099448E+02  0.59416307440E+02  0.60703756166E+02  0.10566000000E+00 0.  1.
        994    1    1    2    0    0 -0.32605200316E+01 -0.13125990638E+01  0.14031156947E+01  0.17124182503E+03  0.17120000000E+03 0.  0.
        998    1    1    2    0    0 -0.28858751499E+00 -0.10605500384E+02  0.14391805731E+04  0.14392544188E+04  0.10000000000E+02 0.  1.
</event>
<event>
 5    1  0.1369527E-008  0.3722064E+03  0.7957747E-01  0.3485812E+00
         13   -1    0    0    0    0  0.00000000000E+00  0.00000000000E+00  0.14999999963E+04  0.15000000000E+04  0.10566000000E+00 0.  1.
        994   -1    0    0    0    0 -0.00000000000E+00 -0.00000000000E+00  0.11368683772E-12  0.17120000000E+03  0.17120000000E+03 0.  0.
         13    1    1    2    0    0 -0.32599224173E+02  0.21053231414E+02  0.10347352197E+03  0.11051121609E+03  0.10566000000E+00 0.  1.
        994    1    1    2    0    0 -0.13741761655E+01  0.18224529193E+02  0.92674053074E+01  0.17242200157E+03  0.17120000000E+03 0.  0.
        998    1    1    2    0    0  0.33973400339E+02 -0.39277760608E+02  0.13872590690E+04  0.13882667823E+04  0.10000000000E+02 0.  1.
</event>
<event>
 5    1  0.1369527E-008  0.3770903E+03  0.7957747E-01  0.3463926E+00
         13   -1    0    0    0    0  0.00000000000E+00  0.00000000000E+00  0.14999999963E+04  0.15000000000E+04  0.10566000000E+00 0. -1.
        994   -1    0    0    0    0 -0.00000000000E+00 -0.00000000000E+00  0.11368683772E-12  0.17120000000E+03  0.17120000000E+03 0.  0.
         13    1    1    2    0    0 -0.20605144959E+02 -0.51624775737E+02  0.24954397312E+03  0.25565972532E+03  0.10566000000E+00 0. -1.
        994    1    1    2    0    0  0.10610382983E+02  0.43757250571E+02  0.12482851218E+02  0.17746137264E+03  0.17120000000E+03 0.  0.
        998    1    1    2    0    0  0.99947619763E+01  0.78675251659E+01  0.12379731719E+04  0.12380789020E+04  0.10000000000E+02 0. -1.
</event>
<event>
 5    1  0.1369527E-008  0.3853390E+03  0.7957747E-01  0.3428236E+00
         13   -1    0    0    0    0  0.00000000000E+00  0.00000000000E+00  0.14999999963E+04  0.15000000000E+04  0.10566000000E+00 0.  1.
        994   -1    0    0    0    0 -0.00000000000E+00 -0.00000000000E+00  0.11368683772E-12  0.17120000000E+03  0.17120000000E+03 0.  0.
         13    1    1    2    0    0 -0.15672000920E+02 -0.86786195099E+01  0.10799183597E+03  0.10946770231E+03  0.10566000000E+00 0.  1.
        994    1    1    2    0    0  0.11982426925E+02  0.65368138536E+01  0.20741699628E+01  0.17175578788E+03  0.17120000000E+03 0.  0.
        998    1    1    2    0    0  0.36895739945E+01  0.21418056563E+01  0.13899339904E+04  0.13899765098E+04  0.10000000000E+02 0.  1.
</event>
<event>
 5    1  0.1369527E-008  0.3816102E+03  0.7957747E-01  0.3444177E+00
         13   -1    0    0    0    0  0.00000000000E+00  0.00000000000E+00  0.14999999963E+04  0.15000000000E+04  0.10566000000E+00 0.  1.
        994   -1    0    0    0    0 -0.00000000000E+00 -0.00000000000E+00  0.11368683772E-12  0.17120000000E+03  0.17120000000E+03 0.  0.
         13    1    1    2    0    0  0.67507196145E+01  0.94365665887E+01  0.19174462853E+02  0.22411876183E+02  0.10566000000E+00 0.  1.
        994    1    1    2    0    0  0.10325116029E+00 -0.42201920213E+01  0.33817833114E+01  0.17128542594E+03  0.17120000000E+03 0.  0.
        998    1    1    2    0    0 -0.68539707748E+01 -0.52163745674E+01  0.14774437501E+04  0.14775026979E+04  0.10000000000E+02 0.  1.
</event>
<event>
 5    1  0.1369527E-008  0.3818482E+03  0.7957747E-01  0.3443150E+00
         13   -1    0    0    0    0  0.00000000000E+00  0.00000000000E+00  0.14999999963E+04  0.15000000000E+04  0.10566000000E+00 0.  1.
        994   -1    0    0    0    0 -0.00000000000E+00 -0.00000000000E+00  0.11368683772E-12  0.17120000000E+03  0.17120000000E+03 0.  0.
         13    1    1    2    0    0 -0.45320165229E+01 -0.17671759313E+02  0.57325362030E+02  0.60158445349E+02  0.10566000000E+00 0.  1.
        994    1    1    2    0    0 -0.47806040212E+02 -0.17561801715E+01  0.10844515969E+02  0.17808858800E+03  0.17120000000E+03 0.  0.
        998    1    1    2    0    0  0.52338056735E+02  0.19427939485E+02  0.14318301183E+04  0.14329529666E+04  0.10000000000E+02 0.  1.
</event>
<event>
 5    1  0.1369527E-008  0.3834758E+03  0.7957747E-01  0.3436162E+00
         13   -1    0    0    0    0  0.00000000000E+00  0.00000000000E+00  0.14999999963E+04  0.15000000000E+04  0.10566000000E+00 0.  1.
        994   -1    0    0    0    0 -0.00000000000E+00 -0.00000000000E+00  0.11368683772E-12  0.17120000000E+03  0.17120000000E+03 0.  0.
         13    1    1    2    0    0  0.25545421961E+02 -0.10925018903E+02  0.12545901167E+03  0.12849863577E+03  0.10566000000E+00 0.  1.
        994    1    1    2    0    0 -0.48375063897E+02  0.18921717654E+02  0.11357787798E+02  0.17926688916E+03  0.17120000000E+03 0.  0.
        998    1    1    2    0    0  0.22829641935E+02 -0.79966987509E+01  0.13631831968E+04  0.13634344751E+04  0.10000000000E+02 0.  1.
</event>
<event>
 5    1  0.1369527E-008  0.3708672E+03  0.7957747E-01  0.3491915E+00
         13   -1    0    0    0    0  0.00000000000E+00  0.00000000000E+00  0.14999999963E+04  0.15000000000E+04  0.10566000000E+00 0.  1.
        994   -1    0    0    0    0 -0.00000000000E+00 -0.00000000000E+00  0.11368683772E-12  0.17120000000E+03  0.17120000000E+03 0.  0.
         13    1    1    2    0    0 -0.24175985867E+02  0.37824973023E+02  0.83361994426E+02  0.94680727477E+02  0.10566000000E+00 0.  1.
        994    1    1    2    0    0  0.19810075636E+02 -0.26265692495E+02  0.15202854644E+02  0.17499397843E+03  0.17120000000E+03 0.  0.
        998    1    1    2    0    0  0.43659102316E+01 -0.11559280528E+02  0.14014351472E+04  0.14015252941E+04  0.10000000000E+02 0.  1.
</event>
<event>
 5    1  0.1369527E-008  0.3835023E+03  0.7957747E-01  0.3436049E+00
         13   -1    0    0    0    0  0.00000000000E+00  0.00000000000E+00  0.14999999963E+04  0.15000000000E+04  0.10566000000E+00 0.  1.
        994   -1    0    0    0    0 -0.00000000000E+00 -0.00000000000E+00  0.11368683772E-12  0.17120000000E+03  0.17120000000E+03 0.  0.
         13    1    1    2    0    0  0.11855577364E+02  0.96058243101E+01  0.51138707615E+02  0.53366704562E+02  0.10566000000E+00 0.  1.
        994    1    1    2    0    0 -0.11805531963E+01  0.38503791698E+01  0.24291284942E+01  0.17126459001E+03  0.17120000000E+03 0.  0.
        998    1    1    2    0    0 -0.10675024168E+02 -0.13456203480E+02  0.14464321602E+04  0.14465687054E+04  0.10000000000E+02 0.  1.
</event>
<event>
 5    1  0.1369527E-008  0.3855438E+03  0.7957747E-01  0.3427369E+00
         13   -1    0    0    0    0  0.00000000000E+00  0.00000000000E+00  0.14999999963E+04  0.15000000000E+04  0.10566000000E+00 0.  1.
        994   -1    0    0    0    0 -0.00000000000E+00 -0.00000000000E+00  0.11368683772E-12  0.17120000000E+03  0.17120000000E+03 0.  0.
         13    1    1    2    0    0 -0.65471606922E+00  0.16016050061E+02  0.96047843471E+02  0.97376290298E+02  0.10566000000E+00 0.  1.
        994    1    1    2    0    0  0.53555863459E+01 -0.87894809258E+01  0.17082236725E+01  0.17151762390E+03  0.17120000000E+03 0.  0.
        998    1    1    2    0    0 -0.47008702767E+01 -0.72265691352E+01  0.14022439291E+04  0.14023060858E+04  0.10000000000E+02 0.  1.
</event>
<event>
 5    1  0.1369527E-008  0.3812741E+03  0.7957747E-01  0.3445630E+00
         13   -1    0    0    0    0  0.00000000000E+00  0.00000000000E+00  0.14999999963E+04  0.15000000000E+04  0.10566000000E+00 0.  1.
        994   -1    0    0    0    0 -0.00000000000E+00 -0.00000000000E+00  0.11368683772E-12  0.17120000000E+03  0.17120000000E+03 0.  0.
         13    1    1    2    0    0  0.82833427218E+01  0.22651494828E+02  0.87550576145E+02  0.90811995529E+02  0.10566000000E+00 0.  1.
        994    1    1    2    0    0 -0.10701746163E+01 -0.25715648641E+01  0.35172204259E+01  0.17125877805E+03  0.17120000000E+03 0.  0.
        998    1    1    2    0    0 -0.72131681056E+01 -0.20079929964E+02  0.14089321997E+04  0.14091292264E+04  0.10000000000E+02 0.  1.
</event>
<event>
 5    1  0.1369527E-008  0.3798258E+03  0.7957747E-01  0.3451917E+00
         13   -1    0    0    0    0  0.00000000000E+00  0.00000000000E+00  0.14999999963E+04  0.15000000000E+04  0.10566000000E+00 0. -1.
        994   -1    0    0    0    0 -0.00000000000E+00 -0.00000000000E+00  0.11368683772E-12  0.17120000000E+03  0.17120000000E+03 0.  0.
         13    1    1    2    0    0  0.55295356345E+01  0.29891233511E+02  0.11764092922E+03  0.12150498343E+03  0.10566000000E+00 0. -1.
        994    1    1    2    0    0 -0.60848242305E+01 -0.19789166267E+01  0.43580519938E+01  0.17137495095E+03  0.17120000000E+03 0.  0.
        998    1    1    2    0    0  0.55528859601E+00 -0.27912316884E+02  0.13780010151E+04  0.13783200656E+04  0.10000000000E+02 0. -1.
</event>
<event>
 5    1  0.1369527E-008  0.3800334E+03  0.7957747E-01  0.3451013E+00
         13   -1    0    0    0    0  0.00000000000E+00  0.00000000000E+00  0.14999999963E+04  0.15000000000E+04  0.10566000000E+00 0. -1.
        994   -1    0    0    0    0 -0.00000000000E+00 -0.00000000000E+00  0.11368683772E-12  0.17120000000E+03  0.17120000000E+03 0.  0.
         13    1    1    2    0    0  0.13752102881E+02 -0.25781891977E+02  0.10401159845E+03  0.10803818799E+03  0.10566000000E+00 0. -1.
        994    1    1    2    0    0 -0.73392436904E+01  0.12604774670E+02  0.48277314029E+01  0.17188802120E+03  0.17120000000E+03 0.  0.
        998    1    1    2    0    0 -0.64128591905E+01  0.13177117307E+02  0.13911606664E+04  0.13912737908E+04  0.10000000000E+02 0. -1.
</event>
<event>
 5    1  0.1607126E-008  0.3864125E+03  0.7957747E-01  0.3423704E+00
         13   -1    0    0    0    0  0.00000000000E+00  0.00000000000E+00  0.14999999963E+04  0.15000000000E+04  0.10566000000E+00 0. -1.
        994   -1    0    0    0    0 -0.00000000000E+00 -0.00000000000E+00  0.11368683772E-12  0.17120000000E+03  0.17120000000E+03 0.  0.
         13    1    1    2    0    0 -0.10040655256E+02 -0.20800104358E+01  0.55396537880E+02  0.56337631957E+02  0.10566000000E+00 0. -1.
        994    1    1    2    0    0  0.11320334224E+02  0.49425322075E+01  0.14301363831E+01  0.17165099441E+03  0.17120000000E+03 0.  0.
        998    1    1    2    0    0 -0.12796789683E+01 -0.28625217716E+01  0.14431733220E+04  0.14432113736E+04  0.10000000000E+02 0. -1.
</event>
<event>
 5    1  0.1369527E-008  0.3836052E+03  0.7957747E-01  0.3435609E+00
         13   -1    0    0    0    0  0.00000000000E+00  0.00000000000E+00  0.14999999963E+04  0.15000000000E+04  0.10566000000E+00 0. -1.
        994   -1    0    0    0    0 -0.00000000000E+00 -0.00000000000E+00  0.11368683772E-12  0.17120000000E+03  0.17120000000E+03 0.  0.
         13    1    1    2    0    0 -0.49492528340E+01  0.18042436428E+02  0.68381366986E+02  0.70894619900E+02  0.10566000000E+00 0. -1.
        994    1    1    2    0    0  0.14200554579E+02 -0.25544038544E+02  0.51510870403E+01  0.17375306430E+03  0.17120000000E+03 0.  0.
        998    1    1    2    0    0 -0.92513017454E+01  0.75016021167E+01  0.14264675423E+04  0.14265523158E+04  0.10000000000E+02 0. -1.
</event>
<event>
 5    1  0.3079106E-008  0.3865408E+03  0.7957747E-01  0.3423164E+00
         13   -1    0    0    0    0  0.00000000000E+00  0.00000000000E+00  0.14999999963E+04  0.15000000000E+04  0.10566000000E+00 0.  1.
        994   -1    0    0    0    0 -0.00000000000E+00 -0.00000000000E+00  0.11368683772E-12  0.17120000000E+03  0.17120000000E+03 0.  0.
         13    1    1    2    0    0 -0.95900550154E+01  0.28450532287E+01  0.55911819041E+02  0.56799702073E+02  0.10566000000E+00 0.  1.
        994    1    1    2    0    0  0.13616517389E+02 -0.20008291739E+01  0.14871436449E+01  0.17175873911E+03  0.17120000000E+03 0.  0.
        998    1    1    2    0    0 -0.40264623740E+01 -0.84422405476E+00  0.14426010336E+04  0.14426415588E+04  0.10000000000E+02 0.  1.
</event>
<event>
 5    1  0.1369527E-008  0.3789581E+03  0.7957747E-01  0.3455708E+00
         13   -1    0    0    0    0  0.00000000000E+00  0.00000000000E+00  0.14999999963E+04  0.15000000000E+04  0.10566000000E+00 0.  1.
        994   -1    0    0    0    0 -0.00000000000E+00 -0.00000000000E+00  0.11368683772E-12  0.17120000000E+03  0.17120000000E+03 0.  0.
         13    1    1    2    0    0  0.13325805748E+02  0.32050182094E+01  0.18606319431E+02  0.23109641437E+02  0.10566000000E+00 0.  1.
        994    1    1    2    0    0  0.71655444075E+00 -0.48531205098E+01  0.47407347091E+01  0.17133587130E+03  0.17120000000E+03 0.  0.
        998    1    1    2    0    0 -0.14042360189E+02  0.16481023004E+01  0.14766529421E+04  0.14767544873E+04  0.10000000000E+02 0.  1.
</event>
<event>
 5    1  0.1369527E-008  0.3838632E+03  0.7957747E-01  0.3434508E+00
         13   -1    0    0    0    0  0.00000000000E+00  0.00000000000E+00  0.14999999963E+04  0.15000000000E+04  0.10566000000E+00 0. -1.
        994   -1    0    0    0    0 -0.00000000000E+00 -0.00000000000E+00  0.11368683772E-12  0.17120000000E+03  0.17120000000E+03 0.  0.
         13    1    1    2    0    0 -0.14060795050E+02 -0.16618532947E+02  0.11401280036E+03  0.11607244033E+03  0.10566000000E+00 0. -1.
        994    1    1    2    0    0  0.67479159250E+01  0.15027456406E+01  0.23533442804E+01  0.17135568518E+03  0.17120000000E+03 0.  0.
        998    1    1    2    0    0  0.73128791255E+01  0.15115787306E+02  0.13836338516E+04  0.13837718745E+04  0.10000000000E+02 0. -1.
</event>
<event>
 5    1  0.1369527E-008  0.3852060E+03  0.7957747E-01  0.3428799E+00
         13   -1    0    0    0    0  0.00000000000E+00  0.00000000000E+00  0.14999999963E+04  0.15000000000E+04  0.10566000000E+00 0. -1.
        994   -1    0    0    0    0 -0.00000000000E+00 -0.00000000000E+00  0.11368683772E-12  0.17120000000E+03  0.17120000000E+03 0.  0.
         13    1    1    2    0    0  0.14172020192E+02  0.10592730643E+02  0.97073589956E+02  0.98672919942E+02  0.10566000000E+00 0. -1.
        994    1    1    2    0    0 -0.97782689940E+01 -0.17860923388E+02  0.28917396215E+01  0.17243094063E+03  0.17120000000E+03 0.  0.
        998    1    1    2    0    0 -0.43937511976E+01  0.72681927448E+01  0.14000346667E+04  0.14000961394E+04  0.10000000000E+02 0. -1.
</event>
<event>
 5    1  0.1369527E-008  0.3829391E+03  0.7957747E-01  0.3438460E+00
         13   -1    0    0    0    0  0.00000000000E+00  0.00000000000E+00  0.14999999963E+04  0.15000000000E+04  0.10566000000E+00 0.  1.
        994   -1    0    0    0    0 -0.00000000000E+00 -0.00000000000E+00  0.11368683772E-12  0.17120000000E+03  0.17120000000E+03 0.  0.
         13    1    1    2    0    0  0.38880080094E+01 -0.11735268602E+02  0.28382966729E+02  0.30958635303E+02  0.10566000000E+00 0.  1.
        994    1    1    2    0    0 -0.36009320217E+01  0.20063559425E+01  0.27130581251E+01  0.17127110924E+03  0.17120000000E+03 0.  0.
        998    1    1    2    0    0 -0.28707598767E+00  0.97289126590E+01  0.14689039714E+04  0.14689702555E+04  0.10000000000E+02 0.  1.
</event>
<event>
 5    1  0.1369527E-008  0.3797886E+03  0.7957747E-01  0.3452079E+00
         13   -1    0    0    0    0  0.00000000000E+00  0.00000000000E+00  0.14999999963E+04  0.15000000000E+04  0.10566000000E+00 0. -1.
        994   -1    0    0    0    0 -0.00000000000E+00 -0.00000000000E+00  0.11368683772E-12  0.17120000000E+03  0.17120000000E+03 0.  0.
         13    1    1    2    0    0 -0.64617143089E+02 -0.92046149912E+00  0.25971047296E+03  0.26762989997E+03  0.10566000000E+00 0. -1.
        994    1    1    2    0    0  0.11929735737E+03 -0.45667275304E+01  0.53495222337E+02  0.21546204605E+03  0.17120000000E+03 0.  0.
        998    1    1    2    0    0 -0.54680214283E+02  0.54871890295E+01  0.11867943010E+04  0.11881080540E+04  0.10000000000E+02 0. -1.
</event>
<event>
 5    1  0.1369527E-008  0.3807564E+03  0.7957747E-01  0.3447872E+00
         13   -1    0    0    0    0  0.00000000000E+00  0.00000000000E+00  0.14999999963E+04  0.15000000000E+04  0.10566000000E+00 0. -1.
        994   -1    0    0    0    0 -0.00000000000E+00 -0.00000000000E+00  0.11368683772E-12  0.17120000000E+03  0.17120000000E+03 0.  0.
         13    1    1    2    0    0 -0.11373514137E+02  0.21878261015E+02  0.77647120983E+02  0.81468409152E+02  0.10566000000E+00 0. -1.
        994    1    1    2    0    0  0.49391328955E+00 -0.23474116195E+02  0.55922517693E+01  0.17289300553E+03  0.17120000000E+03 0.  0.
        998    1    1    2    0    0  0.10879600847E+02  0.15958551797E+01  0.14167606235E+04  0.14168385853E+04  0.10000000000E+02 0. -1.
</event>
<event>
 5    1  0.1369527E-008  0.3837630E+03  0.7957747E-01  0.3434935E+00
         13   -1    0    0    0    0  0.00000000000E+00  0.00000000000E+00  0.14999999963E+04  0.15000000000E+04  0.10566000000E+00 0. -1.
        994   -1    0    0    0    0 -0.00000000000E+00 -0.00000000000E+00  0.11368683772E-12  0.17120000000E+03  0.17120000000E+03 0.  0.
         13    1    1    2    0    0 -0.52636840949E+01 -0.88947864765E+01  0.23541361528E+02  0.25710512701E+02  0.10566000000E+00 0. -1.
        994    1    1    2    0    0 -0.43893654210E+01  0.40131554258E+01  0.23623164631E+01  0.17131956247E+03  0.17120000000E+03 0.  0.
        998    1    1    2    0    0  0.96530495159E+01  0.48816310507E+01  0.14740963183E+04  0.14741699248E+04  0.10000000000E+02 0. -1.
</event>
<event>
 5    1  0.1369527E-008  0.3830804E+03  0.7957747E-01  0.3437854E+00
         13   -1    0    0    0    0  0.00000000000E+00  0.00000000000E+00  0.14999999963E+04  0.15000000000E+04  0.10566000000E+00 0. -1.
        994   -1    0    0    0    0 -0.00000000000E+00 -0.00000000000E+00  0.11368683772E-12  0.17120000000E+03  0.17120000000E+03 0.  0.
         13    1    1    2    0    0 -0.21976119189E+02 -0.15140617350E+02  0.13492246040E+03  0.13753643005E+03  0.10566000000E+00 0. -1.
        994    1    1    2    0    0  0.83290719459E+01  0.20185787145E+02  0.41657658621E+01  0.17263728753E+03  0.17120000000E+03 0.  0.
        998    1    1    2    0    0  0.13647047243E+02 -0.50451697947E+01  0.13609117700E+04  0.13610262824E+04  0.10000000000E+02 0. -1.
</event>
<event>
 5    1  0.1369527E-008  0.3831609E+03  0.7957747E-01  0.3437510E+00
         13   -1    0    0    0    0  0.00000000000E+00  0.00000000000E+00  0.14999999963E+04  0.15000000000E+04  0.10566000000E+00 0.  1.
        994   -1    0    0    0    0 -0.00000000000E+00 -0.00000000000E+00  0.11368683772E-12  0.17120000000E+03  0.17120000000E+03 0.  0.
         13    1    1    2    0    0 -0.45762576596E+01  0.10547101889E+02  0.24875700933E+02  0.27404290784E+02  0.10566000000E+00 0.  1.
        994    1    1    2    0    0  0.53634526676E+01 -0.89054237486E+01  0.29035934904E+01  0.17153991970E+03  0.17120000000E+03 0.  0.
        998    1    1    2    0    0 -0.78719500806E+00 -0.16416781403E+01  0.14722207019E+04  0.14722557895E+04  0.10000000000E+02 0.  1.
</event>
<event>
 5    1  0.1369527E-008  0.3790161E+03  0.7957747E-01  0.3455454E+00
         13   -1    0    0    0    0  0.00000000000E+00  0.00000000000E+00  0.14999999963E+04  0.15000000000E+04  0.10566000000E+00 0. -1.
        994   -1    0    0    0    0 -0.00000000000E+00 -0.00000000000E+00  0.11368683772E-12  0.17120000000E+03  0.17120000000E+03 0.  0.
         13    1    1    2    0    0  0.14238633688E+01 -0.27506263770E+02  0.87613889649E+02  0.91841312909E+02  0.10566000000E+00 0. -1.
        994    1    1    2    0    0  0.14977964690E+02 -0.90805464896E+00  0.53861372372E+01  0.17194072951E+03  0.17120000000E+03 0.  0.
        998    1    1    2    0    0 -0.16401828059E+02  0.28414318419E+02  0.14069999694E+04  0.14074179576E+04  0.10000000000E+02 0. -1.
</event>
<event>
 5    1  0.1369527E-008  0.3774935E+03  0.7957747E-01  0.3462146E+00
         13   -1    0    0    0    0  0.00000000000E+00  0.00000000000E+00  0.14999999963E+04  0.15000000000E+04  0.10566000000E+00 0.  1.
        994   -1    0    0    0    0 -0.00000000000E+00 -0.00000000000E+00  0.11368683772E-12  0.17120000000E+03  0.17120000000E+03 0.  0.
         13    1    1    2    0    0  0.62432531824E+01 -0.13188706095E+02  0.17412467652E+02  0.22718392825E+02  0.10566000000E+00 0.  1.
        994    1    1    2    0    0 -0.14147087597E+02  0.35892570565E+01  0.61222012780E+01  0.17193005613E+03  0.17120000000E+03 0.  0.
        998    1    1    2    0    0  0.79038344147E+01  0.95994490388E+01  0.14764653273E+04  0.14765515510E+04  0.10000000000E+02 0.  1.
</event>
<event>
 5    1  0.1369527E-008  0.3800742E+03  0.7957747E-01  0.3450835E+00
         13   -1    0    0    0    0  0.00000000000E+00  0.00000000000E+00  0.14999999963E+04  0.15000000000E+04  0.10566000000E+00 0. -1.
        994   -1    0    0    0    0 -0.00000000000E+00 -0.00000000000E+00  0.11368683772E-12  0.17120000000E+03  0.17120000000E+03 0.  0.
         13    1    1    2    0    0 -0.37536254889E+02 -0.12108281618E+01  0.14239495170E+03  0.14726428613E+03  0.10566000000E+00 0. -1.
        994    1    1    2    0    0  0.52525280955E+02 -0.60022556707E+01  0.13493770777E+02  0.17968431780E+03  0.17120000000E+03 0.  0.
        998    1    1    2    0    0 -0.14989026066E+02  0.72130838326E+01  0.13441112738E+04  0.13442513961E+04  0.10000000000E+02 0. -1.
</event>
<event>
 5    1  0.1369527E-008  0.3789283E+03  0.7957747E-01  0.3455838E+00
         13   -1    0    0    0    0  0.00000000000E+00  0.00000000000E+00  0.14999999963E+04  0.15000000000E+04  0.10566000000E+00 0. -1.
        994   -1    0    0    0    0 -0.00000000000E+00 -0.00000000000E+00  0.11368683772E-12  0.17120000000E+03  0.17120000000E+03 0.  0.
         13    1    1    2    0    0  0.34852323943E+02  0.37341973928E+02  0.24216062951E+03  0.24748916976E+03  0.10566000000E+00 0. -1.
        994    1    1    2    0    0 -0.39936114939E+02 -0.27294378601E+02  0.12565340456E+02  0.17834574332E+03  0.17120000000E+03 0.  0.
        998    1    1    2    0    0  0.50837909964E+01 -0.10047595327E+02  0.12452740263E+04  0.12453650869E+04  0.10000000000E+02 0. -1.
</event>
<event>
 5    1  0.1369527E-008  0.3766733E+03  0.7957747E-01  0.3465773E+00
         13   -1    0    0    0    0  0.00000000000E+00  0.00000000000E+00  0.14999999963E+04  0.15000000000E+04  0.10566000000E+00 0. -1.
        994   -1    0    0    0    0 -0.00000000000E+00 -0.00000000000E+00  0.11368683772E-12  0.17120000000E+03  0.17120000000E+03 0.  0.
         13    1    1    2    0    0 -0.47859711698E+02  0.21286146447E+02  0.20471589286E+03  0.21131081371E+03  0.10566000000E+00 0. -1.
        994    1    1    2    0    0  0.46774286779E+02 -0.20722296203E+02  0.14720279013E+02  0.17928573306E+03  0.17120000000E+03 0.  0.
        998    1    1    2    0    0  0.10854249193E+01 -0.56385024366E+00  0.12805638244E+04  0.12806034532E+04  0.10000000000E+02 0.  0.
</event>
<event>
 5    1  0.1369527E-008  0.3752136E+03  0.7957747E-01  0.3472268E+00
         13   -1    0    0    0    0  0.00000000000E+00  0.00000000000E+00  0.14999999963E+04  0.15000000000E+04  0.10566000000E+00 0. -1.
        994   -1    0    0    0    0 -0.00000000000E+00 -0.00000000000E+00  0.11368683772E-12  0.17120000000E+03  0.17120000000E+03 0.  0.
         13    1    1    2    0    0 -0.20686172007E+02 -0.44093155087E+02  0.19836259265E+03  0.20425438395E+03  0.10566000000E+00 0. -1.
        994    1    1    2    0    0  0.10128875672E+02  0.72640530068E+01  0.70969944914E+01  0.17179979022E+03  0.17120000000E+03 0.  0.
        998    1    1    2    0    0  0.10557296334E+02  0.36829102080E+02  0.12945404091E+04  0.12951458258E+04  0.10000000000E+02 0. -1.
</event>
<event>
 5    1  0.1369527E-008  0.3856116E+03  0.7957747E-01  0.3427083E+00
         13   -1    0    0    0    0  0.00000000000E+00  0.00000000000E+00  0.14999999963E+04  0.15000000000E+04  0.10566000000E+00 0.  1.
        994   -1    0    0    0    0 -0.00000000000E+00 -0.00000000000E+00  0.11368683772E-12  0.17120000000E+03  0.17120000000E+03 0.  0.
         13    1    1    2    0    0 -0.85882421637E+01 -0.84623558015E+01  0.60436400700E+02  0.61627421354E+02  0.10566000000E+00 0.  1.
        994    1    1    2    0    0 -0.14263269905E+02  0.72774396311E+01  0.21688034998E+01  0.17196088423E+03  0.17120000000E+03 0.  0.
        998    1    1    2    0    0  0.22851512069E+02  0.11849161703E+01  0.14373947921E+04  0.14376116944E+04  0.10000000000E+02 0.  1.
</event>
<event>
 5    1  0.1369527E-008  0.3731333E+03  0.7957747E-01  0.3481614E+00
         13   -1    0    0    0    0  0.00000000000E+00  0.00000000000E+00  0.14999999963E+04  0.15000000000E+04  0.10566000000E+00 0.  1.
        994   -1    0    0    0    0 -0.00000000000E+00 -0.00000000000E+00  0.11368683772E-12  0.17120000000E+03  0.17120000000E+03 0.  0.
         13    1    1    2    0    0 -0.26055254316E+02 -0.50169321381E+02  0.13547215234E+03  0.14679425162E+03  0.10566000000E+00 0.  1.
        994    1    1    2    0    0  0.77044787600E+01  0.67754945390E+01  0.12977457637E+02  0.17199744395E+03  0.17120000000E+03 0.  0.
        998    1    1    2    0    0  0.18350775556E+02  0.43393826842E+02  0.13515503863E+04  0.13524083044E+04  0.10000000000E+02 0.  1.
</event>
<event>
 5    1  0.1369527E-008  0.3858433E+03  0.7957747E-01  0.3426104E+00
         13   -1    0    0    0    0  0.00000000000E+00  0.00000000000E+00  0.14999999963E+04  0.15000000000E+04  0.10566000000E+00 0. -1.
        994   -1    0    0    0    0 -0.00000000000E+00 -0.00000000000E+00  0.11368683772E-12  0.17120000000E+03  0.17120000000E+03 0.  0.
         13    1    1    2    0    0 -0.10700668887E+01  0.11237687660E+02  0.56203449223E+02  0.57325993543E+02  0.10566000000E+00 0. -1.
        994    1    1    2    0    0  0.32223831800E+01  0.11111210463E+01  0.12501521883E+01  0.17123849224E+03  0.17120000000E+03 0.  0.
        998    1    1    2    0    0 -0.21523162912E+01 -0.12348808707E+02  0.14425463949E+04  0.14426355142E+04  0.10000000000E+02 0. -1.
</event>
<event>
 5    1  0.1369527E-008  0.3859457E+03  0.7957747E-01  0.3425671E+00
         13   -1    0    0    0    0  0.00000000000E+00  0.00000000000E+00  0.14999999963E+04  0.15000000000E+04  0.10566000000E+00 0. -1.
        994   -1    0    0    0    0 -0.00000000000E+00 -0.00000000000E+00  0.11368683772E-12  0.17120000000E+03  0.17120000000E+03 0.  0.
         13    1    1    2    0    0  0.10781263396E+02  0.65215462980E+01  0.69951730949E+02  0.71077577570E+02  0.10566000000E+00 0. -1.
        994    1    1    2    0    0 -0.11187956921E+02  0.51004682281E+01  0.16571608350E+01  0.17164897710E+03  0.17120000000E+03 0.  0.
        998    1    1    2    0    0  0.40669352446E+00 -0.11622014526E+02  0.14283911045E+04  0.14284734453E+04  0.10000000000E+02 0. -1.
</event>
<event>
 5    1  0.1369527E-008  0.3828965E+03  0.7957747E-01  0.3438642E+00
         13   -1    0    0    0    0  0.00000000000E+00  0.00000000000E+00  0.14999999963E+04  0.15000000000E+04  0.10566000000E+00 0. -1.
        994   -1    0    0    0    0 -0.00000000000E+00 -0.00000000000E+00  0.11368683772E-12  0.17120000000E+03  0.17120000000E+03 0.  0.
         13    1    1    2    0    0 -0.24418422341E+02  0.81419046805E+01  0.13592192694E+03  0.13833774376E+03  0.10566000000E+00 0. -1.
        994    1    1    2    0    0  0.95693263595E-01 -0.63812377327E+01  0.28129577013E+01  0.17134200327E+03  0.17120000000E+03 0.  0.
        998    1    1    2    0    0  0.24322729077E+02 -0.17606669478E+01  0.13612651116E+04  0.13615202530E+04  0.10000000000E+02 0. -1.
</event>
<event>
 5    1  0.1369527E-008  0.3811776E+03  0.7957747E-01  0.3446047E+00
         13   -1    0    0    0    0  0.00000000000E+00  0.00000000000E+00  0.14999999963E+04  0.15000000000E+04  0.10566000000E+00 0.  1.
        994   -1    0    0    0    0 -0.00000000000E+00 -0.00000000000E+00  0.11368683772E-12  0.17120000000E+03  0.17120000000E+03 0.  0.
         13    1    1    2    0    0  0.89400832830E+01 -0.17849667220E+02  0.54759498738E+02  0.58285071631E+02  0.10566000000E+00 0.  1.
        994    1    1    2    0    0 -0.15785554032E+02  0.80021165836E+01  0.45835548512E+01  0.17217336194E+03  0.17120000000E+03 0.  0.
        998    1    1    2    0    0  0.68454707490E+01  0.98475506359E+01  0.14406569427E+04  0.14407415664E+04  0.10000000000E+02 0.  0.
</event>
<event>
 5    1  0.1369527E-008  0.3853376E+03  0.7957747E-01  0.3428242E+00
         13   -1    0    0    0    0  0.00000000000E+00  0.00000000000E+00  0.14999999963E+04  0.15000000000E+04  0.10566000000E+00 0.  1.
        994   -1    0    0    0    0 -0.00000000000E+00 -0.00000000000E+00  0.11368683772E-12  0.17120000000E+03  0.17120000000E+03 0.  0.
         13    1    1    2    0    0 -0.12667382324E+02 -0.58961745712E+01  0.70615973824E+02  0.71985098268E+02  0.10566000000E+00 0.  1.
        994    1    1    2    0    0  0.71162711160E+00  0.23921526813E+01  0.14831001259E+01  0.17122461387E+03  0.17120000000E+03 0.  0.
        998    1    1    2    0    0  0.11955755212E+02  0.35040218899E+01  0.14279009223E+04  0.14279902879E+04  0.10000000000E+02 0.  1.
</event>
<event>
 5    1  0.1369527E-008  0.3763926E+03  0.7957747E-01  0.3467018E+00
         13   -1    0    0    0    0  0.00000000000E+00  0.00000000000E+00  0.14999999963E+04  0.15000000000E+04  0.10566000000E+00 0.  1.
        994   -1    0    0    0    0 -0.00000000000E+00 -0.00000000000E+00  0.11368683772E-12  0.17120000000E+03  0.17120000000E+03 0.  0.
         13    1    1    2    0    0  0.10426970756E+02 -0.26447682941E+02  0.21869024906E+02  0.35867353770E+02  0.10566000000E+00 0.  1.
        994    1    1    2    0    0 -0.39746012396E+02  0.12335682378E+02  0.20579127493E+02  0.17738335618E+03  0.17120000000E+03 0.  0.
        998    1    1    2    0    0  0.29319041640E+02  0.14112000563E+02  0.14575518439E+04  0.14579492901E+04  0.10000000000E+02 0.  1.
</event>
<event>
 5    1  0.1369527E-008  0.3856802E+03  0.7957747E-01  0.3426792E+00
         13   -1    0    0    0    0  0.00000000000E+00  0.00000000000E+00  0.14999999963E+04  0.15000000000E+04  0.10566000000E+00 0. -1.
        994   -1    0    0    0    0 -0.00000000000E+00 -0.00000000000E+00  0.11368683772E-12  0.17120000000E+03  0.17120000000E+03 0.  0.
         13    1    1    2    0    0 -0.30034321947E+01  0.11618620455E+02  0.55202772961E+02  0.56492214091E+02  0.10566000000E+00 0. -1.
        994    1    1    2    0    0  0.22458398876E+01 -0.10250919706E+02  0.16542330929E+01  0.17152930257E+03  0.17120000000E+03 0.  0.
        998    1    1    2    0    0  0.75759230710E+00 -0.13677007488E+01  0.14431429902E+04  0.14431784833E+04  0.10000000000E+02 0. -1.
</event>
<event>
 5    1  0.1369527E-008  0.3800592E+03  0.7957747E-01  0.3450901E+00
         13   -1    0    0    0    0  0.00000000000E+00  0.00000000000E+00  0.14999999963E+04  0.15000000000E+04  0.10566000000E+00 0. -1.
        994   -1    0    0    0    0 -0.00000000000E+00 -0.00000000000E+00  0.11368683772E-12  0.17120000000E+03  0.17120000000E+03 0.  0.
         13    1    1    2    0    0  0.17061196559E+02  0.11839925965E+01  0.33127390703E+02  0.37281650249E+02  0.10566000000E+00 0. -1.
        994    1    1    2    0    0 -0.19539776414E+02 -0.74679204021E+01  0.55671324525E+01  0.17256304837E+03  0.17120000000E+03 0.  0.
        998    1    1    2    0    0  0.24785798546E+01  0.62839278055E+01  0.14613054731E+04  0.14613553014E+04  0.10000000000E+02 0. -1.
</event>
<event>
 5    1  0.1369527E-008  0.3851846E+03  0.7957747E-01  0.3428890E+00
         13   -1    0    0    0    0  0.00000000000E+00  0.00000000000E+00  0.14999999963E+04  0.15000000000E+04  0.10566000000E+00 0. -1.
        994   -1    0    0    0    0 -0.00000000000E+00 -0.00000000000E+00  0.11368683772E-12  0.17120000000E+03  0.17120000000E+03 0.  0.
         13    1    1    2    0    0  0.41592855917E+01  0.16777329158E+02  0.10216358406E+03  0.10361557557E+03  0.10566000000E+00 0. -1.
        994    1    1    2    0    0  0.20142230023E+00 -0.53608250345E+01  0.16330969087E+01  0.17129181540E+03  0.17120000000E+03 0.  0.
        998    1    1    2    0    0 -0.43607078919E+01 -0.11416504123E+02  0.13962033153E+04  0.13962926090E+04  0.10000000000E+02 0. -1.
</event>
<event>
 5    1  0.1369527E-008  0.3826484E+03  0.7957747E-01  0.3439707E+00
         13   -1    0    0    0    0  0.00000000000E+00  0.00000000000E+00  0.14999999963E+04  0.15000000000E+04  0.10566000000E+00 0.  1.
        994   -1    0    0    0    0 -0.00000000000E+00 -0.00000000000E+00  0.11368683772E-12  0.17120000000E+03  0.17120000000E+03 0.  0.
         13    1    1    2    0    0 -0.19421865733E+02  0.11984616387E+02  0.86565940736E+02  0.89523813357E+02  0.10566000000E+00 0.  1.
        994    1    1    2    0    0  0.20817892345E+02 -0.14282861575E+02  0.49172913539E+01  0.17312135781E+03  0.17120000000E+03 0.  0.
        998    1    1    2    0    0 -0.13960266128E+01  0.22982451885E+01  0.14085167642E+04  0.14085548288E+04  0.10000000000E+02 0.  1.
</event>
<event>
 5    1  0.1369527E-008  0.3837486E+03  0.7957747E-01  0.3434997E+00
         13   -1    0    0    0    0  0.00000000000E+00  0.00000000000E+00  0.14999999963E+04  0.15000000000E+04  0.10566000000E+00 0.  1.
        994   -1    0    0    0    0 -0.00000000000E+00 -0.00000000000E+00  0.11368683772E-12  0.17120000000E+03  0.17120000000E+03 0.  0.
         13    1    1    2    0    0  0.10341619444E+02  0.86254405655E+01  0.39740999308E+02  0.41960761525E+02  0.10566000000E+00 0.  1.
        994    1    1    2    0    0 -0.44082536445E+01 -0.80228100957E+01  0.25294793125E+01  0.17146322185E+03  0.17120000000E+03 0.  0.
        998    1    1    2    0    0 -0.59333657998E+01 -0.60263046971E+00  0.14577295177E+04  0.14577760166E+04  0.10000000000E+02 0.  1.
</event>
<event>
 5    1  0.1369527E-008  0.3772459E+03  0.7957747E-01  0.3463239E+00
         13   -1    0    0    0    0  0.00000000000E+00  0.00000000000E+00  0.14999999963E+04  0.15000000000E+04  0.10566000000E+00 0. -1.
        994   -1    0    0    0    0 -0.00000000000E+00 -0.00000000000E+00  0.11368683772E-12  0.17120000000E+03  0.17120000000E+03 0.  0.
         13    1    1    2    0    0 -0.60358566677E+02 -0.24419650634E+02  0.27929674509E+03  0.28678591125E+03  0.10566000000E+00 0. -1.
        994    1    1    2    0    0  0.69219602861E+02  0.38968840996E+02  0.27122457672E+02  0.19066985000E+03  0.17120000000E+03 0.  0.
        998    1    1    2    0    0 -0.88610361847E+01 -0.14549190362E+02  0.11935807935E+04  0.11937442388E+04  0.10000000000E+02 0. -1.
</event>
<event>
 5    1  0.1369527E-008  0.3735621E+03  0.7957747E-01  0.3479679E+00
         13   -1    0    0    0    0  0.00000000000E+00  0.00000000000E+00  0.14999999963E+04  0.15000000000E+04  0.10566000000E+00 0. -1.
        994   -1    0    0    0    0 -0.00000000000E+00 -0.00000000000E+00  0.11368683772E-12  0.17120000000E+03  0.17120000000E+03 0.  0.
         13    1    1    2    0    0 -0.73779989223E+01  0.93436412423E+01  0.61876961406E+01  0.13417795919E+02  0.10566000000E+00 0. -1.
        994    1    1    2    0    0  0.48321676639E+01 -0.45395522346E+01  0.75691312934E+01  0.17149544929E+03  0.17120000000E+03 0.  0.
        998    1    1    2    0    0  0.25458312584E+01 -0.48040890076E+01  0.14862431688E+04  0.14862867548E+04  0.10000000000E+02 0. -1.
</event>
<event>
 5    1  0.1369527E-008  0.3736910E+03  0.7957747E-01  0.3479098E+00
         13   -1    0    0    0    0  0.00000000000E+00  0.00000000000E+00  0.14999999963E+04  0.15000000000E+04  0.10566000000E+00 0.  1.
        994   -1    0    0    0    0 -0.00000000000E+00 -0.00000000000E+00  0.11368683772E-12  0.17120000000E+03  0.17120000000E+03 0.  0.
         13    1    1    2    0    0 -0.29633519078E+02 -0.31080008854E+02  0.55592862802E+02  0.70247348433E+02  0.10566000000E+00 0.  1.
        994    1    1    2    0    0  0.53711203182E+02  0.75517759694E+02  0.43980269011E+02  0.19957837919E+03  0.17120000000E+03 0.  0.
        998    1    1    2    0    0 -0.24077684104E+02 -0.44437750840E+02  0.14004268645E+04  0.14013742724E+04  0.10000000000E+02 0.  1.
</event>
<event>
 5    1  0.1369527E-008  0.3731452E+03  0.7957747E-01  0.3481560E+00
         13   -1    0    0    0    0  0.00000000000E+00  0.00000000000E+00  0.14999999963E+04  0.15000000000E+04  0.10566000000E+00 0. -1.
        994   -1    0    0    0    0 -0.00000000000E+00 -0.00000000000E+00  0.11368683772E-12  0.17120000000E+03  0.17120000000E+03 0.  0.
         13    1    1    2    0    0  0.99776750779E+00  0.61553016291E+02  0.29903264719E+03  0.30530362691E+03  0.10566000000E+00 0. -1.
        994    1    1    2    0    0  0.27552612340E+02 -0.10097971917E+02  0.10585496457E+02  0.17401898810E+03  0.17120000000E+03 0.  0.
        998    1    1    2    0    0 -0.28550379848E+02 -0.51455044374E+02  0.11903818526E+04  0.11918773850E+04  0.10000000000E+02 0. -1.
</event>
<event>
 5    1  0.1369527E-008  0.3796931E+03  0.7957747E-01  0.3452496E+00
         13   -1    0    0    0    0  0.00000000000E+00  0.00000000000E+00  0.14999999963E+04  0.15000000000E+04  0.10566000000E+00 0.  1.
        994   -1    0    0    0    0 -0.00000000000E+00 -0.00000000000E+00  0.11368683772E-12  0.17120000000E+03  0.17120000000E+03 0.  0.
         13    1    1    2    0    0  0.18802112417E+02 -0.38861851514E+01  0.43942273072E+02  0.47953690089E+02  0.10566000000E+00 0.  1.
        994    1    1    2    0    0  0.42055918484E+01 -0.26734257589E+01  0.43712694769E+01  0.17132828781E+03  0.17120000000E+03 0.  0.
        998    1    1    2    0    0 -0.23007704265E+02  0.65596109103E+01  0.14516864537E+04  0.14519180221E+04  0.10000000000E+02 0.  1.
</event>
<event>
 5    1  0.1369527E-008  0.3752795E+03  0.7957747E-01  0.3471974E+00
         13   -1    0    0    0    0  0.00000000000E+00  0.00000000000E+00  0.14999999963E+04  0.15000000000E+04  0.10566000000E+00 0. -1.
        994   -1    0    0    0    0 -0.00000000000E+00 -0.00000000000E+00  0.11368683772E-12  0.17120000000E+03  0.17120000000E+03 0.  0.
         13    1    1    2    0    0 -0.49323894566E+02 -0.63462469597E+02  0.21678105163E+03  0.23120200504E+03  0.10566000000E+00 0. -1.
        994    1    1    2    0    0  0.46093608391E+02  0.42198139381E+02  0.27802613080E+02  0.18435761171E+03  0.17120000000E+03 0.  0.
        998    1    1    2    0    0  0.32302861745E+01  0.21264330216E+02  0.12554163316E+04  0.12556403833E+04  0.10000000000E+02 0. -1.
</event>
<event>
 5    1  0.1369527E-008  0.3809777E+03  0.7957747E-01  0.3446912E+00
         13   -1    0    0    0    0  0.00000000000E+00  0.00000000000E+00  0.14999999963E+04  0.15000000000E+04  0.10566000000E+00 0. -1.
        994   -1    0    0    0    0 -0.00000000000E+00 -0.00000000000E+00  0.11368683772E-12  0.17120000000E+03  0.17120000000E+03 0.  0.
         13    1    1    2    0    0 -0.26029001171E+02  0.37930551841E+00  0.90411275935E+02  0.94084338520E+02  0.10566000000E+00 0. -1.
        994    1    1    2    0    0  0.19133536198E+02  0.35583491257E+01  0.49034787316E+01  0.17237238224E+03  0.17120000000E+03 0.  0.
        998    1    1    2    0    0  0.68954649727E+01 -0.39376546441E+01  0.14046852416E+04  0.14047432792E+04  0.10000000000E+02 0. -1.
</event>
<event>
 5    1  0.1369527E-008  0.3687280E+03  0.7957747E-01  0.3501757E+00
         13   -1    0    0    0    0  0.00000000000E+00  0.00000000000E+00  0.14999999963E+04  0.15000000000E+04  0.10566000000E+00 0.  1.
        994   -1    0    0    0    0 -0.00000000000E+00 -0.00000000000E+00  0.11368683772E-12  0.17120000000E+03  0.17120000000E+03 0.  0.
         13    1    1    2    0    0  0.96085232074E+02  0.15849006118E+02  0.48958178535E+03  0.49917321495E+03  0.10566000000E+00 0.  1.
        994    1    1    2    0    0 -0.57066985108E+02  0.29101120150E+02  0.24689502235E+02  0.18445196530E+03  0.17120000000E+03 0.  0.
        998    1    1    2    0    0 -0.39018246967E+02 -0.44950126269E+02  0.98572870870E+03  0.98757481975E+03  0.10000000000E+02 0.  1.
</event>
<event>
 5    1  0.1369527E-008  0.3855478E+03  0.7957747E-01  0.3427352E+00
         13   -1    0    0    0    0  0.00000000000E+00  0.00000000000E+00  0.14999999963E+04  0.15000000000E+04  0.10566000000E+00 0. -1.
        994   -1    0    0    0    0 -0.00000000000E+00 -0.00000000000E+00  0.11368683772E-12  0.17120000000E+03  0.17120000000E+03 0.  0.
         13    1    1    2    0    0  0.56315515788E+01  0.10890675910E+02  0.57256064795E+02  0.58554157110E+02  0.10566000000E+00 0. -1.
        994    1    1    2    0    0 -0.10036036962E+02  0.82098720969E+00  0.16913225172E+01  0.17150421753E+03  0.17120000000E+03 0.  0.
        998    1    1    2    0    0  0.44044853835E+01 -0.11711663120E+02  0.14410526090E+04  0.14411416254E+04  0.10000000000E+02 0. -1.
</event>
<event>
 5    1  0.1369527E-008  0.3785279E+03  0.7957747E-01  0.3457594E+00
         13   -1    0    0    0    0  0.00000000000E+00  0.00000000000E+00  0.14999999963E+04  0.15000000000E+04  0.10566000000E+00 0. -1.
        994   -1    0    0    0    0 -0.00000000000E+00 -0.00000000000E+00  0.11368683772E-12  0.17120000000E+03  0.17120000000E+03 0.  0.
         13    1    1    2    0    0 -0.33099871345E+02 -0.94666662138E+01  0.98596808336E+02  0.10443448200E+03  0.10566000000E+00 0. -1.
        994    1    1    2    0    0  0.65746837662E+02 -0.27128726131E+01  0.19564189380E+02  0.18445108795E+03  0.17120000000E+03 0.  0.
        998    1    1    2    0    0 -0.32646966317E+02  0.12179538827E+02  0.13818389986E+04  0.13823144300E+04  0.10000000000E+02 0. -1.
</event>
<event>
 5    1  0.1369527E-008  0.3716497E+03  0.7957747E-01  0.3488344E+00
         13   -1    0    0    0    0  0.00000000000E+00  0.00000000000E+00  0.14999999963E+04  0.15000000000E+04  0.10566000000E+00 0. -1.
        994   -1    0    0    0    0 -0.00000000000E+00 -0.00000000000E+00  0.11368683772E-12  0.17120000000E+03  0.17120000000E+03 0.  0.
         13    1    1    2    0    0 -0.14743377726E+03 -0.10227301035E+03  0.66380971884E+03  0.68763350799E+03  0.10566000000E+00 0. -1.
        994    1    1    2    0    0  0.15253107533E+03  0.93252294622E+02  0.13446764066E+03  0.28169612312E+03  0.17120000000E+03 0.  0.
        998    1    1    2    0    0 -0.50972980693E+01  0.90207157238E+01  0.70172263678E+03  0.70187036889E+03  0.10000000000E+02 0. -1.
</event>
<event>
 5    1  0.1369527E-008  0.2921845E+03  0.7957747E-01  0.3953445E+00
         13   -1    0    0    0    0  0.00000000000E+00  0.00000000000E+00  0.14999999963E+04  0.15000000000E+04  0.10566000000E+00 0.  1.
        994   -1    0    0    0    0 -0.00000000000E+00 -0.00000000000E+00  0.11368683772E-12  0.17120000000E+03  0.17120000000E+03 0.  0.
         13    1    1    2    0    0 -0.72259034252E+02 -0.17734235653E+03  0.57121191627E+03  0.60245725484E+03  0.10566000000E+00 0.  1.
        994    1    1    2    0    0  0.11464372417E+02  0.20294954442E+03  0.18938964530E+03  0.32634004836E+03  0.17120000000E+03 0.  0.
        998    1    1    2    0    0  0.60794661835E+02 -0.25607187890E+02  0.73939843471E+03  0.74240269681E+03  0.10000000000E+02 0. -1.
</event>
<event>
 5    1  0.1369527E-008  0.3717085E+03  0.7957747E-01  0.3488076E+00
         13   -1    0    0    0    0  0.00000000000E+00  0.00000000000E+00  0.14999999963E+04  0.15000000000E+04  0.10566000000E+00 0. -1.
        994   -1    0    0    0    0 -0.00000000000E+00 -0.00000000000E+00  0.11368683772E-12  0.17120000000E+03  0.17120000000E+03 0.  0.
         13    1    1    2    0    0 -0.13426134786E+02 -0.86537703949E+01  0.11431483960E+02  0.19642780529E+02  0.10566000000E+00 0. -1.
        994    1    1    2    0    0  0.12785190602E+02  0.65725482683E+01  0.90894702387E+01  0.17204277944E+03  0.17120000000E+03 0.  0.
        998    1    1    2    0    0  0.64094418450E+00  0.20812221266E+01  0.14794790421E+04  0.14795144400E+04  0.10000000000E+02 0. -1.
</event>
<event>
 5    1  0.1369527E-008  0.3855161E+03  0.7957747E-01  0.3427486E+00
         13   -1    0    0    0    0  0.00000000000E+00  0.00000000000E+00  0.14999999963E+04  0.15000000000E+04  0.10566000000E+00 0.  1.
        994   -1    0    0    0    0 -0.00000000000E+00 -0.00000000000E+00  0.11368683772E-12  0.17120000000E+03  0.17120000000E+03 0.  0.
         13    1    1    2    0    0 -0.94620389590E+01  0.15391734839E+02  0.10031336062E+03  0.10192750936E+03  0.10566000000E+00 0.  1.
        994    1    1    2    0    0  0.15142412562E+02 -0.28853093920E+02  0.48679308414E+01  0.17434141917E+03  0.17120000000E+03 0.  0.
        998    1    1    2    0    0 -0.56803736028E+01  0.13461359081E+02  0.13948187048E+04  0.13949310715E+04  0.10000000000E+02 0.  1.
</event>
<event>
 5    1  0.1369527E-008  0.3820439E+03  0.7957747E-01  0.3442307E+00
         13   -1    0    0    0    0  0.00000000000E+00  0.00000000000E+00  0.14999999963E+04  0.15000000000E+04  0.10566000000E+00 0. -1.
        994   -1    0    0    0    0 -0.00000000000E+00 -0.00000000000E+00  0.11368683772E-12  0.17120000000E+03  0.17120000000E+03 0.  0.
         13    1    1    2    0    0 -0.10059419777E+02 -0.49086943111E+01  0.18426659402E+02  0.21560151828E+02  0.10566000000E+00 0. -1.
        994    1    1    2    0    0  0.15496103767E+02  0.80706075609E+01  0.41192421137E+01  0.17213852589E+03  0.17120000000E+03 0.  0.
        998    1    1    2    0    0 -0.54366839902E+01 -0.31619132498E+01  0.14774540948E+04  0.14775013223E+04  0.10000000000E+02 0. -1.
</event>
<event>
 5    1  0.1369527E-008  0.3840717E+03  0.7957747E-01  0.3433619E+00
         13   -1    0    0    0    0  0.00000000000E+00  0.00000000000E+00  0.14999999963E+04  0.15000000000E+04  0.10566000000E+00 0.  1.
        994   -1    0    0    0    0 -0.00000000000E+00 -0.00000000000E+00  0.11368683772E-12  0.17120000000E+03  0.17120000000E+03 0.  0.
         13    1    1    2    0    0  0.15954801720E+02  0.29750529827E+01  0.61485612100E+02  0.63591652735E+02  0.10566000000E+00 0.  1.
        994    1    1    2    0    0 -0.11468052544E+02 -0.14292884819E+02  0.32001814506E+01  0.17220767679E+03  0.17120000000E+03 0.  0.
        998    1    1    2    0    0 -0.44867491769E+01  0.11317831836E+02  0.14353142027E+04  0.14354006705E+04  0.10000000000E+02 0.  1.
</event>
<event>
 5    1  0.1369527E-008  0.3726667E+03  0.7957747E-01  0.3483724E+00
         13   -1    0    0    0    0  0.00000000000E+00  0.00000000000E+00  0.14999999963E+04  0.15000000000E+04  0.10566000000E+00 0. -1.
        994   -1    0    0    0    0 -0.00000000000E+00 -0.00000000000E+00  0.11368683772E-12  0.17120000000E+03  0.17120000000E+03 0.  0.
         13    1    1    2    0    0 -0.27432857406E+02 -0.31002259272E+01  0.44131542549E+02  0.52055521110E+02  0.10566000000E+00 0. -1.
        994    1    1    2    0    0  0.27119214832E+02  0.13387800034E+01  0.10411887153E+02  0.17365221432E+03  0.17120000000E+03 0.  0.
        998    1    1    2    0    0  0.31364257398E+00  0.17614459238E+01  0.14454565666E+04  0.14454922646E+04  0.10000000000E+02 0. -1.
</event>
<event>
 5    1  0.1369527E-008  0.3806009E+03  0.7957747E-01  0.3448546E+00
         13   -1    0    0    0    0  0.00000000000E+00  0.00000000000E+00  0.14999999963E+04  0.15000000000E+04  0.10566000000E+00 0. -1.
        994   -1    0    0    0    0 -0.00000000000E+00 -0.00000000000E+00  0.11368683772E-12  0.17120000000E+03  0.17120000000E+03 0.  0.
         13    1    1    2    0    0  0.59995000279E+01  0.81307787866E+02  0.32524292956E+03  0.33530571836E+03  0.10566000000E+00 0. -1.
        994    1    1    2    0    0  0.27078126562E+02 -0.16245721312E+03  0.10037123784E+03  0.25789415739E+03  0.17120000000E+03 0.  0.
        998    1    1    2    0    0 -0.33077626590E+02  0.81149425252E+02  0.10743858289E+04  0.10780001242E+04  0.10000000000E+02 0. -1.
</event>
<event>
 5    1  0.1369527E-008  0.3699113E+03  0.7957747E-01  0.3496298E+00
         13   -1    0    0    0    0  0.00000000000E+00  0.00000000000E+00  0.14999999963E+04  0.15000000000E+04  0.10566000000E+00 0. -1.
        994   -1    0    0    0    0 -0.00000000000E+00 -0.00000000000E+00  0.11368683772E-12  0.17120000000E+03  0.17120000000E+03 0.  0.
         13    1    1    2    0    0  0.24759498795E+02 -0.11279754878E+02  0.37201732067E+02  0.46089539849E+02  0.10566000000E+00 0. -1.
        994    1    1    2    0    0 -0.42184162926E+01  0.54535538380E+01  0.94798646518E+01  0.17160082785E+03  0.17120000000E+03 0.  0.
        998    1    1    2    0    0 -0.20541082502E+02  0.58262010395E+01  0.14533183996E+04  0.14535096323E+04  0.10000000000E+02 0. -1.
</event>
<event>
 5    1  0.1369527E-008  0.3844683E+03  0.7957747E-01  0.3431930E+00
         13   -1    0    0    0    0  0.00000000000E+00  0.00000000000E+00  0.14999999963E+04  0.15000000000E+04  0.10566000000E+00 0.  1.
        994   -1    0    0    0    0 -0.00000000000E+00 -0.00000000000E+00  0.11368683772E-12  0.17120000000E+03  0.17120000000E+03 0.  0.
         13    1    1    2    0    0 -0.14844475110E+02  0.26126780431E+01  0.58455807730E+02  0.60367848639E+02  0.10566000000E+00 0.  1.
        994    1    1    2    0    0  0.13003446072E+02 -0.53072030682E+01  0.25444597580E+01  0.17179397629E+03  0.17120000000E+03 0.  0.
        998    1    1    2    0    0  0.18410290377E+01  0.26945250251E+01  0.14389997288E+04  0.14390381751E+04  0.10000000000E+02 0.  1.
</event>
<event>
 5    1  0.1369527E-008  0.3729107E+03  0.7957747E-01  0.3482620E+00
         13   -1    0    0    0    0  0.00000000000E+00  0.00000000000E+00  0.14999999963E+04  0.15000000000E+04  0.10566000000E+00 0.  1.
        994   -1    0    0    0    0 -0.00000000000E+00 -0.00000000000E+00  0.11368683772E-12  0.17120000000E+03  0.17120000000E+03 0.  0.
         13    1    1    2    0    0  0.42292771194E+02  0.20239266007E+02  0.13063956367E+03  0.13879846233E+03  0.10566000000E+00 0.  1.
        994    1    1    2    0    0 -0.36788128640E+02 -0.20675798967E+02  0.13876630309E+02  0.17686960152E+03  0.17120000000E+03 0.  0.
        998    1    1    2    0    0 -0.55046425541E+01  0.43653296040E+00  0.13554838023E+04  0.13555319362E+04  0.10000000000E+02 0.  1.
</event>
<event>
 5    1  0.1369527E-008  0.3848592E+03  0.7957747E-01  0.3430269E+00
         13   -1    0    0    0    0  0.00000000000E+00  0.00000000000E+00  0.14999999963E+04  0.15000000000E+04  0.10566000000E+00 0. -1.
        994   -1    0    0    0    0 -0.00000000000E+00 -0.00000000000E+00  0.11368683772E-12  0.17120000000E+03  0.17120000000E+03 0.  0.
         13    1    1    2    0    0 -0.12056356357E+02 -0.11228176361E+01  0.55815283446E+02  0.57113689062E+02  0.10566000000E+00 0. -1.
        994    1    1    2    0    0 -0.36811599036E+02  0.43583000469E+02  0.12482376031E+02  0.18088621137E+03  0.17120000000E+03 0.  0.
        998    1    1    2    0    0  0.48867955394E+02 -0.42460182833E+02  0.14317023368E+04  0.14332000996E+04  0.10000000000E+02 0. -1.
</event>
<event>
 5    1  0.1369527E-008  0.3808623E+03  0.7957747E-01  0.3447412E+00
         13   -1    0    0    0    0  0.00000000000E+00  0.00000000000E+00  0.14999999963E+04  0.15000000000E+04  0.10566000000E+00 0.  1.
        994   -1    0    0    0    0 -0.00000000000E+00 -0.00000000000E+00  0.11368683772E-12  0.17120000000E+03  0.17120000000E+03 0.  0.
         13    1    1    2    0    0  0.26103519168E+01  0.36985134347E+02  0.17104559684E+03  0.17501806039E+03  0.10566000000E+00 0.  1.
        994    1    1    2    0    0 -0.39961896687E+01 -0.32231205143E+02  0.72226212416E+01  0.17440305724E+03  0.17120000000E+03 0.  0.
        998    1    1    2    0    0  0.13858377519E+01 -0.47539292042E+01  0.13217317782E+04  0.13217788824E+04  0.10000000000E+02 0.  1.
</event>
<event>
 5    1  0.1369527E-008  0.3845351E+03  0.7957747E-01  0.3431646E+00
         13   -1    0    0    0    0  0.00000000000E+00  0.00000000000E+00  0.14999999963E+04  0.15000000000E+04  0.10566000000E+00 0. -1.
        994   -1    0    0    0    0 -0.00000000000E+00 -0.00000000000E+00  0.11368683772E-12  0.17120000000E+03  0.17120000000E+03 0.  0.
         13    1    1    2    0    0  0.10185525498E+02  0.10312819795E+02  0.54442992016E+02  0.56339592876E+02  0.10566000000E+00 0. -1.
        994    1    1    2    0    0 -0.10556275426E+02 -0.11285450654E+02  0.26480237637E+01  0.17191639938E+03  0.17120000000E+03 0.  0.
        998    1    1    2    0    0  0.37074992798E+00  0.97263085958E+00  0.14429089805E+04  0.14429440077E+04  0.10000000000E+02 0. -1.
</event>
<event>
 5    1  0.1369527E-008  0.3828881E+03  0.7957747E-01  0.3438679E+00
         13   -1    0    0    0    0  0.00000000000E+00  0.00000000000E+00  0.14999999963E+04  0.15000000000E+04  0.10566000000E+00 0.  1.
        994   -1    0    0    0    0 -0.00000000000E+00 -0.00000000000E+00  0.11368683772E-12  0.17120000000E+03  0.17120000000E+03 0.  0.
         13    1    1    2    0    0  0.25557902557E+02  0.17045099564E+02  0.19156459828E+02  0.36203907516E+02  0.10566000000E+00 0.  1.
        994    1    1    2    0    0  0.91544726331E+01 -0.43735866862E+02  0.25271044820E+02  0.17873079233E+03  0.17120000000E+03 0.  0.
        998    1    1    2    0    0 -0.34712375190E+02  0.26690767298E+02  0.14555724916E+04  0.14562653002E+04  0.10000000000E+02 0.  1.
</event>
<event>
 5    1  0.1369527E-008  0.3815189E+03  0.7957747E-01  0.3444572E+00
         13   -1    0    0    0    0  0.00000000000E+00  0.00000000000E+00  0.14999999963E+04  0.15000000000E+04  0.10566000000E+00 0. -1.
        994   -1    0    0    0    0 -0.00000000000E+00 -0.00000000000E+00  0.11368683772E-12  0.17120000000E+03  0.17120000000E+03 0.  0.
         13    1    1    2    0    0  0.12056156119E+02 -0.18539536938E+01  0.19979235566E+02  0.23408739020E+02  0.10566000000E+00 0. -1.
        994    1    1    2    0    0 -0.20093627631E+02  0.10528756672E+02  0.50819707455E+01  0.17277116373E+03  0.17120000000E+03 0.  0.
        998    1    1    2    0    0  0.80374715118E+01 -0.86748029778E+01  0.14749387900E+04  0.14750200973E+04  0.10000000000E+02 0. -1.
</event>
<event>
 5    1  0.1369527E-008  0.3832829E+03  0.7957747E-01  0.3436988E+00
         13   -1    0    0    0    0  0.00000000000E+00  0.00000000000E+00  0.14999999963E+04  0.15000000000E+04  0.10566000000E+00 0.  1.
        994   -1    0    0    0    0 -0.00000000000E+00 -0.00000000000E+00  0.11368683772E-12  0.17120000000E+03  0.17120000000E+03 0.  0.
         13    1    1    2    0    0  0.58302293545E+02  0.55887671028E+02  0.15382778475E+03  0.17374000037E+03  0.10566000000E+00 0.  1.
        994    1    1    2    0    0 -0.59700099585E+02 -0.60705740575E+02  0.45243706087E+02  0.19648338802E+03  0.17120000000E+03 0.  0.
        998    1    1    2    0    0  0.13978060397E+01  0.48180695462E+01  0.13009285054E+04  0.13009766116E+04  0.10000000000E+02 0.  1.
</event>
<event>
 5    1  0.1369527E-008  0.3928457E+03  0.7957747E-01  0.3397064E+00
         13   -1    0    0    0    0  0.00000000000E+00  0.00000000000E+00  0.14999999963E+04  0.15000000000E+04  0.10566000000E+00 0. -1.
        994   -1    0    0    0    0 -0.00000000000E+00 -0.00000000000E+00  0.11368683772E-12  0.17120000000E+03  0.17120000000E+03 0.  0.
         13    1    1    2    0    0  0.51657821145E+02  0.84970577602E+02  0.17136391423E+03  0.19812655503E+03  0.10566000000E+00 0. -1.
        994    1    1    2    0    0 -0.32286959372E+02 -0.10894941640E+03  0.74575294841E+02  0.21859400193E+03  0.17120000000E+03 0.  0.
        998    1    1    2    0    0 -0.19370861773E+02  0.23978838800E+02  0.12540607872E+04  0.12544794430E+04  0.10000000000E+02 0. -1.
</event>
<event>
 5    1  0.1369527E-008  0.3735219E+03  0.7957747E-01  0.3479860E+00
         13   -1    0    0    0    0  0.00000000000E+00  0.00000000000E+00  0.14999999963E+04  0.15000000000E+04  0.10566000000E+00 0. -1.
        994   -1    0    0    0    0 -0.00000000000E+00 -0.00000000000E+00  0.11368683772E-12  0.17120000000E+03  0.17120000000E+03 0.  0.
         13    1    1    2    0    0  0.39405099405E+02 -0.42907792095E+00  0.97884011171E+02  0.10551889297E+03  0.10566000000E+00 0. -1.
        994    1    1    2    0    0 -0.33904854711E+02  0.91912815282E+00  0.11379832793E+02  0.17489804048E+03  0.17120000000E+03 0.  0.
        998    1    1    2    0    0 -0.55002446942E+01 -0.49005023188E+00  0.13907361523E+04  0.13907830665E+04  0.10000000000E+02 0. -1.
</event>
<event>
 5    1  0.1369527E-008  0.3820536E+03  0.7957747E-01  0.3442265E+00
         13   -1    0    0    0    0  0.00000000000E+00  0.00000000000E+00  0.14999999963E+04  0.15000000000E+04  0.10566000000E+00 0.  1.
        994   -1    0    0    0    0 -0.00000000000E+00 -0.00000000000E+00  0.11368683772E-12  0.17120000000E+03  0.17120000000E+03 0.  0.
         13    1    1    2    0    0  0.71247183468E+01  0.10983785687E+02  0.26921035929E+02  0.29935906519E+02  0.10566000000E+00 0.  1.
        994    1    1    2    0    0 -0.88249960471E+01  0.10156152526E+01  0.33621310033E+01  0.17146327873E+03  0.17120000000E+03 0.  0.
        998    1    1    2    0    0  0.17002777003E+01 -0.11999400940E+02  0.14697168293E+04  0.14698008147E+04  0.10000000000E+02 0.  1.
</event>
<event>
 5    1  0.2407808E-008  0.3857451E+03  0.7957747E-01  0.3426518E+00
         13   -1    0    0    0    0  0.00000000000E+00  0.00000000000E+00  0.14999999963E+04  0.15000000000E+04  0.10566000000E+00 0. -1.
        994   -1    0    0    0    0 -0.00000000000E+00 -0.00000000000E+00  0.11368683772E-12  0.17120000000E+03  0.17120000000E+03 0.  0.
         13    1    1    2    0    0  0.92895697981E+01  0.46799320541E+01  0.44476802431E+02  0.45677072910E+02  0.10566000000E+00 0. -1.
        994    1    1    2    0    0 -0.22039631835E+01 -0.55641835780E+00  0.12776123898E+01  0.17121985676E+03  0.17120000000E+03 0.  0.
        998    1    1    2    0    0 -0.70856066145E+01 -0.41235136963E+01  0.14542455815E+04  0.14543030703E+04  0.10000000000E+02 0. -1.
</event>
<event>
 5    1  0.1369527E-008  0.3695412E+03  0.7957747E-01  0.3498002E+00
         13   -1    0    0    0    0  0.00000000000E+00  0.00000000000E+00  0.14999999963E+04  0.15000000000E+04  0.10566000000E+00 0. -1.
        994   -1    0    0    0    0 -0.00000000000E+00 -0.00000000000E+00  0.11368683772E-12  0.17120000000E+03  0.17120000000E+03 0.  0.
         13    1    1    2    0    0 -0.23265304018E+02 -0.90261493233E+02  0.41254598123E+03  0.42294516113E+03  0.10566000000E+00 0. -1.
        994    1    1    2    0    0  0.68391477733E+02  0.39559527822E+02  0.32814339375E+02  0.19138592251E+03  0.17120000000E+03 0.  0.
        998    1    1    2    0    0 -0.45126173714E+02  0.50701965411E+02  0.10546396757E+04  0.10568689164E+04  0.10000000000E+02 0. -1.
</event>
<event>
 5    1  0.1369527E-008  0.3168291E+03  0.7957747E-01  0.3782747E+00
         13   -1    0    0    0    0  0.00000000000E+00  0.00000000000E+00  0.14999999963E+04  0.15000000000E+04  0.10566000000E+00 0.  1.
        994   -1    0    0    0    0 -0.00000000000E+00 -0.00000000000E+00  0.11368683772E-12  0.17120000000E+03  0.17120000000E+03 0.  0.
         13    1    1    2    0    0  0.15364157103E+03 -0.34113918113E+02  0.90401737548E+03  0.91761479832E+03  0.10566000000E+00 0.  1.
        994    1    1    2    0    0 -0.88826968618E+02  0.15220527700E+02  0.45319449865E+02  0.19870880039E+03  0.17120000000E+03 0.  0.
        998    1    1    2    0    0 -0.64814602409E+02  0.18893390413E+02  0.55066317093E+03  0.55487640129E+03  0.10000000000E+02 0.  1.
</event>
<event>
 5    1  0.1369527E-008  0.3823516E+03  0.7957747E-01  0.3440983E+00
         13   -1    0    0    0    0  0.00000000000E+00  0.00000000000E+00  0.14999999963E+04  0.15000000000E+04  0.10566000000E+00 0.  1.
        994   -1    0    0    0    0 -0.00000000000E+00 -0.00000000000E+00  0.11368683772E-12  0.17120000000E+03  0.17120000000E+03 0.  0.
         13    1    1    2    0    0  0.65826796330E+01  0.88517200055E+01  0.19266846579E+02  0.22201512546E+02  0.10566000000E+00 0.  1.
        994    1    1    2    0    0 -0.13951068410E+02 -0.36530676067E+01  0.36409498764E+01  0.17184491185E+03  0.17120000000E+03 0.  0.
        998    1    1    2    0    0  0.73683887774E+01 -0.51986523988E+01  0.14770921998E+04  0.14771535756E+04  0.10000000000E+02 0.  1.
</event>
<event>
 5    1  0.1369527E-008  0.3765035E+03  0.7957747E-01  0.3466526E+00
         13   -1    0    0    0    0  0.00000000000E+00  0.00000000000E+00  0.14999999963E+04  0.15000000000E+04  0.10566000000E+00 0.  1.
        994   -1    0    0    0    0 -0.00000000000E+00 -0.00000000000E+00  0.11368683772E-12  0.17120000000E+03  0.17120000000E+03 0.  0.
         13    1    1    2    0    0 -0.59134855508E+02 -0.27992312177E+02  0.20930114182E+03  0.21928857655E+03  0.10566000000E+00 0.  1.
        994    1    1    2    0    0  0.11569946815E+03  0.50307480412E+02  0.61792522142E+02  0.22146097920E+03  0.17120000000E+03 0.  0.
        998    1    1    2    0    0 -0.56564612638E+02 -0.22315168234E+02  0.12289063323E+04  0.12304504442E+04  0.10000000000E+02 0.  1.
</event>
<event>
 5    1  0.1369527E-008  0.3818649E+03  0.7957747E-01  0.3443078E+00
         13   -1    0    0    0    0  0.00000000000E+00  0.00000000000E+00  0.14999999963E+04  0.15000000000E+04  0.10566000000E+00 0.  1.
        994   -1    0    0    0    0 -0.00000000000E+00 -0.00000000000E+00  0.11368683772E-12  0.17120000000E+03  0.17120000000E+03 0.  0.
         13    1    1    2    0    0  0.15711512195E+02  0.45917060766E+01  0.40249164566E+02  0.43450452155E+02  0.10566000000E+00 0.  1.
        994    1    1    2    0    0 -0.14418195386E+02 -0.24620518329E+01  0.39058539037E+01  0.17186809405E+03  0.17120000000E+03 0.  0.
        998    1    1    2    0    0 -0.12933168088E+01 -0.21296542437E+01  0.14558449778E+04  0.14558814538E+04  0.10000000000E+02 0.  1.
</event>
<event>
 5    1  0.1369527E-008  0.3776530E+03  0.7957747E-01  0.3461442E+00
         13   -1    0    0    0    0  0.00000000000E+00  0.00000000000E+00  0.14999999963E+04  0.15000000000E+04  0.10566000000E+00 0. -1.
        994   -1    0    0    0    0 -0.00000000000E+00 -0.00000000000E+00  0.11368683772E-12  0.17120000000E+03  0.17120000000E+03 0.  0.
         13    1    1    2    0    0 -0.57914921460E+02  0.11942269933E+02  0.14000282854E+03  0.15197881136E+03  0.10566000000E+00 0. -1.
        994    1    1    2    0    0 -0.26044344541E+02 -0.61798132059E+01  0.17622277947E+02  0.17417371402E+03  0.17120000000E+03 0.  0.
        998    1    1    2    0    0  0.83959266001E+02 -0.57624567274E+01  0.13423748898E+04  0.13450474746E+04  0.10000000000E+02 0. -1.
</event>
<event>
 5    1  0.1369527E-008  0.3850483E+03  0.7957747E-01  0.3429467E+00
         13   -1    0    0    0    0  0.00000000000E+00  0.00000000000E+00  0.14999999963E+04  0.15000000000E+04  0.10566000000E+00 0. -1.
        994   -1    0    0    0    0 -0.00000000000E+00 -0.00000000000E+00  0.11368683772E-12  0.17120000000E+03  0.17120000000E+03 0.  0.
         13    1    1    2    0    0 -0.89641292281E+01 -0.12681666522E+02  0.81667671010E+02  0.83131221156E+02  0.10566000000E+00 0. -1.
        994    1    1    2    0    0  0.24447538382E+01 -0.33348815716E+01  0.16623715267E+01  0.17125799758E+03  0.17120000000E+03 0.  0.
        998    1    1    2    0    0  0.65193753898E+01  0.16016548093E+02  0.14166699537E+04  0.14168107813E+04  0.10000000000E+02 0. -1.
</event>
<event>
 5    1  0.1369527E-008  0.2746180E+03  0.7957747E-01  0.4095733E+00
         13   -1    0    0    0    0  0.00000000000E+00  0.00000000000E+00  0.14999999963E+04  0.15000000000E+04  0.10566000000E+00 0. -1.
        994   -1    0    0    0    0 -0.00000000000E+00 -0.00000000000E+00  0.11368683772E-12  0.17120000000E+03  0.17120000000E+03 0.  0.
         13    1    1    2    0    0  0.95751381049E+02  0.15802082169E+03  0.47590147736E+03  0.51051066040E+03  0.10566000000E+00 0. -1.
        994    1    1    2    0    0 -0.74829539156E+02 -0.14856937763E+03  0.14101115454E+03  0.27724701190E+03  0.17120000000E+03 0.  0.
        998    1    1    2    0    0 -0.20921841893E+02 -0.94514440527E+01  0.88308736438E+03  0.88344232771E+03  0.10000000000E+02 0. -1.
</event>
<event>
 5    1  0.1369527E-008  0.3837712E+03  0.7957747E-01  0.3434901E+00
         13   -1    0    0    0    0  0.00000000000E+00  0.00000000000E+00  0.14999999963E+04  0.15000000000E+04  0.10566000000E+00 0. -1.
        994   -1    0    0    0    0 -0.00000000000E+00 -0.00000000000E+00  0.11368683772E-12  0.17120000000E+03  0.17120000000E+03 0.  0.
         13    1    1    2    0    0 -0.23967055806E+02 -0.82632570544E+01  0.13524736637E+03  0.13760291586E+03  0.10566000000E+00 0. -1.
        994    1    1    2    0    0  0.22184504623E+02  0.42207158724E+01  0.39270733186E+01  0.17272761387E+03  0.17120000000E+03 0.  0.
        998    1    1    2    0    0  0.17825511825E+01  0.40425411819E+01  0.13608255566E+04  0.13608694703E+04  0.10000000000E+02 0.  0.
</event>
<event>
 5    1  0.1369527E-008  0.3757355E+03  0.7957747E-01  0.3469940E+00
         13   -1    0    0    0    0  0.00000000000E+00  0.00000000000E+00  0.14999999963E+04  0.15000000000E+04  0.10566000000E+00 0.  1.
        994   -1    0    0    0    0 -0.00000000000E+00 -0.00000000000E+00  0.11368683772E-12  0.17120000000E+03  0.17120000000E+03 0.  0.
         13    1    1    2    0    0  0.25542292635E+02 -0.22724436728E+02  0.86703133050E+02  0.93200070721E+02  0.10566000000E+00 0.  1.
        994    1    1    2    0    0 -0.15684977614E+02  0.30088281394E+02  0.10215337097E+02  0.17482882003E+03  0.17120000000E+03 0.  0.
        998    1    1    2    0    0 -0.98573150208E+01 -0.73638446658E+01  0.14030815261E+04  0.14031711093E+04  0.10000000000E+02 0.  1.
</event>
<event>
 5    1  0.1369527E-008  0.3826672E+03  0.7957747E-01  0.3439627E+00
         13   -1    0    0    0    0  0.00000000000E+00  0.00000000000E+00  0.14999999963E+04  0.15000000000E+04  0.10566000000E+00 0.  1.
        994   -1    0    0    0    0 -0.00000000000E+00 -0.00000000000E+00  0.11368683772E-12  0.17120000000E+03  0.17120000000E+03 0.  0.
         13    1    1    2    0    0  0.14910940334E+02  0.15181347844E+02  0.86504163083E+02  0.89083055958E+02  0.10566000000E+00 0.  1.
        994    1    1    2    0    0 -0.21347921511E+01  0.16396481662E+01  0.28167906751E+01  0.17124432865E+03  0.17120000000E+03 0.  0.
        998    1    1    2    0    0 -0.12776148183E+02 -0.16820996011E+02  0.14106790425E+04  0.14108726154E+04  0.10000000000E+02 0.  1.
</event>
<event>
 5    1  0.1369527E-008  0.3725584E+03  0.7957747E-01  0.3484215E+00
         13   -1    0    0    0    0  0.00000000000E+00  0.00000000000E+00  0.14999999963E+04  0.15000000000E+04  0.10566000000E+00 0.  1.
        994   -1    0    0    0    0 -0.00000000000E+00 -0.00000000000E+00  0.11368683772E-12  0.17120000000E+03  0.17120000000E+03 0.  0.
         13    1    1    2    0    0  0.75393957794E+02 -0.18195034724E+02  0.30708216730E+03  0.31672508078E+03  0.10566000000E+00 0.  1.
        994    1    1    2    0    0 -0.76367843936E+02 -0.81346648279E-01  0.28199401561E+02  0.18956977727E+03  0.17120000000E+03 0.  0.
        998    1    1    2    0    0  0.97388614190E+00  0.18276381373E+02  0.11647184274E+04  0.11649051420E+04  0.10000000000E+02 0.  1.
</event>
<event>
 5    1  0.1369527E-008  0.3811534E+03  0.7957747E-01  0.3446152E+00
         13   -1    0    0    0    0  0.00000000000E+00  0.00000000000E+00  0.14999999963E+04  0.15000000000E+04  0.10566000000E+00 0.  1.
        994   -1    0    0    0    0 -0.00000000000E+00 -0.00000000000E+00  0.11368683772E-12  0.17120000000E+03  0.17120000000E+03 0.  0.
         13    1    1    2    0    0 -0.11395769311E+02 -0.54950161808E+01  0.20437789279E+02  0.24036912357E+02  0.10566000000E+00 0.  1.
        994    1    1    2    0    0  0.16254235789E+02  0.12203948547E+02  0.49291070137E+01  0.17247281710E+03  0.17120000000E+03 0.  0.
        998    1    1    2    0    0 -0.48584664780E+01 -0.67089323659E+01  0.14746331000E+04  0.14746902705E+04  0.10000000000E+02 0.  1.
</event>
<event>
 5    1  0.1369527E-008  0.2572292E+03  0.7957747E-01  0.4258271E+00
         13   -1    0    0    0    0  0.00000000000E+00  0.00000000000E+00  0.14999999963E+04  0.15000000000E+04  0.10566000000E+00 0. -1.
        994   -1    0    0    0    0 -0.00000000000E+00 -0.00000000000E+00  0.11368683772E-12  0.17120000000E+03  0.17120000000E+03 0.  0.
         13    1    1    2    0    0 -0.17000432297E+03  0.13525161310E+02  0.33884359420E+03  0.37934073379E+03  0.10566000000E+00 0. -1.
        994    1    1    2    0    0  0.17588183530E+03 -0.67866585659E+01  0.16549064372E+03  0.29610314399E+03  0.17120000000E+03 0.  0.
        998    1    1    2    0    0 -0.58775123363E+01 -0.67385027441E+01  0.99566575835E+03  0.99575612222E+03  0.10000000000E+02 0. -1.
</event>
<event>
 5    1  0.1369527E-008  0.3848095E+03  0.7957747E-01  0.3430480E+00
         13   -1    0    0    0    0  0.00000000000E+00  0.00000000000E+00  0.14999999963E+04  0.15000000000E+04  0.10566000000E+00 0.  1.
        994   -1    0    0    0    0 -0.00000000000E+00 -0.00000000000E+00  0.11368683772E-12  0.17120000000E+03  0.17120000000E+03 0.  0.
         13    1    1    2    0    0  0.13355689344E+02  0.72791564429E+01  0.69545223032E+02  0.71189253171E+02  0.10566000000E+00 0.  1.
        994    1    1    2    0    0 -0.59414416358E+01  0.21759691694E+01  0.18564971156E+01  0.17132694520E+03  0.17120000000E+03 0.  0.
        998    1    1    2    0    0 -0.74142477082E+01 -0.94551256123E+01  0.14285982761E+04  0.14286838016E+04  0.10000000000E+02 0.  1.
</event>
<event>
 5    1  0.1369527E-008  0.3841624E+03  0.7957747E-01  0.3433232E+00
         13   -1    0    0    0    0  0.00000000000E+00  0.00000000000E+00  0.14999999963E+04  0.15000000000E+04  0.10566000000E+00 0.  1.
        994   -1    0    0    0    0 -0.00000000000E+00 -0.00000000000E+00  0.11368683772E-12  0.17120000000E+03  0.17120000000E+03 0.  0.
         13    1    1    2    0    0  0.11559523938E+02  0.96091874608E+01  0.53627219460E+02  0.55694244841E+02  0.10566000000E+00 0.  1.
        994    1    1    2    0    0 -0.95839621258E+01 -0.10599050997E+02  0.27202017967E+01  0.17181685514E+03  0.17120000000E+03 0.  0.
        998    1    1    2    0    0 -0.19755618120E+01  0.98986353632E+00  0.14436525750E+04  0.14436889000E+04  0.10000000000E+02 0.  1.
</event>
<event>
 5    1  0.1369527E-008  0.3835717E+03  0.7957747E-01  0.3435752E+00
         13   -1    0    0    0    0  0.00000000000E+00  0.00000000000E+00  0.14999999963E+04  0.15000000000E+04  0.10566000000E+00 0. -1.
        994   -1    0    0    0    0 -0.00000000000E+00 -0.00000000000E+00  0.11368683772E-12  0.17120000000E+03  0.17120000000E+03 0.  0.
         13    1    1    2    0    0  0.13352626214E+02  0.41813631203E+01  0.41472539209E+02  0.43769385383E+02  0.10566000000E+00 0. -1.
        994    1    1    2    0    0 -0.65340563709E+01 -0.48400396880E+01  0.25594053186E+01  0.17141210702E+03  0.17120000000E+03 0.  0.
        998    1    1    2    0    0 -0.68185698430E+01  0.65867656771E+00  0.14559680518E+04  0.14560185076E+04  0.10000000000E+02 0. -1.
</event>
<event>
 5    1  0.1369527E-008  0.3838014E+03  0.7957747E-01  0.3434771E+00
         13   -1    0    0    0    0  0.00000000000E+00  0.00000000000E+00  0.14999999963E+04  0.15000000000E+04  0.10566000000E+00 0.  1.
        994   -1    0    0    0    0 -0.00000000000E+00 -0.00000000000E+00  0.11368683772E-12  0.17120000000E+03  0.17120000000E+03 0.  0.
         13    1    1    2    0    0  0.72762909640E+01 -0.18723724601E+02  0.86940305449E+02  0.89230881138E+02  0.10566000000E+00 0.  1.
        994    1    1    2    0    0 -0.11901552891E+02  0.15199416027E+02  0.34576952317E+01  0.17231965896E+03  0.17120000000E+03 0.  0.
        998    1    1    2    0    0  0.46252619267E+01  0.35243085745E+01  0.14096019956E+04  0.14096494599E+04  0.10000000000E+02 0.  1.
</event>
<event>
 5    1  0.1369527E-008  0.3817148E+03  0.7957747E-01  0.3443726E+00
         13   -1    0    0    0    0  0.00000000000E+00  0.00000000000E+00  0.14999999963E+04  0.15000000000E+04  0.10566000000E+00 0.  1.
        994   -1    0    0    0    0 -0.00000000000E+00 -0.00000000000E+00  0.11368683772E-12  0.17120000000E+03  0.17120000000E+03 0.  0.
         13    1    1    2    0    0 -0.12898159914E+02  0.68527019661E+01  0.30725453823E+02  0.34020386977E+02  0.10566000000E+00 0.  1.
        994    1    1    2    0    0  0.86940400525E+01 -0.18543805993E+02  0.46655768469E+01  0.17248381571E+03  0.17120000000E+03 0.  0.
        998    1    1    2    0    0  0.42041198615E+01  0.11691104027E+02  0.14646089656E+04  0.14646957973E+04  0.10000000000E+02 0.  1.
</event>
<event>
 5    1  0.1369527E-008  0.3764990E+03  0.7957747E-01  0.3466546E+00
         13   -1    0    0    0    0  0.00000000000E+00  0.00000000000E+00  0.14999999963E+04  0.15000000000E+04  0.10566000000E+00 0. -1.
        994   -1    0    0    0    0 -0.00000000000E+00 -0.00000000000E+00  0.11368683772E-12  0.17120000000E+03  0.17120000000E+03 0.  0.
         13    1    1    2    0    0  0.11382231500E+02  0.46565605515E+02  0.84239463020E+02  0.96923728286E+02  0.10566000000E+00 0. -1.
        994    1    1    2    0    0  0.22741525588E+02  0.27399803062E+01  0.16296619673E+02  0.17349266351E+03  0.17120000000E+03 0.  0.
        998    1    1    2    0    0 -0.34123757088E+02 -0.49305585821E+02  0.13994639136E+04  0.14007836082E+04  0.10000000000E+02 0. -1.
</event>
<event>
 5    1  0.1369527E-008  0.3718207E+03  0.7957747E-01  0.3487565E+00
         13   -1    0    0    0    0  0.00000000000E+00  0.00000000000E+00  0.14999999963E+04  0.15000000000E+04  0.10566000000E+00 0.  1.
        994   -1    0    0    0    0 -0.00000000000E+00 -0.00000000000E+00  0.11368683772E-12  0.17120000000E+03  0.17120000000E+03 0.  0.
         13    1    1    2    0    0 -0.15346397591E+02  0.17607509660E+02  0.28778895680E+02  0.37064434652E+02  0.10566000000E+00 0.  1.
        994    1    1    2    0    0  0.19757700652E+02 -0.14466683588E+02  0.10383695280E+02  0.17325389692E+03  0.17120000000E+03 0.  0.
        998    1    1    2    0    0 -0.44113030605E+01 -0.31408260717E+01  0.14608374053E+04  0.14608816684E+04  0.10000000000E+02 0.  1.
</event>
<event>
 5    1  0.1369527E-008  0.3749038E+03  0.7957747E-01  0.3473653E+00
         13   -1    0    0    0    0  0.00000000000E+00  0.00000000000E+00  0.14999999963E+04  0.15000000000E+04  0.10566000000E+00 0. -1.
        994   -1    0    0    0    0 -0.00000000000E+00 -0.00000000000E+00  0.11368683772E-12  0.17120000000E+03  0.17120000000E+03 0.  0.
         13    1    1    2    0    0  0.14723518708E+02  0.62218431837E+02  0.25080883149E+03  0.25883005308E+03  0.10566000000E+00 0. -1.
        994    1    1    2    0    0  0.12973222638E+02 -0.70411032556E+02  0.24362914331E+02  0.18716038471E+03  0.17120000000E+03 0.  0.
        998    1    1    2    0    0 -0.27696741346E+02  0.81926007191E+01  0.12248282505E+04  0.12252095622E+04  0.10000000000E+02 0. -1.
</event>
<event>
 5    1  0.1369527E-008  0.3852264E+03  0.7957747E-01  0.3428713E+00
         13   -1    0    0    0    0  0.00000000000E+00  0.00000000000E+00  0.14999999963E+04  0.15000000000E+04  0.10566000000E+00 0. -1.
        994   -1    0    0    0    0 -0.00000000000E+00 -0.00000000000E+00  0.11368683772E-12  0.17120000000E+03  0.17120000000E+03 0.  0.
         13    1    1    2    0    0  0.11111659583E+02 -0.52634816773E+01  0.51861443297E+02  0.53299096456E+02  0.10566000000E+00 0. -1.
        994    1    1    2    0    0 -0.36140448450E+00  0.29429230085E+01  0.15466769278E+01  0.17123265932E+03  0.17120000000E+03 0.  0.
        998    1    1    2    0    0 -0.10750255098E+02  0.23205586688E+01  0.14465918761E+04  0.14466682442E+04  0.10000000000E+02 0. -1.
</event>
<event>
 5    1  0.1369527E-008  0.3849490E+03  0.7957747E-01  0.3429889E+00
         13   -1    0    0    0    0  0.00000000000E+00  0.00000000000E+00  0.14999999963E+04  0.15000000000E+04  0.10566000000E+00 0.  1.
        994   -1    0    0    0    0 -0.00000000000E+00 -0.00000000000E+00  0.11368683772E-12  0.17120000000E+03  0.17120000000E+03 0.  0.
         13    1    1    2    0    0 -0.83575679437E+01  0.77718477155E+01  0.40648116802E+02  0.42220032241E+02  0.10566000000E+00 0.  1.
        994    1    1    2    0    0 -0.11141901713E+01 -0.18428077739E+01  0.16707363283E+01  0.17122169465E+03  0.17120000000E+03 0.  0.
        998    1    1    2    0    0  0.94717581150E+01 -0.59290399416E+01  0.14576811431E+04  0.14577582731E+04  0.10000000000E+02 0.  1.
</event>
<event>
 5    1  0.1369527E-008  0.3862126E+03  0.7957747E-01  0.3424545E+00
         13   -1    0    0    0    0  0.00000000000E+00  0.00000000000E+00  0.14999999963E+04  0.15000000000E+04  0.10566000000E+00 0.  1.
        994   -1    0    0    0    0 -0.00000000000E+00 -0.00000000000E+00  0.11368683772E-12  0.17120000000E+03  0.17120000000E+03 0.  0.
         13    1    1    2    0    0 -0.51936026829E+01 -0.96016416787E+01  0.57344593517E+02  0.58374468746E+02  0.10566000000E+00 0.  1.
        994    1    1    2    0    0  0.57065483121E+01  0.90747255014E+01  0.14058001477E+01  0.17154104935E+03  0.17120000000E+03 0.  0.
        998    1    1    2    0    0 -0.51294562923E+00  0.52691617726E+00  0.14412496026E+04  0.14412844819E+04  0.10000000000E+02 0.  0.
</event>
<event>
 5    1  0.1369527E-008  0.2805845E+03  0.7957747E-01  0.4045183E+00
         13   -1    0    0    0    0  0.00000000000E+00  0.00000000000E+00  0.14999999963E+04  0.15000000000E+04  0.10566000000E+00 0. -1.
        994   -1    0    0    0    0 -0.00000000000E+00 -0.00000000000E+00  0.11368683772E-12  0.17120000000E+03  0.17120000000E+03 0.  0.
         13    1    1    2    0    0 -0.11935421942E+03 -0.15838273411E+02  0.67862726497E+03  0.68922511310E+03  0.10566000000E+00 0. -1.
        994    1    1    2    0    0  0.31822145866E+02  0.34321851239E+02  0.23490285676E+02  0.17903036603E+03  0.17120000000E+03 0.  0.
        998    1    1    2    0    0  0.87532073555E+02 -0.18483577828E+02  0.79788244563E+03  0.80294452087E+03  0.10000000000E+02 0. -1.
</event>
<event>
 5    1  0.1369527E-008  0.3846418E+03  0.7957747E-01  0.3431193E+00
         13   -1    0    0    0    0  0.00000000000E+00  0.00000000000E+00  0.14999999963E+04  0.15000000000E+04  0.10566000000E+00 0. -1.
        994   -1    0    0    0    0 -0.00000000000E+00 -0.00000000000E+00  0.11368683772E-12  0.17120000000E+03  0.17120000000E+03 0.  0.
         13    1    1    2    0    0 -0.66641008894E+01  0.95838588720E+01  0.36836356769E+02  0.38641802955E+02  0.10566000000E+00 0. -1.
        994    1    1    2    0    0  0.63774518246E+01 -0.90338460048E+01  0.22108034222E+01  0.17157100547E+03  0.17120000000E+03 0.  0.
        998    1    1    2    0    0  0.28664906475E+00 -0.55001286725E+00  0.14609528361E+04  0.14609871916E+04  0.10000000000E+02 0. -1.
</event>
<event>
 5    1  0.1369527E-008  0.3789399E+03  0.7957747E-01  0.3455788E+00
         13   -1    0    0    0    0  0.00000000000E+00  0.00000000000E+00  0.14999999963E+04  0.15000000000E+04  0.10566000000E+00 0.  1.
        994   -1    0    0    0    0 -0.00000000000E+00 -0.00000000000E+00  0.11368683772E-12  0.17120000000E+03  0.17120000000E+03 0.  0.
         13    1    1    2    0    0 -0.58792537650E+00 -0.15696827179E+02  0.23701327721E+02  0.28434136870E+02  0.10566000000E+00 0.  1.
        994    1    1    2    0    0 -0.66829059260E+01  0.22998058660E+02  0.65957656172E+01  0.17299282083E+03  0.17120000000E+03 0.  0.
        998    1    1    2    0    0  0.72708313025E+01 -0.73012314805E+01  0.14697029029E+04  0.14697730423E+04  0.10000000000E+02 0.  1.
</event>
<event>
 5    1  0.1673052E-008  0.3855680E+03  0.7957747E-01  0.3427267E+00
         13   -1    0    0    0    0  0.00000000000E+00  0.00000000000E+00  0.14999999963E+04  0.15000000000E+04  0.10566000000E+00 0.  1.
        994   -1    0    0    0    0 -0.00000000000E+00 -0.00000000000E+00  0.11368683772E-12  0.17120000000E+03  0.17120000000E+03 0.  0.
         13    1    1    2    0    0  0.13216588746E+02  0.53533240497E+01  0.81002169262E+02  0.82247789548E+02  0.10566000000E+00 0.  1.
        994    1    1    2    0    0 -0.16216094660E+01  0.14640048106E+01  0.13640662783E+01  0.17121937275E+03  0.17120000000E+03 0.  0.
        998    1    1    2    0    0 -0.11594979280E+02 -0.68173288604E+01  0.14176337607E+04  0.14177328377E+04  0.10000000000E+02 0.  1.
</event>
<event>
 5    1  0.1369527E-008  0.3777140E+03  0.7957747E-01  0.3461173E+00
         13   -1    0    0    0    0  0.00000000000E+00  0.00000000000E+00  0.14999999963E+04  0.15000000000E+04  0.10566000000E+00 0.  1.
        994   -1    0    0    0    0 -0.00000000000E+00 -0.00000000000E+00  0.11368683772E-12  0.17120000000E+03  0.17120000000E+03 0.  0.
         13    1    1    2    0    0  0.23906832590E+02  0.22848830254E+02  0.10555528028E+03  0.11061434829E+03  0.10566000000E+00 0.  1.
        994    1    1    2    0    0 -0.82449272123E+01 -0.84544196006E+01  0.57614736793E+01  0.17170349622E+03  0.17120000000E+03 0.  0.
        998    1    1    2    0    0 -0.15661905378E+02 -0.14394410654E+02  0.13886832423E+04  0.13888821555E+04  0.10000000000E+02 0.  1.
</event>
<event>
 5    1  0.1369527E-008  0.3854830E+03  0.7957747E-01  0.3427626E+00
         13   -1    0    0    0    0  0.00000000000E+00  0.00000000000E+00  0.14999999963E+04  0.15000000000E+04  0.10566000000E+00 0. -1.
        994   -1    0    0    0    0 -0.00000000000E+00 -0.00000000000E+00  0.11368683772E-12  0.17120000000E+03  0.17120000000E+03 0.  0.
         13    1    1    2    0    0  0.14544388919E+02 -0.39681387489E+01  0.78294672159E+02  0.79733005880E+02  0.10566000000E+00 0. -1.
        994    1    1    2    0    0 -0.16574542852E+02  0.11528610332E+01  0.22974575733E+01  0.17201965838E+03  0.17120000000E+03 0.  0.
        998    1    1    2    0    0  0.20301539335E+01  0.28152777157E+01  0.14194078665E+04  0.14194473357E+04  0.10000000000E+02 0. -1.
</event>
<event>
 5    1  0.1369527E-008  0.3786433E+03  0.7957747E-01  0.3457087E+00
         13   -1    0    0    0    0  0.00000000000E+00  0.00000000000E+00  0.14999999963E+04  0.15000000000E+04  0.10566000000E+00 0.  1.
        994   -1    0    0    0    0 -0.00000000000E+00 -0.00000000000E+00  0.11368683772E-12  0.17120000000E+03  0.17120000000E+03 0.  0.
         13    1    1    2    0    0 -0.63794981570E+01  0.91580083068E+01  0.12225438939E+02  0.16554142508E+02  0.10566000000E+00 0.  1.
        994    1    1    2    0    0 -0.15626349188E+02  0.47823071020E+02  0.13366816762E+02  0.17893948894E+03  0.17120000000E+03 0.  0.
        998    1    1    2    0    0  0.22005847345E+02 -0.56981079327E+02  0.14744077406E+04  0.14757063686E+04  0.10000000000E+02 0.  1.
</event>
<event>
 5    1  0.1369527E-008  0.3778389E+03  0.7957747E-01  0.3460623E+00
         13   -1    0    0    0    0  0.00000000000E+00  0.00000000000E+00  0.14999999963E+04  0.15000000000E+04  0.10566000000E+00 0.  1.
        994   -1    0    0    0    0 -0.00000000000E+00 -0.00000000000E+00  0.11368683772E-12  0.17120000000E+03  0.17120000000E+03 0.  0.
         13    1    1    2    0    0 -0.23117872254E+02  0.35308930911E+02  0.16855464751E+03  0.17375798394E+03  0.10566000000E+00 0.  1.
        994    1    1    2    0    0  0.14917727853E+02 -0.19672916868E+02  0.72831582742E+01  0.17312436760E+03  0.17120000000E+03 0.  0.
        998    1    1    2    0    0  0.82001444007E+01 -0.15636014043E+02  0.13241621905E+04  0.13243176485E+04  0.10000000000E+02 0.  1.
</event>
<event>
 5    1  0.1369527E-008  0.3684284E+03  0.7957747E-01  0.3503145E+00
         13   -1    0    0    0    0  0.00000000000E+00  0.00000000000E+00  0.14999999963E+04  0.15000000000E+04  0.10566000000E+00 0. -1.
        994   -1    0    0    0    0 -0.00000000000E+00 -0.00000000000E+00  0.11368683772E-12  0.17120000000E+03  0.17120000000E+03 0.  0.
         13    1    1    2    0    0  0.39262547245E+02  0.61255447457E+01  0.70617824205E+02  0.81030600233E+02  0.10566000000E+00 0. -1.
        994    1    1    2    0    0 -0.41507469243E+02 -0.11722694346E+02  0.16588124917E+02  0.17732709171E+03  0.17120000000E+03 0.  0.
        998    1    1    2    0    0  0.22449219984E+01  0.55971496001E+01  0.14127940472E+04  0.14128423081E+04  0.10000000000E+02 0. -1.
</event>
<event>
 5    1  0.1369527E-008  0.3724584E+03  0.7957747E-01  0.3484668E+00
         13   -1    0    0    0    0  0.00000000000E+00  0.00000000000E+00  0.14999999963E+04  0.15000000000E+04  0.10566000000E+00 0.  1.
        994   -1    0    0    0    0 -0.00000000000E+00 -0.00000000000E+00  0.11368683772E-12  0.17120000000E+03  0.17120000000E+03 0.  0.
         13    1    1    2    0    0 -0.72951715558E+02 -0.11207254940E+02  0.26343016747E+03  0.27357452305E+03  0.10566000000E+00 0.  1.
        994    1    1    2    0    0  0.81876476664E+02  0.85810219261E+01  0.31596930442E+02  0.19257517333E+03  0.17120000000E+03 0.  0.
        998    1    1    2    0    0 -0.89247611064E+01  0.26262330138E+01  0.12049728984E+04  0.12050503036E+04  0.10000000000E+02 0.  1.
</event>
<event>
 5    1  0.1369527E-008  0.3814953E+03  0.7957747E-01  0.3444673E+00
         13   -1    0    0    0    0  0.00000000000E+00  0.00000000000E+00  0.14999999963E+04  0.15000000000E+04  0.10566000000E+00 0. -1.
        994   -1    0    0    0    0 -0.00000000000E+00 -0.00000000000E+00  0.11368683772E-12  0.17120000000E+03  0.17120000000E+03 0.  0.
         13    1    1    2    0    0 -0.17634041595E+02 -0.97282214555E+01  0.59004700652E+02  0.62347121655E+02  0.10566000000E+00 0. -1.
        994    1    1    2    0    0  0.14670060448E+02 -0.10352345640E+01  0.40999949182E+01  0.17187941221E+03  0.17120000000E+03 0.  0.
        998    1    1    2    0    0  0.29639811466E+01  0.10763456019E+02  0.14368953007E+04  0.14369734661E+04  0.10000000000E+02 0. -1.
</event>
<event>
 5    1  0.1369527E-008  0.3810292E+03  0.7957747E-01  0.3446689E+00
         13   -1    0    0    0    0  0.00000000000E+00  0.00000000000E+00  0.14999999963E+04  0.15000000000E+04  0.10566000000E+00 0. -1.
        994   -1    0    0    0    0 -0.00000000000E+00 -0.00000000000E+00  0.11368683772E-12  0.17120000000E+03  0.17120000000E+03 0.  0.
         13    1    1    2    0    0 -0.14764069946E+02  0.30908276181E+02  0.14051010417E+03  0.14462503184E+03  0.10566000000E+00 0. -1.
        994    1    1    2    0    0  0.20322864599E+02 -0.36535122151E+02  0.94595688496E+01  0.17648443959E+03  0.17120000000E+03 0.  0.
        998    1    1    2    0    0 -0.55587946535E+01  0.56268459697E+01  0.13500303233E+04  0.13500905286E+04  0.10000000000E+02 0. -1.
</event>
<event>
 5    1  0.1369527E-008  0.3860429E+03  0.7957747E-01  0.3425261E+00
         13   -1    0    0    0    0  0.00000000000E+00  0.00000000000E+00  0.14999999963E+04  0.15000000000E+04  0.10566000000E+00 0. -1.
        994   -1    0    0    0    0 -0.00000000000E+00 -0.00000000000E+00  0.11368683772E-12  0.17120000000E+03  0.17120000000E+03 0.  0.
         13    1    1    2    0    0  0.14134225464E+02  0.19986297669E+01  0.86124360002E+02  0.87299412370E+02  0.10566000000E+00 0. -1.
        994    1    1    2    0    0 -0.18581774632E+02  0.44956697165E+01  0.23120689281E+01  0.17227965364E+03  0.17120000000E+03 0.  0.
        998    1    1    2    0    0  0.44475491677E+01 -0.64942994834E+01  0.14115635673E+04  0.14116209340E+04  0.10000000000E+02 0. -1.
</event>
<event>
 5    1  0.1369527E-008  0.3809518E+03  0.7957747E-01  0.3447025E+00
         13   -1    0    0    0    0  0.00000000000E+00  0.00000000000E+00  0.14999999963E+04  0.15000000000E+04  0.10566000000E+00 0. -1.
        994   -1    0    0    0    0 -0.00000000000E+00 -0.00000000000E+00  0.11368683772E-12  0.17120000000E+03  0.17120000000E+03 0.  0.
         13    1    1    2    0    0 -0.44851631964E+02 -0.21280482077E+01  0.24834479645E+03  0.25237144563E+03  0.10566000000E+00 0. -1.
        994    1    1    2    0    0  0.39376839271E+02 -0.21678623929E+02  0.10416139800E+02  0.17730886660E+03  0.17120000000E+03 0.  0.
        998    1    1    2    0    0  0.54747926928E+01  0.23806672137E+02  0.12412390600E+04  0.12415196878E+04  0.10000000000E+02 0. -1.
</event>
<event>
 5    1  0.1369527E-008  0.3757065E+03  0.7957747E-01  0.3470069E+00
         13   -1    0    0    0    0  0.00000000000E+00  0.00000000000E+00  0.14999999963E+04  0.15000000000E+04  0.10566000000E+00 0. -1.
        994   -1    0    0    0    0 -0.00000000000E+00 -0.00000000000E+00  0.11368683772E-12  0.17120000000E+03  0.17120000000E+03 0.  0.
         13    1    1    2    0    0 -0.96365263747E+01 -0.28855274500E+02  0.56745711638E+02  0.64386151153E+02  0.10566000000E+00 0. -1.
        994    1    1    2    0    0  0.11798578688E+03  0.47997728819E+02  0.63487510220E+02  0.22263093189E+03  0.17120000000E+03 0.  0.
        998    1    1    2    0    0 -0.10834926051E+03 -0.19142454319E+02  0.13797667744E+04  0.13841829170E+04  0.10000000000E+02 0. -1.
</event>
<event>
 5    1  0.1369527E-008  0.3858021E+03  0.7957747E-01  0.3426278E+00
         13   -1    0    0    0    0  0.00000000000E+00  0.00000000000E+00  0.14999999963E+04  0.15000000000E+04  0.10566000000E+00 0. -1.
        994   -1    0    0    0    0 -0.00000000000E+00 -0.00000000000E+00  0.11368683772E-12  0.17120000000E+03  0.17120000000E+03 0.  0.
         13    1    1    2    0    0  0.81141199109E+01  0.61791642926E+01  0.43085464208E+02  0.44276284886E+02  0.10566000000E+00 0. -1.
        994    1    1    2    0    0  0.25731225138E+01 -0.11367501671E+02  0.16781447727E+01  0.17160447903E+03  0.17120000000E+03 0.  0.
        998    1    1    2    0    0 -0.10687242425E+02  0.51883373780E+01  0.14552363873E+04  0.14553192361E+04  0.10000000000E+02 0. -1.
</event>
<event>
 5    1  0.1369527E-008  0.3839383E+03  0.7957747E-01  0.3434188E+00
         13   -1    0    0    0    0  0.00000000000E+00  0.00000000000E+00  0.14999999963E+04  0.15000000000E+04  0.10566000000E+00 0. -1.
        994   -1    0    0    0    0 -0.00000000000E+00 -0.00000000000E+00  0.11368683772E-12  0.17120000000E+03  0.17120000000E+03 0.  0.
         13    1    1    2    0    0 -0.87214901739E+01  0.52081269742E+01  0.23047465108E+02  0.25187016286E+02  0.10566000000E+00 0. -1.
        994    1    1    2    0    0  0.81938000261E+01 -0.43872497801E+01  0.24432988067E+01  0.17146951924E+03  0.17120000000E+03 0.  0.
        998    1    1    2    0    0  0.52769014773E+00 -0.82087719406E+00  0.14745092324E+04  0.14745434645E+04  0.10000000000E+02 0. -1.
</event>
<event>
 5    1  0.1369527E-008  0.3763901E+03  0.7957747E-01  0.3467029E+00
         13   -1    0    0    0    0  0.00000000000E+00  0.00000000000E+00  0.14999999963E+04  0.15000000000E+04  0.10566000000E+00 0. -1.
        994   -1    0    0    0    0 -0.00000000000E+00 -0.00000000000E+00  0.11368683772E-12  0.17120000000E+03  0.17120000000E+03 0.  0.
         13    1    1    2    0    0  0.11298009640E+02 -0.81875211307E+01  0.13517371295E+02  0.19427069126E+02  0.10566000000E+00 0. -1.
        994    1    1    2    0    0 -0.11836889886E+02  0.97846524316E+01  0.67649543718E+01  0.17202051038E+03  0.17120000000E+03 0.  0.
        998    1    1    2    0    0  0.53888024595E+00 -0.15971313009E+01  0.14797176706E+04  0.14797524205E+04  0.10000000000E+02 0. -1.
</event>
<event>
 5    1  0.1369527E-008  0.3749492E+03  0.7957747E-01  0.3473450E+00
         13   -1    0    0    0    0  0.00000000000E+00  0.00000000000E+00  0.14999999963E+04  0.15000000000E+04  0.10566000000E+00 0. -1.
        994   -1    0    0    0    0 -0.00000000000E+00 -0.00000000000E+00  0.11368683772E-12  0.17120000000E+03  0.17120000000E+03 0.  0.
         13    1    1    2    0    0  0.18040238460E+02  0.22113417126E+02  0.56281864116E+02  0.63103984130E+02  0.10566000000E+00 0. -1.
        994    1    1    2    0    0 -0.14887160216E+02 -0.24635454846E+02  0.95267837234E+01  0.17386412161E+03  0.17120000000E+03 0.  0.
        998    1    1    2    0    0 -0.31530782448E+01  0.25220377199E+01  0.14341913484E+04  0.14342318943E+04  0.10000000000E+02 0. -1.
</event>
<event>
 5    1  0.1369527E-008  0.3860245E+03  0.7957747E-01  0.3425339E+00
         13   -1    0    0    0    0  0.00000000000E+00  0.00000000000E+00  0.14999999963E+04  0.15000000000E+04  0.10566000000E+00 0.  1.
        994   -1    0    0    0    0 -0.00000000000E+00 -0.00000000000E+00  0.11368683772E-12  0.17120000000E+03  0.17120000000E+03 0.  0.
         13    1    1    2    0    0 -0.90514129379E+01 -0.98898298227E+01  0.77759437407E+02  0.78906768278E+02  0.10566000000E+00 0.  1.
        994    1    1    2    0    0  0.73425450311E+01  0.11992752102E+02  0.17707758582E+01  0.17178566505E+03  0.17120000000E+03 0.  0.
        998    1    1    2    0    0  0.17088679068E+01 -0.21029222791E+01  0.14204697830E+04  0.14205075667E+04  0.10000000000E+02 0.  1.
</event>
<event>
 5    1  0.1369527E-008  0.3702210E+03  0.7957747E-01  0.3494876E+00
         13   -1    0    0    0    0  0.00000000000E+00  0.00000000000E+00  0.14999999963E+04  0.15000000000E+04  0.10566000000E+00 0. -1.
        994   -1    0    0    0    0 -0.00000000000E+00 -0.00000000000E+00  0.11368683772E-12  0.17120000000E+03  0.17120000000E+03 0.  0.
         13    1    1    2    0    0 -0.12680285199E+02 -0.29364862501E+02  0.50918438595E+02  0.60131383948E+02  0.10566000000E+00 0. -1.
        994    1    1    2    0    0 -0.94612662253E+01  0.37566933838E+02  0.14356643416E+02  0.17611457432E+03  0.17120000000E+03 0.  0.
        998    1    1    2    0    0  0.22141551424E+02 -0.82020713370E+01  0.14347249143E+04  0.14349540417E+04  0.10000000000E+02 0. -1.
</event>
<event>
 5    1  0.1369527E-008  0.3884720E+03  0.7957747E-01  0.3415079E+00
         13   -1    0    0    0    0  0.00000000000E+00  0.00000000000E+00  0.14999999963E+04  0.15000000000E+04  0.10566000000E+00 0. -1.
        994   -1    0    0    0    0 -0.00000000000E+00 -0.00000000000E+00  0.11368683772E-12  0.17120000000E+03  0.17120000000E+03 0.  0.
         13    1    1    2    0    0 -0.60736396687E+02 -0.51911130610E+02  0.13209944616E+03  0.15438248023E+03  0.10566000000E+00 0. -1.
        994    1    1    2    0    0  0.55674721654E+02  0.59287206162E+02  0.46248599212E+02  0.19509746378E+03  0.17120000000E+03 0.  0.
        998    1    1    2    0    0  0.50616750330E+01 -0.73760755518E+01  0.13216519509E+04  0.13217200560E+04  0.10000000000E+02 0. -1.
</event>
<event>
 5    1  0.1369527E-008  0.3809872E+03  0.7957747E-01  0.3446871E+00
         13   -1    0    0    0    0  0.00000000000E+00  0.00000000000E+00  0.14999999963E+04  0.15000000000E+04  0.10566000000E+00 0.  1.
        994   -1    0    0    0    0 -0.00000000000E+00 -0.00000000000E+00  0.11368683772E-12  0.17120000000E+03  0.17120000000E+03 0.  0.
         13    1    1    2    0    0 -0.20766993222E+02 -0.47875376783E+01  0.58100127328E+02  0.61885575735E+02  0.10566000000E+00 0.  1.
        994    1    1    2    0    0  0.24315246435E+02  0.10231447845E+02  0.59579339989E+01  0.17332296649E+03  0.17120000000E+03 0.  0.
        998    1    1    2    0    0 -0.35482532126E+01 -0.54439101667E+01  0.14359419350E+04  0.14359914578E+04  0.10000000000E+02 0.  1.
</event>
<event>
 5    1  0.1369527E-008  0.3842928E+03  0.7957747E-01  0.3432677E+00
         13   -1    0    0    0    0  0.00000000000E+00  0.00000000000E+00  0.14999999963E+04  0.15000000000E+04  0.10566000000E+00 0.  1.
        994   -1    0    0    0    0 -0.00000000000E+00 -0.00000000000E+00  0.11368683772E-12  0.17120000000E+03  0.17120000000E+03 0.  0.
         13    1    1    2    0    0  0.11253400842E+02  0.10630878411E+02  0.66403883394E+02  0.68184613368E+02  0.10566000000E+00 0.  1.
        994    1    1    2    0    0  0.57670213396E+01  0.33672919044E+01  0.21286949819E+01  0.17134342279E+03  0.17120000000E+03 0.  0.
        998    1    1    2    0    0 -0.17020422182E+02 -0.13998170316E+02  0.14314674179E+04  0.14316719638E+04  0.10000000000E+02 0.  1.
</event>
<event>
 5    1  0.1369527E-008  0.3755892E+03  0.7957747E-01  0.3470592E+00
         13   -1    0    0    0    0  0.00000000000E+00  0.00000000000E+00  0.14999999963E+04  0.15000000000E+04  0.10566000000E+00 0.  1.
        994   -1    0    0    0    0 -0.00000000000E+00 -0.00000000000E+00  0.11368683772E-12  0.17120000000E+03  0.17120000000E+03 0.  0.
         13    1    1    2    0    0 -0.45176561254E+01 -0.86037718031E+02  0.44531813533E+03  0.45357595941E+03  0.10566000000E+00 0.  1.
        994    1    1    2    0    0  0.19163716313E+02  0.76580830239E+02  0.27820152556E+02  0.19056566446E+03  0.17120000000E+03 0.  0.
        998    1    1    2    0    0 -0.14646060187E+02  0.94568877924E+01  0.10268617084E+04  0.10270583761E+04  0.10000000000E+02 0.  1.
</event>
<event>
 5    1  0.1369527E-008  0.3744554E+03  0.7957747E-01  0.3475662E+00
         13   -1    0    0    0    0  0.00000000000E+00  0.00000000000E+00  0.14999999963E+04  0.15000000000E+04  0.10566000000E+00 0.  1.
        994   -1    0    0    0    0 -0.00000000000E+00 -0.00000000000E+00  0.11368683772E-12  0.17120000000E+03  0.17120000000E+03 0.  0.
         13    1    1    2    0    0  0.25941900455E+01  0.23162323248E+02  0.14470090967E+02  0.27433879363E+02  0.10566000000E+00 0.  1.
        994    1    1    2    0    0 -0.60360434063E+01 -0.22906943725E+02  0.15309739783E+02  0.17350789614E+03  0.17120000000E+03 0.  0.
        998    1    1    2    0    0  0.34418533608E+01 -0.25537952303E+00  0.14702201655E+04  0.14702582245E+04  0.10000000000E+02 0.  1.
</event>
<event>
 5    1  0.1369527E-008  0.3839540E+03  0.7957747E-01  0.3434120E+00
         13   -1    0    0    0    0  0.00000000000E+00  0.00000000000E+00  0.14999999963E+04  0.15000000000E+04  0.10566000000E+00 0.  1.
        994   -1    0    0    0    0 -0.00000000000E+00 -0.00000000000E+00  0.11368683772E-12  0.17120000000E+03  0.17120000000E+03 0.  0.
         13    1    1    2    0    0 -0.16872771202E+02  0.10275501244E+02  0.89226527208E+02  0.91387420663E+02  0.10566000000E+00 0.  1.
        994    1    1    2    0    0  0.15473588385E+02 -0.23119851169E+01  0.29584780959E+01  0.17193885484E+03  0.17120000000E+03 0.  0.
        998    1    1    2    0    0  0.13991828171E+01 -0.79635161267E+01  0.14078149910E+04  0.14078737245E+04  0.10000000000E+02 0.  1.
</event>
<event>
 5    1  0.1369527E-008  0.3854266E+03  0.7957747E-01  0.3427865E+00
         13   -1    0    0    0    0  0.00000000000E+00  0.00000000000E+00  0.14999999963E+04  0.15000000000E+04  0.10566000000E+00 0. -1.
        994   -1    0    0    0    0 -0.00000000000E+00 -0.00000000000E+00  0.11368683772E-12  0.17120000000E+03  0.17120000000E+03 0.  0.
         13    1    1    2    0    0  0.84117180278E+01 -0.71072771998E+01  0.42690988226E+02  0.44088570277E+02  0.10566000000E+00 0. -1.
        994    1    1    2    0    0 -0.63210325320E+01  0.51050345067E+01  0.16353035539E+01  0.17140049897E+03  0.17120000000E+03 0.  0.
        998    1    1    2    0    0 -0.20906854958E+01  0.20022426931E+01  0.14556737045E+04  0.14557109308E+04  0.10000000000E+02 0. -1.
</event>
<event>
 5    1  0.1369527E-008  0.3852859E+03  0.7957747E-01  0.3428460E+00
         13   -1    0    0    0    0  0.00000000000E+00  0.00000000000E+00  0.14999999963E+04  0.15000000000E+04  0.10566000000E+00 0. -1.
        994   -1    0    0    0    0 -0.00000000000E+00 -0.00000000000E+00  0.11368683772E-12  0.17120000000E+03  0.17120000000E+03 0.  0.
         13    1    1    2    0    0  0.13397018607E+02 -0.24771592474E+02  0.16944859825E+03  0.17177296212E+03  0.10566000000E+00 0. -1.
        994    1    1    2    0    0 -0.40550094718E+02  0.49695525794E+02  0.15123775495E+02  0.18344515270E+03  0.17120000000E+03 0.  0.
        998    1    1    2    0    0  0.27153076112E+02 -0.24923933320E+02  0.13154276225E+04  0.13159818852E+04  0.10000000000E+02 0. -1.
</event>
<event>
 5    1  0.1369527E-008  0.3845117E+03  0.7957747E-01  0.3431746E+00
         13   -1    0    0    0    0  0.00000000000E+00  0.00000000000E+00  0.14999999963E+04  0.15000000000E+04  0.10566000000E+00 0. -1.
        994   -1    0    0    0    0 -0.00000000000E+00 -0.00000000000E+00  0.11368683772E-12  0.17120000000E+03  0.17120000000E+03 0.  0.
         13    1    1    2    0    0 -0.10003880750E+02  0.89866010348E+01  0.47998983229E+02  0.49847268564E+02  0.10566000000E+00 0. -1.
        994    1    1    2    0    0  0.88028220151E+00 -0.12536291494E+02  0.23931449244E+01  0.17167731546E+03  0.17120000000E+03 0.  0.
        998    1    1    2    0    0  0.91235985485E+01  0.35496904597E+01  0.14496078681E+04  0.14496754160E+04  0.10000000000E+02 0. -1.
</event>
<event>
 5    1  0.1369527E-008  0.3852646E+03  0.7957747E-01  0.3428551E+00
         13   -1    0    0    0    0  0.00000000000E+00  0.00000000000E+00  0.14999999963E+04  0.15000000000E+04  0.10566000000E+00 0.  1.
        994   -1    0    0    0    0 -0.00000000000E+00 -0.00000000000E+00  0.11368683772E-12  0.17120000000E+03  0.17120000000E+03 0.  0.
         13    1    1    2    0    0  0.59764374644E+01  0.84706180661E+01  0.33722141662E+02  0.35279784260E+02  0.10566000000E+00 0.  1.
        994    1    1    2    0    0 -0.28999793014E+02 -0.37765050635E+01  0.43140669002E+01  0.17373341981E+03  0.17120000000E+03 0.  0.
        998    1    1    2    0    0  0.23023355549E+02 -0.46941130026E+01  0.14619637877E+04  0.14621867959E+04  0.10000000000E+02 0.  1.
</event>
<event>
 5    1  0.1369527E-008  0.3773124E+03  0.7957747E-01  0.3462945E+00
         13   -1    0    0    0    0  0.00000000000E+00  0.00000000000E+00  0.14999999963E+04  0.15000000000E+04  0.10566000000E+00 0.  1.
        994   -1    0    0    0    0 -0.00000000000E+00 -0.00000000000E+00  0.11368683772E-12  0.17120000000E+03  0.17120000000E+03 0.  0.
         13    1    1    2    0    0  0.13674720758E+02  0.39102818056E+01  0.15847162735E+02  0.21293943326E+02  0.10566000000E+00 0.  1.
        994    1    1    2    0    0 -0.14318642881E+02 -0.27061950198E+01  0.62125704883E+01  0.17193133239E+03  0.17120000000E+03 0.  0.
        998    1    1    2    0    0  0.64392212329E+00 -0.12040867858E+01  0.14779402631E+04  0.14779747243E+04  0.10000000000E+02 0.  1.
</event>
<event>
 5    1  0.1369527E-008  0.3804942E+03  0.7957747E-01  0.3449009E+00
         13   -1    0    0    0    0  0.00000000000E+00  0.00000000000E+00  0.14999999963E+04  0.15000000000E+04  0.10566000000E+00 0.  1.
        994   -1    0    0    0    0 -0.00000000000E+00 -0.00000000000E+00  0.11368683772E-12  0.17120000000E+03  0.17120000000E+03 0.  0.
         13    1    1    2    0    0 -0.98901771036E+01  0.10261470215E+02  0.24346987383E+02  0.28211705599E+02  0.10566000000E+00 0.  1.
        994    1    1    2    0    0  0.24168524194E+01 -0.15925028532E+02  0.47502577864E+01  0.17202166334E+03  0.17120000000E+03 0.  0.
        998    1    1    2    0    0  0.74733246842E+01  0.56635583171E+01  0.14709027511E+04  0.14709666311E+04  0.10000000000E+02 0.  1.
</event>
<event>
 5    1  0.1369527E-008  0.3766989E+03  0.7957747E-01  0.3465660E+00
         13   -1    0    0    0    0  0.00000000000E+00  0.00000000000E+00  0.14999999963E+04  0.15000000000E+04  0.10566000000E+00 0. -1.
        994   -1    0    0    0    0 -0.00000000000E+00 -0.00000000000E+00  0.11368683772E-12  0.17120000000E+03  0.17120000000E+03 0.  0.
         13    1    1    2    0    0 -0.15737645064E+02 -0.48701650057E+02  0.20390878538E+03  0.21023398419E+03  0.10566000000E+00 0. -1.
        994    1    1    2    0    0  0.29350286174E+02  0.37094073246E+02  0.13408659381E+02  0.17811973982E+03  0.17120000000E+03 0.  0.
        998    1    1    2    0    0 -0.13612641111E+02  0.11607576811E+02  0.12826825515E+04  0.12828462760E+04  0.10000000000E+02 0. -1.
</event>
<event>
 5    1  0.1369527E-008  0.3816082E+03  0.7957747E-01  0.3444186E+00
         13   -1    0    0    0    0  0.00000000000E+00  0.00000000000E+00  0.14999999963E+04  0.15000000000E+04  0.10566000000E+00 0.  1.
        994   -1    0    0    0    0 -0.00000000000E+00 -0.00000000000E+00  0.11368683772E-12  0.17120000000E+03  0.17120000000E+03 0.  0.
         13    1    1    2    0    0 -0.26531038220E+02 -0.13747322960E+02  0.16292867309E+03  0.16564615467E+03  0.10566000000E+00 0.  1.
        994    1    1    2    0    0 -0.94307580082E+01 -0.10582026196E+01  0.36230538913E+01  0.17150109477E+03  0.17120000000E+03 0.  0.
        998    1    1    2    0    0  0.35961796228E+02  0.14805525579E+02  0.13334482693E+04  0.13340527506E+04  0.10000000000E+02 0.  1.
</event>
<event>
 5    1  0.1369527E-008  0.3843145E+03  0.7957747E-01  0.3432585E+00
         13   -1    0    0    0    0  0.00000000000E+00  0.00000000000E+00  0.14999999963E+04  0.15000000000E+04  0.10566000000E+00 0. -1.
        994   -1    0    0    0    0 -0.00000000000E+00 -0.00000000000E+00  0.11368683772E-12  0.17120000000E+03  0.17120000000E+03 0.  0.
         13    1    1    2    0    0  0.10062404915E+02  0.58845236644E+01  0.35714203211E+02  0.37568538519E+02  0.10566000000E+00 0. -1.
        994    1    1    2    0    0  0.52581128861E+01 -0.29335096586E+01  0.20903625903E+01  0.17131860041E+03  0.17120000000E+03 0.  0.
        998    1    1    2    0    0 -0.15320517802E+02 -0.29510140058E+01  0.14621954305E+04  0.14623128611E+04  0.10000000000E+02 0. -1.
</event>
<event>
 5    1  0.1369527E-008  0.3790807E+03  0.7957747E-01  0.3455171E+00
         13   -1    0    0    0    0  0.00000000000E+00  0.00000000000E+00  0.14999999963E+04  0.15000000000E+04  0.10566000000E+00 0.  1.
        994   -1    0    0    0    0 -0.00000000000E+00 -0.00000000000E+00  0.11368683772E-12  0.17120000000E+03  0.17120000000E+03 0.  0.
         13    1    1    2    0    0  0.25240723152E+02 -0.78915112243E+01  0.81722613999E+02  0.85895092162E+02  0.10566000000E+00 0.  1.
        994    1    1    2    0    0  0.75124283456E+01  0.98124806315E+01  0.51101668746E+01  0.17172150466E+03  0.17120000000E+03 0.  0.
        998    1    1    2    0    0 -0.32753151498E+02 -0.19209694073E+01  0.14131672154E+04  0.14135834032E+04  0.10000000000E+02 0.  1.
</event>
<event>
 5    1  0.1745781E-008  0.3857611E+03  0.7957747E-01  0.3426451E+00
         13   -1    0    0    0    0  0.00000000000E+00  0.00000000000E+00  0.14999999963E+04  0.15000000000E+04  0.10566000000E+00 0. -1.
        994   -1    0    0    0    0 -0.00000000000E+00 -0.00000000000E+00  0.11368683772E-12  0.17120000000E+03  0.17120000000E+03 0.  0.
         13    1    1    2    0    0 -0.12170892682E+02 -0.26587118408E+01  0.66168145914E+02  0.67330781038E+02  0.10566000000E+00 0. -1.
        994    1    1    2    0    0 -0.46758582705E+00  0.41704570422E+01  0.13105230881E+01  0.17125644169E+03  0.17120000000E+03 0.  0.
        998    1    1    2    0    0  0.12638478509E+02 -0.15117452014E+01  0.14325213273E+04  0.14326127773E+04  0.10000000000E+02 0. -1.
</event>
<event>
 5    1  0.1369527E-008  0.3769556E+03  0.7957747E-01  0.3464523E+00
         13   -1    0    0    0    0  0.00000000000E+00  0.00000000000E+00  0.14999999963E+04  0.15000000000E+04  0.10566000000E+00 0. -1.
        994   -1    0    0    0    0 -0.00000000000E+00 -0.00000000000E+00  0.11368683772E-12  0.17120000000E+03  0.17120000000E+03 0.  0.
         13    1    1    2    0    0 -0.88863390491E+01  0.10100527086E+03  0.52524140841E+03  0.53493885635E+03  0.10566000000E+00 0. -1.
        994    1    1    2    0    0  0.13600348709E+02 -0.10790631133E+03  0.46727451051E+02  0.20813850242E+03  0.17120000000E+03 0.  0.
        998    1    1    2    0    0 -0.47140096598E+01  0.69010404685E+01  0.92803113682E+03  0.92812264122E+03  0.10000000000E+02 0.  0.
</event>
<event>
 5    1  0.1369527E-008  0.3953513E+03  0.7957747E-01  0.3386923E+00
         13   -1    0    0    0    0  0.00000000000E+00  0.00000000000E+00  0.14999999963E+04  0.15000000000E+04  0.10566000000E+00 0.  1.
        994   -1    0    0    0    0 -0.00000000000E+00 -0.00000000000E+00  0.11368683772E-12  0.17120000000E+03  0.17120000000E+03 0.  0.
         13    1    1    2    0    0 -0.51657394579E+02 -0.45657214995E+02  0.80375262489E+02  0.10589268945E+03  0.10566000000E+00 0.  1.
        994    1    1    2    0    0 -0.20742937295E+02  0.12590424661E+03  0.90749490878E+02  0.23200659227E+03  0.17120000000E+03 0.  0.
        998    1    1    2    0    0  0.72400331873E+02 -0.80247031611E+02  0.13288752429E+04  0.13333007183E+04  0.10000000000E+02 0.  1.
</event>
<event>
 5    1  0.1369527E-008  0.3860862E+03  0.7957747E-01  0.3425079E+00
         13   -1    0    0    0    0  0.00000000000E+00  0.00000000000E+00  0.14999999963E+04  0.15000000000E+04  0.10566000000E+00 0.  1.
        994   -1    0    0    0    0 -0.00000000000E+00 -0.00000000000E+00  0.11368683772E-12  0.17120000000E+03  0.17120000000E+03 0.  0.
         13    1    1    2    0    0  0.10715285794E+02  0.39212354884E+01  0.61483435330E+02  0.62533330484E+02  0.10566000000E+00 0.  1.
        994    1    1    2    0    0 -0.75003090769E+01  0.48837168068E+01  0.13543919064E+01  0.17143914286E+03  0.17120000000E+03 0.  0.
        998    1    1    2    0    0 -0.32149767171E+01 -0.88049522952E+01  0.14371621690E+04  0.14372275267E+04  0.10000000000E+02 0.  1.
</event>
<event>
 5    1  0.1369527E-008  0.3820507E+03  0.7957747E-01  0.3442277E+00
         13   -1    0    0    0    0  0.00000000000E+00  0.00000000000E+00  0.14999999963E+04  0.15000000000E+04  0.10566000000E+00 0.  1.
        994   -1    0    0    0    0 -0.00000000000E+00 -0.00000000000E+00  0.11368683772E-12  0.17120000000E+03  0.17120000000E+03 0.  0.
         13    1    1    2    0    0  0.19724220761E+02 -0.23925330500E+02  0.18626788456E+03  0.18883114760E+03  0.10566000000E+00 0.  1.
        994    1    1    2    0    0 -0.32707738458E+01 -0.82812972213E+01  0.33647943257E+01  0.17146439772E+03  0.17120000000E+03 0.  0.
        998    1    1    2    0    0 -0.16453446915E+02  0.32206627722E+02  0.13103673174E+04  0.13109044547E+04  0.10000000000E+02 0.  1.
</event>
<event>
 5    1  0.1369527E-008  0.3822539E+03  0.7957747E-01  0.3441403E+00
         13   -1    0    0    0    0  0.00000000000E+00  0.00000000000E+00  0.14999999963E+04  0.15000000000E+04  0.10566000000E+00 0.  1.
        994   -1    0    0    0    0 -0.00000000000E+00 -0.00000000000E+00  0.11368683772E-12  0.17120000000E+03  0.17120000000E+03 0.  0.
         13    1    1    2    0    0  0.86105057742E+01 -0.10912774627E+02  0.30980314147E+02  0.33956155384E+02  0.10566000000E+00 0.  1.
        994    1    1    2    0    0 -0.44727477368E+01  0.10250941244E+02  0.34148606153E+01  0.17159891766E+03  0.17120000000E+03 0.  0.
        998    1    1    2    0    0 -0.41377580374E+01  0.66183338289E+00  0.14656048215E+04  0.14656449270E+04  0.10000000000E+02 0.  1.
</event>
<event>
 5    1  0.1369527E-008  0.3858998E+03  0.7957747E-01  0.3425865E+00
         13   -1    0    0    0    0  0.00000000000E+00  0.00000000000E+00  0.14999999963E+04  0.15000000000E+04  0.10566000000E+00 0. -1.
        994   -1    0    0    0    0 -0.00000000000E+00 -0.00000000000E+00  0.11368683772E-12  0.17120000000E+03  0.17120000000E+03 0.  0.
         13    1    1    2    0    0 -0.19992132272E+01  0.11382502335E+02  0.57062669674E+02  0.58221281739E+02  0.10566000000E+00 0. -1.
        994    1    1    2    0    0 -0.23623946490E+01 -0.80683873269E+01  0.14158490995E+01  0.17141214779E+03  0.17120000000E+03 0.  0.
        998    1    1    2    0    0  0.43616078762E+01 -0.33141150080E+01  0.14415214775E+04  0.14415665705E+04  0.10000000000E+02 0. -1.
</event>
<event>
 5    1  0.1369527E-008  0.3857727E+03  0.7957747E-01  0.3426402E+00
         13   -1    0    0    0    0  0.00000000000E+00  0.00000000000E+00  0.14999999963E+04  0.15000000000E+04  0.10566000000E+00 0.  1.
        994   -1    0    0    0    0 -0.00000000000E+00 -0.00000000000E+00  0.11368683772E-12  0.17120000000E+03  0.17120000000E+03 0.  0.
         13    1    1    2    0    0 -0.48637414480E+01  0.12732409483E+02  0.71145800433E+02  0.72439673629E+02  0.10566000000E+00 0.  1.
        994    1    1    2    0    0  0.77525196621E+01 -0.14452753971E+02  0.21298525088E+01  0.17199697651E+03  0.17120000000E+03 0.  0.
        998    1    1    2    0    0 -0.28887782140E+01  0.17203444881E+01  0.14267243433E+04  0.14267633499E+04  0.10000000000E+02 0.  1.
</event>
<event>
 5    1  0.1369527E-008  0.3824258E+03  0.7957747E-01  0.3440664E+00
         13   -1    0    0    0    0  0.00000000000E+00  0.00000000000E+00  0.14999999963E+04  0.15000000000E+04  0.10566000000E+00 0.  1.
        994   -1    0    0    0    0 -0.00000000000E+00 -0.00000000000E+00  0.11368683772E-12  0.17120000000E+03  0.17120000000E+03 0.  0.
         13    1    1    2    0    0 -0.23650847140E+02 -0.24408251018E+01  0.94525029983E+02  0.97469547321E+02  0.10566000000E+00 0.  1.
        994    1    1    2    0    0  0.18419464798E+02 -0.65287267329E+01  0.41811399205E+01  0.17236247529E+03  0.17120000000E+03 0.  0.
        998    1    1    2    0    0  0.52313823422E+01  0.89695518347E+01  0.14012938264E+04  0.14013679774E+04  0.10000000000E+02 0.  1.
</event>
<event>
 5    1  0.1369527E-008  0.3790140E+03  0.7957747E-01  0.3455463E+00
         13   -1    0    0    0    0  0.00000000000E+00  0.00000000000E+00  0.14999999963E+04  0.15000000000E+04  0.10566000000E+00 0.  1.
        994   -1    0    0    0    0 -0.00000000000E+00 -0.00000000000E+00  0.11368683772E-12  0.17120000000E+03  0.17120000000E+03 0.  0.
         13    1    1    2    0    0  0.36343193551E+02  0.20571560673E+02  0.16271817608E+03  0.16799176413E+03  0.10566000000E+00 0.  1.
        994    1    1    2    0    0 -0.42288059569E+02 -0.20019886246E+02  0.12008786065E+02  0.17788402618E+03  0.17120000000E+03 0.  0.
        998    1    1    2    0    0  0.59448660188E+01 -0.55167442737E+00  0.13252730341E+04  0.13253242097E+04  0.10000000000E+02 0.  1.
</event>
<event>
 5    1  0.1369527E-008  0.3831423E+03  0.7957747E-01  0.3437589E+00
         13   -1    0    0    0    0  0.00000000000E+00  0.00000000000E+00  0.14999999963E+04  0.15000000000E+04  0.10566000000E+00 0.  1.
        994   -1    0    0    0    0 -0.00000000000E+00 -0.00000000000E+00  0.11368683772E-12  0.17120000000E+03  0.17120000000E+03 0.  0.
         13    1    1    2    0    0  0.10174058864E+02 -0.11910045951E+02  0.47317826137E+02  0.49843239287E+02  0.10566000000E+00 0.  1.
        994    1    1    2    0    0 -0.90787552993E+01  0.55112770323E+01  0.29285470410E+01  0.17155411496E+03  0.17120000000E+03 0.  0.
        998    1    1    2    0    0 -0.10953035646E+01  0.63987689191E+01  0.14497536231E+04  0.14498026458E+04  0.10000000000E+02 0.  1.
</event>
<event>
 5    1  0.1369527E-008  0.3834632E+03  0.7957747E-01  0.3436216E+00
         13   -1    0    0    0    0  0.00000000000E+00  0.00000000000E+00  0.14999999963E+04  0.15000000000E+04  0.10566000000E+00 0.  1.
        994   -1    0    0    0    0 -0.00000000000E+00 -0.00000000000E+00  0.11368683772E-12  0.17120000000E+03  0.17120000000E+03 0.  0.
         13    1    1    2    0    0  0.22716937142E+02 -0.30745131943E+01  0.13069641970E+03  0.13269166195E+03  0.10566000000E+00 0.  1.
        994    1    1    2    0    0  0.75001068943E+01 -0.10986005972E+02  0.29800972981E+01  0.17174185544E+03  0.17120000000E+03 0.  0.
        998    1    1    2    0    0 -0.30217044037E+02  0.14060519166E+02  0.13663234793E+04  0.13667664826E+04  0.10000000000E+02 0.  1.
</event>
<event>
 5    1  0.1369527E-008  0.3832442E+03  0.7957747E-01  0.3437153E+00
         13   -1    0    0    0    0  0.00000000000E+00  0.00000000000E+00  0.14999999963E+04  0.15000000000E+04  0.10566000000E+00 0.  1.
        994   -1    0    0    0    0 -0.00000000000E+00 -0.00000000000E+00  0.11368683772E-12  0.17120000000E+03  0.17120000000E+03 0.  0.
         13    1    1    2    0    0  0.16717594245E+02 -0.31495166980E+02  0.27507331002E+02  0.45034297190E+02  0.10566000000E+00 0.  1.
        994    1    1    2    0    0 -0.28501192369E+02  0.21446926175E+02  0.22800608988E+02  0.17635644694E+03  0.17120000000E+03 0.  0.
        998    1    1    2    0    0  0.11783598123E+02  0.10048240805E+02  0.14496920563E+04  0.14498092559E+04  0.10000000000E+02 0.  1.
</event>
<event>
 5    1  0.1369527E-008  0.3850199E+03  0.7957747E-01  0.3429588E+00
         13   -1    0    0    0    0  0.00000000000E+00  0.00000000000E+00  0.14999999963E+04  0.15000000000E+04  0.10566000000E+00 0.  1.
        994   -1    0    0    0    0 -0.00000000000E+00 -0.00000000000E+00  0.11368683772E-12  0.17120000000E+03  0.17120000000E+03 0.  0.
         13    1    1    2    0    0 -0.18884871150E+01 -0.11158459596E+02  0.37696476932E+02  0.39358774642E+02  0.10566000000E+00 0.  1.
        994    1    1    2    0    0 -0.66051578926E+00  0.17040413615E+02  0.25771610716E+01  0.17206653869E+03  0.17120000000E+03 0.  0.
        998    1    1    2    0    0  0.25490029042E+01 -0.58819540188E+01  0.14597263583E+04  0.14597746867E+04  0.10000000000E+02 0.  1.
</event>
<event>
 5    1  0.1369527E-008  0.3688793E+03  0.7957747E-01  0.3501057E+00
         13   -1    0    0    0    0  0.00000000000E+00  0.00000000000E+00  0.14999999963E+04  0.15000000000E+04  0.10566000000E+00 0.  1.
        994   -1    0    0    0    0 -0.00000000000E+00 -0.00000000000E+00  0.11368683772E-12  0.17120000000E+03  0.17120000000E+03 0.  0.
         13    1    1    2    0    0 -0.54915794249E+02 -0.10709535515E+02  0.14718355607E+03  0.15745935650E+03  0.10566000000E+00 0.  1.
        994    1    1    2    0    0  0.35114463158E+02  0.33123274955E+01  0.14691868258E+02  0.17541176708E+03  0.17120000000E+03 0.  0.
        998    1    1    2    0    0  0.19801331092E+02  0.73972080193E+01  0.13381245720E+04  0.13383288764E+04  0.10000000000E+02 0.  1.
</event>
<event>
 5    1  0.1369527E-008  0.3813828E+03  0.7957747E-01  0.3445159E+00
         13   -1    0    0    0    0  0.00000000000E+00  0.00000000000E+00  0.14999999963E+04  0.15000000000E+04  0.10566000000E+00 0. -1.
        994   -1    0    0    0    0 -0.00000000000E+00 -0.00000000000E+00  0.11368683772E-12  0.17120000000E+03  0.17120000000E+03 0.  0.
         13    1    1    2    0    0  0.35177808579E+02  0.19712097643E+02  0.23515841676E+03  0.23859073148E+03  0.10566000000E+00 0. -1.
        994    1    1    2    0    0 -0.23168350511E+02 -0.64118378467E+01  0.53621265677E+01  0.17296264490E+03  0.17120000000E+03 0.  0.
        998    1    1    2    0    0 -0.12009458068E+02 -0.13300259797E+02  0.12594794529E+04  0.12596466236E+04  0.10000000000E+02 0. -1.
</event>
<event>
 5    1  0.1369527E-008  0.4056669E+03  0.7957747E-01  0.3346487E+00
         13   -1    0    0    0    0  0.00000000000E+00  0.00000000000E+00  0.14999999963E+04  0.15000000000E+04  0.10566000000E+00 0.  1.
        994   -1    0    0    0    0 -0.00000000000E+00 -0.00000000000E+00  0.11368683772E-12  0.17120000000E+03  0.17120000000E+03 0.  0.
         13    1    1    2    0    0 -0.14857777125E+02  0.30652708831E+02  0.67038802158E+01  0.34717362713E+02  0.10566000000E+00 0.  1.
        994    1    1    2    0    0  0.60375668928E+02  0.45288583756E+02  0.54422018916E+02  0.19485243996E+03  0.17120000000E+03 0.  0.
        998    1    1    2    0    0 -0.45517891803E+02 -0.75941292586E+02  0.14388740971E+04  0.14416301973E+04  0.10000000000E+02 0.  1.
</event>
<event>
 5    1  0.1369527E-008  0.3847363E+03  0.7957747E-01  0.3430791E+00
         13   -1    0    0    0    0  0.00000000000E+00  0.00000000000E+00  0.14999999963E+04  0.15000000000E+04  0.10566000000E+00 0. -1.
        994   -1    0    0    0    0 -0.00000000000E+00 -0.00000000000E+00  0.11368683772E-12  0.17120000000E+03  0.17120000000E+03 0.  0.
         13    1    1    2    0    0 -0.15715140106E+02  0.12692286054E+02  0.12089577842E+03  0.12257185712E+03  0.10566000000E+00 0. -1.
        994    1    1    2    0    0  0.49824779927E+01 -0.57616858031E+01  0.19521313065E+01  0.17138049168E+03  0.17120000000E+03 0.  0.
        998    1    1    2    0    0  0.10732662113E+02 -0.69306002513E+01  0.13771520866E+04  0.13772476512E+04  0.10000000000E+02 0. -1.
</event>
<event>
 5    1  0.1369527E-008  0.3838956E+03  0.7957747E-01  0.3434370E+00
         13   -1    0    0    0    0  0.00000000000E+00  0.00000000000E+00  0.14999999963E+04  0.15000000000E+04  0.10566000000E+00 0. -1.
        994   -1    0    0    0    0 -0.00000000000E+00 -0.00000000000E+00  0.11368683772E-12  0.17120000000E+03  0.17120000000E+03 0.  0.
         13    1    1    2    0    0 -0.12209284431E+02 -0.29237294060E+01  0.34781359626E+02  0.36977952370E+02  0.10566000000E+00 0. -1.
        994    1    1    2    0    0  0.14467173073E+02 -0.47039381490E+00  0.28712799079E+01  0.17183481782E+03  0.17120000000E+03 0.  0.
        998    1    1    2    0    0 -0.22578886413E+01  0.33941232209E+01  0.14623473567E+04  0.14623872298E+04  0.10000000000E+02 0. -1.
</event>
<event>
 5    1  0.1369527E-008  0.3809212E+03  0.7957747E-01  0.3447157E+00
         13   -1    0    0    0    0  0.00000000000E+00  0.00000000000E+00  0.14999999963E+04  0.15000000000E+04  0.10566000000E+00 0. -1.
        994   -1    0    0    0    0 -0.00000000000E+00 -0.00000000000E+00  0.11368683772E-12  0.17120000000E+03  0.17120000000E+03 0.  0.
         13    1    1    2    0    0 -0.14073054358E+02 -0.31911165106E+00  0.25704007935E+02  0.29306311252E+02  0.10566000000E+00 0. -1.
        994    1    1    2    0    0  0.77790149425E+01 -0.18803547426E+01  0.38823415513E+01  0.17143092307E+03  0.17120000000E+03 0.  0.
        998    1    1    2    0    0  0.62940394158E+01  0.21994663937E+01  0.14704136468E+04  0.14704627657E+04  0.10000000000E+02 0. -1.
</event>
<event>
 5    1  0.1369527E-008  0.3845003E+03  0.7957747E-01  0.3431794E+00
         13   -1    0    0    0    0  0.00000000000E+00  0.00000000000E+00  0.14999999963E+04  0.15000000000E+04  0.10566000000E+00 0.  1.
        994   -1    0    0    0    0 -0.00000000000E+00 -0.00000000000E+00  0.11368683772E-12  0.17120000000E+03  0.17120000000E+03 0.  0.
         13    1    1    2    0    0 -0.50612648636E+01 -0.11623967534E+02  0.43320842510E+02  0.45138005971E+02  0.10566000000E+00 0.  1.
        994    1    1    2    0    0 -0.60059795205E+01  0.75242440883E+01  0.21838039024E+01  0.17148438716E+03  0.17120000000E+03 0.  0.
        998    1    1    2    0    0  0.11067244384E+02  0.40997234454E+01  0.14544953499E+04  0.14545776069E+04  0.10000000000E+02 0.  1.
</event>
<event>
 5    1  0.1369527E-008  0.3819065E+03  0.7957747E-01  0.3442899E+00
         13   -1    0    0    0    0  0.00000000000E+00  0.00000000000E+00  0.14999999963E+04  0.15000000000E+04  0.10566000000E+00 0. -1.
        994   -1    0    0    0    0 -0.00000000000E+00 -0.00000000000E+00  0.11368683772E-12  0.17120000000E+03  0.17120000000E+03 0.  0.
         13    1    1    2    0    0 -0.30834998167E+02 -0.54101792662E+01  0.13541470036E+03  0.13898640001E+03  0.10566000000E+00 0. -1.
        994    1    1    2    0    0  0.37061868034E+02  0.52956083657E+01  0.78440335725E+01  0.17542119140E+03  0.17120000000E+03 0.  0.
        998    1    1    2    0    0 -0.62268698668E+01  0.11457090048E+00  0.13567412623E+04  0.13567924086E+04  0.10000000000E+02 0. -1.
</event>
<event>
 5    1  0.1369527E-008  0.3767652E+03  0.7957747E-01  0.3465366E+00
         13   -1    0    0    0    0  0.00000000000E+00  0.00000000000E+00  0.14999999963E+04  0.15000000000E+04  0.10566000000E+00 0.  1.
        994   -1    0    0    0    0 -0.00000000000E+00 -0.00000000000E+00  0.11368683772E-12  0.17120000000E+03  0.17120000000E+03 0.  0.
         13    1    1    2    0    0 -0.51883679809E+02 -0.31420219563E+01  0.27425680284E+03  0.27913902200E+03  0.10566000000E+00 0.  1.
        994    1    1    2    0    0  0.80813555139E+01  0.60473190156E+01  0.61193865141E+01  0.17160642548E+03  0.17120000000E+03 0.  0.
        998    1    1    2    0    0  0.43802324295E+02 -0.29052970593E+01  0.12196238069E+04  0.12204545525E+04  0.10000000000E+02 0.  1.
</event>
<event>
 5    1  0.1369527E-008  0.3816666E+03  0.7957747E-01  0.3443934E+00
         13   -1    0    0    0    0  0.00000000000E+00  0.00000000000E+00  0.14999999963E+04  0.15000000000E+04  0.10566000000E+00 0.  1.
        994   -1    0    0    0    0 -0.00000000000E+00 -0.00000000000E+00  0.11368683772E-12  0.17120000000E+03  0.17120000000E+03 0.  0.
         13    1    1    2    0    0 -0.91622467463E+01  0.45788228929E+01  0.14580979938E+02  0.17819330080E+02  0.10566000000E+00 0.  1.
        994    1    1    2    0    0  0.77430729188E+01  0.10010829987E+01  0.34968797775E+01  0.17141360948E+03  0.17120000000E+03 0.  0.
        998    1    1    2    0    0  0.14191738275E+01 -0.55799058915E+01  0.14819221366E+04  0.14819670604E+04  0.10000000000E+02 0.  1.
</event>
<event>
 5    1  0.1369527E-008  0.3794670E+03  0.7957747E-01  0.3453483E+00
         13   -1    0    0    0    0  0.00000000000E+00  0.00000000000E+00  0.14999999963E+04  0.15000000000E+04  0.10566000000E+00 0.  1.
        994   -1    0    0    0    0 -0.00000000000E+00 -0.00000000000E+00  0.11368683772E-12  0.17120000000E+03  0.17120000000E+03 0.  0.
         13    1    1    2    0    0 -0.19745604060E+02  0.51471180306E+02  0.28139325916E+03  0.28674265248E+03  0.10566000000E+00 0.  1.
        994    1    1    2    0    0  0.13707145423E+02 -0.53740216655E+02  0.14772798147E+02  0.18056459312E+03  0.17120000000E+03 0.  0.
        998    1    1    2    0    0  0.60384586364E+01  0.22690363491E+01  0.12038339390E+04  0.12038927544E+04  0.10000000000E+02 0.  1.
</event>
<event>
 5    1  0.1369527E-008  0.3773455E+03  0.7957747E-01  0.3462799E+00
         13   -1    0    0    0    0  0.00000000000E+00  0.00000000000E+00  0.14999999963E+04  0.15000000000E+04  0.10566000000E+00 0. -1.
        994   -1    0    0    0    0 -0.00000000000E+00 -0.00000000000E+00  0.11368683772E-12  0.17120000000E+03  0.17120000000E+03 0.  0.
         13    1    1    2    0    0  0.13636445486E+02 -0.27055135092E+02  0.76788898065E+02  0.82549857725E+02  0.10566000000E+00 0. -1.
        994    1    1    2    0    0 -0.26110582175E+02  0.25455957505E+02  0.99769845855E+01  0.17532469448E+03  0.17120000000E+03 0.  0.
        998    1    1    2    0    0  0.12474136689E+02  0.15991775871E+01  0.14132341136E+04  0.14133254478E+04  0.10000000000E+02 0. -1.
</event>
<event>
 5    1  0.1369527E-008  0.3810610E+03  0.7957747E-01  0.3446552E+00
         13   -1    0    0    0    0  0.00000000000E+00  0.00000000000E+00  0.14999999963E+04  0.15000000000E+04  0.10566000000E+00 0. -1.
        994   -1    0    0    0    0 -0.00000000000E+00 -0.00000000000E+00  0.11368683772E-12  0.17120000000E+03  0.17120000000E+03 0.  0.
         13    1    1    2    0    0  0.94802160568E+02  0.12815847723E+03  0.88390889025E+03  0.89816868257E+03  0.10566000000E+00 0. -1.
        994    1    1    2    0    0 -0.10874899042E+03 -0.13514975639E+03  0.11135886759E+03  0.26795902105E+03  0.17120000000E+03 0.  0.
        998    1    1    2    0    0  0.13946829854E+02  0.69912791605E+01  0.50473223844E+03  0.50507229638E+03  0.10000000000E+02 0.  1.
</event>
<event>
 5    1  0.1369527E-008  0.3835623E+03  0.7957747E-01  0.3435793E+00
         13   -1    0    0    0    0  0.00000000000E+00  0.00000000000E+00  0.14999999963E+04  0.15000000000E+04  0.10566000000E+00 0.  1.
        994   -1    0    0    0    0 -0.00000000000E+00 -0.00000000000E+00  0.11368683772E-12  0.17120000000E+03  0.17120000000E+03 0.  0.
         13    1    1    2    0    0 -0.11106770752E+02  0.12606644873E+02  0.60706621490E+02  0.62988831616E+02  0.10566000000E+00 0.  1.
        994    1    1    2    0    0  0.61416784696E+01 -0.44164093853E+01  0.25347206787E+01  0.17138579199E+03  0.17120000000E+03 0.  0.
        998    1    1    2    0    0  0.49650922827E+01 -0.81902354880E+01  0.14367586541E+04  0.14368253764E+04  0.10000000000E+02 0.  1.
</event>
<event>
 5    1  0.1369527E-008  0.3852563E+03  0.7957747E-01  0.3428586E+00
         13   -1    0    0    0    0  0.00000000000E+00  0.00000000000E+00  0.14999999963E+04  0.15000000000E+04  0.10566000000E+00 0. -1.
        994   -1    0    0    0    0 -0.00000000000E+00 -0.00000000000E+00  0.11368683772E-12  0.17120000000E+03  0.17120000000E+03 0.  0.
         13    1    1    2    0    0  0.66424908512E+01 -0.10834034134E+02  0.56079931977E+02  0.57501903576E+02  0.10566000000E+00 0. -1.
        994    1    1    2    0    0 -0.27140945614E+01  0.51317174642E+00  0.15280041704E+01  0.17122909931E+03  0.17120000000E+03 0.  0.
        998    1    1    2    0    0 -0.39283962898E+01  0.10320862388E+02  0.14423920601E+04  0.14424689971E+04  0.10000000000E+02 0. -1.
</event>
<event>
 5    1  0.1369527E-008  0.3751553E+03  0.7957747E-01  0.3472529E+00
         13   -1    0    0    0    0  0.00000000000E+00  0.00000000000E+00  0.14999999963E+04  0.15000000000E+04  0.10566000000E+00 0.  1.
        994   -1    0    0    0    0 -0.00000000000E+00 -0.00000000000E+00  0.11368683772E-12  0.17120000000E+03  0.17120000000E+03 0.  0.
         13    1    1    2    0    0 -0.15984960981E+02 -0.13057508188E+02  0.93826970406E+01  0.22672972135E+02  0.10566000000E+00 0.  1.
        994    1    1    2    0    0  0.19714077555E+02  0.10959085191E+02  0.15504461737E+02  0.17337408900E+03  0.17120000000E+03 0.  0.
        998    1    1    2    0    0 -0.37291165747E+01  0.20984229968E+01  0.14751128375E+04  0.14751529389E+04  0.10000000000E+02 0.  1.
</event>
<event>
 5    1  0.1369527E-008  0.3778608E+03  0.7957747E-01  0.3460526E+00
         13   -1    0    0    0    0  0.00000000000E+00  0.00000000000E+00  0.14999999963E+04  0.15000000000E+04  0.10566000000E+00 0. -1.
        994   -1    0    0    0    0 -0.00000000000E+00 -0.00000000000E+00  0.11368683772E-12  0.17120000000E+03  0.17120000000E+03 0.  0.
         13    1    1    2    0    0 -0.10499642216E+01 -0.12357617380E+02  0.12400472900E+02  0.17538415674E+02  0.10566000000E+00 0. -1.
        994    1    1    2    0    0 -0.24624207457E+01  0.10432294359E+02  0.56038336334E+01  0.17162674393E+03  0.17120000000E+03 0.  0.
        998    1    1    2    0    0  0.35123849673E+01  0.19253230206E+01  0.14819956897E+04  0.14820348404E+04  0.10000000000E+02 0. -1.
</event>
<event>
 5    1  0.1369527E-008  0.3849553E+03  0.7957747E-01  0.3429862E+00
         13   -1    0    0    0    0  0.00000000000E+00  0.00000000000E+00  0.14999999963E+04  0.15000000000E+04  0.10566000000E+00 0.  1.
        994   -1    0    0    0    0 -0.00000000000E+00 -0.00000000000E+00  0.11368683772E-12  0.17120000000E+03  0.17120000000E+03 0.  0.
         13    1    1    2    0    0 -0.11645271425E+02 -0.44359823369E+01  0.48383582038E+02  0.49962710703E+02  0.10566000000E+00 0.  1.
        994    1    1    2    0    0  0.32528694046E+00  0.67159904480E+01  0.18010499560E+01  0.17134145476E+03  0.17120000000E+03 0.  0.
        998    1    1    2    0    0  0.11319984485E+02 -0.22800081111E+01  0.14498153643E+04  0.14498958345E+04  0.10000000000E+02 0.  1.
</event>
<event>
 5    1  0.1369527E-008  0.3789456E+03  0.7957747E-01  0.3455763E+00
         13   -1    0    0    0    0  0.00000000000E+00  0.00000000000E+00  0.14999999963E+04  0.15000000000E+04  0.10566000000E+00 0. -1.
        994   -1    0    0    0    0 -0.00000000000E+00 -0.00000000000E+00  0.11368683772E-12  0.17120000000E+03  0.17120000000E+03 0.  0.
         13    1    1    2    0    0 -0.27971706036E+02 -0.82611287609E+01  0.84006278375E+02  0.88925410077E+02  0.10566000000E+00 0. -1.
        994    1    1    2    0    0  0.30694393706E+02  0.94061112341E+01  0.81314219846E+01  0.17437368138E+03  0.17120000000E+03 0.  0.
        998    1    1    2    0    0 -0.27226876696E+01 -0.11449824732E+01  0.14078622959E+04  0.14079009085E+04  0.10000000000E+02 0. -1.
</event>
<event>
 5    1  0.1369527E-008  0.3847141E+03  0.7957747E-01  0.3430886E+00
         13   -1    0    0    0    0  0.00000000000E+00  0.00000000000E+00  0.14999999963E+04  0.15000000000E+04  0.10566000000E+00 0.  1.
        994   -1    0    0    0    0 -0.00000000000E+00 -0.00000000000E+00  0.11368683772E-12  0.17120000000E+03  0.17120000000E+03 0.  0.
         13    1    1    2    0    0  0.17469729725E+02 -0.56946258926E+01  0.95042885375E+02  0.96802796680E+02  0.10566000000E+00 0.  1.
        994    1    1    2    0    0 -0.13134536341E+02 -0.18001542300E+01  0.23509107831E+01  0.17172863297E+03  0.17120000000E+03 0.  0.
        998    1    1    2    0    0 -0.43351933838E+01  0.74947801226E+01  0.14026062001E+04  0.14026685703E+04  0.10000000000E+02 0.  1.
</event>
<event>
 5    1  0.1369527E-008  0.3798609E+03  0.7957747E-01  0.3451764E+00
         13   -1    0    0    0    0  0.00000000000E+00  0.00000000000E+00  0.14999999963E+04  0.15000000000E+04  0.10566000000E+00 0. -1.
        994   -1    0    0    0    0 -0.00000000000E+00 -0.00000000000E+00  0.11368683772E-12  0.17120000000E+03  0.17120000000E+03 0.  0.
         13    1    1    2    0    0 -0.26702225155E+02  0.13658970517E+02  0.10302484903E+03  0.10730194307E+03  0.10566000000E+00 0. -1.
        994    1    1    2    0    0  0.10111077838E+02 -0.31392121405E+02  0.78497026334E+01  0.17452437369E+03  0.17120000000E+03 0.  0.
        998    1    1    2    0    0  0.16591147317E+02  0.17733150887E+02  0.13891254446E+04  0.13893736832E+04  0.10000000000E+02 0. -1.
</event>
<event>
 5    1  0.2032856E-008  0.3856195E+03  0.7957747E-01  0.3427049E+00
         13   -1    0    0    0    0  0.00000000000E+00  0.00000000000E+00  0.14999999963E+04  0.15000000000E+04  0.10566000000E+00 0.  1.
        994   -1    0    0    0    0 -0.00000000000E+00 -0.00000000000E+00  0.11368683772E-12  0.17120000000E+03  0.17120000000E+03 0.  0.
         13    1    1    2    0    0 -0.44028931907E+01  0.12938940946E+02  0.74108239175E+02  0.75358104666E+02  0.10566000000E+00 0.  1.
        994    1    1    2    0    0 -0.14201626780E+01 -0.41220168961E+01  0.13852544894E+01  0.17126110713E+03  0.17120000000E+03 0.  0.
        998    1    1    2    0    0  0.58230558687E+01 -0.88169240496E+01  0.14245065026E+04  0.14245807882E+04  0.10000000000E+02 0.  1.
</event>
<event>
 5    1  0.1369527E-008  0.3832081E+03  0.7957747E-01  0.3437307E+00
         13   -1    0    0    0    0  0.00000000000E+00  0.00000000000E+00  0.14999999963E+04  0.15000000000E+04  0.10566000000E+00 0.  1.
        994   -1    0    0    0    0 -0.00000000000E+00 -0.00000000000E+00  0.11368683772E-12  0.17120000000E+03  0.17120000000E+03 0.  0.
         13    1    1    2    0    0 -0.24790499283E+02 -0.18388504746E+02  0.18131761578E+03  0.18392605829E+03  0.10566000000E+00 0.  1.
        994    1    1    2    0    0  0.25355325536E+02  0.38537489634E+01  0.47011415038E+01  0.17317414543E+03  0.17120000000E+03 0.  0.
        998    1    1    2    0    0 -0.56482625270E+00  0.14534755783E+02  0.13139812390E+04  0.13140997963E+04  0.10000000000E+02 0.  1.
</event>
<event>
 5    1  0.1369527E-008  0.3874683E+03  0.7957747E-01  0.3419271E+00
         13   -1    0    0    0    0  0.00000000000E+00  0.00000000000E+00  0.14999999963E+04  0.15000000000E+04  0.10566000000E+00 0. -1.
        994   -1    0    0    0    0 -0.00000000000E+00 -0.00000000000E+00  0.11368683772E-12  0.17120000000E+03  0.17120000000E+03 0.  0.
         13    1    1    2    0    0  0.17436116109E+02 -0.10612397669E+02  0.22110670963E+00  0.20413259942E+02  0.10566000000E+00 0. -1.
        994    1    1    2    0    0 -0.41052386639E+02  0.55043057078E+02  0.38279639634E+02  0.18838738650E+03  0.17120000000E+03 0.  0.
        998    1    1    2    0    0  0.23616270531E+02 -0.44430659408E+02  0.14614992499E+04  0.14623993536E+04  0.10000000000E+02 0. -1.
</event>
<event>
 5    1  0.1369527E-008  0.3692980E+03  0.7957747E-01  0.3499124E+00
         13   -1    0    0    0    0  0.00000000000E+00  0.00000000000E+00  0.14999999963E+04  0.15000000000E+04  0.10566000000E+00 0. -1.
        994   -1    0    0    0    0 -0.00000000000E+00 -0.00000000000E+00  0.11368683772E-12  0.17120000000E+03  0.17120000000E+03 0.  0.
         13    1    1    2    0    0 -0.25926014678E+02  0.27719821986E+02  0.68967493981E+02  0.78721491082E+02  0.10566000000E+00 0. -1.
        994    1    1    2    0    0  0.25087220047E+02 -0.23986009889E+02  0.13823509436E+02  0.17522906920E+03  0.17120000000E+03 0.  0.
        998    1    1    2    0    0  0.83879463082E+00 -0.37338120971E+01  0.14172089929E+04  0.14172494397E+04  0.10000000000E+02 0. -1.
</event>
<event>
 5    1  0.1369527E-008  0.3688155E+03  0.7957747E-01  0.3501352E+00
         13   -1    0    0    0    0  0.00000000000E+00  0.00000000000E+00  0.14999999963E+04  0.15000000000E+04  0.10566000000E+00 0. -1.
        994   -1    0    0    0    0 -0.00000000000E+00 -0.00000000000E+00  0.11368683772E-12  0.17120000000E+03  0.17120000000E+03 0.  0.
         13    1    1    2    0    0  0.42503705827E+02  0.98042610292E+02  0.44640102106E+03  0.45901285517E+03  0.10566000000E+00 0. -1.
        994    1    1    2    0    0 -0.25241973026E+02 -0.85400417888E+02  0.38457478088E+02  0.19677094856E+03  0.17120000000E+03 0.  0.
        998    1    1    2    0    0 -0.17261732801E+02 -0.12642192404E+02  0.10151414971E+04  0.10154161963E+04  0.10000000000E+02 0. -1.
</event>
<event>
 5    1  0.1369527E-008  0.3854196E+03  0.7957747E-01  0.3427895E+00
         13   -1    0    0    0    0  0.00000000000E+00  0.00000000000E+00  0.14999999963E+04  0.15000000000E+04  0.10566000000E+00 0.  1.
        994   -1    0    0    0    0 -0.00000000000E+00 -0.00000000000E+00  0.11368683772E-12  0.17120000000E+03  0.17120000000E+03 0.  0.
         13    1    1    2    0    0 -0.11969115285E+02 -0.85638207637E+01  0.82023915916E+02  0.83333862824E+02  0.10566000000E+00 0.  1.
        994    1    1    2    0    0  0.11624990812E+02 -0.14370939872E+02  0.25448673843E+01  0.17221376447E+03  0.17120000000E+03 0.  0.
        998    1    1    2    0    0  0.34412447334E+00  0.22934760636E+02  0.14154312130E+04  0.14156523727E+04  0.10000000000E+02 0.  1.
</event>
<event>
 5    1  0.1369527E-008  0.3848761E+03  0.7957747E-01  0.3430198E+00
         13   -1    0    0    0    0  0.00000000000E+00  0.00000000000E+00  0.14999999963E+04  0.15000000000E+04  0.10566000000E+00 0. -1.
        994   -1    0    0    0    0 -0.00000000000E+00 -0.00000000000E+00  0.11368683772E-12  0.17120000000E+03  0.17120000000E+03 0.  0.
         13    1    1    2    0    0 -0.15063247581E+02 -0.65589854874E+01  0.79495046237E+02  0.81175090136E+02  0.10566000000E+00 0. -1.
        994    1    1    2    0    0  0.10137730846E+02  0.46285806439E+01  0.21003548360E+01  0.17157519878E+03  0.17120000000E+03 0.  0.
        998    1    1    2    0    0  0.49255167347E+01  0.19304048435E+01  0.14184045952E+04  0.14184497111E+04  0.10000000000E+02 0.  0.
</event>
<event>
 5    1  0.1369527E-008  0.3766681E+03  0.7957747E-01  0.3465796E+00
         13   -1    0    0    0    0  0.00000000000E+00  0.00000000000E+00  0.14999999963E+04  0.15000000000E+04  0.10566000000E+00 0.  1.
        994   -1    0    0    0    0 -0.00000000000E+00 -0.00000000000E+00  0.11368683772E-12  0.17120000000E+03  0.17120000000E+03 0.  0.
         13    1    1    2    0    0  0.38500751322E+02  0.33404995319E+02  0.21375119880E+03  0.21974482410E+03  0.10566000000E+00 0.  1.
        994    1    1    2    0    0 -0.82129381230E+01 -0.44656367108E+02  0.12825279562E+02  0.17758257592E+03  0.17120000000E+03 0.  0.
        998    1    1    2    0    0 -0.30287813199E+02  0.11251371789E+02  0.12734235179E+04  0.12738726000E+04  0.10000000000E+02 0.  1.
</event>
<event>
 5    1  0.1369527E-008  0.3796214E+03  0.7957747E-01  0.3452808E+00
         13   -1    0    0    0    0  0.00000000000E+00  0.00000000000E+00  0.14999999963E+04  0.15000000000E+04  0.10566000000E+00 0.  1.
        994   -1    0    0    0    0 -0.00000000000E+00 -0.00000000000E+00  0.11368683772E-12  0.17120000000E+03  0.17120000000E+03 0.  0.
         13    1    1    2    0    0 -0.22478738517E+02 -0.11149404022E+02  0.10230133656E+02  0.27097411205E+02  0.10566000000E+00 0.  1.
        994    1    1    2    0    0  0.68322876909E+02  0.56871859875E+02  0.45304668838E+02  0.19815240845E+03  0.17120000000E+03 0.  0.
        998    1    1    2    0    0 -0.45844138392E+02 -0.45722455853E+02  0.14444651938E+04  0.14459501803E+04  0.10000000000E+02 0.  1.
</event>
<event>
 5    1  0.1369527E-008  0.3804965E+03  0.7957747E-01  0.3449000E+00
         13   -1    0    0    0    0  0.00000000000E+00  0.00000000000E+00  0.14999999963E+04  0.15000000000E+04  0.10566000000E+00 0.  1.
        994   -1    0    0    0    0 -0.00000000000E+00 -0.00000000000E+00  0.11368683772E-12  0.17120000000E+03  0.17120000000E+03 0.  0.
         13    1    1    2    0    0 -0.92914455851E+01 -0.14157700025E+02  0.34988762759E+02  0.38871533472E+02  0.10566000000E+00 0.  1.
        994    1    1    2    0    0  0.10526834329E+02  0.11302392461E+02  0.46793092906E+01  0.17195899003E+03  0.17120000000E+03 0.  0.
        998    1    1    2    0    0 -0.12353887437E+01  0.28553075642E+01  0.14603319242E+04  0.14603694765E+04  0.10000000000E+02 0.  1.
</event>
<event>
 5    1  0.1369527E-008  0.3859498E+03  0.7957747E-01  0.3425654E+00
         13   -1    0    0    0    0  0.00000000000E+00  0.00000000000E+00  0.14999999963E+04  0.15000000000E+04  0.10566000000E+00 0.  1.
        994   -1    0    0    0    0 -0.00000000000E+00 -0.00000000000E+00  0.11368683772E-12  0.17120000000E+03  0.17120000000E+03 0.  0.
         13    1    1    2    0    0 -0.21742097909E+01 -0.10429873234E+02  0.53221853362E+02  0.54277861815E+02  0.10566000000E+00 0.  1.
        994    1    1    2    0    0  0.30952297616E+01 -0.41441108947E+01  0.12470102025E+01  0.17128265860E+03  0.17120000000E+03 0.  0.
        998    1    1    2    0    0 -0.92101997072E+00  0.14573984128E+02  0.14455311327E+04  0.14456394796E+04  0.10000000000E+02 0.  1.
</event>
<event>
 5    1  0.1369527E-008  0.3798861E+03  0.7957747E-01  0.3451654E+00
         13   -1    0    0    0    0  0.00000000000E+00  0.00000000000E+00  0.14999999963E+04  0.15000000000E+04  0.10566000000E+00 0. -1.
        994   -1    0    0    0    0 -0.00000000000E+00 -0.00000000000E+00  0.11368683772E-12  0.17120000000E+03  0.17120000000E+03 0.  0.
         13    1    1    2    0    0 -0.16390922199E+02 -0.17364366089E+02  0.76767357725E+02  0.80395409797E+02  0.10566000000E+00 0. -1.
        994    1    1    2    0    0 -0.16713128636E+02 -0.64334194943E+01  0.52638917855E+01  0.17221459320E+03  0.17120000000E+03 0.  0.
        998    1    1    2    0    0  0.33104050835E+02  0.23797785583E+02  0.14179687468E+04  0.14185899970E+04  0.10000000000E+02 0. -1.
</event>
<event>
 5    1  0.1369527E-008  0.3704465E+03  0.7957747E-01  0.3493841E+00
         13   -1    0    0    0    0  0.00000000000E+00  0.00000000000E+00  0.14999999963E+04  0.15000000000E+04  0.10566000000E+00 0. -1.
        994   -1    0    0    0    0 -0.00000000000E+00 -0.00000000000E+00  0.11368683772E-12  0.17120000000E+03  0.17120000000E+03 0.  0.
         13    1    1    2    0    0 -0.16900322714E+02  0.17296437143E+02  0.29107660898E+02  0.37842499028E+02  0.10566000000E+00 0. -1.
        994    1    1    2    0    0  0.20273253822E+01 -0.12357625714E+02  0.95774469837E+01  0.17192436841E+03  0.17120000000E+03 0.  0.
        998    1    1    2    0    0  0.14872997332E+02 -0.49388114292E+01  0.14613148884E+04  0.14614331326E+04  0.10000000000E+02 0. -1.
</event>
<event>
 5    1  0.1369527E-008  0.3758888E+03  0.7957747E-01  0.3469257E+00
         13   -1    0    0    0    0  0.00000000000E+00  0.00000000000E+00  0.14999999963E+04  0.15000000000E+04  0.10566000000E+00 0.  1.
        994   -1    0    0    0    0 -0.00000000000E+00 -0.00000000000E+00  0.11368683772E-12  0.17120000000E+03  0.17120000000E+03 0.  0.
         13    1    1    2    0    0 -0.10678932837E+02 -0.16928971091E+02  0.29283190474E+02  0.35470354905E+02  0.10566000000E+00 0.  1.
        994    1    1    2    0    0  0.11059286355E+02  0.14320171642E+02  0.73332848844E+01  0.17230958243E+03  0.17120000000E+03 0.  0.
        998    1    1    2    0    0 -0.38035351845E+00  0.26087994498E+01  0.14633835209E+04  0.14634200627E+04  0.10000000000E+02 0.  1.
</event>
<event>
 5    1  0.1369527E-008  0.3836096E+03  0.7957747E-01  0.3435591E+00
         13   -1    0    0    0    0  0.00000000000E+00  0.00000000000E+00  0.14999999963E+04  0.15000000000E+04  0.10566000000E+00 0.  1.
        994   -1    0    0    0    0 -0.00000000000E+00 -0.00000000000E+00  0.11368683772E-12  0.17120000000E+03  0.17120000000E+03 0.  0.
         13    1    1    2    0    0 -0.30176850961E+01 -0.19684693014E+02  0.92137561110E+02  0.94265236931E+02  0.10566000000E+00 0.  1.
        994    1    1    2    0    0  0.65049340866E+01 -0.10826824902E+01  0.24657004329E+01  0.17134469950E+03  0.17120000000E+03 0.  0.
        998    1    1    2    0    0 -0.34872489906E+01  0.20767375504E+02  0.14053967347E+04  0.14055900636E+04  0.10000000000E+02 0.  1.
</event>
<event>
 5    1  0.1369527E-008  0.3116608E+03  0.7957747E-01  0.3816135E+00
         13   -1    0    0    0    0  0.00000000000E+00  0.00000000000E+00  0.14999999963E+04  0.15000000000E+04  0.10566000000E+00 0. -1.
        994   -1    0    0    0    0 -0.00000000000E+00 -0.00000000000E+00  0.11368683772E-12  0.17120000000E+03  0.17120000000E+03 0.  0.
         13    1    1    2    0    0  0.16631950850E+03  0.23906872032E+02  0.92114437710E+03  0.93634432346E+03  0.10566000000E+00 0. -1.
        994    1    1    2    0    0 -0.64420609061E+02 -0.26545028768E+02  0.43625564070E+02  0.18991388381E+03  0.17120000000E+03 0.  0.
        998    1    1    2    0    0 -0.10189889943E+03  0.26381567357E+01  0.53523005511E+03  0.54494179273E+03  0.10000000000E+02 0.  1.
</event>
<event>
 5    1  0.1369527E-008  0.3830199E+03  0.7957747E-01  0.3438114E+00
         13   -1    0    0    0    0  0.00000000000E+00  0.00000000000E+00  0.14999999963E+04  0.15000000000E+04  0.10566000000E+00 0.  1.
        994   -1    0    0    0    0 -0.00000000000E+00 -0.00000000000E+00  0.11368683772E-12  0.17120000000E+03  0.17120000000E+03 0.  0.
         13    1    1    2    0    0  0.43570319701E+01 -0.99334377964E+01  0.21740735966E+02  0.24296659820E+02  0.10566000000E+00 0.  1.
        994    1    1    2    0    0  0.64128181409E+00  0.52198098692E+01  0.27079614559E+01  0.17130216202E+03  0.17120000000E+03 0.  0.
        998    1    1    2    0    0 -0.49983137842E+01  0.47136279272E+01  0.14755512989E+04  0.14756011782E+04  0.10000000000E+02 0.  1.
</event>
<event>
 5    1  0.1369527E-008  0.3792452E+03  0.7957747E-01  0.3454452E+00
         13   -1    0    0    0    0  0.00000000000E+00  0.00000000000E+00  0.14999999963E+04  0.15000000000E+04  0.10566000000E+00 0. -1.
        994   -1    0    0    0    0 -0.00000000000E+00 -0.00000000000E+00  0.11368683772E-12  0.17120000000E+03  0.17120000000E+03 0.  0.
         13    1    1    2    0    0  0.17185671477E+02  0.21767450736E+02  0.80985863949E+02  0.85603098888E+02  0.10566000000E+00 0. -1.
        994    1    1    2    0    0 -0.80167869376E+02  0.28108632423E+02  0.29093688673E+02  0.19332062802E+03  0.17120000000E+03 0.  0.
        998    1    1    2    0    0  0.62982197899E+02 -0.49876083159E+02  0.13899204437E+04  0.13922762731E+04  0.10000000000E+02 0. -1.
</event>
<event>
 5    1  0.1369527E-008  0.3832698E+03  0.7957747E-01  0.3437043E+00
         13   -1    0    0    0    0  0.00000000000E+00  0.00000000000E+00  0.14999999963E+04  0.15000000000E+04  0.10566000000E+00 0. -1.
        994   -1    0    0    0    0 -0.00000000000E+00 -0.00000000000E+00  0.11368683772E-12  0.17120000000E+03  0.17120000000E+03 0.  0.
         13    1    1    2    0    0  0.64507988666E+01  0.76522797375E+01  0.18962987211E+02  0.21442393504E+02  0.10566000000E+00 0. -1.
        994    1    1    2    0    0 -0.81605938956E+01 -0.73361693820E+01  0.28899084629E+01  0.17157565750E+03  0.17120000000E+03 0.  0.
        998    1    1    2    0    0  0.17097950289E+01 -0.31611035547E+00  0.14781471006E+04  0.14781819490E+04  0.10000000000E+02 0. -1.
</event>
<event>
 5    1  0.1505495E-008  0.3852189E+03  0.7957747E-01  0.3428744E+00
         13   -1    0    0    0    0  0.00000000000E+00  0.00000000000E+00  0.14999999963E+04  0.15000000000E+04  0.10566000000E+00 0.  1.
        994   -1    0    0    0    0 -0.00000000000E+00 -0.00000000000E+00  0.11368683772E-12  0.17120000000E+03  0.17120000000E+03 0.  0.
         13    1    1    2    0    0 -0.54493275158E+01  0.99301905668E+01  0.41716304599E+02  0.43226902370E+02  0.10566000000E+00 0.  1.
        994    1    1    2    0    0  0.35029726307E+01 -0.90539204265E+01  0.18312914853E+01  0.17148480376E+03  0.17120000000E+03 0.  0.
        998    1    1    2    0    0  0.19463548851E+01 -0.87627014028E+00  0.14564524002E+04  0.14564882939E+04  0.10000000000E+02 0.  1.
</event>
<event>
 5    1  0.1369527E-008  0.3832449E+03  0.7957747E-01  0.3437150E+00
         13   -1    0    0    0    0  0.00000000000E+00  0.00000000000E+00  0.14999999963E+04  0.15000000000E+04  0.10566000000E+00 0. -1.
        994   -1    0    0    0    0 -0.00000000000E+00 -0.00000000000E+00  0.11368683772E-12  0.17120000000E+03  0.17120000000E+03 0.  0.
         13    1    1    2    0    0  0.20332806088E+02 -0.36695946007E+01  0.85098841834E+02  0.87571188032E+02  0.10566000000E+00 0. -1.
        994    1    1    2    0    0 -0.10568237929E+02  0.92423302635E+01  0.31562217115E+01  0.17180369628E+03  0.17120000000E+03 0.  0.
        998    1    1    2    0    0 -0.97645681585E+01 -0.55727356628E+01  0.14117449327E+04  0.14118251157E+04  0.10000000000E+02 0. -1.
</event>
<event>
 5    1  0.1369527E-008  0.3843813E+03  0.7957747E-01  0.3432300E+00
         13   -1    0    0    0    0  0.00000000000E+00  0.00000000000E+00  0.14999999963E+04  0.15000000000E+04  0.10566000000E+00 0. -1.
        994   -1    0    0    0    0 -0.00000000000E+00 -0.00000000000E+00  0.11368683772E-12  0.17120000000E+03  0.17120000000E+03 0.  0.
         13    1    1    2    0    0 -0.24284111615E+01  0.98537796445E+01  0.27568378733E+02  0.29377216070E+02  0.10566000000E+00 0. -1.
        994    1    1    2    0    0  0.28716420840E+01  0.79629855054E+01  0.21737837091E+01  0.17142292963E+03  0.17120000000E+03 0.  0.
        998    1    1    2    0    0 -0.44323092251E+00 -0.17816765150E+02  0.14702578338E+04  0.14703998543E+04  0.10000000000E+02 0. -1.
</event>
<event>
 5    1  0.1369527E-008  0.3854452E+03  0.7957747E-01  0.3427786E+00
         13   -1    0    0    0    0  0.00000000000E+00  0.00000000000E+00  0.14999999963E+04  0.15000000000E+04  0.10566000000E+00 0.  1.
        994   -1    0    0    0    0 -0.00000000000E+00 -0.00000000000E+00  0.11368683772E-12  0.17120000000E+03  0.17120000000E+03 0.  0.
         13    1    1    2    0    0  0.96285830319E+01  0.32371463677E+01  0.34684861439E+02  0.36141935544E+02  0.10566000000E+00 0.  1.
        994    1    1    2    0    0 -0.18470284638E+02 -0.14597085397E+01  0.25374036259E+01  0.17221835146E+03  0.17120000000E+03 0.  0.
        998    1    1    2    0    0  0.88417016057E+01 -0.17774378280E+01  0.14627777312E+04  0.14628397130E+04  0.10000000000E+02 0.  1.
</event>
<event>
 5    1  0.1369527E-008  0.3841975E+03  0.7957747E-01  0.3433083E+00
         13   -1    0    0    0    0  0.00000000000E+00  0.00000000000E+00  0.14999999963E+04  0.15000000000E+04  0.10566000000E+00 0. -1.
        994   -1    0    0    0    0 -0.00000000000E+00 -0.00000000000E+00  0.11368683772E-12  0.17120000000E+03  0.17120000000E+03 0.  0.
         13    1    1    2    0    0 -0.14516600905E+02 -0.59791639544E+01  0.64353138205E+02  0.66240619444E+02  0.10566000000E+00 0. -1.
        994    1    1    2    0    0  0.26791708886E+01 -0.83940870441E+01  0.22851249885E+01  0.17144182818E+03  0.17120000000E+03 0.  0.
        998    1    1    2    0    0  0.11837430017E+02  0.14373250998E+02  0.14333617331E+04  0.14335175524E+04  0.10000000000E+02 0. -1.
</event>
<event>
 5    1  0.1369527E-008  0.3850473E+03  0.7957747E-01  0.3429472E+00
         13   -1    0    0    0    0  0.00000000000E+00  0.00000000000E+00  0.14999999963E+04  0.15000000000E+04  0.10566000000E+00 0.  1.
        994   -1    0    0    0    0 -0.00000000000E+00 -0.00000000000E+00  0.11368683772E-12  0.17120000000E+03  0.17120000000E+03 0.  0.
         13    1    1    2    0    0  0.40840847141E+01 -0.12094707194E+02  0.49746021104E+02  0.51357954299E+02  0.10566000000E+00 0.  1.
        994    1    1    2    0    0 -0.11428812498E+01  0.12165394500E+02  0.20977578440E+01  0.17164831368E+03  0.17120000000E+03 0.  0.
        998    1    1    2    0    0 -0.29412034644E+01 -0.70687305658E-01  0.14481562173E+04  0.14481937320E+04  0.10000000000E+02 0.  1.
</event>
<event>
 5    1  0.1369527E-008  0.3813256E+03  0.7957747E-01  0.3445407E+00
         13   -1    0    0    0    0  0.00000000000E+00  0.00000000000E+00  0.14999999963E+04  0.15000000000E+04  0.10566000000E+00 0.  1.
        994   -1    0    0    0    0 -0.00000000000E+00 -0.00000000000E+00  0.11368683772E-12  0.17120000000E+03  0.17120000000E+03 0.  0.
         13    1    1    2    0    0  0.17849681144E+02  0.43866922953E+01  0.46083904696E+02  0.49614429578E+02  0.10566000000E+00 0.  1.
        994    1    1    2    0    0 -0.19544297442E+02 -0.39443517262E+01  0.47897443589E+01  0.17242366173E+03  0.17120000000E+03 0.  0.
        998    1    1    2    0    0  0.16946162978E+01 -0.44234056912E+00  0.14491263472E+04  0.14491619087E+04  0.10000000000E+02 0.  1.
</event>
<event>
 5    1  0.1369527E-008  0.3777755E+03  0.7957747E-01  0.3460902E+00
         13   -1    0    0    0    0  0.00000000000E+00  0.00000000000E+00  0.14999999963E+04  0.15000000000E+04  0.10566000000E+00 0.  1.
        994   -1    0    0    0    0 -0.00000000000E+00 -0.00000000000E+00  0.11368683772E-12  0.17120000000E+03  0.17120000000E+03 0.  0.
         13    1    1    2    0    0 -0.65558372402E+02 -0.19833302865E+03  0.82811969929E+03  0.85405862677E+03  0.10566000000E+00 0.  1.
        994    1    1    2    0    0  0.44955829526E+02  0.23278159159E+03  0.22662439126E+03  0.36996804012E+03  0.17120000000E+03 0.  0.
        998    1    1    2    0    0  0.20602542876E+02 -0.34448562942E+02  0.44525590573E+03  0.44717333311E+03  0.10000000000E+02 0.  1.
</event>
<event>
 5    1  0.1369527E-008  0.3800485E+03  0.7957747E-01  0.3450947E+00
         13   -1    0    0    0    0  0.00000000000E+00  0.00000000000E+00  0.14999999963E+04  0.15000000000E+04  0.10566000000E+00 0. -1.
        994   -1    0    0    0    0 -0.00000000000E+00 -0.00000000000E+00  0.11368683772E-12  0.17120000000E+03  0.17120000000E+03 0.  0.
         13    1    1    2    0    0  0.14097179568E+02  0.24254280029E+02  0.10009556336E+03  0.10395255428E+03  0.10566000000E+00 0. -1.
        994    1    1    2    0    0 -0.43088409389E+01 -0.41662960302E+01  0.42287565492E+01  0.17135707314E+03  0.17120000000E+03 0.  0.
        998    1    1    2    0    0 -0.97883386291E+01 -0.20087983999E+02  0.13956756764E+04  0.13958903726E+04  0.10000000000E+02 0. -1.
</event>
<event>
 5    1  0.1369527E-008  0.3824908E+03  0.7957747E-01  0.3440384E+00
         13   -1    0    0    0    0  0.00000000000E+00  0.00000000000E+00  0.14999999963E+04  0.15000000000E+04  0.10566000000E+00 0.  1.
        994   -1    0    0    0    0 -0.00000000000E+00 -0.00000000000E+00  0.11368683772E-12  0.17120000000E+03  0.17120000000E+03 0.  0.
         13    1    1    2    0    0  0.13749780514E+02 -0.11349770205E+02  0.52977522261E+02  0.55897251961E+02  0.10566000000E+00 0.  1.
        994    1    1    2    0    0 -0.14411230317E+02  0.91931959258E+01  0.38504823556E+01  0.17209434803E+03  0.17120000000E+03 0.  0.
        998    1    1    2    0    0  0.66144980268E+00  0.21565742790E+01  0.14431719917E+04  0.14432084000E+04  0.10000000000E+02 0.  1.
</event>
<event>
 5    1  0.1369527E-008  0.3825671E+03  0.7957747E-01  0.3440056E+00
         13   -1    0    0    0    0  0.00000000000E+00  0.00000000000E+00  0.14999999963E+04  0.15000000000E+04  0.10566000000E+00 0. -1.
        994   -1    0    0    0    0 -0.00000000000E+00 -0.00000000000E+00  0.11368683772E-12  0.17120000000E+03  0.17120000000E+03 0.  0.
         13    1    1    2    0    0 -0.10679490581E+02 -0.17672590731E+02  0.72769871712E+02  0.75642827653E+02  0.10566000000E+00 0. -1.
        994    1    1    2    0    0  0.10710205259E+02  0.13007798086E+02  0.37845273443E+01  0.17206880587E+03  0.17120000000E+03 0.  0.
        998    1    1    2    0    0 -0.30714677872E-01  0.46647926450E+01  0.14234455972E+04  0.14234883665E+04  0.10000000000E+02 0. -1.
</event>
<event>
 5    1  0.1369527E-008  0.3765065E+03  0.7957747E-01  0.3466513E+00
         13   -1    0    0    0    0  0.00000000000E+00  0.00000000000E+00  0.14999999963E+04  0.15000000000E+04  0.10566000000E+00 0.  1.
        994   -1    0    0    0    0 -0.00000000000E+00 -0.00000000000E+00  0.11368683772E-12  0.17120000000E+03  0.17120000000E+03 0.  0.
         13    1    1    2    0    0  0.22419029231E+02 -0.17527137577E+02  0.66959346180E+02  0.72755608912E+02  0.10566000000E+00 0.  1.
        994    1    1    2    0    0 -0.19690038272E+01  0.22870122179E+02  0.76912357659E+01  0.17290319422E+03  0.17120000000E+03 0.  0.
        998    1    1    2    0    0 -0.20450025403E+02 -0.53429846021E+01  0.14253494143E+04  0.14255411969E+04  0.10000000000E+02 0.  1.
</event>
<event>
 5    1  0.1369527E-008  0.3774991E+03  0.7957747E-01  0.3462121E+00
         13   -1    0    0    0    0  0.00000000000E+00  0.00000000000E+00  0.14999999963E+04  0.15000000000E+04  0.10566000000E+00 0. -1.
        994   -1    0    0    0    0 -0.00000000000E+00 -0.00000000000E+00  0.11368683772E-12  0.17120000000E+03  0.17120000000E+03 0.  0.
         13    1    1    2    0    0  0.31448281186E+02 -0.60131642852E+02  0.36986174892E+03  0.37603528204E+03  0.10566000000E+00 0. -1.
        994    1    1    2    0    0 -0.27468334043E+02  0.46038292427E+02  0.15150691920E+02  0.18003615529E+03  0.17120000000E+03 0.  0.
        998    1    1    2    0    0 -0.39799471433E+01  0.14093350425E+02  0.11149875554E+04  0.11151285627E+04  0.10000000000E+02 0. -1.
</event>
<event>
 5    1  0.1369527E-008  0.3802850E+03  0.7957747E-01  0.3449918E+00
         13   -1    0    0    0    0  0.00000000000E+00  0.00000000000E+00  0.14999999963E+04  0.15000000000E+04  0.10566000000E+00 0. -1.
        994   -1    0    0    0    0 -0.00000000000E+00 -0.00000000000E+00  0.11368683772E-12  0.17120000000E+03  0.17120000000E+03 0.  0.
         13    1    1    2    0    0  0.62790994867E+01  0.12074706271E+02  0.22015534335E+02  0.25882823223E+02  0.10566000000E+00 0. -1.
        994    1    1    2    0    0  0.40931566854E+01 -0.46987059847E+01  0.41190455651E+01  0.17136288486E+03  0.17120000000E+03 0.  0.
        998    1    1    2    0    0 -0.10372256172E+02 -0.73760002861E+01  0.14738654164E+04  0.14739542919E+04  0.10000000000E+02 0. -1.
</event>
<event>
 5    1  0.1369527E-008  0.3803877E+03  0.7957747E-01  0.3449472E+00
         13   -1    0    0    0    0  0.00000000000E+00  0.00000000000E+00  0.14999999963E+04  0.15000000000E+04  0.10566000000E+00 0.  1.
        994   -1    0    0    0    0 -0.00000000000E+00 -0.00000000000E+00  0.11368683772E-12  0.17120000000E+03  0.17120000000E+03 0.  0.
         13    1    1    2    0    0  0.31551277217E+02 -0.94097222151E+01  0.14629629214E+03  0.14995546747E+03  0.10566000000E+00 0.  1.
        994    1    1    2    0    0 -0.64665856429E+01  0.82415076207E+01  0.43040538693E+01  0.17157419403E+03  0.17120000000E+03 0.  0.
        998    1    1    2    0    0 -0.25084691574E+02  0.11682145944E+01  0.13493996503E+04  0.13496703385E+04  0.10000000000E+02 0.  1.
</event>
<event>
 5    1  0.1369527E-008  0.3707593E+03  0.7957747E-01  0.3492409E+00
         13   -1    0    0    0    0  0.00000000000E+00  0.00000000000E+00  0.14999999963E+04  0.15000000000E+04  0.10566000000E+00 0. -1.
        994   -1    0    0    0    0 -0.00000000000E+00 -0.00000000000E+00  0.11368683772E-12  0.17120000000E+03  0.17120000000E+03 0.  0.
         13    1    1    2    0    0  0.62608312033E+02  0.30520949976E+02  0.19369415407E+03  0.20583674504E+03  0.10566000000E+00 0. -1.
        994    1    1    2    0    0 -0.54721565108E+02 -0.22395033083E+02  0.23697976541E+02  0.18266642080E+03  0.17120000000E+03 0.  0.
        998    1    1    2    0    0 -0.78867469246E+01 -0.81259168926E+01  0.12826078657E+04  0.12826968342E+04  0.10000000000E+02 0. -1.
</event>
<event>
 5    1  0.1391111E-008  0.3849308E+03  0.7957747E-01  0.3429966E+00
         13   -1    0    0    0    0  0.00000000000E+00  0.00000000000E+00  0.14999999963E+04  0.15000000000E+04  0.10566000000E+00 0.  1.
        994   -1    0    0    0    0 -0.00000000000E+00 -0.00000000000E+00  0.11368683772E-12  0.17120000000E+03  0.17120000000E+03 0.  0.
         13    1    1    2    0    0 -0.10417880182E+02 -0.26900570434E+00  0.32180097386E+02  0.33825647419E+02  0.10566000000E+00 0.  1.
        994    1    1    2    0    0  0.84300666253E+01  0.38955096569E+01  0.19482448204E+01  0.17146275595E+03  0.17120000000E+03 0.  0.
        998    1    1    2    0    0  0.19878135568E+01 -0.36265039526E+01  0.14658716541E+04  0.14659115966E+04  0.10000000000E+02 0.  1.
</event>
<event>
 5    1  0.1369527E-008  0.3855445E+03  0.7957747E-01  0.3427366E+00
         13   -1    0    0    0    0  0.00000000000E+00  0.00000000000E+00  0.14999999963E+04  0.15000000000E+04  0.10566000000E+00 0.  1.
        994   -1    0    0    0    0 -0.00000000000E+00 -0.00000000000E+00  0.11368683772E-12  0.17120000000E+03  0.17120000000E+03 0.  0.
         13    1    1    2    0    0 -0.10260641922E+02 -0.97661650517E+01  0.69549121820E+02  0.70977110835E+02  0.10566000000E+00 0.  1.
        994    1    1    2    0    0  0.11325333724E+02  0.14918170779E+02  0.25125469741E+01  0.17223985571E+03  0.17120000000E+03 0.  0.
        998    1    1    2    0    0 -0.10646918022E+01 -0.51520057276E+01  0.14279383275E+04  0.14279830335E+04  0.10000000000E+02 0.  1.
</event>
<event>
 5    1  0.1369527E-008  0.3802784E+03  0.7957747E-01  0.3449947E+00
         13   -1    0    0    0    0  0.00000000000E+00  0.00000000000E+00  0.14999999963E+04  0.15000000000E+04  0.10566000000E+00 0.  1.
        994   -1    0    0    0    0 -0.00000000000E+00 -0.00000000000E+00  0.11368683772E-12  0.17120000000E+03  0.17120000000E+03 0.  0.
         13    1    1    2    0    0  0.16916981618E+02  0.17062693687E+02  0.70715217427E+02  0.74685828125E+02  0.10566000000E+00 0.  1.
        994    1    1    2    0    0 -0.62933494197E+00 -0.21604477345E+02  0.55544472078E+01  0.17264831707E+03  0.17120000000E+03 0.  0.
        998    1    1    2    0    0 -0.16287646676E+02  0.45417836574E+01  0.14237303316E+04  0.14238658548E+04  0.10000000000E+02 0.  1.
</event>
<event>
 5    1  0.1369527E-008  0.3747499E+03  0.7957747E-01  0.3474342E+00
         13   -1    0    0    0    0  0.00000000000E+00  0.00000000000E+00  0.14999999963E+04  0.15000000000E+04  0.10566000000E+00 0. -1.
        994   -1    0    0    0    0 -0.00000000000E+00 -0.00000000000E+00  0.11368683772E-12  0.17120000000E+03  0.17120000000E+03 0.  0.
         13    1    1    2    0    0 -0.38447995578E+02  0.28897101078E+02  0.18969610167E+03  0.19569852571E+03  0.10566000000E+00 0. -1.
        994    1    1    2    0    0  0.66124929451E+01 -0.28348600869E+01  0.69833460899E+01  0.17149334861E+03  0.17120000000E+03 0.  0.
        998    1    1    2    0    0  0.31835502633E+02 -0.26062240991E+02  0.13033205485E+04  0.13040081257E+04  0.10000000000E+02 0. -1.
</event>
<event>
 5    1  0.1369527E-008  0.3753881E+03  0.7957747E-01  0.3471489E+00
         13   -1    0    0    0    0  0.00000000000E+00  0.00000000000E+00  0.14999999963E+04  0.15000000000E+04  0.10566000000E+00 0.  1.
        994   -1    0    0    0    0 -0.00000000000E+00 -0.00000000000E+00  0.11368683772E-12  0.17120000000E+03  0.17120000000E+03 0.  0.
         13    1    1    2    0    0  0.60565240319E+02  0.28922325281E+02  0.16166078176E+03  0.17503962053E+03  0.10566000000E+00 0.  1.
        994    1    1    2    0    0 -0.26035216752E+02 -0.31459182250E+02  0.19782181863E+02  0.17711094652E+03  0.17120000000E+03 0.  0.
        998    1    1    2    0    0 -0.34530023567E+02  0.25368569693E+01  0.13185570327E+04  0.13190494329E+04  0.10000000000E+02 0.  1.
</event>
<event>
 5    1  0.1369527E-008  0.3717184E+03  0.7957747E-01  0.3488030E+00
         13   -1    0    0    0    0  0.00000000000E+00  0.00000000000E+00  0.14999999963E+04  0.15000000000E+04  0.10566000000E+00 0.  1.
        994   -1    0    0    0    0 -0.00000000000E+00 -0.00000000000E+00  0.11368683772E-12  0.17120000000E+03  0.17120000000E+03 0.  0.
         13    1    1    2    0    0 -0.11389558032E+01 -0.72583417653E+02  0.20483183521E+03  0.21731484445E+03  0.10566000000E+00 0.  1.
        994    1    1    2    0    0  0.13851131385E+02  0.56826849005E+02  0.23982102091E+02  0.18249856391E+03  0.17120000000E+03 0.  0.
        998    1    1    2    0    0 -0.12712175582E+02  0.15756568648E+02  0.12711860590E+04  0.12713865916E+04  0.10000000000E+02 0.  1.
</event>
<event>
 5    1  0.1369527E-008  0.3798961E+03  0.7957747E-01  0.3451611E+00
         13   -1    0    0    0    0  0.00000000000E+00  0.00000000000E+00  0.14999999963E+04  0.15000000000E+04  0.10566000000E+00 0.  1.
        994   -1    0    0    0    0 -0.00000000000E+00 -0.00000000000E+00  0.11368683772E-12  0.17120000000E+03  0.17120000000E+03 0.  0.
         13    1    1    2    0    0  0.26310930309E+01  0.10291710931E+02  0.11718436259E+02  0.15816917425E+02  0.10566000000E+00 0.  1.
        994    1    1    2    0    0 -0.13065773749E+01 -0.47965081370E+01  0.42682734939E+01  0.17132533903E+03  0.17120000000E+03 0.  0.
        998    1    1    2    0    0 -0.13245156561E+01 -0.54952027939E+01  0.14840132865E+04  0.14840577435E+04  0.10000000000E+02 0.  1.
</event>
<event>
 5    1  0.1369527E-008  0.3854486E+03  0.7957747E-01  0.3427772E+00
         13   -1    0    0    0    0  0.00000000000E+00  0.00000000000E+00  0.14999999963E+04  0.15000000000E+04  0.10566000000E+00 0.  1.
        994   -1    0    0    0    0 -0.00000000000E+00 -0.00000000000E+00  0.11368683772E-12  0.17120000000E+03  0.17120000000E+03 0.  0.
         13    1    1    2    0    0 -0.11411639309E+02 -0.44400641562E+01  0.52425930527E+02  0.53837060071E+02  0.10566000000E+00 0.  1.
        994    1    1    2    0    0  0.97577006310E+01  0.65248043979E+01  0.18601814526E+01  0.17161202192E+03  0.17120000000E+03 0.  0.
        998    1    1    2    0    0  0.16539386783E+01 -0.20847402416E+01  0.14457138843E+04  0.14457509180E+04  0.10000000000E+02 0.  1.
</event>
<event>
 5    1  0.1369527E-008  0.3817737E+03  0.7957747E-01  0.3443471E+00
         13   -1    0    0    0    0  0.00000000000E+00  0.00000000000E+00  0.14999999963E+04  0.15000000000E+04  0.10566000000E+00 0.  1.
        994   -1    0    0    0    0 -0.00000000000E+00 -0.00000000000E+00  0.11368683772E-12  0.17120000000E+03  0.17120000000E+03 0.  0.
         13    1    1    2    0    0 -0.18412056844E+02 -0.15252532924E+02  0.89362436592E+02  0.92505674613E+02  0.10566000000E+00 0.  1.
        994    1    1    2    0    0  0.85951878549E+01  0.56469900656E+01  0.35920273630E+01  0.17154622821E+03  0.17120000000E+03 0.  0.
        998    1    1    2    0    0  0.98168689891E+01  0.96055428580E+01  0.14070455323E+04  0.14071480972E+04  0.10000000000E+02 0.  1.
</event>
<event>
 5    1  0.1629207E-008  0.3863300E+03  0.7957747E-01  0.3424051E+00
         13   -1    0    0    0    0  0.00000000000E+00  0.00000000000E+00  0.14999999963E+04  0.15000000000E+04  0.10566000000E+00 0.  1.
        994   -1    0    0    0    0 -0.00000000000E+00 -0.00000000000E+00  0.11368683772E-12  0.17120000000E+03  0.17120000000E+03 0.  0.
         13    1    1    2    0    0 -0.30847434709E+01 -0.10957618518E+02  0.65003566991E+02  0.65992877884E+02  0.10566000000E+00 0.  1.
        994    1    1    2    0    0  0.55277676306E+01  0.11941256771E+02  0.15384485783E+01  0.17171184191E+03  0.17120000000E+03 0.  0.
        998    1    1    2    0    0 -0.24430241597E+01 -0.98363825248E+00  0.14334579807E+04  0.14334952802E+04  0.10000000000E+02 0.  1.
</event>
<event>
 5    1  0.1369527E-008  0.3809842E+03  0.7957747E-01  0.3446884E+00
         13   -1    0    0    0    0  0.00000000000E+00  0.00000000000E+00  0.14999999963E+04  0.15000000000E+04  0.10566000000E+00 0.  1.
        994   -1    0    0    0    0 -0.00000000000E+00 -0.00000000000E+00  0.11368683772E-12  0.17120000000E+03  0.17120000000E+03 0.  0.
         13    1    1    2    0    0  0.95352587194E+01  0.18218828098E+02  0.59501456936E+02  0.62954597907E+02  0.10566000000E+00 0.  1.
        994    1    1    2    0    0 -0.26379238241E+02  0.10482890457E+02  0.63266418219E+01  0.17365258881E+03  0.17120000000E+03 0.  0.
        998    1    1    2    0    0  0.16843979521E+02 -0.28701718555E+02  0.14341718975E+04  0.14345928133E+04  0.10000000000E+02 0.  1.
</event>
<event>
 5    1  0.1369527E-008  0.3804470E+03  0.7957747E-01  0.3449215E+00
         13   -1    0    0    0    0  0.00000000000E+00  0.00000000000E+00  0.14999999963E+04  0.15000000000E+04  0.10566000000E+00 0. -1.
        994   -1    0    0    0    0 -0.00000000000E+00 -0.00000000000E+00  0.11368683772E-12  0.17120000000E+03  0.17120000000E+03 0.  0.
         13    1    1    2    0    0  0.36743634091E+01 -0.16887329750E+02  0.38516569374E+02  0.42216349118E+02  0.10566000000E+00 0. -1.
        994    1    1    2    0    0 -0.63599074419E+01 -0.36700473770E+01  0.40876791248E+01  0.17140614572E+03  0.17120000000E+03 0.  0.
        998    1    1    2    0    0  0.26855440329E+01  0.20557377127E+02  0.14573957478E+04  0.14575775052E+04  0.10000000000E+02 0. -1.
</event>
<event>
 5    1  0.1369527E-008  0.3792390E+03  0.7957747E-01  0.3454479E+00
         13   -1    0    0    0    0  0.00000000000E+00  0.00000000000E+00  0.14999999963E+04  0.15000000000E+04  0.10566000000E+00 0.  1.
        994   -1    0    0    0    0 -0.00000000000E+00 -0.00000000000E+00  0.11368683772E-12  0.17120000000E+03  0.17120000000E+03 0.  0.
         13    1    1    2    0    0  0.14415237973E+02 -0.30161677928E+02  0.13920783758E+03  0.14316549553E+03  0.10566000000E+00 0.  1.
        994    1    1    2    0    0  0.51917769530E+01  0.18586307431E+00  0.46082249478E+01  0.17134078566E+03  0.17120000000E+03 0.  0.
        998    1    1    2    0    0 -0.19607014926E+02  0.29975814854E+02  0.13561839337E+04  0.13566937188E+04  0.10000000000E+02 0.  1.
</event>
<event>
 5    1  0.1369527E-008  0.3804082E+03  0.7957747E-01  0.3449383E+00
         13   -1    0    0    0    0  0.00000000000E+00  0.00000000000E+00  0.14999999963E+04  0.15000000000E+04  0.10566000000E+00 0. -1.
        994   -1    0    0    0    0 -0.00000000000E+00 -0.00000000000E+00  0.11368683772E-12  0.17120000000E+03  0.17120000000E+03 0.  0.
         13    1    1    2    0    0  0.24127216971E+02  0.10704696251E+02  0.82475473212E+02  0.86596350767E+02  0.10566000000E+00 0. -1.
        994    1    1    2    0    0 -0.26340013988E+02 -0.10557295817E+02  0.66201374729E+01  0.17366208294E+03  0.17120000000E+03 0.  0.
        998    1    1    2    0    0  0.22127970176E+01 -0.14740043398E+00  0.14109043856E+04  0.14109415663E+04  0.10000000000E+02 0. -1.
</event>
<event>
 5    1  0.1369527E-008  0.3841712E+03  0.7957747E-01  0.3433195E+00
         13   -1    0    0    0    0  0.00000000000E+00  0.00000000000E+00  0.14999999963E+04  0.15000000000E+04  0.10566000000E+00 0. -1.
        994   -1    0    0    0    0 -0.00000000000E+00 -0.00000000000E+00  0.11368683772E-12  0.17120000000E+03  0.17120000000E+03 0.  0.
         13    1    1    2    0    0 -0.11166254235E+02 -0.14501678795E+02  0.80712454502E+02  0.82761678314E+02  0.10566000000E+00 0. -1.
        994    1    1    2    0    0  0.90607528953E+01  0.10172373982E+02  0.26543312356E+01  0.17176163690E+03  0.17120000000E+03 0.  0.
        998    1    1    2    0    0  0.21055013396E+01  0.43293048131E+01  0.14166332105E+04  0.14166766848E+04  0.10000000000E+02 0. -1.
</event>
<event>
 5    1  0.1847721E-008  0.3857032E+03  0.7957747E-01  0.3426695E+00
         13   -1    0    0    0    0  0.00000000000E+00  0.00000000000E+00  0.14999999963E+04  0.15000000000E+04  0.10566000000E+00 0. -1.
        994   -1    0    0    0    0 -0.00000000000E+00 -0.00000000000E+00  0.11368683772E-12  0.17120000000E+03  0.17120000000E+03 0.  0.
         13    1    1    2    0    0 -0.13903330766E+01  0.10045079047E+02  0.41881774986E+02  0.43092120847E+02  0.10566000000E+00 0. -1.
        994    1    1    2    0    0 -0.24389897250E+01 -0.82978427456E+00  0.13031837223E+01  0.17122434261E+03  0.17120000000E+03 0.  0.
        998    1    1    2    0    0  0.38293228016E+01 -0.92152947724E+01  0.14568150376E+04  0.14568835365E+04  0.10000000000E+02 0. -1.
</event>
<event>
 5    1  0.1369527E-008  0.3769619E+03  0.7957747E-01  0.3464495E+00
         13   -1    0    0    0    0  0.00000000000E+00  0.00000000000E+00  0.14999999963E+04  0.15000000000E+04  0.10566000000E+00 0.  1.
        994   -1    0    0    0    0 -0.00000000000E+00 -0.00000000000E+00  0.11368683772E-12  0.17120000000E+03  0.17120000000E+03 0.  0.
         13    1    1    2    0    0 -0.20691026583E+02 -0.67936803017E+02  0.18376543379E+03  0.19701084641E+03  0.10566000000E+00 0.  1.
        994    1    1    2    0    0 -0.28279027716E+01  0.23672228528E+02  0.16707790209E+02  0.17365759900E+03  0.17120000000E+03 0.  0.
        998    1    1    2    0    0  0.23518929354E+02  0.44264574490E+02  0.12995267723E+04  0.13005315546E+04  0.10000000000E+02 0.  1.
</event>
<event>
 5    1  0.1369527E-008  0.3782446E+03  0.7957747E-01  0.3458838E+00
         13   -1    0    0    0    0  0.00000000000E+00  0.00000000000E+00  0.14999999963E+04  0.15000000000E+04  0.10566000000E+00 0. -1.
        994   -1    0    0    0    0 -0.00000000000E+00 -0.00000000000E+00  0.11368683772E-12  0.17120000000E+03  0.17120000000E+03 0.  0.
         13    1    1    2    0    0  0.17286189794E+02  0.73435806005E+02  0.39987024925E+03  0.40692487926E+03  0.10566000000E+00 0. -1.
        994    1    1    2    0    0  0.80132878367E+01 -0.84238134288E+02  0.29488415449E+02  0.19323375144E+03  0.17120000000E+03 0.  0.
        998    1    1    2    0    0 -0.25299477631E+02  0.10802328283E+02  0.10706413316E+04  0.10710413693E+04  0.10000000000E+02 0. -1.
</event>
<event>
 5    1  0.1369527E-008  0.3855250E+03  0.7957747E-01  0.3427449E+00
         13   -1    0    0    0    0  0.00000000000E+00  0.00000000000E+00  0.14999999963E+04  0.15000000000E+04  0.10566000000E+00 0. -1.
        994   -1    0    0    0    0 -0.00000000000E+00 -0.00000000000E+00  0.11368683772E-12  0.17120000000E+03  0.17120000000E+03 0.  0.
         13    1    1    2    0    0 -0.10755411327E+02  0.47574035350E+01  0.51081517498E+02  0.52417977404E+02  0.10566000000E+00 0. -1.
        994    1    1    2    0    0  0.88888108469E+01  0.32456496353E+01  0.16637289651E+01  0.17146939434E+03  0.17120000000E+03 0.  0.
        998    1    1    2    0    0  0.18666004800E+01 -0.80030531703E+01  0.14472547498E+04  0.14473126283E+04  0.10000000000E+02 0. -1.
</event>
<event>
 5    1  0.1369527E-008  0.3825683E+03  0.7957747E-01  0.3440051E+00
         13   -1    0    0    0    0  0.00000000000E+00  0.00000000000E+00  0.14999999963E+04  0.15000000000E+04  0.10566000000E+00 0.  1.
        994   -1    0    0    0    0 -0.00000000000E+00 -0.00000000000E+00  0.11368683772E-12  0.17120000000E+03  0.17120000000E+03 0.  0.
         13    1    1    2    0    0  0.82691861918E+01  0.91396575091E+01  0.25319279904E+02  0.28160075969E+02  0.10566000000E+00 0.  1.
        994    1    1    2    0    0 -0.10309607390E+02 -0.80215089329E+01  0.34080557614E+01  0.17173143991E+03  0.17120000000E+03 0.  0.
        998    1    1    2    0    0  0.20404211981E+01 -0.11181485762E+01  0.14712726606E+04  0.14713084841E+04  0.10000000000E+02 0.  1.
</event>
<event>
 5    1  0.1369527E-008  0.3816098E+03  0.7957747E-01  0.3444179E+00
         13   -1    0    0    0    0  0.00000000000E+00  0.00000000000E+00  0.14999999963E+04  0.15000000000E+04  0.10566000000E+00 0.  1.
        994   -1    0    0    0    0 -0.00000000000E+00 -0.00000000000E+00  0.11368683772E-12  0.17120000000E+03  0.17120000000E+03 0.  0.
         13    1    1    2    0    0  0.19884158130E+02 -0.53467265477E+01  0.60697668614E+02  0.64095127494E+02  0.10566000000E+00 0.  1.
        994    1    1    2    0    0 -0.19886009011E+02  0.45976698710E+01  0.47091928733E+01  0.17247668950E+03  0.17120000000E+03 0.  0.
        998    1    1    2    0    0  0.18508802461E-02  0.74905667671E+00  0.14345931348E+04  0.14346281830E+04  0.10000000000E+02 0.  1.
</event>
<event>
 5    1  0.1369527E-008  0.3719247E+03  0.7957747E-01  0.3487092E+00
         13   -1    0    0    0    0  0.00000000000E+00  0.00000000000E+00  0.14999999963E+04  0.15000000000E+04  0.10566000000E+00 0.  1.
        994   -1    0    0    0    0 -0.00000000000E+00 -0.00000000000E+00  0.11368683772E-12  0.17120000000E+03  0.17120000000E+03 0.  0.
         13    1    1    2    0    0  0.15657978639E+02 -0.10160445207E+02  0.16542631948E+02  0.24941467032E+02  0.10566000000E+00 0.  1.
        994    1    1    2    0    0 -0.23835934917E+02  0.30526045208E+02  0.13436322447E+02  0.17603967164E+03  0.17120000000E+03 0.  0.
        998    1    1    2    0    0  0.81779562772E+01 -0.20365600001E+02  0.14700210419E+04  0.14702188613E+04  0.10000000000E+02 0.  1.
</event>
<event>
 5    1  0.1369527E-008  0.4407808E+03  0.7957747E-01  0.3222841E+00
         13   -1    0    0    0    0  0.00000000000E+00  0.00000000000E+00  0.14999999963E+04  0.15000000000E+04  0.10566000000E+00 0. -1.
        994   -1    0    0    0    0 -0.00000000000E+00 -0.00000000000E+00  0.11368683772E-12  0.17120000000E+03  0.17120000000E+03 0.  0.
         13    1    1    2    0    0  0.12094923229E+03  0.70279446629E+02  0.15081232165E+03  0.20569950154E+03  0.10566000000E+00 0. -1.
        994    1    1    2    0    0 -0.10574618711E+03 -0.74578833660E+02  0.14013569373E+03  0.25630394296E+03  0.17120000000E+03 0.  0.
        998    1    1    2    0    0 -0.15203045170E+02  0.42993870310E+01  0.12090519809E+04  0.12091965555E+04  0.10000000000E+02 0. -1.
</event>
<event>
 5    1  0.1369527E-008  0.3461985E+03  0.7957747E-01  0.3612980E+00
         13   -1    0    0    0    0  0.00000000000E+00  0.00000000000E+00  0.14999999963E+04  0.15000000000E+04  0.10566000000E+00 0.  1.
        994   -1    0    0    0    0 -0.00000000000E+00 -0.00000000000E+00  0.11368683772E-12  0.17120000000E+03  0.17120000000E+03 0.  0.
         13    1    1    2    0    0  0.20594532544E+02  0.24970262274E+03  0.11171005364E+04  0.11448533330E+04  0.10566000000E+00 0.  1.
        994    1    1    2    0    0  0.71965207694E+01 -0.17317199150E+03  0.16692960966E+03  0.29532230382E+03  0.17120000000E+03 0.  0.
        998    1    1    2    0    0 -0.27791053314E+02 -0.76530631239E+02  0.21596985021E+03  0.23102436314E+03  0.10000000000E+02 0.  1.
</event>
<event>
 5    1  0.1369527E-008  0.3854797E+03  0.7957747E-01  0.3427640E+00
         13   -1    0    0    0    0  0.00000000000E+00  0.00000000000E+00  0.14999999963E+04  0.15000000000E+04  0.10566000000E+00 0.  1.
        994   -1    0    0    0    0 -0.00000000000E+00 -0.00000000000E+00  0.11368683772E-12  0.17120000000E+03  0.17120000000E+03 0.  0.
         13    1    1    2    0    0 -0.65387765401E+01 -0.14154732092E+02  0.91443463212E+02  0.92763301836E+02  0.10566000000E+00 0.  1.
        994    1    1    2    0    0  0.62555817115E+01  0.26903306467E+01  0.15444376805E+01  0.17134233414E+03  0.17120000000E+03 0.  0.
        998    1    1    2    0    0  0.28319482868E+00  0.11464401445E+02  0.14070120954E+04  0.14070943640E+04  0.10000000000E+02 0.  1.
</event>
<event>
 5    1  0.1369527E-008  0.3708464E+03  0.7957747E-01  0.3492010E+00
         13   -1    0    0    0    0  0.00000000000E+00  0.00000000000E+00  0.14999999963E+04  0.15000000000E+04  0.10566000000E+00 0.  1.
        994   -1    0    0    0    0 -0.00000000000E+00 -0.00000000000E+00  0.11368683772E-12  0.17120000000E+03  0.17120000000E+03 0.  0.
         13    1    1    2    0    0 -0.98733870667E+02  0.16501801708E+02  0.34996041700E+03  0.36399586715E+03  0.10566000000E+00 0.  1.
        994    1    1    2    0    0  0.95535077470E+02  0.97755802124E+01  0.44466567343E+02  0.20126904533E+03  0.17120000000E+03 0.  0.
        998    1    1    2    0    0  0.31987931972E+01 -0.26277381921E+02  0.11055730119E+04  0.11059350875E+04  0.10000000000E+02 0.  1.
</event>
<event>
 5    1  0.1369527E-008  0.3831233E+03  0.7957747E-01  0.3437671E+00
         13   -1    0    0    0    0  0.00000000000E+00  0.00000000000E+00  0.14999999963E+04  0.15000000000E+04  0.10566000000E+00 0. -1.
        994   -1    0    0    0    0 -0.00000000000E+00 -0.00000000000E+00  0.11368683772E-12  0.17120000000E+03  0.17120000000E+03 0.  0.
         13    1    1    2    0    0  0.42482172961E+01 -0.21526667185E+02  0.10447489462E+03  0.10675420142E+03  0.10566000000E+00 0. -1.
        994    1    1    2    0    0  0.77976537276E+01 -0.21002272610E+01  0.27805833827E+01  0.17141291084E+03  0.17120000000E+03 0.  0.
        998    1    1    2    0    0 -0.12045871024E+02  0.23626894446E+02  0.13927445183E+04  0.13930328877E+04  0.10000000000E+02 0. -1.
</event>
<event>
 5    1  0.1369527E-008  0.3709924E+03  0.7957747E-01  0.3491342E+00
         13   -1    0    0    0    0  0.00000000000E+00  0.00000000000E+00  0.14999999963E+04  0.15000000000E+04  0.10566000000E+00 0. -1.
        994   -1    0    0    0    0 -0.00000000000E+00 -0.00000000000E+00  0.11368683772E-12  0.17120000000E+03  0.17120000000E+03 0.  0.
         13    1    1    2    0    0 -0.36620980807E+02  0.41313440599E+02  0.16377489051E+03  0.17282975015E+03  0.10566000000E+00 0. -1.
        994    1    1    2    0    0  0.61113398787E+02 -0.35865164951E+01  0.21778164790E+02  0.18311591704E+03  0.17120000000E+03 0.  0.
        998    1    1    2    0    0 -0.24492417980E+02 -0.37726924104E+02  0.13144469410E+04  0.13152543328E+04  0.10000000000E+02 0. -1.
</event>
<event>
 5    1  0.1876902E-008  0.3859606E+03  0.7957747E-01  0.3425608E+00
         13   -1    0    0    0    0  0.00000000000E+00  0.00000000000E+00  0.14999999963E+04  0.15000000000E+04  0.10566000000E+00 0. -1.
        994   -1    0    0    0    0 -0.00000000000E+00 -0.00000000000E+00  0.11368683772E-12  0.17120000000E+03  0.17120000000E+03 0.  0.
         13    1    1    2    0    0 -0.90997269699E+01  0.51850867507E+01  0.46722674031E+02  0.47882247108E+02  0.10566000000E+00 0. -1.
        994    1    1    2    0    0  0.10743827817E+02 -0.43474522250E+01  0.15944631925E+01  0.17159927882E+03  0.17120000000E+03 0.  0.
        998    1    1    2    0    0 -0.16441008476E+01 -0.83763452567E+00  0.14516828591E+04  0.14517184741E+04  0.10000000000E+02 0. -1.
</event>
<event>
 5    1  0.1369527E-008  0.3819798E+03  0.7957747E-01  0.3442583E+00
         13   -1    0    0    0    0  0.00000000000E+00  0.00000000000E+00  0.14999999963E+04  0.15000000000E+04  0.10566000000E+00 0.  1.
        994   -1    0    0    0    0 -0.00000000000E+00 -0.00000000000E+00  0.11368683772E-12  0.17120000000E+03  0.17120000000E+03 0.  0.
         13    1    1    2    0    0 -0.30749589995E+01  0.10193465529E+02  0.17180953374E+02  0.20212828482E+02  0.10566000000E+00 0.  1.
        994    1    1    2    0    0  0.38755207203E+01  0.18112572450E+01  0.31978711773E+01  0.17128329368E+03  0.17120000000E+03 0.  0.
        998    1    1    2    0    0 -0.80056172080E+00 -0.12004722774E+02  0.14796211717E+04  0.14797038778E+04  0.10000000000E+02 0.  1.
</event>
<event>
 5    1  0.1369527E-008  0.3855661E+03  0.7957747E-01  0.3427275E+00
         13   -1    0    0    0    0  0.00000000000E+00  0.00000000000E+00  0.14999999963E+04  0.15000000000E+04  0.10566000000E+00 0.  1.
        994   -1    0    0    0    0 -0.00000000000E+00 -0.00000000000E+00  0.11368683772E-12  0.17120000000E+03  0.17120000000E+03 0.  0.
         13    1    1    2    0    0 -0.96429028698E+01  0.95999847144E+01  0.68278377248E+02  0.69621068980E+02  0.10566000000E+00 0.  1.
        994    1    1    2    0    0  0.16723346400E+02  0.15857165272E+01  0.22761865140E+01  0.17203722224E+03  0.17120000000E+03 0.  0.
        998    1    1    2    0    0 -0.70804435302E+01 -0.11185701242E+02  0.14294454325E+04  0.14295417088E+04  0.10000000000E+02 0.  1.
</event>
<event>
 5    1  0.1369527E-008  0.3829185E+03  0.7957747E-01  0.3438548E+00
         13   -1    0    0    0    0  0.00000000000E+00  0.00000000000E+00  0.14999999963E+04  0.15000000000E+04  0.10566000000E+00 0.  1.
        994   -1    0    0    0    0 -0.00000000000E+00 -0.00000000000E+00  0.11368683772E-12  0.17120000000E+03  0.17120000000E+03 0.  0.
         13    1    1    2    0    0 -0.70484043925E+00  0.28495883259E+02  0.15166799873E+03  0.15432337855E+03  0.10566000000E+00 0.  1.
        994    1    1    2    0    0  0.86355458626E+01 -0.16768020946E+02  0.38458575274E+01  0.17227875609E+03  0.17120000000E+03 0.  0.
        998    1    1    2    0    0 -0.79307054234E+01 -0.11727862313E+02  0.13444861400E+04  0.13445978654E+04  0.10000000000E+02 0.  1.
</event>
<event>
 5    1  0.1369527E-008  0.3765291E+03  0.7957747E-01  0.3466412E+00
         13   -1    0    0    0    0  0.00000000000E+00  0.00000000000E+00  0.14999999963E+04  0.15000000000E+04  0.10566000000E+00 0.  1.
        994   -1    0    0    0    0 -0.00000000000E+00 -0.00000000000E+00  0.11368683772E-12  0.17120000000E+03  0.17120000000E+03 0.  0.
         13    1    1    2    0    0 -0.37695920628E+02  0.16134013553E+02  0.16162189007E+03  0.16674212227E+03  0.10566000000E+00 0.  1.
        994    1    1    2    0    0 -0.57998967420E+01 -0.13633467421E+02  0.66382858874E+01  0.17196806993E+03  0.17120000000E+03 0.  0.
        998    1    1    2    0    0  0.43495817370E+02 -0.25005461325E+01  0.13317398203E+04  0.13324898078E+04  0.10000000000E+02 0.  1.
</event>
<event>
 5    1  0.1369527E-008  0.3795547E+03  0.7957747E-01  0.3453100E+00
         13   -1    0    0    0    0  0.00000000000E+00  0.00000000000E+00  0.14999999963E+04  0.15000000000E+04  0.10566000000E+00 0.  1.
        994   -1    0    0    0    0 -0.00000000000E+00 -0.00000000000E+00  0.11368683772E-12  0.17120000000E+03  0.17120000000E+03 0.  0.
         13    1    1    2    0    0  0.27429221356E+02  0.26908402772E+02  0.16423743923E+03  0.16867238047E+03  0.10566000000E+00 0.  1.
        994    1    1    2    0    0 -0.26443847353E+02 -0.10166719807E+02  0.70498687340E+01  0.17367147119E+03  0.17120000000E+03 0.  0.
        998    1    1    2    0    0 -0.98537400301E+00 -0.16741682965E+02  0.13287126883E+04  0.13288561483E+04  0.10000000000E+02 0.  1.
</event>
<event>
 5    1  0.1369527E-008  0.3764658E+03  0.7957747E-01  0.3466693E+00
         13   -1    0    0    0    0  0.00000000000E+00  0.00000000000E+00  0.14999999963E+04  0.15000000000E+04  0.10566000000E+00 0. -1.
        994   -1    0    0    0    0 -0.00000000000E+00 -0.00000000000E+00  0.11368683772E-12  0.17120000000E+03  0.17120000000E+03 0.  0.
         13    1    1    2    0    0  0.10608505602E+02 -0.37971146594E+02  0.12780483486E+03  0.13374765546E+03  0.10566000000E+00 0. -1.
        994    1    1    2    0    0  0.42601332662E+01  0.27746097951E+02  0.85979231646E+01  0.17369904712E+03  0.17120000000E+03 0.  0.
        998    1    1    2    0    0 -0.14868638868E+02  0.10225048643E+02  0.13635972383E+04  0.13637532974E+04  0.10000000000E+02 0. -1.
</event>
<event>
 5    1  0.1369527E-008  0.3840330E+03  0.7957747E-01  0.3433784E+00
         13   -1    0    0    0    0  0.00000000000E+00  0.00000000000E+00  0.14999999963E+04  0.15000000000E+04  0.10566000000E+00 0.  1.
        994   -1    0    0    0    0 -0.00000000000E+00 -0.00000000000E+00  0.11368683772E-12  0.17120000000E+03  0.17120000000E+03 0.  0.
         13    1    1    2    0    0  0.47844032107E+00 -0.23782354265E+02  0.12072019720E+03  0.12304148267E+03  0.10566000000E+00 0.  1.
        994    1    1    2    0    0 -0.36652535947E+01  0.27993449108E+02  0.47449365428E+01  0.17357713473E+03  0.17120000000E+03 0.  0.
        998    1    1    2    0    0  0.31868132736E+01 -0.42110948437E+01  0.13745348625E+04  0.13745813826E+04  0.10000000000E+02 0.  1.
</event>
<event>
 5    1  0.1369527E-008  0.3854726E+03  0.7957747E-01  0.3427670E+00
         13   -1    0    0    0    0  0.00000000000E+00  0.00000000000E+00  0.14999999963E+04  0.15000000000E+04  0.10566000000E+00 0. -1.
        994   -1    0    0    0    0 -0.00000000000E+00 -0.00000000000E+00  0.11368683772E-12  0.17120000000E+03  0.17120000000E+03 0.  0.
         13    1    1    2    0    0 -0.75653396181E+00 -0.10859830976E+02  0.45388782069E+02  0.46676128526E+02  0.10566000000E+00 0. -1.
        994    1    1    2    0    0 -0.37090103190E+01 -0.33916634312E+01  0.14786339835E+01  0.17128014040E+03  0.17120000000E+03 0.  0.
        998    1    1    2    0    0  0.44655442808E+01  0.14251494407E+02  0.14531325802E+04  0.14532437311E+04  0.10000000000E+02 0. -1.
</event>
<event>
 5    1  0.1487336E-008  0.3846195E+03  0.7957747E-01  0.3431287E+00
         13   -1    0    0    0    0  0.00000000000E+00  0.00000000000E+00  0.14999999963E+04  0.15000000000E+04  0.10566000000E+00 0. -1.
        994   -1    0    0    0    0 -0.00000000000E+00 -0.00000000000E+00  0.11368683772E-12  0.17120000000E+03  0.17120000000E+03 0.  0.
         13    1    1    2    0    0  0.11932594921E+02  0.23045704755E+01  0.39508840025E+02  0.41335910184E+02  0.10566000000E+00 0. -1.
        994    1    1    2    0    0 -0.11595331774E+02 -0.53887402452E+01  0.23576646056E+01  0.17169300750E+03  0.17120000000E+03 0.  0.
        998    1    1    2    0    0 -0.33726314695E+00  0.30841697698E+01  0.14581334916E+04  0.14581710823E+04  0.10000000000E+02 0. -1.
</event>
<event>
 5    1  0.1369527E-008  0.3830186E+03  0.7957747E-01  0.3438119E+00
         13   -1    0    0    0    0  0.00000000000E+00  0.00000000000E+00  0.14999999963E+04  0.15000000000E+04  0.10566000000E+00 0.  1.
        994   -1    0    0    0    0 -0.00000000000E+00 -0.00000000000E+00  0.11368683772E-12  0.17120000000E+03  0.17120000000E+03 0.  0.
         13    1    1    2    0    0 -0.17313179687E+02 -0.20594863037E+02  0.15847596140E+03  0.16074369686E+03  0.10566000000E+00 0.  1.
        994    1    1    2    0    0 -0.22513690941E+01  0.49256729006E+00  0.26346695927E+01  0.17123578122E+03  0.17120000000E+03 0.  0.
        998    1    1    2    0    0  0.19564548781E+02  0.20102295747E+02  0.13388893653E+04  0.13392205219E+04  0.10000000000E+02 0.  1.
</event>
<event>
 5    1  0.1369527E-008  0.3860059E+03  0.7957747E-01  0.3425417E+00
         13   -1    0    0    0    0  0.00000000000E+00  0.00000000000E+00  0.14999999963E+04  0.15000000000E+04  0.10566000000E+00 0.  1.
        994   -1    0    0    0    0 -0.00000000000E+00 -0.00000000000E+00  0.11368683772E-12  0.17120000000E+03  0.17120000000E+03 0.  0.
         13    1    1    2    0    0 -0.11296904825E+02 -0.12721605265E+00  0.58685678685E+02  0.59763335661E+02  0.10566000000E+00 0.  1.
        994    1    1    2    0    0  0.37220512934E+01 -0.13376197460E+01  0.11828021715E+01  0.17124976471E+03  0.17120000000E+03 0.  0.
        998    1    1    2    0    0  0.75748535318E+01  0.14648357986E+01  0.14401315154E+04  0.14401868996E+04  0.10000000000E+02 0.  1.
</event>
<event>
 5    1  0.1369527E-008  0.3828868E+03  0.7957747E-01  0.3438684E+00
         13   -1    0    0    0    0  0.00000000000E+00  0.00000000000E+00  0.14999999963E+04  0.15000000000E+04  0.10566000000E+00 0. -1.
        994   -1    0    0    0    0 -0.00000000000E+00 -0.00000000000E+00  0.11368683772E-12  0.17120000000E+03  0.17120000000E+03 0.  0.
         13    1    1    2    0    0  0.24043002441E+02 -0.92602823849E+01  0.11748877700E+03  0.12028068291E+03  0.10566000000E+00 0. -1.
        994    1    1    2    0    0 -0.18425517176E+02  0.14657295473E+02  0.45207135479E+01  0.17287050889E+03  0.17120000000E+03 0.  0.
        998    1    1    2    0    0 -0.56174852647E+01 -0.53970130884E+01  0.13779905057E+04  0.13780488082E+04  0.10000000000E+02 0. -1.
</event>
<event>
 5    1  0.1369527E-008  0.3849416E+03  0.7957747E-01  0.3429920E+00
         13   -1    0    0    0    0  0.00000000000E+00  0.00000000000E+00  0.14999999963E+04  0.15000000000E+04  0.10566000000E+00 0. -1.
        994   -1    0    0    0    0 -0.00000000000E+00 -0.00000000000E+00  0.11368683772E-12  0.17120000000E+03  0.17120000000E+03 0.  0.
         13    1    1    2    0    0 -0.14883413776E+02 -0.10571191825E+02  0.10681603353E+03  0.10836485724E+03  0.10566000000E+00 0. -1.
        994    1    1    2    0    0  0.23606537129E+01  0.37652184197E+01  0.17240930533E+01  0.17126634828E+03  0.17120000000E+03 0.  0.
        998    1    1    2    0    0  0.12522760063E+02  0.68059734056E+01  0.13914598697E+04  0.13915687945E+04  0.10000000000E+02 0. -1.
</event>
<event>
 5    1  0.1369527E-008  0.4088596E+03  0.7957747E-01  0.3334383E+00
         13   -1    0    0    0    0  0.00000000000E+00  0.00000000000E+00  0.14999999963E+04  0.15000000000E+04  0.10566000000E+00 0. -1.
        994   -1    0    0    0    0 -0.00000000000E+00 -0.00000000000E+00  0.11368683772E-12  0.17120000000E+03  0.17120000000E+03 0.  0.
         13    1    1    2    0    0 -0.64006481406E+02  0.76021056630E+02  0.17469852813E+03  0.20098661052E+03  0.10566000000E+00 0. -1.
        994    1    1    2    0    0 -0.29400003479E+02 -0.26668425278E+02  0.39609495279E+02  0.18014970782E+03  0.17120000000E+03 0.  0.
        998    1    1    2    0    0  0.93406484885E+02 -0.49352631352E+02  0.12856919729E+04  0.12900636817E+04  0.10000000000E+02 0. -1.
</event>
<event>
 5    1  0.1369527E-008  0.3815844E+03  0.7957747E-01  0.3444288E+00
         13   -1    0    0    0    0  0.00000000000E+00  0.00000000000E+00  0.14999999963E+04  0.15000000000E+04  0.10566000000E+00 0.  1.
        994   -1    0    0    0    0 -0.00000000000E+00 -0.00000000000E+00  0.11368683772E-12  0.17120000000E+03  0.17120000000E+03 0.  0.
         13    1    1    2    0    0  0.13915054414E+01 -0.21559911961E+02  0.75163898545E+02  0.78207345561E+02  0.10566000000E+00 0.  1.
        994    1    1    2    0    0  0.13570456391E+02 -0.29460828111E+01  0.39770075299E+01  0.17180830387E+03  0.17120000000E+03 0.  0.
        998    1    1    2    0    0 -0.14961961833E+02  0.24505994772E+02  0.14208590902E+04  0.14211843506E+04  0.10000000000E+02 0.  1.
</event>
<event>
 5    1  0.1369527E-008  0.3786265E+03  0.7957747E-01  0.3457161E+00
         13   -1    0    0    0    0  0.00000000000E+00  0.00000000000E+00  0.14999999963E+04  0.15000000000E+04  0.10566000000E+00 0.  1.
        994   -1    0    0    0    0 -0.00000000000E+00 -0.00000000000E+00  0.11368683772E-12  0.17120000000E+03  0.17120000000E+03 0.  0.
         13    1    1    2    0    0  0.77001993362E+02 -0.29347143771E+02  0.33179828173E+03  0.34187815484E+03  0.10566000000E+00 0.  1.
        994    1    1    2    0    0 -0.12250705861E+03  0.62984663304E+02  0.71444422084E+02  0.23106014946E+03  0.17120000000E+03 0.  0.
        998    1    1    2    0    0  0.45505065250E+02 -0.33637519533E+02  0.10967572925E+04  0.10982616957E+04  0.10000000000E+02 0.  1.
</event>
<event>
 5    1  0.1369527E-008  0.3767206E+03  0.7957747E-01  0.3465563E+00
         13   -1    0    0    0    0  0.00000000000E+00  0.00000000000E+00  0.14999999963E+04  0.15000000000E+04  0.10566000000E+00 0. -1.
        994   -1    0    0    0    0 -0.00000000000E+00 -0.00000000000E+00  0.11368683772E-12  0.17120000000E+03  0.17120000000E+03 0.  0.
         13    1    1    2    0    0  0.18837202468E+02 -0.56646041503E+01  0.29862115468E+02  0.35758705810E+02  0.10566000000E+00 0. -1.
        994    1    1    2    0    0 -0.25503006052E+02  0.81151051290E+01  0.82222543160E+01  0.17347421628E+03  0.17120000000E+03 0.  0.
        998    1    1    2    0    0  0.66658035833E+01 -0.24505009787E+01  0.14619156265E+04  0.14619670779E+04  0.10000000000E+02 0. -1.
</event>
<event>
 5    1  0.1369527E-008  0.3751047E+03  0.7957747E-01  0.3472755E+00
         13   -1    0    0    0    0  0.00000000000E+00  0.00000000000E+00  0.14999999963E+04  0.15000000000E+04  0.10566000000E+00 0. -1.
        994   -1    0    0    0    0 -0.00000000000E+00 -0.00000000000E+00  0.11368683772E-12  0.17120000000E+03  0.17120000000E+03 0.  0.
         13    1    1    2    0    0  0.11106506162E+02 -0.23238631516E+02  0.48118710284E+02  0.54578474853E+02  0.10566000000E+00 0. -1.
        994    1    1    2    0    0 -0.66108814365E+01  0.10937453091E+02  0.71801752236E+01  0.17182644310E+03  0.17120000000E+03 0.  0.
        998    1    1    2    0    0 -0.44956247250E+01  0.12301178425E+02  0.14447011108E+04  0.14447950820E+04  0.10000000000E+02 0. -1.
</event>
<event>
 5    1  0.1369527E-008  0.3806118E+03  0.7957747E-01  0.3448499E+00
         13   -1    0    0    0    0  0.00000000000E+00  0.00000000000E+00  0.14999999963E+04  0.15000000000E+04  0.10566000000E+00 0.  1.
        994   -1    0    0    0    0 -0.00000000000E+00 -0.00000000000E+00  0.11368683772E-12  0.17120000000E+03  0.17120000000E+03 0.  0.
         13    1    1    2    0    0  0.42409931633E+02  0.15806965499E+02  0.54174527813E+02  0.70592868529E+02  0.10566000000E+00 0.  1.
        994    1    1    2    0    0 -0.39004557818E+02 -0.10773807330E+02  0.22633734981E+02  0.17736729240E+03  0.17120000000E+03 0.  0.
        998    1    1    2    0    0 -0.34053738143E+01 -0.50331581693E+01  0.14231917335E+04  0.14232398391E+04  0.10000000000E+02 0.  1.
</event>
<event>
 5    1  0.1369527E-008  0.3851921E+03  0.7957747E-01  0.3428858E+00
         13   -1    0    0    0    0  0.00000000000E+00  0.00000000000E+00  0.14999999963E+04  0.15000000000E+04  0.10566000000E+00 0. -1.
        994   -1    0    0    0    0 -0.00000000000E+00 -0.00000000000E+00  0.11368683772E-12  0.17120000000E+03  0.17120000000E+03 0.  0.
         13    1    1    2    0    0 -0.10441423499E+02 -0.78216223843E+01  0.61147085245E+02  0.62523422006E+02  0.10566000000E+00 0. -1.
        994    1    1    2    0    0  0.15710362783E+02 -0.29226416284E+02  0.51617406418E+01  0.17446226662E+03  0.17120000000E+03 0.  0.
        998    1    1    2    0    0 -0.52689392838E+01  0.37048038669E+02  0.14336911704E+04  0.14342143114E+04  0.10000000000E+02 0. -1.
</event>
<event>
 5    1  0.1369527E-008  0.3770423E+03  0.7957747E-01  0.3464139E+00
         13   -1    0    0    0    0  0.00000000000E+00  0.00000000000E+00  0.14999999963E+04  0.15000000000E+04  0.10566000000E+00 0.  1.
        994   -1    0    0    0    0 -0.00000000000E+00 -0.00000000000E+00  0.11368683772E-12  0.17120000000E+03  0.17120000000E+03 0.  0.
         13    1    1    2    0    0  0.88366166475E+01  0.29413288687E+02  0.84894215654E+02  0.90278825649E+02  0.10566000000E+00 0.  1.
        994    1    1    2    0    0 -0.26772825864E+02 -0.25165514432E+01  0.80787259566E+01  0.17348724175E+03  0.17120000000E+03 0.  0.
        998    1    1    2    0    0  0.17936209216E+02 -0.26896737244E+02  0.14070270547E+04  0.14074339326E+04  0.10000000000E+02 0.  1.
</event>
<event>
 5    1  0.1369527E-008  0.3805881E+03  0.7957747E-01  0.3448602E+00
         13   -1    0    0    0    0  0.00000000000E+00  0.00000000000E+00  0.14999999963E+04  0.15000000000E+04  0.10566000000E+00 0.  1.
        994   -1    0    0    0    0 -0.00000000000E+00 -0.00000000000E+00  0.11368683772E-12  0.17120000000E+03  0.17120000000E+03 0.  0.
         13    1    1    2    0    0  0.88619300440E+02 -0.60921978818E+02  0.36885843341E+03  0.38421533412E+03  0.10566000000E+00 0.  1.
        994    1    1    2    0    0 -0.49193910981E+02  0.19302672316E+02  0.26862186083E+02  0.18117298661E+03  0.17120000000E+03 0.  0.
        998    1    1    2    0    0 -0.39425389459E+02  0.41619306501E+02  0.11042793768E+04  0.11058116793E+04  0.10000000000E+02 0.  1.
</event>
<event>
 5    1  0.1369527E-008  0.3826169E+03  0.7957747E-01  0.3439842E+00
         13   -1    0    0    0    0  0.00000000000E+00  0.00000000000E+00  0.14999999963E+04  0.15000000000E+04  0.10566000000E+00 0. -1.
        994   -1    0    0    0    0 -0.00000000000E+00 -0.00000000000E+00  0.11368683772E-12  0.17120000000E+03  0.17120000000E+03 0.  0.
         13    1    1    2    0    0 -0.13226998143E+02  0.65615418723E+01  0.42569995887E+02  0.45057996243E+02  0.10566000000E+00 0. -1.
        994    1    1    2    0    0 -0.60992708031E+01  0.30444695531E+02  0.60197237111E+01  0.17409697776E+03  0.17120000000E+03 0.  0.
        998    1    1    2    0    0  0.19326268946E+02 -0.37006237404E+02  0.14514102767E+04  0.14520450260E+04  0.10000000000E+02 0. -1.
</event>
<event>
 5    1  0.1537765E-008  0.3859707E+03  0.7957747E-01  0.3425566E+00
         13   -1    0    0    0    0  0.00000000000E+00  0.00000000000E+00  0.14999999963E+04  0.15000000000E+04  0.10566000000E+00 0. -1.
        994   -1    0    0    0    0 -0.00000000000E+00 -0.00000000000E+00  0.11368683772E-12  0.17120000000E+03  0.17120000000E+03 0.  0.
         13    1    1    2    0    0  0.10197882423E+02 -0.60179231787E+01  0.68142036295E+02  0.69163288527E+02  0.10566000000E+00 0. -1.
        994    1    1    2    0    0  0.41560944821E+01 -0.23733494387E+01  0.12240693295E+01  0.17127125928E+03  0.17120000000E+03 0.  0.
        998    1    1    2    0    0 -0.14353976905E+02  0.83912726174E+01  0.14306338907E+04  0.14307654522E+04  0.10000000000E+02 0. -1.
</event>
<event>
 5    1  0.1369527E-008  0.3769351E+03  0.7957747E-01  0.3464613E+00
         13   -1    0    0    0    0  0.00000000000E+00  0.00000000000E+00  0.14999999963E+04  0.15000000000E+04  0.10566000000E+00 0. -1.
        994   -1    0    0    0    0 -0.00000000000E+00 -0.00000000000E+00  0.11368683772E-12  0.17120000000E+03  0.17120000000E+03 0.  0.
         13    1    1    2    0    0 -0.53024609049E+02  0.17415366632E+02  0.94772317451E+02  0.10998503298E+03  0.10566000000E+00 0. -1.
        994    1    1    2    0    0  0.49498492755E+02 -0.33238710075E+02  0.27504227847E+02  0.18335985161E+03  0.17120000000E+03 0.  0.
        998    1    1    2    0    0  0.35261162949E+01  0.15823343443E+02  0.13777234510E+04  0.13778551154E+04  0.10000000000E+02 0. -1.
</event>
<event>
 5    1  0.1369527E-008  0.3698230E+03  0.7957747E-01  0.3496705E+00
         13   -1    0    0    0    0  0.00000000000E+00  0.00000000000E+00  0.14999999963E+04  0.15000000000E+04  0.10566000000E+00 0.  1.
        994   -1    0    0    0    0 -0.00000000000E+00 -0.00000000000E+00  0.11368683772E-12  0.17120000000E+03  0.17120000000E+03 0.  0.
         13    1    1    2    0    0 -0.69889513425E+02 -0.10035676543E+03  0.47486443423E+03  0.49035932388E+03  0.10566000000E+00 0.  1.
        994    1    1    2    0    0  0.10126372375E+03  0.92584083343E+02  0.77624164676E+02  0.23272538576E+03  0.17120000000E+03 0.  0.
        998    1    1    2    0    0 -0.31374210328E+02  0.77726820855E+01  0.94751139737E+03  0.94811529035E+03  0.10000000000E+02 0.  1.
</event>
<event>
 5    1  0.1369527E-008  0.3843982E+03  0.7957747E-01  0.3432228E+00
         13   -1    0    0    0    0  0.00000000000E+00  0.00000000000E+00  0.14999999963E+04  0.15000000000E+04  0.10566000000E+00 0. -1.
        994   -1    0    0    0    0 -0.00000000000E+00 -0.00000000000E+00  0.11368683772E-12  0.17120000000E+03  0.17120000000E+03 0.  0.
         13    1    1    2    0    0  0.11093009970E+02 -0.72088126111E+00  0.32635143909E+02  0.34476634435E+02  0.10566000000E+00 0. -1.
        994    1    1    2    0    0 -0.14358531695E+00 -0.32930695177E+01  0.19650126262E+01  0.17124300336E+03  0.17120000000E+03 0.  0.
        998    1    1    2    0    0 -0.10949424653E+02  0.40139507788E+01  0.14653998397E+04  0.14654803622E+04  0.10000000000E+02 0. -1.
</event>
<event>
 5    1  0.1369527E-008  0.3707891E+03  0.7957747E-01  0.3492272E+00
         13   -1    0    0    0    0  0.00000000000E+00  0.00000000000E+00  0.14999999963E+04  0.15000000000E+04  0.10566000000E+00 0.  1.
        994   -1    0    0    0    0 -0.00000000000E+00 -0.00000000000E+00  0.11368683772E-12  0.17120000000E+03  0.17120000000E+03 0.  0.
         13    1    1    2    0    0  0.12659023984E+01  0.15553298677E+02  0.97091382330E+01  0.18378959108E+02  0.10566000000E+00 0.  1.
        994    1    1    2    0    0 -0.16196420331E+00 -0.14665621125E+02  0.95992730967E+01  0.17209501073E+03  0.17120000000E+03 0.  0.
        998    1    1    2    0    0 -0.11039381951E+01 -0.88767755180E+00  0.14806915849E+04  0.14807260302E+04  0.10000000000E+02 0.  1.
</event>
<event>
 5    1  0.1369527E-008  0.3822414E+03  0.7957747E-01  0.3441457E+00
         13   -1    0    0    0    0  0.00000000000E+00  0.00000000000E+00  0.14999999963E+04  0.15000000000E+04  0.10566000000E+00 0.  1.
        994   -1    0    0    0    0 -0.00000000000E+00 -0.00000000000E+00  0.11368683772E-12  0.17120000000E+03  0.17120000000E+03 0.  0.
         13    1    1    2    0    0  0.10822544826E+02 -0.23001592259E+02  0.12647825997E+03  0.12900760494E+03  0.10566000000E+00 0.  1.
        994    1    1    2    0    0  0.26120209934E+01 -0.92391105056E+01  0.33119154336E+01  0.17150099883E+03  0.17120000000E+03 0.  0.
        998    1    1    2    0    0 -0.13434565819E+02  0.32240702765E+02  0.13702098209E+04  0.13706913962E+04  0.10000000000E+02 0.  0.
</event>
<event>
 5    1  0.1369527E-008  0.3754876E+03  0.7957747E-01  0.3471045E+00
         13   -1    0    0    0    0  0.00000000000E+00  0.00000000000E+00  0.14999999963E+04  0.15000000000E+04  0.10566000000E+00 0. -1.
        994   -1    0    0    0    0 -0.00000000000E+00 -0.00000000000E+00  0.11368683772E-12  0.17120000000E+03  0.17120000000E+03 0.  0.
         13    1    1    2    0    0 -0.19669782395E+02 -0.17283584350E+02  0.50270408599E+02  0.56681105954E+02  0.10566000000E+00 0. -1.
        994    1    1    2    0    0  0.20181019056E+02  0.82875316445E+01  0.80454207214E+01  0.17277188864E+03  0.17120000000E+03 0.  0.
        998    1    1    2    0    0 -0.51123666023E+00  0.89960527058E+01  0.14416841670E+04  0.14417470054E+04  0.10000000000E+02 0. -1.
</event>
<event>
 5    1  0.1369527E-008  0.3833777E+03  0.7957747E-01  0.3436582E+00
         13   -1    0    0    0    0  0.00000000000E+00  0.00000000000E+00  0.14999999963E+04  0.15000000000E+04  0.10566000000E+00 0. -1.
        994   -1    0    0    0    0 -0.00000000000E+00 -0.00000000000E+00  0.11368683772E-12  0.17120000000E+03  0.17120000000E+03 0.  0.
         13    1    1    2    0    0  0.15471867255E+02  0.89883962899E+01  0.56325400847E+02  0.59099339157E+02  0.10566000000E+00 0. -1.
        994    1    1    2    0    0 -0.33928229144E+02 -0.23732053935E+02  0.81261261405E+01  0.17632302471E+03  0.17120000000E+03 0.  0.
        998    1    1    2    0    0  0.18456361889E+02  0.14743657645E+02  0.14355484693E+04  0.14357776361E+04  0.10000000000E+02 0. -1.
</event>
<event>
 5    1  0.1369527E-008  0.2965920E+03  0.7957747E-01  0.3920654E+00
         13   -1    0    0    0    0  0.00000000000E+00  0.00000000000E+00  0.14999999963E+04  0.15000000000E+04  0.10566000000E+00 0. -1.
        994   -1    0    0    0    0 -0.00000000000E+00 -0.00000000000E+00  0.11368683772E-12  0.17120000000E+03  0.17120000000E+03 0.  0.
         13    1    1    2    0    0 -0.66813752518E+02  0.14122295646E+03  0.70424750607E+03  0.72136853405E+03  0.10566000000E+00 0. -1.
        994    1    1    2    0    0  0.74540489445E+02 -0.99777889617E+02  0.70286870487E+02  0.22307307320E+03  0.17120000000E+03 0.  0.
        998    1    1    2    0    0 -0.77267369270E+01 -0.41445066840E+02  0.72546561973E+03  0.72675839275E+03  0.10000000000E+02 0. -1.
</event>
<event>
 5    1  0.1369527E-008  0.3859359E+03  0.7957747E-01  0.3425713E+00
         13   -1    0    0    0    0  0.00000000000E+00  0.00000000000E+00  0.14999999963E+04  0.15000000000E+04  0.10566000000E+00 0. -1.
        994   -1    0    0    0    0 -0.00000000000E+00 -0.00000000000E+00  0.11368683772E-12  0.17120000000E+03  0.17120000000E+03 0.  0.
         13    1    1    2    0    0  0.68892744946E+01 -0.94812337710E+01  0.59327281436E+02  0.60473906633E+02  0.10566000000E+00 0. -1.
        994    1    1    2    0    0 -0.66008393621E+01  0.54811692704E+01  0.14075876994E+01  0.17142063936E+03  0.17120000000E+03 0.  0.
        998    1    1    2    0    0 -0.28843513248E+00  0.40000645005E+01  0.14392651271E+04  0.14393054540E+04  0.10000000000E+02 0. -1.
</event>
<event>
 5    1  0.1597059E-008  0.3861968E+03  0.7957747E-01  0.3424612E+00
         13   -1    0    0    0    0  0.00000000000E+00  0.00000000000E+00  0.14999999963E+04  0.15000000000E+04  0.10566000000E+00 0. -1.
        994   -1    0    0    0    0 -0.00000000000E+00 -0.00000000000E+00  0.11368683772E-12  0.17120000000E+03  0.17120000000E+03 0.  0.
         13    1    1    2    0    0 -0.10719775304E+02 -0.25324399449E+01  0.62993857945E+02  0.63949700057E+02  0.10566000000E+00 0. -1.
        994    1    1    2    0    0 -0.80655013201E+00  0.28697036660E+01  0.10662261511E+01  0.17122926899E+03  0.17120000000E+03 0.  0.
        998    1    1    2    0    0  0.11526325436E+02 -0.33726372102E+00  0.14359399122E+04  0.14360210309E+04  0.10000000000E+02 0. -1.
</event>
<event>
 5    1  0.1369527E-008  0.3824457E+03  0.7957747E-01  0.3440578E+00
         13   -1    0    0    0    0  0.00000000000E+00  0.00000000000E+00  0.14999999963E+04  0.15000000000E+04  0.10566000000E+00 0. -1.
        994   -1    0    0    0    0 -0.00000000000E+00 -0.00000000000E+00  0.11368683772E-12  0.17120000000E+03  0.17120000000E+03 0.  0.
         13    1    1    2    0    0 -0.23311734052E+02  0.25492397110E+01  0.12686954549E+03  0.12901871300E+03  0.10566000000E+00 0. -1.
        994    1    1    2    0    0 -0.28946126424E+02 -0.15173162132E+02  0.64537008998E+01  0.17441098973E+03  0.17120000000E+03 0.  0.
        998    1    1    2    0    0  0.52257860475E+02  0.12623922421E+02  0.13666767499E+04  0.13677702973E+04  0.10000000000E+02 0. -1.
</event>
<event>
 5    1  0.1369527E-008  0.3838418E+03  0.7957747E-01  0.3434599E+00
         13   -1    0    0    0    0  0.00000000000E+00  0.00000000000E+00  0.14999999963E+04  0.15000000000E+04  0.10566000000E+00 0.  1.
        994   -1    0    0    0    0 -0.00000000000E+00 -0.00000000000E+00  0.11368683772E-12  0.17120000000E+03  0.17120000000E+03 0.  0.
         13    1    1    2    0    0 -0.16559673121E+02  0.21994250272E+01  0.60027992687E+02  0.62309159153E+02  0.10566000000E+00 0.  1.
        994    1    1    2    0    0  0.19484968416E+02 -0.77588256314E-01  0.34605426706E+01  0.17234002834E+03  0.17120000000E+03 0.  0.
        998    1    1    2    0    0 -0.29252952948E+01 -0.21218367709E+01  0.14365114609E+04  0.14365508125E+04  0.10000000000E+02 0.  1.
</event>
<event>
 5    1  0.1369527E-008  0.4100543E+03  0.7957747E-01  0.3329901E+00
         13   -1    0    0    0    0  0.00000000000E+00  0.00000000000E+00  0.14999999963E+04  0.15000000000E+04  0.10566000000E+00 0. -1.
        994   -1    0    0    0    0 -0.00000000000E+00 -0.00000000000E+00  0.11368683772E-12  0.17120000000E+03  0.17120000000E+03 0.  0.
         13    1    1    2    0    0 -0.92976992535E+02 -0.78503729934E+02  0.21960585041E+03  0.25106632083E+03  0.10566000000E+00 0. -1.
        994    1    1    2    0    0  0.45084973098E+02  0.53636405836E+02  0.54267615211E+02  0.19277949292E+03  0.17120000000E+03 0.  0.
        998    1    1    2    0    0  0.47892019436E+02  0.24867324097E+02  0.12261265307E+04  0.12273541862E+04  0.10000000000E+02 0. -1.
</event>
<event>
 5    1  0.1369527E-008  0.3830457E+03  0.7957747E-01  0.3438003E+00
         13   -1    0    0    0    0  0.00000000000E+00  0.00000000000E+00  0.14999999963E+04  0.15000000000E+04  0.10566000000E+00 0. -1.
        994   -1    0    0    0    0 -0.00000000000E+00 -0.00000000000E+00  0.11368683772E-12  0.17120000000E+03  0.17120000000E+03 0.  0.
         13    1    1    2    0    0 -0.10876474026E+02  0.20689708411E+02  0.11788989811E+03  0.12018486162E+03  0.10566000000E+00 0. -1.
        994    1    1    2    0    0 -0.13554484854E+02 -0.38055334857E+01  0.32598139514E+01  0.17180882554E+03  0.17120000000E+03 0.  0.
        998    1    1    2    0    0  0.24430958880E+02 -0.16884174925E+02  0.13788502842E+04  0.13792063128E+04  0.10000000000E+02 0. -1.
</event>
<event>
 5    1  0.1369527E-008  0.3756236E+03  0.7957747E-01  0.3470438E+00
         13   -1    0    0    0    0  0.00000000000E+00  0.00000000000E+00  0.14999999963E+04  0.15000000000E+04  0.10566000000E+00 0. -1.
        994   -1    0    0    0    0 -0.00000000000E+00 -0.00000000000E+00  0.11368683772E-12  0.17120000000E+03  0.17120000000E+03 0.  0.
         13    1    1    2    0    0 -0.65454876369E+01  0.23802236338E+02  0.45809944108E+02  0.52037986186E+02  0.10566000000E+00 0. -1.
        994    1    1    2    0    0 -0.64425932320E+01 -0.15859390401E+02  0.73534342844E+01  0.17221074376E+03  0.17120000000E+03 0.  0.
        998    1    1    2    0    0  0.12988080869E+02 -0.79428459378E+01  0.14468366179E+04  0.14469512701E+04  0.10000000000E+02 0. -1.
</event>
<event>
 5    1  0.1369527E-008  0.3794972E+03  0.7957747E-01  0.3453351E+00
         13   -1    0    0    0    0  0.00000000000E+00  0.00000000000E+00  0.14999999963E+04  0.15000000000E+04  0.10566000000E+00 0.  1.
        994   -1    0    0    0    0 -0.00000000000E+00 -0.00000000000E+00  0.11368683772E-12  0.17120000000E+03  0.17120000000E+03 0.  0.
         13    1    1    2    0    0  0.16633746339E+02 -0.35177360755E+00  0.31067784915E+02  0.35242356412E+02  0.10566000000E+00 0.  1.
        994    1    1    2    0    0  0.21024782988E+01 -0.17984873035E+02  0.54858254119E+01  0.17224230129E+03  0.17120000000E+03 0.  0.
        998    1    1    2    0    0 -0.18736224637E+02  0.18336646642E+02  0.14634463860E+04  0.14637153423E+04  0.10000000000E+02 0.  1.
</event>
<event>
 5    1  0.1369527E-008  0.3885629E+03  0.7957747E-01  0.3414701E+00
         13   -1    0    0    0    0  0.00000000000E+00  0.00000000000E+00  0.14999999963E+04  0.15000000000E+04  0.10566000000E+00 0. -1.
        994   -1    0    0    0    0 -0.00000000000E+00 -0.00000000000E+00  0.11368683772E-12  0.17120000000E+03  0.17120000000E+03 0.  0.
         13    1    1    2    0    0 -0.11599368381E+03  0.87157074423E+02  0.35226788446E+03  0.38097711728E+03  0.10566000000E+00 0. -1.
        994    1    1    2    0    0  0.12112434665E+03 -0.84987476175E+02  0.10853841813E+03  0.25096614645E+03  0.17120000000E+03 0.  0.
        998    1    1    2    0    0 -0.51306628345E+01 -0.21695982488E+01  0.10391936937E+04  0.10392567363E+04  0.10000000000E+02 0. -1.
</event>
<event>
 5    1  0.1369527E-008  0.3822680E+03  0.7957747E-01  0.3441342E+00
         13   -1    0    0    0    0  0.00000000000E+00  0.00000000000E+00  0.14999999963E+04  0.15000000000E+04  0.10566000000E+00 0.  1.
        994   -1    0    0    0    0 -0.00000000000E+00 -0.00000000000E+00  0.11368683772E-12  0.17120000000E+03  0.17120000000E+03 0.  0.
         13    1    1    2    0    0  0.39611646144E+01  0.10033686625E+02  0.17900911921E+02  0.20900227368E+02  0.10566000000E+00 0.  1.
        994    1    1    2    0    0 -0.11788806716E+02 -0.10893207921E+02  0.38479596953E+01  0.17199385087E+03  0.17120000000E+03 0.  0.
        998    1    1    2    0    0  0.78276421020E+01  0.85952129659E+00  0.14782511247E+04  0.14783059218E+04  0.10000000000E+02 0.  1.
</event>
<event>
 5    1  0.1369527E-008  0.3748499E+03  0.7957747E-01  0.3473894E+00
         13   -1    0    0    0    0  0.00000000000E+00  0.00000000000E+00  0.14999999963E+04  0.15000000000E+04  0.10566000000E+00 0.  1.
        994   -1    0    0    0    0 -0.00000000000E+00 -0.00000000000E+00  0.11368683772E-12  0.17120000000E+03  0.17120000000E+03 0.  0.
         13    1    1    2    0    0 -0.35932405543E+02 -0.21314126513E+02  0.12002453697E+03  0.12708788454E+03  0.10566000000E+00 0.  1.
        994    1    1    2    0    0  0.30569280937E+02  0.21478397454E+02  0.11517626823E+02  0.17560722713E+03  0.17120000000E+03 0.  0.
        998    1    1    2    0    0  0.53631246056E+01 -0.16427094133E+00  0.13684578325E+04  0.13685048883E+04  0.10000000000E+02 0.  1.
</event>
<event>
 5    1  0.1369527E-008  0.3791302E+03  0.7957747E-01  0.3454955E+00
         13   -1    0    0    0    0  0.00000000000E+00  0.00000000000E+00  0.14999999963E+04  0.15000000000E+04  0.10566000000E+00 0.  1.
        994   -1    0    0    0    0 -0.00000000000E+00 -0.00000000000E+00  0.11368683772E-12  0.17120000000E+03  0.17120000000E+03 0.  0.
         13    1    1    2    0    0 -0.29224302959E+02  0.79807780572E+01  0.10410298842E+03  0.10842138195E+03  0.10566000000E+00 0.  1.
        994    1    1    2    0    0  0.94831389543E+01  0.43718912013E+01  0.49385097509E+01  0.17158925443E+03  0.17120000000E+03 0.  0.
        998    1    1    2    0    0  0.19741164005E+02 -0.12352669258E+02  0.13909584981E+04  0.13911893636E+04  0.10000000000E+02 0.  1.
</event>
<event>
 5    1  0.1369527E-008  0.3908702E+03  0.7957747E-01  0.3405151E+00
         13   -1    0    0    0    0  0.00000000000E+00  0.00000000000E+00  0.14999999963E+04  0.15000000000E+04  0.10566000000E+00 0. -1.
        994   -1    0    0    0    0 -0.00000000000E+00 -0.00000000000E+00  0.11368683772E-12  0.17120000000E+03  0.17120000000E+03 0.  0.
         13    1    1    2    0    0 -0.42200305283E+02 -0.52524661274E+02  0.14851223308E+03  0.16308157574E+03  0.10566000000E+00 0. -1.
        994    1    1    2    0    0 -0.11354675144E+03 -0.24764480494E+02  0.75442614791E+02  0.22024343891E+03  0.17120000000E+03 0.  0.
        998    1    1    2    0    0  0.15574705672E+03  0.77289141767E+02  0.12760451484E+04  0.12878749853E+04  0.10000000000E+02 0. -1.
</event>
<event>
 5    1  0.1369527E-008  0.3851690E+03  0.7957747E-01  0.3428956E+00
         13   -1    0    0    0    0  0.00000000000E+00  0.00000000000E+00  0.14999999963E+04  0.15000000000E+04  0.10566000000E+00 0.  1.
        994   -1    0    0    0    0 -0.00000000000E+00 -0.00000000000E+00  0.11368683772E-12  0.17120000000E+03  0.17120000000E+03 0.  0.
         13    1    1    2    0    0 -0.17474653514E+02 -0.13835115979E+02  0.51520049159E+01  0.22876369211E+02  0.10566000000E+00 0.  1.
        994    1    1    2    0    0  0.36982758195E+01 -0.29272949465E+02  0.22418094797E+02  0.17516447639E+03  0.17120000000E+03 0.  0.
        998    1    1    2    0    0  0.13776377695E+02  0.43108065445E+02  0.14724298966E+04  0.14731591544E+04  0.10000000000E+02 0.  1.
</event>
<event>
 5    1  0.1369527E-008  0.3740399E+03  0.7957747E-01  0.3477528E+00
         13   -1    0    0    0    0  0.00000000000E+00  0.00000000000E+00  0.14999999963E+04  0.15000000000E+04  0.10566000000E+00 0. -1.
        994   -1    0    0    0    0 -0.00000000000E+00 -0.00000000000E+00  0.11368683772E-12  0.17120000000E+03  0.17120000000E+03 0.  0.
         13    1    1    2    0    0 -0.43651950349E+02  0.19866181756E+02  0.14919559521E+03  0.15671469216E+03  0.10566000000E+00 0. -1.
        994    1    1    2    0    0  0.38858801527E+02 -0.11008772904E+02  0.12755777383E+02  0.17636141696E+03  0.17120000000E+03 0.  0.
        998    1    1    2    0    0  0.47931488213E+01 -0.88574088526E+01  0.13380486237E+04  0.13381238909E+04  0.10000000000E+02 0. -1.
</event>
<event>
 5    1  0.1369527E-008  0.3813056E+03  0.7957747E-01  0.3445493E+00
         13   -1    0    0    0    0  0.00000000000E+00  0.00000000000E+00  0.14999999963E+04  0.15000000000E+04  0.10566000000E+00 0. -1.
        994   -1    0    0    0    0 -0.00000000000E+00 -0.00000000000E+00  0.11368683772E-12  0.17120000000E+03  0.17120000000E+03 0.  0.
         13    1    1    2    0    0  0.42989600928E+00 -0.29334513730E+02  0.88503067748E+02  0.93238954688E+02  0.10566000000E+00 0. -1.
        994    1    1    2    0    0  0.10480836510E+01  0.82308858213E+02  0.26367948487E+02  0.19178257305E+03  0.17120000000E+03 0.  0.
        998    1    1    2    0    0 -0.14779796603E+01 -0.52974344483E+02  0.13851289800E+04  0.13861784723E+04  0.10000000000E+02 0. -1.
</event>
<event>
 5    1  0.1369527E-008  0.3819981E+03  0.7957747E-01  0.3442504E+00
         13   -1    0    0    0    0  0.00000000000E+00  0.00000000000E+00  0.14999999963E+04  0.15000000000E+04  0.10566000000E+00 0. -1.
        994   -1    0    0    0    0 -0.00000000000E+00 -0.00000000000E+00  0.11368683772E-12  0.17120000000E+03  0.17120000000E+03 0.  0.
         13    1    1    2    0    0 -0.15902324866E+02 -0.24060904212E+02  0.11899851226E+03  0.12244373456E+03  0.10566000000E+00 0. -1.
        994    1    1    2    0    0  0.13648730289E+02  0.31641307425E+02  0.70815075266E+01  0.17477713787E+03  0.17120000000E+03 0.  0.
        998    1    1    2    0    0  0.22535945764E+01 -0.75804032128E+01  0.13739199765E+04  0.13739791276E+04  0.10000000000E+02 0. -1.
</event>
<event>
 5    1  0.1369527E-008  0.3842149E+03  0.7957747E-01  0.3433009E+00
         13   -1    0    0    0    0  0.00000000000E+00  0.00000000000E+00  0.14999999963E+04  0.15000000000E+04  0.10566000000E+00 0. -1.
        994   -1    0    0    0    0 -0.00000000000E+00 -0.00000000000E+00  0.11368683772E-12  0.17120000000E+03  0.17120000000E+03 0.  0.
         13    1    1    2    0    0  0.14667678996E+02 -0.17505883855E+02  0.12235899537E+03  0.12447221251E+03  0.10566000000E+00 0. -1.
        994    1    1    2    0    0 -0.59057307174E+01  0.22082444030E+02  0.37450498965E+01  0.17275988362E+03  0.17120000000E+03 0.  0.
        998    1    1    2    0    0 -0.87619482783E+01 -0.45765601757E+01  0.13738959510E+04  0.13739679039E+04  0.10000000000E+02 0. -1.
</event>
<event>
 5    1  0.1369527E-008  0.3796802E+03  0.7957747E-01  0.3452552E+00
         13   -1    0    0    0    0  0.00000000000E+00  0.00000000000E+00  0.14999999963E+04  0.15000000000E+04  0.10566000000E+00 0. -1.
        994   -1    0    0    0    0 -0.00000000000E+00 -0.00000000000E+00  0.11368683772E-12  0.17120000000E+03  0.17120000000E+03 0.  0.
         13    1    1    2    0    0 -0.81551101072E+01 -0.49379265272E+02  0.24292303476E+03  0.24802505849E+03  0.10566000000E+00 0. -1.
        994    1    1    2    0    0 -0.10333306802E+01  0.52154725520E+02  0.13455362573E+02  0.17947609854E+03  0.17120000000E+03 0.  0.
        998    1    1    2    0    0  0.91884407874E+01 -0.27754602475E+01  0.12436215989E+04  0.12436988430E+04  0.10000000000E+02 0. -1.
</event>
<event>
 5    1  0.1369527E-008  0.3727884E+03  0.7957747E-01  0.3483173E+00
         13   -1    0    0    0    0  0.00000000000E+00  0.00000000000E+00  0.14999999963E+04  0.15000000000E+04  0.10566000000E+00 0.  1.
        994   -1    0    0    0    0 -0.00000000000E+00 -0.00000000000E+00  0.11368683772E-12  0.17120000000E+03  0.17120000000E+03 0.  0.
         13    1    1    2    0    0  0.58737590771E+02  0.12791863285E+03  0.72183877474E+03  0.73543491152E+03  0.10566000000E+00 0.  1.
        994    1    1    2    0    0 -0.33959102138E+02 -0.12840947941E+03  0.70883627383E+02  0.22798277052E+03  0.17120000000E+03 0.  0.
        998    1    1    2    0    0 -0.24778488633E+02  0.49084656308E+00  0.70727759415E+03  0.70778231796E+03  0.10000000000E+02 0.  1.
</event>
<event>
 5    1  0.1369527E-008  0.3861651E+03  0.7957747E-01  0.3424746E+00
         13   -1    0    0    0    0  0.00000000000E+00  0.00000000000E+00  0.14999999963E+04  0.15000000000E+04  0.10566000000E+00 0. -1.
        994   -1    0    0    0    0 -0.00000000000E+00 -0.00000000000E+00  0.11368683772E-12  0.17120000000E+03  0.17120000000E+03 0.  0.
         13    1    1    2    0    0 -0.23644037874E+01  0.12257445128E+02  0.72096108669E+02  0.73168951172E+02  0.10566000000E+00 0. -1.
        994    1    1    2    0    0  0.28060590000E+01 -0.12903673197E+02  0.16243204991E+01  0.17171621113E+03  0.17120000000E+03 0.  0.
        998    1    1    2    0    0 -0.44165521257E+00  0.64622806890E+00  0.14262795671E+04  0.14263148377E+04  0.10000000000E+02 0. -1.
</event>
<event>
 5    1  0.1369527E-008  0.3846726E+03  0.7957747E-01  0.3431062E+00
         13   -1    0    0    0    0  0.00000000000E+00  0.00000000000E+00  0.14999999963E+04  0.15000000000E+04  0.10566000000E+00 0.  1.
        994   -1    0    0    0    0 -0.00000000000E+00 -0.00000000000E+00  0.11368683772E-12  0.17120000000E+03  0.17120000000E+03 0.  0.
         13    1    1    2    0    0 -0.97602338209E+02 -0.57021265076E+02  0.29684234534E+03  0.31763663241E+03  0.10566000000E+00 0.  1.
        994    1    1    2    0    0  0.85823495751E+02  0.33119210544E+02  0.50833956678E+02  0.20088824177E+03  0.17120000000E+03 0.  0.
        998    1    1    2    0    0  0.11778842458E+02  0.23902054532E+02  0.11523236943E+04  0.11526751258E+04  0.10000000000E+02 0.  1.
</event>
<event>
 5    1  0.1369527E-008  0.3784355E+03  0.7957747E-01  0.3457999E+00
         13   -1    0    0    0    0  0.00000000000E+00  0.00000000000E+00  0.14999999963E+04  0.15000000000E+04  0.10566000000E+00 0. -1.
        994   -1    0    0    0    0 -0.00000000000E+00 -0.00000000000E+00  0.11368683772E-12  0.17120000000E+03  0.17120000000E+03 0.  0.
         13    1    1    2    0    0 -0.54851323312E+01  0.26299391533E+02  0.74269186694E+02  0.78978908120E+02  0.10566000000E+00 0. -1.
        994    1    1    2    0    0  0.24873336917E+02 -0.29019700812E+01  0.70351031139E+01  0.17316476834E+03  0.17120000000E+03 0.  0.
        998    1    1    2    0    0 -0.19388204586E+02 -0.23397421452E+02  0.14186957065E+04  0.14190563235E+04  0.10000000000E+02 0. -1.
</event>
<event>
 5    1  0.1774675E-008  0.3865051E+03  0.7957747E-01  0.3423314E+00
         13   -1    0    0    0    0  0.00000000000E+00  0.00000000000E+00  0.14999999963E+04  0.15000000000E+04  0.10566000000E+00 0. -1.
        994   -1    0    0    0    0 -0.00000000000E+00 -0.00000000000E+00  0.11368683772E-12  0.17120000000E+03  0.17120000000E+03 0.  0.
         13    1    1    2    0    0 -0.80315087046E+01  0.63478280961E+01  0.58408628175E+02  0.59299064604E+02  0.10566000000E+00 0. -1.
        994    1    1    2    0    0  0.11435150115E+02 -0.38718716412E+01  0.13618576979E+01  0.17163055877E+03  0.17120000000E+03 0.  0.
        998    1    1    2    0    0 -0.34036414104E+01 -0.24759564549E+01  0.14402295104E+04  0.14402703766E+04  0.10000000000E+02 0. -1.
</event>
<event>
 5    1  0.1369527E-008  0.3823897E+03  0.7957747E-01  0.3440819E+00
         13   -1    0    0    0    0  0.00000000000E+00  0.00000000000E+00  0.14999999963E+04  0.15000000000E+04  0.10566000000E+00 0.  1.
        994   -1    0    0    0    0 -0.00000000000E+00 -0.00000000000E+00  0.11368683772E-12  0.17120000000E+03  0.17120000000E+03 0.  0.
         13    1    1    2    0    0 -0.26250369182E+02  0.23614009646E+02  0.17782929379E+03  0.18130077834E+03  0.10566000000E+00 0.  1.
        994    1    1    2    0    0  0.41341072093E+02 -0.18480834553E+02  0.97630228134E+01  0.17735665226E+03  0.17120000000E+03 0.  0.
        998    1    1    2    0    0 -0.15090702910E+02 -0.51331750926E+01  0.13124076797E+04  0.13125425694E+04  0.10000000000E+02 0.  1.
</event>
<event>
 5    1  0.1369527E-008  0.3861659E+03  0.7957747E-01  0.3424743E+00
         13   -1    0    0    0    0  0.00000000000E+00  0.00000000000E+00  0.14999999963E+04  0.15000000000E+04  0.10566000000E+00 0.  1.
        994   -1    0    0    0    0 -0.00000000000E+00 -0.00000000000E+00  0.11368683772E-12  0.17120000000E+03  0.17120000000E+03 0.  0.
         13    1    1    2    0    0 -0.64245795023E+01  0.91694760172E+01  0.58635943091E+02  0.59695389256E+02  0.10566000000E+00 0.  1.
        994    1    1    2    0    0 -0.50999993687E+01 -0.18114686835E+02  0.22135653451E+01  0.17224544042E+03  0.17120000000E+03 0.  0.
        998    1    1    2    0    0  0.11524578871E+02  0.89452108180E+01  0.14391504878E+04  0.14392591703E+04  0.10000000000E+02 0.  1.
</event>
<event>
 5    1  0.1369527E-008  0.3691398E+03  0.7957747E-01  0.3499854E+00
         13   -1    0    0    0    0  0.00000000000E+00  0.00000000000E+00  0.14999999963E+04  0.15000000000E+04  0.10566000000E+00 0.  1.
        994   -1    0    0    0    0 -0.00000000000E+00 -0.00000000000E+00  0.11368683772E-12  0.17120000000E+03  0.17120000000E+03 0.  0.
         13    1    1    2    0    0  0.34084412352E+02 -0.20713375273E+03  0.78279164213E+03  0.81044981636E+03  0.10566000000E+00 0.  1.
        994    1    1    2    0    0 -0.17787234900E+02  0.20918783875E+03  0.18464590938E+03  0.32784064644E+03  0.17120000000E+03 0.  0.
        998    1    1    2    0    0 -0.16297177452E+02 -0.20540860256E+01  0.53256244477E+03  0.53290953720E+03  0.10000000000E+02 0. -1.
</event>
<event>
 5    1  0.1369527E-008  0.3748179E+03  0.7957747E-01  0.3474038E+00
         13   -1    0    0    0    0  0.00000000000E+00  0.00000000000E+00  0.14999999963E+04  0.15000000000E+04  0.10566000000E+00 0.  1.
        994   -1    0    0    0    0 -0.00000000000E+00 -0.00000000000E+00  0.11368683772E-12  0.17120000000E+03  0.17120000000E+03 0.  0.
         13    1    1    2    0    0  0.18061067715E+02  0.81650301624E+00  0.20870550910E+02  0.27612676500E+02  0.10566000000E+00 0.  1.
        994    1    1    2    0    0 -0.20039755095E+02  0.13983272005E+01  0.81460397323E+01  0.17256692924E+03  0.17120000000E+03 0.  0.
        998    1    1    2    0    0  0.19786873794E+01 -0.22148302167E+01  0.14709834056E+04  0.14710203943E+04  0.10000000000E+02 0.  1.
</event>
<event>
 5    1  0.1369527E-008  0.3838169E+03  0.7957747E-01  0.3434705E+00
         13   -1    0    0    0    0  0.00000000000E+00  0.00000000000E+00  0.14999999963E+04  0.15000000000E+04  0.10566000000E+00 0. -1.
        994   -1    0    0    0    0 -0.00000000000E+00 -0.00000000000E+00  0.11368683772E-12  0.17120000000E+03  0.17120000000E+03 0.  0.
         13    1    1    2    0    0 -0.14095769426E+01 -0.20380728501E+02  0.94021692794E+02  0.96215647798E+02  0.10566000000E+00 0. -1.
        994    1    1    2    0    0 -0.98315855847E+01  0.12991150831E+02  0.30954005081E+01  0.17200131273E+03  0.17120000000E+03 0.  0.
        998    1    1    2    0    0  0.11241162527E+02  0.73895776706E+01  0.14028829030E+04  0.14029830395E+04  0.10000000000E+02 0. -1.
</event>
<event>
 5    1  0.1369527E-008  0.3836048E+03  0.7957747E-01  0.3435611E+00
         13   -1    0    0    0    0  0.00000000000E+00  0.00000000000E+00  0.14999999963E+04  0.15000000000E+04  0.10566000000E+00 0. -1.
        994   -1    0    0    0    0 -0.00000000000E+00 -0.00000000000E+00  0.11368683772E-12  0.17120000000E+03  0.17120000000E+03 0.  0.
         13    1    1    2    0    0  0.10656494631E+02  0.81427897726E+01  0.38791225611E+02  0.41044320576E+02  0.10566000000E+00 0. -1.
        994    1    1    2    0    0  0.78939226199E-01 -0.73813140109E+01  0.25044371078E+01  0.17137736791E+03  0.17120000000E+03 0.  0.
        998    1    1    2    0    0 -0.10735433857E+02 -0.76147576169E+00  0.14587043336E+04  0.14587783115E+04  0.10000000000E+02 0. -1.
</event>
<event>
 5    1  0.1369527E-008  0.3794574E+03  0.7957747E-01  0.3453524E+00
         13   -1    0    0    0    0  0.00000000000E+00  0.00000000000E+00  0.14999999963E+04  0.15000000000E+04  0.10566000000E+00 0. -1.
        994   -1    0    0    0    0 -0.00000000000E+00 -0.00000000000E+00  0.11368683772E-12  0.17120000000E+03  0.17120000000E+03 0.  0.
         13    1    1    2    0    0  0.12654980948E+02  0.46069504193E+02  0.61776043788E+02  0.78095060724E+02  0.10566000000E+00 0. -1.
        994    1    1    2    0    0 -0.64657065455E+00 -0.55673750831E+02  0.27326587904E+02  0.18208834941E+03  0.17120000000E+03 0.  0.
        998    1    1    2    0    0 -0.12008410294E+02  0.96042466379E+01  0.14108973646E+04  0.14110165899E+04  0.10000000000E+02 0. -1.
</event>
<event>
 5    1  0.1369527E-008  0.3757584E+03  0.7957747E-01  0.3469838E+00
         13   -1    0    0    0    0  0.00000000000E+00  0.00000000000E+00  0.14999999963E+04  0.15000000000E+04  0.10566000000E+00 0.  1.
        994   -1    0    0    0    0 -0.00000000000E+00 -0.00000000000E+00  0.11368683772E-12  0.17120000000E+03  0.17120000000E+03 0.  0.
         13    1    1    2    0    0  0.92881125976E+01 -0.11414772943E+02  0.14261668753E+02  0.20493229044E+02  0.10566000000E+00 0.  1.
        994    1    1    2    0    0 -0.89645435242E+01  0.13663254233E+02  0.71957516004E+01  0.17212863329E+03  0.17120000000E+03 0.  0.
        998    1    1    2    0    0 -0.32356907339E+00 -0.22484812893E+01  0.14785425759E+04  0.14785781377E+04  0.10000000000E+02 0.  1.
</event>
<event>
 5    1  0.1369527E-008  0.3822138E+03  0.7957747E-01  0.3441575E+00
         13   -1    0    0    0    0  0.00000000000E+00  0.00000000000E+00  0.14999999963E+04  0.15000000000E+04  0.10566000000E+00 0.  1.
        994   -1    0    0    0    0 -0.00000000000E+00 -0.00000000000E+00  0.11368683772E-12  0.17120000000E+03  0.17120000000E+03 0.  0.
         13    1    1    2    0    0  0.10600003242E+03  0.49602815171E+02  0.48688724673E+03  0.50075507819E+03  0.10566000000E+00 0.  1.
        994    1    1    2    0    0 -0.38611991407E+02 -0.47879468589E+01  0.23099001830E+02  0.17707855376E+03  0.17120000000E+03 0.  0.
        998    1    1    2    0    0 -0.67388041014E+02 -0.44814868312E+02  0.99001374772E+03  0.99336636805E+03  0.10000000000E+02 0.  1.
</event>
<event>
 5    1  0.1369527E-008  0.3767157E+03  0.7957747E-01  0.3465585E+00
         13   -1    0    0    0    0  0.00000000000E+00  0.00000000000E+00  0.14999999963E+04  0.15000000000E+04  0.10566000000E+00 0. -1.
        994   -1    0    0    0    0 -0.00000000000E+00 -0.00000000000E+00  0.11368683772E-12  0.17120000000E+03  0.17120000000E+03 0.  0.
         13    1    1    2    0    0  0.41371477930E+02  0.68351530153E+01  0.17571888788E+03  0.18065286387E+03  0.10566000000E+00 0. -1.
        994    1    1    2    0    0  0.25720001834E+01 -0.34160632688E+01  0.58621262302E+01  0.17135369619E+03  0.17120000000E+03 0.  0.
        998    1    1    2    0    0 -0.43943478113E+02 -0.34190897465E+01  0.13184189822E+04  0.13191934399E+04  0.10000000000E+02 0. -1.
</event>
<event>
 5    1  0.1369527E-008  0.3719335E+03  0.7957747E-01  0.3487052E+00
         13   -1    0    0    0    0  0.00000000000E+00  0.00000000000E+00  0.14999999963E+04  0.15000000000E+04  0.10566000000E+00 0.  1.
        994   -1    0    0    0    0 -0.00000000000E+00 -0.00000000000E+00  0.11368683772E-12  0.17120000000E+03  0.17120000000E+03 0.  0.
         13    1    1    2    0    0 -0.28132125827E+02 -0.76886840244E+00  0.45440188610E+02  0.53449317742E+02  0.10566000000E+00 0.  1.
        994    1    1    2    0    0  0.13375904529E+02 -0.14541532961E+02  0.96039005904E+01  0.17260372507E+03  0.17120000000E+03 0.  0.
        998    1    1    2    0    0  0.14756221298E+02  0.15310401363E+02  0.14449559071E+04  0.14451469572E+04  0.10000000000E+02 0.  1.
</event>
<event>
 5    1  0.1369527E-008  0.3843380E+03  0.7957747E-01  0.3432485E+00
         13   -1    0    0    0    0  0.00000000000E+00  0.00000000000E+00  0.14999999963E+04  0.15000000000E+04  0.10566000000E+00 0.  1.
        994   -1    0    0    0    0 -0.00000000000E+00 -0.00000000000E+00  0.11368683772E-12  0.17120000000E+03  0.17120000000E+03 0.  0.
         13    1    1    2    0    0 -0.92840542445E+01 -0.62941590313E+01 -0.54176333820E+01  0.12456806036E+02  0.10566000000E+00 0.  1.
        994    1    1    2    0    0  0.31738004331E+02  0.26168229720E+00  0.22448815384E+02  0.17555841965E+03  0.17120000000E+03 0.  0.
        998    1    1    2    0    0 -0.22453950087E+02  0.60324767341E+01  0.14829688143E+04  0.14831847743E+04  0.10000000000E+02 0.  1.
</event>
<event>
 5    1  0.1369527E-008  0.3784511E+03  0.7957747E-01  0.3457931E+00
         13   -1    0    0    0    0  0.00000000000E+00  0.00000000000E+00  0.14999999963E+04  0.15000000000E+04  0.10566000000E+00 0.  1.
        994   -1    0    0    0    0 -0.00000000000E+00 -0.00000000000E+00  0.11368683772E-12  0.17120000000E+03  0.17120000000E+03 0.  0.
         13    1    1    2    0    0 -0.11221156854E+02 -0.25880251172E+00  0.10681372253E+02  0.15494651243E+02  0.10566000000E+00 0.  1.
        994    1    1    2    0    0  0.56994431179E+01 -0.26478461447E+01  0.50497952553E+01  0.17138971723E+03  0.17120000000E+03 0.  0.
        998    1    1    2    0    0  0.55217137363E+01  0.29066486564E+01  0.14842688288E+04  0.14843156315E+04  0.10000000000E+02 0.  1.
</event>
<event>
 5    1  0.1369527E-008  0.3844692E+03  0.7957747E-01  0.3431926E+00
         13   -1    0    0    0    0  0.00000000000E+00  0.00000000000E+00  0.14999999963E+04  0.15000000000E+04  0.10566000000E+00 0.  1.
        994   -1    0    0    0    0 -0.00000000000E+00 -0.00000000000E+00  0.11368683772E-12  0.17120000000E+03  0.17120000000E+03 0.  0.
         13    1    1    2    0    0  0.75239653403E+00 -0.10209632711E+02  0.27092646169E+02  0.28962481611E+02  0.10566000000E+00 0.  1.
        994    1    1    2    0    0  0.44544343778E+01  0.84325588577E+01  0.21935687788E+01  0.17147945002E+03  0.17120000000E+03 0.  0.
        998    1    1    2    0    0 -0.52068309119E+01  0.17770738529E+01  0.14707137813E+04  0.14707580684E+04  0.10000000000E+02 0.  1.
</event>
<event>
 5    1  0.1369527E-008  0.3815399E+03  0.7957747E-01  0.3444481E+00
         13   -1    0    0    0    0  0.00000000000E+00  0.00000000000E+00  0.14999999963E+04  0.15000000000E+04  0.10566000000E+00 0.  1.
        994   -1    0    0    0    0 -0.00000000000E+00 -0.00000000000E+00  0.11368683772E-12  0.17120000000E+03  0.17120000000E+03 0.  0.
         13    1    1    2    0    0  0.18311171534E+01  0.20012985592E+02  0.58751137376E+02  0.62093315979E+02  0.10566000000E+00 0.  1.
        994    1    1    2    0    0 -0.69149308823E+01 -0.13310231681E+02  0.41064490699E+01  0.17190486165E+03  0.17120000000E+03 0.  0.
        998    1    1    2    0    0  0.50838137290E+01 -0.67027539101E+01  0.14371424098E+04  0.14372018224E+04  0.10000000000E+02 0.  1.
</event>
<event>
 5    1  0.1369527E-008  0.3789765E+03  0.7957747E-01  0.3455627E+00
         13   -1    0    0    0    0  0.00000000000E+00  0.00000000000E+00  0.14999999963E+04  0.15000000000E+04  0.10566000000E+00 0. -1.
        994   -1    0    0    0    0 -0.00000000000E+00 -0.00000000000E+00  0.11368683772E-12  0.17120000000E+03  0.17120000000E+03 0.  0.
         13    1    1    2    0    0  0.28231631548E+01  0.35981162341E+02  0.12976183664E+03  0.13468763754E+03  0.10566000000E+00 0. -1.
        994    1    1    2    0    0  0.54730577094E+01 -0.33724930050E+02  0.85761435028E+01  0.17478648548E+03  0.17120000000E+03 0.  0.
        998    1    1    2    0    0 -0.82962208642E+01 -0.22562322901E+01  0.13616620161E+04  0.13617258770E+04  0.10000000000E+02 0. -1.
</event>
<event>
 5    1  0.1369527E-008  0.3826204E+03  0.7957747E-01  0.3439827E+00
         13   -1    0    0    0    0  0.00000000000E+00  0.00000000000E+00  0.14999999963E+04  0.15000000000E+04  0.10566000000E+00 0. -1.
        994   -1    0    0    0    0 -0.00000000000E+00 -0.00000000000E+00  0.11368683772E-12  0.17120000000E+03  0.17120000000E+03 0.  0.
         13    1    1    2    0    0  0.13381164273E+01 -0.21140919994E+02  0.75036452840E+02  0.77969285444E+02  0.10566000000E+00 0. -1.
        994    1    1    2    0    0 -0.23820465233E+01  0.22642663019E+02  0.45360437307E+01  0.17276683717E+03  0.17120000000E+03 0.  0.
        998    1    1    2    0    0  0.10439300959E+01 -0.15017430252E+01  0.14204274997E+04  0.14204638774E+04  0.10000000000E+02 0. -1.
</event>
<event>
 5    1  0.1369527E-008  0.3752778E+03  0.7957747E-01  0.3471981E+00
         13   -1    0    0    0    0  0.00000000000E+00  0.00000000000E+00  0.14999999963E+04  0.15000000000E+04  0.10566000000E+00 0. -1.
        994   -1    0    0    0    0 -0.00000000000E+00 -0.00000000000E+00  0.11368683772E-12  0.17120000000E+03  0.17120000000E+03 0.  0.
         13    1    1    2    0    0  0.12458688494E+02 -0.29352759843E+02  0.76201704327E+02  0.82604566071E+02  0.10566000000E+00 0. -1.
        994    1    1    2    0    0 -0.14916384445E+02  0.12367784284E+02  0.78122538014E+01  0.17247008994E+03  0.17120000000E+03 0.  0.
        998    1    1    2    0    0  0.24576959514E+01  0.16984975559E+02  0.14159860382E+04  0.14161253440E+04  0.10000000000E+02 0. -1.
</event>
<event>
 5    1  0.1369527E-008  0.3835940E+03  0.7957747E-01  0.3435657E+00
         13   -1    0    0    0    0  0.00000000000E+00  0.00000000000E+00  0.14999999963E+04  0.15000000000E+04  0.10566000000E+00 0.  1.
        994   -1    0    0    0    0 -0.00000000000E+00 -0.00000000000E+00  0.11368683772E-12  0.17120000000E+03  0.17120000000E+03 0.  0.
         13    1    1    2    0    0  0.74198524744E+01  0.13421455752E+02  0.48664567362E+02  0.51023925425E+02  0.10566000000E+00 0.  1.
        994    1    1    2    0    0 -0.12324420926E+02 -0.10762799571E+02  0.32148136473E+01  0.17201018642E+03  0.17120000000E+03 0.  0.
        998    1    1    2    0    0  0.49045684514E+01 -0.26586561807E+01  0.14481206153E+04  0.14481658882E+04  0.10000000000E+02 0.  1.
</event>
<event>
 5    1  0.1369527E-008  0.3811077E+03  0.7957747E-01  0.3446349E+00
         13   -1    0    0    0    0  0.00000000000E+00  0.00000000000E+00  0.14999999963E+04  0.15000000000E+04  0.10566000000E+00 0. -1.
        994   -1    0    0    0    0 -0.00000000000E+00 -0.00000000000E+00  0.11368683772E-12  0.17120000000E+03  0.17120000000E+03 0.  0.
         13    1    1    2    0    0 -0.84308142104E+01  0.84907794591E+01  0.18306741525E+02  0.21870526134E+02  0.10566000000E+00 0. -1.
        994    1    1    2    0    0  0.88484380898E+01 -0.99829706851E+01  0.41679485821E+01  0.17176951521E+03  0.17120000000E+03 0.  0.
        998    1    1    2    0    0 -0.41762387940E+00  0.14921912260E+01  0.14775253062E+04  0.14775599587E+04  0.10000000000E+02 0. -1.
</event>
<event>
 5    1  0.3114162E-008  0.3862378E+03  0.7957747E-01  0.3424439E+00
         13   -1    0    0    0    0  0.00000000000E+00  0.00000000000E+00  0.14999999963E+04  0.15000000000E+04  0.10566000000E+00 0.  1.
        994   -1    0    0    0    0 -0.00000000000E+00 -0.00000000000E+00  0.11368683772E-12  0.17120000000E+03  0.17120000000E+03 0.  0.
         13    1    1    2    0    0  0.18560597769E+01 -0.10887985025E+02  0.64452463946E+02  0.65392082460E+02  0.10566000000E+00 0.  1.
        994    1    1    2    0    0 -0.27596441744E+01 -0.38163590843E-01  0.10417769105E+01  0.17122541398E+03  0.17120000000E+03 0.  0.
        998    1    1    2    0    0  0.90358439742E+00  0.10926148616E+02  0.14345057554E+04  0.14345825036E+04  0.10000000000E+02 0.  1.
</event>
<event>
 5    1  0.1369527E-008  0.3783294E+03  0.7957747E-01  0.3458465E+00
         13   -1    0    0    0    0  0.00000000000E+00  0.00000000000E+00  0.14999999963E+04  0.15000000000E+04  0.10566000000E+00 0.  1.
        994   -1    0    0    0    0 -0.00000000000E+00 -0.00000000000E+00  0.11368683772E-12  0.17120000000E+03  0.17120000000E+03 0.  0.
         13    1    1    2    0    0 -0.13614204126E+02  0.29468132780E+01  0.17179253191E+02  0.22117146441E+02  0.10566000000E+00 0.  1.
        994    1    1    2    0    0  0.13847125577E+02 -0.10806954541E+01  0.56275834719E+01  0.17185464930E+03  0.17120000000E+03 0.  0.
        998    1    1    2    0    0 -0.23292145085E+00 -0.18661178239E+01  0.14771931596E+04  0.14772282043E+04  0.10000000000E+02 0.  1.
</event>
<event>
 5    1  0.1369527E-008  0.3862170E+03  0.7957747E-01  0.3424527E+00
         13   -1    0    0    0    0  0.00000000000E+00  0.00000000000E+00  0.14999999963E+04  0.15000000000E+04  0.10566000000E+00 0.  1.
        994   -1    0    0    0    0 -0.00000000000E+00 -0.00000000000E+00  0.11368683772E-12  0.17120000000E+03  0.17120000000E+03 0.  0.
         13    1    1    2    0    0 -0.52867242535E+01  0.10170067706E+02  0.62570303136E+02  0.63611584865E+02  0.10566000000E+00 0.  1.
        994    1    1    2    0    0  0.31773499692E+01 -0.12446840992E+02  0.15678862443E+01  0.17168843197E+03  0.17120000000E+03 0.  0.
        998    1    1    2    0    0  0.21093742843E+01  0.22767732851E+01  0.14358618069E+04  0.14358999832E+04  0.10000000000E+02 0.  1.
</event>
<event>
 5    1  0.1369527E-008  0.3815420E+03  0.7957747E-01  0.3444472E+00
         13   -1    0    0    0    0  0.00000000000E+00  0.00000000000E+00  0.14999999963E+04  0.15000000000E+04  0.10566000000E+00 0. -1.
        994   -1    0    0    0    0 -0.00000000000E+00 -0.00000000000E+00  0.11368683772E-12  0.17120000000E+03  0.17120000000E+03 0.  0.
         13    1    1    2    0    0 -0.18655189205E+01 -0.16768791171E+02  0.40538720119E+02  0.43909811103E+02  0.10566000000E+00 0. -1.
        994    1    1    2    0    0  0.30772804561E+00  0.15588871540E+02  0.41657664852E+01  0.17195901030E+03  0.17120000000E+03 0.  0.
        998    1    1    2    0    0  0.15577908749E+01  0.11799196309E+01  0.14552955097E+04  0.14553311786E+04  0.10000000000E+02 0. -1.
</event>
<event>
 5    1  0.1369527E-008  0.3836373E+03  0.7957747E-01  0.3435472E+00
         13   -1    0    0    0    0  0.00000000000E+00  0.00000000000E+00  0.14999999963E+04  0.15000000000E+04  0.10566000000E+00 0. -1.
        994   -1    0    0    0    0 -0.00000000000E+00 -0.00000000000E+00  0.11368683772E-12  0.17120000000E+03  0.17120000000E+03 0.  0.
         13    1    1    2    0    0  0.38300778567E+01  0.15566523051E+02  0.52394327390E+02  0.54791996158E+02  0.10566000000E+00 0. -1.
        994    1    1    2    0    0 -0.62540597682E+01 -0.19975625638E+02  0.37568360830E+01  0.17251577522E+03  0.17120000000E+03 0.  0.
        998    1    1    2    0    0  0.24239819115E+01  0.44091025866E+01  0.14438488328E+04  0.14438922286E+04  0.10000000000E+02 0. -1.
</event>
<event>
 5    1  0.1369527E-008  0.3812596E+03  0.7957747E-01  0.3445692E+00
         13   -1    0    0    0    0  0.00000000000E+00  0.00000000000E+00  0.14999999963E+04  0.15000000000E+04  0.10566000000E+00 0.  1.
        994   -1    0    0    0    0 -0.00000000000E+00 -0.00000000000E+00  0.11368683772E-12  0.17120000000E+03  0.17120000000E+03 0.  0.
         13    1    1    2    0    0  0.18533966593E+02  0.18733328397E+02  0.10157995879E+03  0.10494257812E+03  0.10566000000E+00 0.  1.
        994    1    1    2    0    0 -0.90109700535E+01 -0.49574037645E+01  0.38508839724E+01  0.17155186604E+03  0.17120000000E+03 0.  0.
        998    1    1    2    0    0 -0.95229965395E+01 -0.13775924632E+02  0.13945691535E+04  0.13947055558E+04  0.10000000000E+02 0.  1.
</event>
<event>
 5    1  0.1369527E-008  0.3781255E+03  0.7957747E-01  0.3459361E+00
         13   -1    0    0    0    0  0.00000000000E+00  0.00000000000E+00  0.14999999963E+04  0.15000000000E+04  0.10566000000E+00 0. -1.
        994   -1    0    0    0    0 -0.00000000000E+00 -0.00000000000E+00  0.11368683772E-12  0.17120000000E+03  0.17120000000E+03 0.  0.
         13    1    1    2    0    0  0.24809452102E-01  0.22206792867E+02  0.45140860530E+02  0.50307561245E+02  0.10566000000E+00 0. -1.
        994    1    1    2    0    0  0.36563773101E+01 -0.23784553919E+02  0.70327020410E+01  0.17302593158E+03  0.17120000000E+03 0.  0.
        998    1    1    2    0    0 -0.36811867622E+01  0.15777610520E+01  0.14478264337E+04  0.14478665072E+04  0.10000000000E+02 0. -1.
</event>
<event>
 5    1  0.1369527E-008  0.3852411E+03  0.7957747E-01  0.3428650E+00
         13   -1    0    0    0    0  0.00000000000E+00  0.00000000000E+00  0.14999999963E+04  0.15000000000E+04  0.10566000000E+00 0. -1.
        994   -1    0    0    0    0 -0.00000000000E+00 -0.00000000000E+00  0.11368683772E-12  0.17120000000E+03  0.17120000000E+03 0.  0.
         13    1    1    2    0    0  0.61325343270E+01 -0.12249675589E+02  0.67320923382E+02  0.68700658064E+02  0.10566000000E+00 0. -1.
        994    1    1    2    0    0 -0.10999032562E+02 -0.79807896686E+01  0.21175457364E+01  0.17175155231E+03  0.17120000000E+03 0.  0.
        998    1    1    2    0    0  0.48664982348E+01  0.20230465258E+02  0.14305615272E+04  0.14307477896E+04  0.10000000000E+02 0. -1.
</event>
<event>
 5    1  0.1369527E-008  0.3812866E+03  0.7957747E-01  0.3445575E+00
         13   -1    0    0    0    0  0.00000000000E+00  0.00000000000E+00  0.14999999963E+04  0.15000000000E+04  0.10566000000E+00 0. -1.
        994   -1    0    0    0    0 -0.00000000000E+00 -0.00000000000E+00  0.11368683772E-12  0.17120000000E+03  0.17120000000E+03 0.  0.
         13    1    1    2    0    0  0.16936498865E+01  0.25993731527E+02  0.97938076211E+02  0.10134308296E+03  0.10566000000E+00 0. -1.
        994    1    1    2    0    0 -0.19303644251E+01 -0.12595268048E+02  0.40257309249E+01  0.17172074305E+03  0.17120000000E+03 0.  0.
        998    1    1    2    0    0  0.23671453864E+00 -0.13398463479E+02  0.13980361891E+04  0.13981361740E+04  0.10000000000E+02 0. -1.
</event>
<event>
 5    1  0.1369527E-008  0.3835240E+03  0.7957747E-01  0.3435956E+00
         13   -1    0    0    0    0  0.00000000000E+00  0.00000000000E+00  0.14999999963E+04  0.15000000000E+04  0.10566000000E+00 0.  1.
        994   -1    0    0    0    0 -0.00000000000E+00 -0.00000000000E+00  0.11368683772E-12  0.17120000000E+03  0.17120000000E+03 0.  0.
         13    1    1    2    0    0 -0.73208718839E+01 -0.31167156625E+02  0.18045579599E+03  0.18327381779E+03  0.10566000000E+00 0.  1.
        994    1    1    2    0    0  0.60695015648E+01  0.39126938751E+02  0.75626178831E+01  0.17588174827E+03  0.17120000000E+03 0.  0.
        998    1    1    2    0    0  0.12513703191E+01 -0.79597821252E+01  0.13119815824E+04  0.13120444339E+04  0.10000000000E+02 0.  1.
</event>
<event>
 5    1  0.1369527E-008  0.3774200E+03  0.7957747E-01  0.3462470E+00
         13   -1    0    0    0    0  0.00000000000E+00  0.00000000000E+00  0.14999999963E+04  0.15000000000E+04  0.10566000000E+00 0.  1.
        994   -1    0    0    0    0 -0.00000000000E+00 -0.00000000000E+00  0.11368683772E-12  0.17120000000E+03  0.17120000000E+03 0.  0.
         13    1    1    2    0    0  0.11484884211E+02  0.18696663502E+02  0.95775470057E+01  0.23941770238E+02  0.10566000000E+00 0.  1.
        994    1    1    2    0    0 -0.33616940018E+01 -0.20070723577E+02  0.16405183433E+02  0.17318402055E+03  0.17120000000E+03 0.  0.
        998    1    1    2    0    0 -0.81231902093E+01  0.13740600751E+01  0.14740172658E+04  0.14740742092E+04  0.10000000000E+02 0.  1.
</event>
<event>
 5    1  0.1369527E-008  0.3847583E+03  0.7957747E-01  0.3430698E+00
         13   -1    0    0    0    0  0.00000000000E+00  0.00000000000E+00  0.14999999963E+04  0.15000000000E+04  0.10566000000E+00 0.  1.
        994   -1    0    0    0    0 -0.00000000000E+00 -0.00000000000E+00  0.11368683772E-12  0.17120000000E+03  0.17120000000E+03 0.  0.
         13    1    1    2    0    0  0.39253317160E+01  0.13105756125E+02  0.57396681300E+02  0.59004739309E+02  0.10566000000E+00 0.  1.
        994    1    1    2    0    0  0.30182497516E+01  0.27647421652E+01  0.18053281652E+01  0.17125843874E+03  0.17120000000E+03 0.  0.
        998    1    1    2    0    0 -0.69435814675E+01 -0.15870498290E+02  0.14407979868E+04  0.14409368219E+04  0.10000000000E+02 0.  1.
</event>
<event>
 5    1  0.1369527E-008  0.3813181E+03  0.7957747E-01  0.3445439E+00
         13   -1    0    0    0    0  0.00000000000E+00  0.00000000000E+00  0.14999999963E+04  0.15000000000E+04  0.10566000000E+00 0. -1.
        994   -1    0    0    0    0 -0.00000000000E+00 -0.00000000000E+00  0.11368683772E-12  0.17120000000E+03  0.17120000000E+03 0.  0.
         13    1    1    2    0    0  0.40459701898E+01 -0.24605987843E+02  0.92460201779E+02  0.95763900242E+02  0.10566000000E+00 0. -1.
        994    1    1    2    0    0 -0.79688533387E+00  0.71406867050E+01  0.36410878634E+01  0.17138938693E+03  0.17120000000E+03 0.  0.
        998    1    1    2    0    0 -0.32490848560E+01  0.17465301138E+02  0.14038987066E+04  0.14040467128E+04  0.10000000000E+02 0. -1.
</event>
<event>
 5    1  0.1369527E-008  0.3786293E+03  0.7957747E-01  0.3457149E+00
         13   -1    0    0    0    0  0.00000000000E+00  0.00000000000E+00  0.14999999963E+04  0.15000000000E+04  0.10566000000E+00 0.  1.
        994   -1    0    0    0    0 -0.00000000000E+00 -0.00000000000E+00  0.11368683772E-12  0.17120000000E+03  0.17120000000E+03 0.  0.
         13    1    1    2    0    0 -0.42281859794E+01 -0.14943817690E+02  0.22961866822E+02  0.27720998103E+02  0.10566000000E+00 0.  1.
        994    1    1    2    0    0  0.28763500369E+01  0.10596578957E+02  0.52316372444E+01  0.17163149741E+03  0.17120000000E+03 0.  0.
        998    1    1    2    0    0  0.13518359426E+01  0.43472387329E+01  0.14718064922E+04  0.14718475045E+04  0.10000000000E+02 0.  1.
</event>
<event>
 5    1  0.1369527E-008  0.3745175E+03  0.7957747E-01  0.3475383E+00
         13   -1    0    0    0    0  0.00000000000E+00  0.00000000000E+00  0.14999999963E+04  0.15000000000E+04  0.10566000000E+00 0.  1.
        994   -1    0    0    0    0 -0.00000000000E+00 -0.00000000000E+00  0.11368683772E-12  0.17120000000E+03  0.17120000000E+03 0.  0.
         13    1    1    2    0    0 -0.26014152591E+02  0.28749992269E+02  0.10689273251E+03  0.11370736835E+03  0.10566000000E+00 0.  1.
        994    1    1    2    0    0  0.17953771695E+02 -0.13273899982E+02  0.86259100000E+01  0.17286520952E+03  0.17120000000E+03 0.  0.
        998    1    1    2    0    0  0.80603808956E+01 -0.15476092287E+02  0.13844813538E+04  0.13846274221E+04  0.10000000000E+02 0.  1.
</event>
<event>
 5    1  0.1369527E-008  0.3845530E+03  0.7957747E-01  0.3431570E+00
         13   -1    0    0    0    0  0.00000000000E+00  0.00000000000E+00  0.14999999963E+04  0.15000000000E+04  0.10566000000E+00 0. -1.
        994   -1    0    0    0    0 -0.00000000000E+00 -0.00000000000E+00  0.11368683772E-12  0.17120000000E+03  0.17120000000E+03 0.  0.
         13    1    1    2    0    0 -0.61895068712E+01 -0.11929895630E+02  0.54445669995E+02  0.56080072667E+02  0.10566000000E+00 0. -1.
        994    1    1    2    0    0  0.20913940856E+02 -0.23134359389E+02  0.50619679519E+01  0.17409093895E+03  0.17120000000E+03 0.  0.
        998    1    1    2    0    0 -0.14724433985E+02  0.35064255020E+02  0.14404923583E+04  0.14410289884E+04  0.10000000000E+02 0. -1.
</event>
<event>
 5    1  0.1369527E-008  0.3799162E+03  0.7957747E-01  0.3451523E+00
         13   -1    0    0    0    0  0.00000000000E+00  0.00000000000E+00  0.14999999963E+04  0.15000000000E+04  0.10566000000E+00 0.  1.
        994   -1    0    0    0    0 -0.00000000000E+00 -0.00000000000E+00  0.11368683772E-12  0.17120000000E+03  0.17120000000E+03 0.  0.
         13    1    1    2    0    0  0.12443170068E+02  0.26712401015E+02  0.11219362781E+03  0.11599916437E+03  0.10566000000E+00 0.  1.
        994    1    1    2    0    0 -0.11908521281E+02  0.37880927686E+01  0.46977844982E+01  0.17171974757E+03  0.17120000000E+03 0.  0.
        998    1    1    2    0    0 -0.53464878710E+00 -0.30500493784E+02  0.13831085840E+04  0.13834810881E+04  0.10000000000E+02 0.  1.
</event>
<event>
 5    1  0.1369527E-008  0.3753580E+03  0.7957747E-01  0.3471623E+00
         13   -1    0    0    0    0  0.00000000000E+00  0.00000000000E+00  0.14999999963E+04  0.15000000000E+04  0.10566000000E+00 0. -1.
        994   -1    0    0    0    0 -0.00000000000E+00 -0.00000000000E+00  0.11368683772E-12  0.17120000000E+03  0.17120000000E+03 0.  0.
         13    1    1    2    0    0  0.43942334718E+02 -0.30786106769E+02  0.25394895609E+03  0.25955499729E+03  0.10566000000E+00 0. -1.
        994    1    1    2    0    0 -0.10195389316E+02  0.32471495780E+01  0.68837784609E+01  0.17167211873E+03  0.17120000000E+03 0.  0.
        998    1    1    2    0    0 -0.33746945403E+02  0.27538957191E+02  0.12391672617E+04  0.12399728840E+04  0.10000000000E+02 0. -1.
</event>
<event>
 5    1  0.1369527E-008  0.2969896E+03  0.7957747E-01  0.3917748E+00
         13   -1    0    0    0    0  0.00000000000E+00  0.00000000000E+00  0.14999999963E+04  0.15000000000E+04  0.10566000000E+00 0. -1.
        994   -1    0    0    0    0 -0.00000000000E+00 -0.00000000000E+00  0.11368683772E-12  0.17120000000E+03  0.17120000000E+03 0.  0.
         13    1    1    2    0    0  0.72293531023E+02 -0.13522880562E+03  0.71396922388E+03  0.73025012722E+03  0.10566000000E+00 0. -1.
        994    1    1    2    0    0 -0.56610291007E+02  0.10012719987E+03  0.61351749224E+02  0.21518284861E+03  0.17120000000E+03 0.  0.
        998    1    1    2    0    0 -0.15683240017E+02  0.35101605752E+02  0.72467902317E+03  0.72576702417E+03  0.10000000000E+02 0.  1.
</event>
<event>
 5    1  0.1369527E-008  0.3831030E+03  0.7957747E-01  0.3437758E+00
         13   -1    0    0    0    0  0.00000000000E+00  0.00000000000E+00  0.14999999963E+04  0.15000000000E+04  0.10566000000E+00 0.  1.
        994   -1    0    0    0    0 -0.00000000000E+00 -0.00000000000E+00  0.11368683772E-12  0.17120000000E+03  0.17120000000E+03 0.  0.
         13    1    1    2    0    0 -0.12634981992E+02 -0.20188194031E+02  0.11714398400E+03  0.11954049565E+03  0.10566000000E+00 0.  1.
        994    1    1    2    0    0 -0.17056788111E+01  0.67961767711E+01  0.27374035061E+01  0.17136519698E+03  0.17120000000E+03 0.  0.
        998    1    1    2    0    0  0.14340660803E+02  0.13392017259E+02  0.13801186088E+04  0.13802943074E+04  0.10000000000E+02 0.  1.
</event>
<event>
 5    1  0.1369527E-008  0.3796765E+03  0.7957747E-01  0.3452568E+00
         13   -1    0    0    0    0  0.00000000000E+00  0.00000000000E+00  0.14999999963E+04  0.15000000000E+04  0.10566000000E+00 0.  1.
        994   -1    0    0    0    0 -0.00000000000E+00 -0.00000000000E+00  0.11368683772E-12  0.17120000000E+03  0.17120000000E+03 0.  0.
         13    1    1    2    0    0 -0.23061380479E+02  0.50679212732E+02  0.30986712734E+03  0.31482988683E+03  0.10566000000E+00 0.  1.
        994    1    1    2    0    0  0.27224531366E+02 -0.40316539602E+02  0.12257361788E+02  0.17839921915E+03  0.17120000000E+03 0.  0.
        998    1    1    2    0    0 -0.41631508878E+01 -0.10362673130E+02  0.11778755072E+04  0.11779708940E+04  0.10000000000E+02 0.  1.
</event>
<event>
 5    1  0.1369527E-008  0.3756206E+03  0.7957747E-01  0.3470452E+00
         13   -1    0    0    0    0  0.00000000000E+00  0.00000000000E+00  0.14999999963E+04  0.15000000000E+04  0.10566000000E+00 0. -1.
        994   -1    0    0    0    0 -0.00000000000E+00 -0.00000000000E+00  0.11368683772E-12  0.17120000000E+03  0.17120000000E+03 0.  0.
         13    1    1    2    0    0 -0.38769147364E+01 -0.11638922642E+02  0.88490833653E+01  0.15126547147E+02  0.10566000000E+00 0. -1.
        994    1    1    2    0    0  0.58721905680E+01  0.13011735919E+02  0.70519463562E+01  0.17193882005E+03  0.17120000000E+03 0.  0.
        998    1    1    2    0    0 -0.19952758316E+01 -0.13728132773E+01  0.14840989666E+04  0.14841346328E+04  0.10000000000E+02 0. -1.
</event>
<event>
 5    1  0.1369527E-008  0.3856301E+03  0.7957747E-01  0.3427004E+00
         13   -1    0    0    0    0  0.00000000000E+00  0.00000000000E+00  0.14999999963E+04  0.15000000000E+04  0.10566000000E+00 0. -1.
        994   -1    0    0    0    0 -0.00000000000E+00 -0.00000000000E+00  0.11368683772E-12  0.17120000000E+03  0.17120000000E+03 0.  0.
         13    1    1    2    0    0  0.12768506254E+02 -0.72462696184E+01  0.88436726603E+02  0.89647135769E+02  0.10566000000E+00 0. -1.
        994    1    1    2    0    0 -0.33040347705E+01 -0.38389769679E+01  0.14018349658E+01  0.17128064552E+03  0.17120000000E+03 0.  0.
        998    1    1    2    0    0 -0.94644714838E+01  0.11085246586E+02  0.14101614347E+04  0.14102722187E+04  0.10000000000E+02 0. -1.
</event>
<event>
 5    1  0.1369527E-008  0.3809630E+03  0.7957747E-01  0.3446976E+00
         13   -1    0    0    0    0  0.00000000000E+00  0.00000000000E+00  0.14999999963E+04  0.15000000000E+04  0.10566000000E+00 0. -1.
        994   -1    0    0    0    0 -0.00000000000E+00 -0.00000000000E+00  0.11368683772E-12  0.17120000000E+03  0.17120000000E+03 0.  0.
         13    1    1    2    0    0  0.46686986325E+01  0.29491467794E+02  0.13861403858E+03  0.14179353397E+03  0.10566000000E+00 0. -1.
        994    1    1    2    0    0 -0.51613019850E+01  0.37288859665E+01  0.37829167589E+01  0.17136012981E+03  0.17120000000E+03 0.  0.
        998    1    1    2    0    0  0.49260335249E+00 -0.33220353761E+02  0.13576030409E+04  0.13580463362E+04  0.10000000000E+02 0. -1.
</event>
<event>
 5    1  0.1369527E-008  0.3782225E+03  0.7957747E-01  0.3458935E+00
         13   -1    0    0    0    0  0.00000000000E+00  0.00000000000E+00  0.14999999963E+04  0.15000000000E+04  0.10566000000E+00 0. -1.
        994   -1    0    0    0    0 -0.00000000000E+00 -0.00000000000E+00  0.11368683772E-12  0.17120000000E+03  0.17120000000E+03 0.  0.
         13    1    1    2    0    0  0.34166938557E+00  0.28590310476E+02  0.90727270850E+02  0.95126081760E+02  0.10566000000E+00 0. -1.
        994    1    1    2    0    0 -0.11808263255E+02  0.11451159947E+02  0.59434341302E+01  0.17209104728E+03  0.17120000000E+03 0.  0.
        998    1    1    2    0    0  0.11466593869E+02 -0.40041470423E+02  0.14033292913E+04  0.14039828710E+04  0.10000000000E+02 0. -1.
</event>
<event>
 5    1  0.1369527E-008  0.3761766E+03  0.7957747E-01  0.3467977E+00
         13   -1    0    0    0    0  0.00000000000E+00  0.00000000000E+00  0.14999999963E+04  0.15000000000E+04  0.10566000000E+00 0.  1.
        994   -1    0    0    0    0 -0.00000000000E+00 -0.00000000000E+00  0.11368683772E-12  0.17120000000E+03  0.17120000000E+03 0.  0.
         13    1    1    2    0    0 -0.18385963317E+02  0.76665251512E+01  0.30438095901E+02  0.36377302004E+02  0.10566000000E+00 0.  1.
        994    1    1    2    0    0  0.83977382258E+01 -0.66585090786E+01  0.64647126621E+01  0.17165689692E+03  0.17120000000E+03 0.  0.
        998    1    1    2    0    0  0.99882250908E+01 -0.10080160726E+01  0.14630971877E+04  0.14631658011E+04  0.10000000000E+02 0.  1.
</event>
<event>
 5    1  0.1369527E-008  0.3835626E+03  0.7957747E-01  0.3435791E+00
         13   -1    0    0    0    0  0.00000000000E+00  0.00000000000E+00  0.14999999963E+04  0.15000000000E+04  0.10566000000E+00 0.  1.
        994   -1    0    0    0    0 -0.00000000000E+00 -0.00000000000E+00  0.11368683772E-12  0.17120000000E+03  0.17120000000E+03 0.  0.
         13    1    1    2    0    0  0.24934717239E+02 -0.11056215547E+02  0.14485487355E+03  0.14740056167E+03  0.10566000000E+00 0.  1.
        994    1    1    2    0    0 -0.25584086531E+02  0.97484429000E+01  0.48260226565E+01  0.17344252108E+03  0.17120000000E+03 0.  0.
        998    1    1    2    0    0  0.64936929255E+00  0.13077726473E+01  0.13503191001E+04  0.13503569173E+04  0.10000000000E+02 0.  1.
</event>
<event>
 5    1  0.1369527E-008  0.3686394E+03  0.7957747E-01  0.3502167E+00
         13   -1    0    0    0    0  0.00000000000E+00  0.00000000000E+00  0.14999999963E+04  0.15000000000E+04  0.10566000000E+00 0. -1.
        994   -1    0    0    0    0 -0.00000000000E+00 -0.00000000000E+00  0.11368683772E-12  0.17120000000E+03  0.17120000000E+03 0.  0.
         13    1    1    2    0    0 -0.88730496607E+01 -0.47566490674E+02  0.10127750702E+03  0.11224280216E+03  0.10566000000E+00 0. -1.
        994    1    1    2    0    0  0.20414512974E+02  0.52586548700E+02  0.21376261322E+02  0.18151716721E+03  0.17120000000E+03 0.  0.
        998    1    1    2    0    0 -0.11541463313E+02 -0.50200580262E+01  0.13773462279E+04  0.13774400306E+04  0.10000000000E+02 0. -1.
</event>
<event>
 5    1  0.1369527E-008  0.3838802E+03  0.7957747E-01  0.3434435E+00
         13   -1    0    0    0    0  0.00000000000E+00  0.00000000000E+00  0.14999999963E+04  0.15000000000E+04  0.10566000000E+00 0.  1.
        994   -1    0    0    0    0 -0.00000000000E+00 -0.00000000000E+00  0.11368683772E-12  0.17120000000E+03  0.17120000000E+03 0.  0.
         13    1    1    2    0    0  0.17099776210E+02 -0.12122783597E+02  0.97323469129E+02  0.99555175837E+02  0.10566000000E+00 0.  1.
        994    1    1    2    0    0 -0.12848502781E+02  0.11536350756E+02  0.31718654836E+01  0.17209785630E+03  0.17120000000E+03 0.  0.
        998    1    1    2    0    0 -0.42512734284E+01  0.58643284131E+00  0.13995046617E+04  0.13995469679E+04  0.10000000000E+02 0.  1.
</event>
<event>
 5    1  0.1369527E-008  0.3750172E+03  0.7957747E-01  0.3473146E+00
         13   -1    0    0    0    0  0.00000000000E+00  0.00000000000E+00  0.14999999963E+04  0.15000000000E+04  0.10566000000E+00 0. -1.
        994   -1    0    0    0    0 -0.00000000000E+00 -0.00000000000E+00  0.11368683772E-12  0.17120000000E+03  0.17120000000E+03 0.  0.
         13    1    1    2    0    0  0.29247035586E+02 -0.25680709304E+02  0.10435208436E+03  0.11137439829E+03  0.10566000000E+00 0. -1.
        994    1    1    2    0    0 -0.25819981199E+02  0.28994155202E+02  0.11810568462E+02  0.17594391718E+03  0.17120000000E+03 0.  0.
        998    1    1    2    0    0 -0.34270543868E+01 -0.33134458976E+01  0.13838373435E+04  0.13838816845E+04  0.10000000000E+02 0.  0.
</event>
<event>
 5    1  0.1369527E-008  0.3820983E+03  0.7957747E-01  0.3442073E+00
         13   -1    0    0    0    0  0.00000000000E+00  0.00000000000E+00  0.14999999963E+04  0.15000000000E+04  0.10566000000E+00 0.  1.
        994   -1    0    0    0    0 -0.00000000000E+00 -0.00000000000E+00  0.11368683772E-12  0.17120000000E+03  0.17120000000E+03 0.  0.
         13    1    1    2    0    0 -0.30501772948E+01 -0.23973662064E+02  0.96834730543E+02  0.99804890951E+02  0.10566000000E+00 0.  1.
        994    1    1    2    0    0 -0.91570892584E+01  0.10973743338E+02  0.37561223522E+01  0.17183661944E+03  0.17120000000E+03 0.  0.
        998    1    1    2    0    0  0.12207266553E+02  0.12999918726E+02  0.13994091434E+04  0.13995584896E+04  0.10000000000E+02 0.  1.
</event>
<event>
 5    1  0.1369527E-008  0.3758988E+03  0.7957747E-01  0.3469213E+00
         13   -1    0    0    0    0  0.00000000000E+00  0.00000000000E+00  0.14999999963E+04  0.15000000000E+04  0.10566000000E+00 0.  1.
        994   -1    0    0    0    0 -0.00000000000E+00 -0.00000000000E+00  0.11368683772E-12  0.17120000000E+03  0.17120000000E+03 0.  0.
         13    1    1    2    0    0 -0.38836606879E+01  0.23830685441E+02  0.43183314051E+02  0.49475187371E+02  0.10566000000E+00 0.  1.
        994    1    1    2    0    0 -0.67777821425E+00 -0.25698463627E+02  0.84607565550E+01  0.17332597848E+03  0.17120000000E+03 0.  0.
        998    1    1    2    0    0  0.45614389022E+01  0.18677781864E+01  0.14483559257E+04  0.14483988341E+04  0.10000000000E+02 0.  1.
</event>
<event>
 5    1  0.1369527E-008  0.3852301E+03  0.7957747E-01  0.3428697E+00
         13   -1    0    0    0    0  0.00000000000E+00  0.00000000000E+00  0.14999999963E+04  0.15000000000E+04  0.10566000000E+00 0.  1.
        994   -1    0    0    0    0 -0.00000000000E+00 -0.00000000000E+00  0.11368683772E-12  0.17120000000E+03  0.17120000000E+03 0.  0.
         13    1    1    2    0    0 -0.15473328545E+02 -0.22370339323E+01  0.92631896561E+02  0.93942044057E+02  0.10566000000E+00 0.  1.
        994    1    1    2    0    0 -0.72026651983E+01  0.23981105080E+01  0.17053218027E+01  0.17137671208E+03  0.17120000000E+03 0.  0.
        998    1    1    2    0    0  0.22675993743E+02 -0.16107657562E+00  0.14056627779E+04  0.14058812439E+04  0.10000000000E+02 0.  1.
</event>
<event>
 5    1  0.1369527E-008  0.3814911E+03  0.7957747E-01  0.3444692E+00
         13   -1    0    0    0    0  0.00000000000E+00  0.00000000000E+00  0.14999999963E+04  0.15000000000E+04  0.10566000000E+00 0. -1.
        994   -1    0    0    0    0 -0.00000000000E+00 -0.00000000000E+00  0.11368683772E-12  0.17120000000E+03  0.17120000000E+03 0.  0.
         13    1    1    2    0    0  0.33634405223E+02 -0.24934362151E+02  0.21473838595E+03  0.21878204038E+03  0.10566000000E+00 0. -1.
        994    1    1    2    0    0 -0.36556821547E+02  0.28896053836E+02  0.10639454686E+02  0.17774707065E+03  0.17120000000E+03 0.  0.
        998    1    1    2    0    0  0.29224163237E+01 -0.39616916846E+01  0.12746221556E+04  0.12746708890E+04  0.10000000000E+02 0. -1.
</event>
<event>
 5    1  0.1369527E-008  0.3800546E+03  0.7957747E-01  0.3450921E+00
         13   -1    0    0    0    0  0.00000000000E+00  0.00000000000E+00  0.14999999963E+04  0.15000000000E+04  0.10566000000E+00 0.  1.
        994   -1    0    0    0    0 -0.00000000000E+00 -0.00000000000E+00  0.11368683772E-12  0.17120000000E+03  0.17120000000E+03 0.  0.
         13    1    1    2    0    0  0.52005670452E+02  0.24995990460E+02  0.30827955013E+03  0.31363303635E+03  0.10566000000E+00 0.  1.
        994    1    1    2    0    0 -0.51388390430E+02 -0.38045526930E+02  0.17892912038E+02  0.18362414082E+03  0.17120000000E+03 0.  0.
        998    1    1    2    0    0 -0.61728002264E+00  0.13049536470E+02  0.11738275341E+04  0.11739428228E+04  0.10000000000E+02 0.  1.
</event>
<event>
 5    1  0.1369527E-008  0.3809164E+03  0.7957747E-01  0.3447178E+00
         13   -1    0    0    0    0  0.00000000000E+00  0.00000000000E+00  0.14999999963E+04  0.15000000000E+04  0.10566000000E+00 0.  1.
        994   -1    0    0    0    0 -0.00000000000E+00 -0.00000000000E+00  0.11368683772E-12  0.17120000000E+03  0.17120000000E+03 0.  0.
         13    1    1    2    0    0  0.23733991103E+02 -0.29807888959E+02  0.17001996135E+03  0.17423722622E+03  0.10566000000E+00 0.  1.
        994    1    1    2    0    0 -0.35187741452E+02  0.27068352917E+02  0.10267909990E+02  0.17716021803E+03  0.17120000000E+03 0.  0.
        998    1    1    2    0    0  0.11453750349E+02  0.27395360425E+01  0.13197121249E+04  0.13198025557E+04  0.10000000000E+02 0.  1.
</event>
<event>
 5    1  0.1369527E-008  0.3849224E+03  0.7957747E-01  0.3430001E+00
         13   -1    0    0    0    0  0.00000000000E+00  0.00000000000E+00  0.14999999963E+04  0.15000000000E+04  0.10566000000E+00 0.  1.
        994   -1    0    0    0    0 -0.00000000000E+00 -0.00000000000E+00  0.11368683772E-12  0.17120000000E+03  0.17120000000E+03 0.  0.
         13    1    1    2    0    0 -0.11528743092E+02  0.10673215508E+01  0.41336142878E+02  0.42927135528E+02  0.10566000000E+00 0.  1.
        994    1    1    2    0    0  0.14828938325E+01  0.12680087397E+01  0.16811807432E+01  0.17121937154E+03  0.17120000000E+03 0.  0.
        998    1    1    2    0    0  0.10045849259E+02 -0.23353302905E+01  0.14569826727E+04  0.14570534929E+04  0.10000000000E+02 0.  1.
</event>
<event>
 5    1  0.1369527E-008  0.3850884E+03  0.7957747E-01  0.3429297E+00
         13   -1    0    0    0    0  0.00000000000E+00  0.00000000000E+00  0.14999999963E+04  0.15000000000E+04  0.10566000000E+00 0.  1.
        994   -1    0    0    0    0 -0.00000000000E+00 -0.00000000000E+00  0.11368683772E-12  0.17120000000E+03  0.17120000000E+03 0.  0.
         13    1    1    2    0    0  0.56420292752E+01  0.92772649383E+01  0.38550169930E+02  0.40050304678E+02  0.10566000000E+00 0.  1.
        994    1    1    2    0    0  0.46351828139E+01 -0.21936063652E+01  0.16726961552E+01  0.17128495188E+03  0.17120000000E+03 0.  0.
        998    1    1    2    0    0 -0.10277212089E+02 -0.70836585730E+01  0.14597771302E+04  0.14598647434E+04  0.10000000000E+02 0.  1.
</event>
<event>
 5    1  0.1369527E-008  0.3812123E+03  0.7957747E-01  0.3445897E+00
         13   -1    0    0    0    0  0.00000000000E+00  0.00000000000E+00  0.14999999963E+04  0.15000000000E+04  0.10566000000E+00 0.  1.
        994   -1    0    0    0    0 -0.00000000000E+00 -0.00000000000E+00  0.11368683772E-12  0.17120000000E+03  0.17120000000E+03 0.  0.
         13    1    1    2    0    0  0.74556584399E+01 -0.11503305271E+02  0.24670609841E+02  0.28223448211E+02  0.10566000000E+00 0.  1.
        994    1    1    2    0    0 -0.14905905310E+02  0.11313670426E+02  0.46892445827E+01  0.17228352842E+03  0.17120000000E+03 0.  0.
        998    1    1    2    0    0  0.74502468700E+01  0.18963484496E+00  0.14706401419E+04  0.14706930234E+04  0.10000000000E+02 0.  1.
</event>
<event>
 5    1  0.1369527E-008  0.3835768E+03  0.7957747E-01  0.3435730E+00
         13   -1    0    0    0    0  0.00000000000E+00  0.00000000000E+00  0.14999999963E+04  0.15000000000E+04  0.10566000000E+00 0.  1.
        994   -1    0    0    0    0 -0.00000000000E+00 -0.00000000000E+00  0.11368683772E-12  0.17120000000E+03  0.17120000000E+03 0.  0.
         13    1    1    2    0    0 -0.12971749178E+02  0.21454081296E+02  0.13060595855E+03  0.13299049385E+03  0.10566000000E+00 0.  1.
        994    1    1    2    0    0  0.15852504948E+02 -0.12040091090E+02  0.36486717606E+01  0.17239204887E+03  0.17120000000E+03 0.  0.
        998    1    1    2    0    0 -0.28807557697E+01 -0.94139902059E+01  0.13657453660E+04  0.13658174573E+04  0.10000000000E+02 0.  1.
</event>
<event>
 5    1  0.1369527E-008  0.3852906E+03  0.7957747E-01  0.3428441E+00
         13   -1    0    0    0    0  0.00000000000E+00  0.00000000000E+00  0.14999999963E+04  0.15000000000E+04  0.10566000000E+00 0. -1.
        994   -1    0    0    0    0 -0.00000000000E+00 -0.00000000000E+00  0.11368683772E-12  0.17120000000E+03  0.17120000000E+03 0.  0.
         13    1    1    2    0    0  0.11568516421E+02 -0.34876819969E+01  0.52708863717E+02  0.54076149792E+02  0.10566000000E+00 0. -1.
        994    1    1    2    0    0  0.35546500158E+01  0.59695646233E+00  0.15286102213E+01  0.17124476209E+03  0.17120000000E+03 0.  0.
        998    1    1    2    0    0 -0.15123166437E+02  0.28907255345E+01  0.14457625223E+04  0.14458790881E+04  0.10000000000E+02 0. -1.
</event>
<event>
 5    1  0.1369527E-008  0.3124385E+03  0.7957747E-01  0.3811035E+00
         13   -1    0    0    0    0  0.00000000000E+00  0.00000000000E+00  0.14999999963E+04  0.15000000000E+04  0.10566000000E+00 0. -1.
        994   -1    0    0    0    0 -0.00000000000E+00 -0.00000000000E+00  0.11368683772E-12  0.17120000000E+03  0.17120000000E+03 0.  0.
         13    1    1    2    0    0  0.64387052408E+02 -0.22675697770E+03  0.62284142205E+03  0.66595485406E+03  0.10566000000E+00 0. -1.
        994    1    1    2    0    0 -0.41950906024E+02  0.22572460995E+03  0.25760172695E+03  0.38520068507E+03  0.17120000000E+03 0.  0.
        998    1    1    2    0    0 -0.22436146384E+02  0.10323677534E+01  0.61955684728E+03  0.62004446087E+03  0.10000000000E+02 0. -1.
</event>
<event>
 5    1  0.1369527E-008  0.3856563E+03  0.7957747E-01  0.3426894E+00
         13   -1    0    0    0    0  0.00000000000E+00  0.00000000000E+00  0.14999999963E+04  0.15000000000E+04  0.10566000000E+00 0.  1.
        994   -1    0    0    0    0 -0.00000000000E+00 -0.00000000000E+00  0.11368683772E-12  0.17120000000E+03  0.17120000000E+03 0.  0.
         13    1    1    2    0    0 -0.37108813881E+01 -0.14303449302E+02  0.83063088560E+02  0.84367334602E+02  0.10566000000E+00 0.  1.
        994    1    1    2    0    0  0.44598391162E-01  0.11803227959E+02  0.17619809396E+01  0.17161545023E+03  0.17120000000E+03 0.  0.
        998    1    1    2    0    0  0.36662829970E+01  0.25002213436E+01  0.14151749268E+04  0.14152172152E+04  0.10000000000E+02 0.  0.
</event>
<event>
 5    1  0.1369527E-008  0.3829394E+03  0.7957747E-01  0.3438459E+00
         13   -1    0    0    0    0  0.00000000000E+00  0.00000000000E+00  0.14999999963E+04  0.15000000000E+04  0.10566000000E+00 0.  1.
        994   -1    0    0    0    0 -0.00000000000E+00 -0.00000000000E+00  0.11368683772E-12  0.17120000000E+03  0.17120000000E+03 0.  0.
         13    1    1    2    0    0 -0.21687891996E+02 -0.82348757791E+00  0.83662852734E+02  0.86432209752E+02  0.10566000000E+00 0.  1.
        994    1    1    2    0    0  0.22447013126E+02 -0.30797087257E+01  0.43581159804E+01  0.17274775304E+03  0.17120000000E+03 0.  0.
        998    1    1    2    0    0 -0.75912113017E+00  0.39031963036E+01  0.14119790276E+04  0.14120200372E+04  0.10000000000E+02 0.  1.
</event>
<event>
 5    1  0.1369527E-008  0.3834504E+03  0.7957747E-01  0.3436271E+00
         13   -1    0    0    0    0  0.00000000000E+00  0.00000000000E+00  0.14999999963E+04  0.15000000000E+04  0.10566000000E+00 0. -1.
        994   -1    0    0    0    0 -0.00000000000E+00 -0.00000000000E+00  0.11368683772E-12  0.17120000000E+03  0.17120000000E+03 0.  0.
         13    1    1    2    0    0 -0.53995459030E+01  0.11631874837E+02  0.36176955538E+02  0.38382794117E+02  0.10566000000E+00 0. -1.
        994    1    1    2    0    0 -0.15323727122E+02  0.38564016995E+01  0.32271449309E+01  0.17195796844E+03  0.17120000000E+03 0.  0.
        998    1    1    2    0    0  0.20723273025E+02 -0.15488276536E+02  0.14605958958E+04  0.14608592374E+04  0.10000000000E+02 0. -1.
</event>
<event>
 5    1  0.1369527E-008  0.3754638E+03  0.7957747E-01  0.3471151E+00
         13   -1    0    0    0    0  0.00000000000E+00  0.00000000000E+00  0.14999999963E+04  0.15000000000E+04  0.10566000000E+00 0.  1.
        994   -1    0    0    0    0 -0.00000000000E+00 -0.00000000000E+00  0.11368683772E-12  0.17120000000E+03  0.17120000000E+03 0.  0.
         13    1    1    2    0    0 -0.32100490680E+01  0.11067239967E+02  0.74227453861E+01  0.13707535468E+02  0.10566000000E+00 0.  1.
        994    1    1    2    0    0  0.11810608584E+02 -0.21913853060E+01  0.69306301709E+01  0.17176078213E+03  0.17120000000E+03 0.  0.
        998    1    1    2    0    0 -0.86005595156E+01 -0.88758546608E+01  0.14856466207E+04  0.14857316824E+04  0.10000000000E+02 0.  1.
</event>
<event>
 5    1  0.1369527E-008  0.3713718E+03  0.7957747E-01  0.3489610E+00
         13   -1    0    0    0    0  0.00000000000E+00  0.00000000000E+00  0.14999999963E+04  0.15000000000E+04  0.10566000000E+00 0. -1.
        994   -1    0    0    0    0 -0.00000000000E+00 -0.00000000000E+00  0.11368683772E-12  0.17120000000E+03  0.17120000000E+03 0.  0.
         13    1    1    2    0    0 -0.15884738767E+01  0.10375974893E+02 -0.72835169259E+00  0.10522631061E+02  0.10566000000E+00 0. -1.
        994    1    1    2    0    0  0.67555934641E+00 -0.72463407618E+01  0.11852152370E+02  0.17176402228E+03  0.17120000000E+03 0.  0.
        998    1    1    2    0    0  0.91291453027E+00 -0.31296341307E+01  0.14888761956E+04  0.14889133467E+04  0.10000000000E+02 0. -1.
</event>
<event>
 5    1  0.1369527E-008  0.3725661E+03  0.7957747E-01  0.3484180E+00
         13   -1    0    0    0    0  0.00000000000E+00  0.00000000000E+00  0.14999999963E+04  0.15000000000E+04  0.10566000000E+00 0.  1.
        994   -1    0    0    0    0 -0.00000000000E+00 -0.00000000000E+00  0.11368683772E-12  0.17120000000E+03  0.17120000000E+03 0.  0.
         13    1    1    2    0    0 -0.34858557037E+02  0.55288402803E+02  0.25899220234E+03  0.26711214596E+03  0.10566000000E+00 0.  1.
        994    1    1    2    0    0  0.34593238832E+02 -0.28370517789E+02  0.14825324089E+02  0.17756916592E+03  0.17120000000E+03 0.  0.
        998    1    1    2    0    0  0.26531820419E+00 -0.26917885015E+02  0.12261824699E+04  0.12265186881E+04  0.10000000000E+02 0.  1.
</event>
<event>
 5    1  0.1369527E-008  0.3687079E+03  0.7957747E-01  0.3501850E+00
         13   -1    0    0    0    0  0.00000000000E+00  0.00000000000E+00  0.14999999963E+04  0.15000000000E+04  0.10566000000E+00 0. -1.
        994   -1    0    0    0    0 -0.00000000000E+00 -0.00000000000E+00  0.11368683772E-12  0.17120000000E+03  0.17120000000E+03 0.  0.
         13    1    1    2    0    0 -0.49347582913E+02  0.40926511016E+02  0.24143530840E+03  0.24980228692E+03  0.10566000000E+00 0. -1.
        994    1    1    2    0    0  0.33859827127E+01 -0.80764826034E+01  0.10212427789E+02  0.17172777333E+03  0.17120000000E+03 0.  0.
        998    1    1    2    0    0  0.45961600200E+02 -0.32850028412E+02  0.12483522601E+04  0.12496699398E+04  0.10000000000E+02 0.  1.
</event>
<event>
 5    1  0.1369527E-008  0.3737201E+03  0.7957747E-01  0.3478967E+00
         13   -1    0    0    0    0  0.00000000000E+00  0.00000000000E+00  0.14999999963E+04  0.15000000000E+04  0.10566000000E+00 0. -1.
        994   -1    0    0    0    0 -0.00000000000E+00 -0.00000000000E+00  0.11368683772E-12  0.17120000000E+03  0.17120000000E+03 0.  0.
         13    1    1    2    0    0  0.12874693546E+02 -0.35724578605E+01  0.87917163476E+01  0.15994549991E+02  0.10566000000E+00 0. -1.
        994    1    1    2    0    0 -0.12529517779E+02  0.23227585064E+01  0.78920077401E+01  0.17185490336E+03  0.17120000000E+03 0.  0.
        998    1    1    2    0    0 -0.34517576679E+00  0.12496993541E+01  0.14833162722E+04  0.14833505466E+04  0.10000000000E+02 0. -1.
</event>
<event>
 5    1  0.1369527E-008  0.3815871E+03  0.7957747E-01  0.3444277E+00
         13   -1    0    0    0    0  0.00000000000E+00  0.00000000000E+00  0.14999999963E+04  0.15000000000E+04  0.10566000000E+00 0. -1.
        994   -1    0    0    0    0 -0.00000000000E+00 -0.00000000000E+00  0.11368683772E-12  0.17120000000E+03  0.17120000000E+03 0.  0.
         13    1    1    2    0    0  0.14330185767E+03  0.10949300177E+03  0.99111740901E+03  0.10073916167E+04  0.10566000000E+00 0. -1.
        994    1    1    2    0    0 -0.14226541470E+03 -0.12648034823E+03  0.13505151267E+03  0.28945652140E+03  0.17120000000E+03 0.  0.
        998    1    1    2    0    0 -0.10364429739E+01  0.16987346457E+02  0.37383107459E+03  0.37435186187E+03  0.10000000000E+02 0. -1.
</event>
<event>
 5    1  0.1369527E-008  0.3787813E+03  0.7957747E-01  0.3456482E+00
         13   -1    0    0    0    0  0.00000000000E+00  0.00000000000E+00  0.14999999963E+04  0.15000000000E+04  0.10566000000E+00 0. -1.
        994   -1    0    0    0    0 -0.00000000000E+00 -0.00000000000E+00  0.11368683772E-12  0.17120000000E+03  0.17120000000E+03 0.  0.
         13    1    1    2    0    0 -0.40123684263E+01 -0.20781465027E+02  0.45147537695E+02  0.49862608366E+02  0.10566000000E+00 0. -1.
        994    1    1    2    0    0 -0.52113555412E+01  0.16393982621E+02  0.57434834909E+01  0.17215791732E+03  0.17120000000E+03 0.  0.
        998    1    1    2    0    0  0.92237239675E+01  0.43874824057E+01  0.14491089751E+04  0.14491794743E+04  0.10000000000E+02 0. -1.
</event>
<event>
 5    1  0.1369527E-008  0.3817584E+03  0.7957747E-01  0.3443537E+00
         13   -1    0    0    0    0  0.00000000000E+00  0.00000000000E+00  0.14999999963E+04  0.15000000000E+04  0.10566000000E+00 0.  1.
        994   -1    0    0    0    0 -0.00000000000E+00 -0.00000000000E+00  0.11368683772E-12  0.17120000000E+03  0.17120000000E+03 0.  0.
         13    1    1    2    0    0 -0.18330382951E+02  0.20660130878E+02  0.12429069769E+03  0.12732255355E+03  0.10566000000E+00 0.  1.
        994    1    1    2    0    0  0.42244974248E+02  0.25018316104E+02  0.11301627092E+02  0.17845929722E+03  0.17120000000E+03 0.  0.
        998    1    1    2    0    0 -0.23914591296E+02 -0.45678446982E+02  0.13644076715E+04  0.13654181492E+04  0.10000000000E+02 0.  1.
</event>
<event>
 5    1  0.1369527E-008  0.3814643E+03  0.7957747E-01  0.3444807E+00
         13   -1    0    0    0    0  0.00000000000E+00  0.00000000000E+00  0.14999999963E+04  0.15000000000E+04  0.10566000000E+00 0. -1.
        994   -1    0    0    0    0 -0.00000000000E+00 -0.00000000000E+00  0.11368683772E-12  0.17120000000E+03  0.17120000000E+03 0.  0.
         13    1    1    2    0    0 -0.12742691233E+02  0.27471715042E+02  0.12423539191E+03  0.12787304280E+03  0.10566000000E+00 0. -1.
        994    1    1    2    0    0  0.15143958058E+02 -0.26306886564E+02  0.64671526091E+01  0.17399038999E+03  0.17120000000E+03 0.  0.
        998    1    1    2    0    0 -0.24012668245E+01 -0.11648284785E+01  0.13692974518E+04  0.13693365672E+04  0.10000000000E+02 0. -1.
</event>
<event>
 5    1  0.1369527E-008  0.3755477E+03  0.7957747E-01  0.3470777E+00
         13   -1    0    0    0    0  0.00000000000E+00  0.00000000000E+00  0.14999999963E+04  0.15000000000E+04  0.10566000000E+00 0. -1.
        994   -1    0    0    0    0 -0.00000000000E+00 -0.00000000000E+00  0.11368683772E-12  0.17120000000E+03  0.17120000000E+03 0.  0.
         13    1    1    2    0    0  0.32462563638E+00 -0.66099604581E+02  0.29652192368E+03  0.30380014071E+03  0.10566000000E+00 0. -1.
        994    1    1    2    0    0 -0.35606839402E+01  0.55736270564E+02  0.17055458703E+02  0.18088543059E+03  0.17120000000E+03 0.  0.
        998    1    1    2    0    0  0.32360583038E+01  0.10363334017E+02  0.11864226139E+04  0.11865144287E+04  0.10000000000E+02 0. -1.
</event>
<event>
 5    1  0.1369527E-008  0.3834995E+03  0.7957747E-01  0.3436061E+00
         13   -1    0    0    0    0  0.00000000000E+00  0.00000000000E+00  0.14999999963E+04  0.15000000000E+04  0.10566000000E+00 0.  1.
        994   -1    0    0    0    0 -0.00000000000E+00 -0.00000000000E+00  0.11368683772E-12  0.17120000000E+03  0.17120000000E+03 0.  0.
         13    1    1    2    0    0 -0.21044500179E+02 -0.15898303089E+02  0.12638787466E+03  0.12911054587E+03  0.10566000000E+00 0.  1.
        994    1    1    2    0    0  0.22384381294E+02  0.29653289135E+02  0.69521129458E+01  0.17532298753E+03  0.17120000000E+03 0.  0.
        998    1    1    2    0    0 -0.13398811151E+01 -0.13754986046E+02  0.13666600087E+04  0.13667664666E+04  0.10000000000E+02 0.  1.
</event>
<event>
 5    1  0.1369527E-008  0.3817157E+03  0.7957747E-01  0.3443722E+00
         13   -1    0    0    0    0  0.00000000000E+00  0.00000000000E+00  0.14999999963E+04  0.15000000000E+04  0.10566000000E+00 0.  1.
        994   -1    0    0    0    0 -0.00000000000E+00 -0.00000000000E+00  0.11368683772E-12  0.17120000000E+03  0.17120000000E+03 0.  0.
         13    1    1    2    0    0  0.29489371064E+01 -0.22641553015E+02  0.79268953721E+02  0.82491904701E+02  0.10566000000E+00 0.  1.
        994    1    1    2    0    0  0.37625201434E+01  0.13393513506E+02  0.39132075504E+01  0.17180889370E+03  0.17120000000E+03 0.  0.
        998    1    1    2    0    0 -0.67114572498E+01  0.92480395092E+01  0.14168178350E+04  0.14168992016E+04  0.10000000000E+02 0.  1.
</event>
<event>
 5    1  0.1369527E-008  0.3721798E+03  0.7957747E-01  0.3485932E+00
         13   -1    0    0    0    0  0.00000000000E+00  0.00000000000E+00  0.14999999963E+04  0.15000000000E+04  0.10566000000E+00 0.  1.
        994   -1    0    0    0    0 -0.00000000000E+00 -0.00000000000E+00  0.11368683772E-12  0.17120000000E+03  0.17120000000E+03 0.  0.
         13    1    1    2    0    0 -0.79703161554E+01 -0.18974125244E+02  0.22025849791E+02  0.30144528383E+02  0.10566000000E+00 0.  1.
        994    1    1    2    0    0  0.89199887496E+01  0.23246610610E+02  0.10264706130E+02  0.17330543931E+03  0.17120000000E+03 0.  0.
        998    1    1    2    0    0 -0.94967259413E+00 -0.42724853658E+01  0.14677094404E+04  0.14677500323E+04  0.10000000000E+02 0.  1.
</event>
<event>
 5    1  0.2140859E-008  0.3861808E+03  0.7957747E-01  0.3424680E+00
         13   -1    0    0    0    0  0.00000000000E+00  0.00000000000E+00  0.14999999963E+04  0.15000000000E+04  0.10566000000E+00 0. -1.
        994   -1    0    0    0    0 -0.00000000000E+00 -0.00000000000E+00  0.11368683772E-12  0.17120000000E+03  0.17120000000E+03 0.  0.
         13    1    1    2    0    0 -0.46376560953E+01 -0.10169043197E+02  0.62221378271E+02  0.63217310695E+02  0.10566000000E+00 0. -1.
        994    1    1    2    0    0  0.50109188726E+01  0.23409790001E+01  0.11452505670E+01  0.17129314373E+03  0.17120000000E+03 0.  0.
        998    1    1    2    0    0 -0.37326277733E+00  0.78280641969E+01  0.14366333674E+04  0.14366895456E+04  0.10000000000E+02 0. -1.
</event>
<event>
 5    1  0.1369527E-008  0.3763206E+03  0.7957747E-01  0.3467338E+00
         13   -1    0    0    0    0  0.00000000000E+00  0.00000000000E+00  0.14999999963E+04  0.15000000000E+04  0.10566000000E+00 0.  1.
        994   -1    0    0    0    0 -0.00000000000E+00 -0.00000000000E+00  0.11368683772E-12  0.17120000000E+03  0.17120000000E+03 0.  0.
         13    1    1    2    0    0 -0.23023741570E+02 -0.72578910686E+02  0.31804180203E+03  0.32702964691E+03  0.10566000000E+00 0.  1.
        994    1    1    2    0    0  0.21850023096E+02  0.94759155832E+02  0.38707251163E+02  0.20065994223E+03  0.17120000000E+03 0.  0.
        998    1    1    2    0    0  0.11737184731E+01 -0.22180245146E+02  0.11432509431E+04  0.11435104109E+04  0.10000000000E+02 0.  1.
</event>
<event>
 5    1  0.1369527E-008  0.3722949E+03  0.7957747E-01  0.3485410E+00
         13   -1    0    0    0    0  0.00000000000E+00  0.00000000000E+00  0.14999999963E+04  0.15000000000E+04  0.10566000000E+00 0.  1.
        994   -1    0    0    0    0 -0.00000000000E+00 -0.00000000000E+00  0.11368683772E-12  0.17120000000E+03  0.17120000000E+03 0.  0.
         13    1    1    2    0    0  0.32955612700E+02 -0.25161961789E+02  0.87205056830E+02  0.96560498291E+02  0.10566000000E+00 0.  1.
        994    1    1    2    0    0 -0.69527539423E+02  0.27594076249E+02  0.27521145254E+02  0.18884481782E+03  0.17120000000E+03 0.  0.
        998    1    1    2    0    0  0.36571926724E+02 -0.24321144594E+01  0.13852737942E+04  0.13857946839E+04  0.10000000000E+02 0.  1.
</event>
<event>
 5    1  0.1369527E-008  0.3807504E+03  0.7957747E-01  0.3447898E+00
         13   -1    0    0    0    0  0.00000000000E+00  0.00000000000E+00  0.14999999963E+04  0.15000000000E+04  0.10566000000E+00 0. -1.
        994   -1    0    0    0    0 -0.00000000000E+00 -0.00000000000E+00  0.11368683772E-12  0.17120000000E+03  0.17120000000E+03 0.  0.
         13    1    1    2    0    0 -0.36965149834E+01  0.98868529178E+01  0.13200819592E+02  0.16902274569E+02  0.10566000000E+00 0. -1.
        994    1    1    2    0    0  0.20491841663E+01 -0.80466505887E+01  0.39847887192E+01  0.17144756132E+03  0.17120000000E+03 0.  0.
        998    1    1    2    0    0  0.16473308171E+01 -0.18402023291E+01  0.14828143880E+04  0.14828501641E+04  0.10000000000E+02 0. -1.
</event>
<event>
 5    1  0.1369527E-008  0.3691821E+03  0.7957747E-01  0.3499658E+00
         13   -1    0    0    0    0  0.00000000000E+00  0.00000000000E+00  0.14999999963E+04  0.15000000000E+04  0.10566000000E+00 0.  1.
        994   -1    0    0    0    0 -0.00000000000E+00 -0.00000000000E+00  0.11368683772E-12  0.17120000000E+03  0.17120000000E+03 0.  0.
         13    1    1    2    0    0 -0.29478298614E+01  0.18087587288E+02  0.11261766667E+02  0.21510208444E+02  0.10566000000E+00 0.  1.
        994    1    1    2    0    0  0.48859975150E+00 -0.16728382435E+02  0.11483905379E+02  0.17239894893E+03  0.17120000000E+03 0.  0.
        998    1    1    2    0    0  0.24592301099E+01 -0.13592048528E+01  0.14772543242E+04  0.14772908426E+04  0.10000000000E+02 0.  1.
</event>
<event>
 5    1  0.1369527E-008  0.3830575E+03  0.7957747E-01  0.3437953E+00
         13   -1    0    0    0    0  0.00000000000E+00  0.00000000000E+00  0.14999999963E+04  0.15000000000E+04  0.10566000000E+00 0. -1.
        994   -1    0    0    0    0 -0.00000000000E+00 -0.00000000000E+00  0.11368683772E-12  0.17120000000E+03  0.17120000000E+03 0.  0.
         13    1    1    2    0    0  0.12069873682E+02 -0.12235380845E+02  0.58392002099E+02  0.60868903952E+02  0.10566000000E+00 0. -1.
        994    1    1    2    0    0 -0.23926482110E+01  0.19226656101E+01  0.26288275663E+01  0.17124769237E+03  0.17120000000E+03 0.  0.
        998    1    1    2    0    0 -0.96772254706E+01  0.10312715235E+02  0.14389791666E+04  0.14390834037E+04  0.10000000000E+02 0. -1.
</event>
<event>
 5    1  0.1369527E-008  0.3772634E+03  0.7957747E-01  0.3463162E+00
         13   -1    0    0    0    0  0.00000000000E+00  0.00000000000E+00  0.14999999963E+04  0.15000000000E+04  0.10566000000E+00 0.  1.
        994   -1    0    0    0    0 -0.00000000000E+00 -0.00000000000E+00  0.11368683772E-12  0.17120000000E+03  0.17120000000E+03 0.  0.
         13    1    1    2    0    0  0.16557920674E+02 -0.33435243508E+02  0.12076512927E+03  0.12639742030E+03  0.10566000000E+00 0.  1.
        994    1    1    2    0    0 -0.31874434542E+01  0.29618743755E+02  0.85205156692E+01  0.17398123164E+03  0.17120000000E+03 0.  0.
        998    1    1    2    0    0 -0.13370477220E+02  0.38164997533E+01  0.13707143513E+04  0.13708213481E+04  0.10000000000E+02 0.  1.
</event>
<event>
 5    1  0.1823962E-008  0.3851177E+03  0.7957747E-01  0.3429173E+00
         13   -1    0    0    0    0  0.00000000000E+00  0.00000000000E+00  0.14999999963E+04  0.15000000000E+04  0.10566000000E+00 0. -1.
        994   -1    0    0    0    0 -0.00000000000E+00 -0.00000000000E+00  0.11368683772E-12  0.17120000000E+03  0.17120000000E+03 0.  0.
         13    1    1    2    0    0  0.18809582332E+01 -0.10694554687E+02  0.36917988220E+02  0.38481950602E+02  0.10566000000E+00 0. -1.
        994    1    1    2    0    0  0.10695388237E+01  0.10378248766E+02  0.19296595689E+01  0.17152846862E+03  0.17120000000E+03 0.  0.
        998    1    1    2    0    0 -0.29504970569E+01  0.31630592141E+00  0.14611523485E+04  0.14611895808E+04  0.10000000000E+02 0. -1.
</event>
<event>
 5    1  0.1773570E-008  0.3856931E+03  0.7957747E-01  0.3426738E+00
         13   -1    0    0    0    0  0.00000000000E+00  0.00000000000E+00  0.14999999963E+04  0.15000000000E+04  0.10566000000E+00 0. -1.
        994   -1    0    0    0    0 -0.00000000000E+00 -0.00000000000E+00  0.11368683772E-12  0.17120000000E+03  0.17120000000E+03 0.  0.
         13    1    1    2    0    0  0.77298300602E+01 -0.73354253513E+01  0.46041663025E+02  0.47258910652E+02  0.10566000000E+00 0. -1.
        994    1    1    2    0    0 -0.32587015859E+01 -0.15948217510E+01  0.13295932235E+01  0.17124359962E+03  0.17120000000E+03 0.  0.
        998    1    1    2    0    0 -0.44711284743E+01  0.89302471024E+01  0.14526287400E+04  0.14526974897E+04  0.10000000000E+02 0. -1.
</event>
<event>
 5    1  0.1369527E-008  0.3808666E+03  0.7957747E-01  0.3447394E+00
         13   -1    0    0    0    0  0.00000000000E+00  0.00000000000E+00  0.14999999963E+04  0.15000000000E+04  0.10566000000E+00 0. -1.
        994   -1    0    0    0    0 -0.00000000000E+00 -0.00000000000E+00  0.11368683772E-12  0.17120000000E+03  0.17120000000E+03 0.  0.
         13    1    1    2    0    0 -0.92974320111E+01 -0.37976128913E+01  0.12109027813E+02  0.15732254266E+02  0.10566000000E+00 0. -1.
        994    1    1    2    0    0  0.11297358805E+02 -0.14798235543E+02  0.48525635760E+01  0.17227769869E+03  0.17120000000E+03 0.  0.
        998    1    1    2    0    0 -0.19999267939E+01  0.18595848434E+02  0.14830384049E+04  0.14831900470E+04  0.10000000000E+02 0. -1.
</event>
<event>
 5    1  0.1369527E-008  0.3698146E+03  0.7957747E-01  0.3496743E+00
         13   -1    0    0    0    0  0.00000000000E+00  0.00000000000E+00  0.14999999963E+04  0.15000000000E+04  0.10566000000E+00 0. -1.
        994   -1    0    0    0    0 -0.00000000000E+00 -0.00000000000E+00  0.11368683772E-12  0.17120000000E+03  0.17120000000E+03 0.  0.
         13    1    1    2    0    0 -0.81572635207E+02  0.63996119297E+01  0.36350356034E+03  0.37259884513E+03  0.10566000000E+00 0. -1.
        994    1    1    2    0    0  0.43789814719E+02 -0.62061083257E+02  0.29600161938E+02  0.18961733970E+03  0.17120000000E+03 0.  0.
        998    1    1    2    0    0  0.37782820488E+02  0.55661471328E+02  0.11068962740E+04  0.11089838152E+04  0.10000000000E+02 0. -1.
</event>
<event>
 5    1  0.1369527E-008  0.3853372E+03  0.7957747E-01  0.3428243E+00
         13   -1    0    0    0    0  0.00000000000E+00  0.00000000000E+00  0.14999999963E+04  0.15000000000E+04  0.10566000000E+00 0.  1.
        994   -1    0    0    0    0 -0.00000000000E+00 -0.00000000000E+00  0.11368683772E-12  0.17120000000E+03  0.17120000000E+03 0.  0.
         13    1    1    2    0    0 -0.12167229634E+02 -0.23315182147E+01  0.54859634600E+02  0.56241160431E+02  0.10566000000E+00 0.  1.
        994    1    1    2    0    0  0.85139080703E+00  0.35418884319E+01  0.15063881137E+01  0.17124537671E+03  0.17120000000E+03 0.  0.
        998    1    1    2    0    0  0.11315838827E+02 -0.12103702173E+01  0.14436339736E+04  0.14437134629E+04  0.10000000000E+02 0.  1.
</event>
<event>
 5    1  0.1369527E-008  0.3854225E+03  0.7957747E-01  0.3427882E+00
         13   -1    0    0    0    0  0.00000000000E+00  0.00000000000E+00  0.14999999963E+04  0.15000000000E+04  0.10566000000E+00 0. -1.
        994   -1    0    0    0    0 -0.00000000000E+00 -0.00000000000E+00  0.11368683772E-12  0.17120000000E+03  0.17120000000E+03 0.  0.
         13    1    1    2    0    0 -0.11756113408E+02  0.11477882104E+02  0.91320745698E+02  0.92787055880E+02  0.10566000000E+00 0. -1.
        994    1    1    2    0    0  0.10540477714E+02 -0.12259018713E+02  0.22794034100E+01  0.17197680335E+03  0.17120000000E+03 0.  0.
        998    1    1    2    0    0  0.12156356944E+01  0.78113660893E+00  0.14063998472E+04  0.14064361408E+04  0.10000000000E+02 0. -1.
</event>
<event>
 5    1  0.1369527E-008  0.3845053E+03  0.7957747E-01  0.3431773E+00
         13   -1    0    0    0    0  0.00000000000E+00  0.00000000000E+00  0.14999999963E+04  0.15000000000E+04  0.10566000000E+00 0.  1.
        994   -1    0    0    0    0 -0.00000000000E+00 -0.00000000000E+00  0.11368683772E-12  0.17120000000E+03  0.17120000000E+03 0.  0.
         13    1    1    2    0    0 -0.78257261543E+01 -0.10918038085E+02  0.47198285615E+02  0.49072750834E+02  0.10566000000E+00 0.  1.
        994    1    1    2    0    0  0.53932061064E+01  0.10271949166E+02  0.23194474659E+01  0.17160833152E+03  0.17120000000E+03 0.  0.
        998    1    1    2    0    0  0.24325200479E+01  0.64608891895E+00  0.14504822632E+04  0.14505189176E+04  0.10000000000E+02 0.  1.
</event>
<event>
 5    1  0.1369527E-008  0.3854068E+03  0.7957747E-01  0.3427949E+00
         13   -1    0    0    0    0  0.00000000000E+00  0.00000000000E+00  0.14999999963E+04  0.15000000000E+04  0.10566000000E+00 0.  1.
        994   -1    0    0    0    0 -0.00000000000E+00 -0.00000000000E+00  0.11368683772E-12  0.17120000000E+03  0.17120000000E+03 0.  0.
         13    1    1    2    0    0 -0.15151516624E+02 -0.61014402911E+01  0.93811649793E+02  0.95223068794E+02  0.10566000000E+00 0.  1.
        994    1    1    2    0    0  0.84319465921E+01  0.71546765682E+01  0.18300241197E+01  0.17156653551E+03  0.17120000000E+03 0.  0.
        998    1    1    2    0    0  0.67195700321E+01 -0.10532362771E+01  0.14043583224E+04  0.14044103957E+04  0.10000000000E+02 0.  1.
</event>
<event>
 5    1  0.1369527E-008  0.3842005E+03  0.7957747E-01  0.3433070E+00
         13   -1    0    0    0    0  0.00000000000E+00  0.00000000000E+00  0.14999999963E+04  0.15000000000E+04  0.10566000000E+00 0.  1.
        994   -1    0    0    0    0 -0.00000000000E+00 -0.00000000000E+00  0.11368683772E-12  0.17120000000E+03  0.17120000000E+03 0.  0.
         13    1    1    2    0    0  0.22949684500E+01 -0.14347531232E+02  0.54683687761E+02  0.56581228369E+02  0.10566000000E+00 0.  1.
        994    1    1    2    0    0 -0.37824511241E+01 -0.16252401212E+01  0.20834961434E+01  0.17126216540E+03  0.17120000000E+03 0.  0.
        998    1    1    2    0    0  0.14874826741E+01  0.15972771353E+02  0.14432328124E+04  0.14433566062E+04  0.10000000000E+02 0.  1.
</event>
<event>
 5    1  0.1369527E-008  0.3823510E+03  0.7957747E-01  0.3440985E+00
         13   -1    0    0    0    0  0.00000000000E+00  0.00000000000E+00  0.14999999963E+04  0.15000000000E+04  0.10566000000E+00 0. -1.
        994   -1    0    0    0    0 -0.00000000000E+00 -0.00000000000E+00  0.11368683772E-12  0.17120000000E+03  0.17120000000E+03 0.  0.
         13    1    1    2    0    0  0.99116174374E+01 -0.12515553426E+02  0.44280928283E+02  0.47071127153E+02  0.10566000000E+00 0. -1.
        994    1    1    2    0    0  0.42068705011E+01  0.18001956890E+01  0.30205086271E+01  0.17128777521E+03  0.17120000000E+03 0.  0.
        998    1    1    2    0    0 -0.14118487939E+02  0.10715357737E+02  0.14526985594E+04  0.14528410976E+04  0.10000000000E+02 0. -1.
</event>
<event>
 5    1  0.1369527E-008  0.3827165E+03  0.7957747E-01  0.3439415E+00
         13   -1    0    0    0    0  0.00000000000E+00  0.00000000000E+00  0.14999999963E+04  0.15000000000E+04  0.10566000000E+00 0. -1.
        994   -1    0    0    0    0 -0.00000000000E+00 -0.00000000000E+00  0.11368683772E-12  0.17120000000E+03  0.17120000000E+03 0.  0.
         13    1    1    2    0    0 -0.17321253633E+02  0.22512124044E+02  0.12787753165E+03  0.13099425873E+03  0.10566000000E+00 0. -1.
        994    1    1    2    0    0  0.16544500750E+02 -0.31941360946E+02  0.70671345628E+01  0.17508099678E+03  0.17120000000E+03 0.  0.
        998    1    1    2    0    0  0.77675288295E+00  0.94292369017E+01  0.13650553301E+04  0.13651247445E+04  0.10000000000E+02 0. -1.
</event>
<event>
 5    1  0.1369527E-008  0.3811338E+03  0.7957747E-01  0.3446237E+00
         13   -1    0    0    0    0  0.00000000000E+00  0.00000000000E+00  0.14999999963E+04  0.15000000000E+04  0.10566000000E+00 0.  1.
        994   -1    0    0    0    0 -0.00000000000E+00 -0.00000000000E+00  0.11368683772E-12  0.17120000000E+03  0.17120000000E+03 0.  0.
         13    1    1    2    0    0  0.87456752484E+01 -0.33226900776E+02  0.15009241802E+03  0.15397486445E+03  0.10566000000E+00 0.  1.
        994    1    1    2    0    0 -0.11079112218E+02  0.32227565210E+02  0.74394234599E+01  0.17471733660E+03  0.17120000000E+03 0.  0.
        998    1    1    2    0    0  0.23334369695E+01  0.99933556540E+00  0.13424681548E+04  0.13425077990E+04  0.10000000000E+02 0.  1.
</event>
<event>
 5    1  0.1369527E-008  0.3778024E+03  0.7957747E-01  0.3460783E+00
         13   -1    0    0    0    0  0.00000000000E+00  0.00000000000E+00  0.14999999963E+04  0.15000000000E+04  0.10566000000E+00 0.  1.
        994   -1    0    0    0    0 -0.00000000000E+00 -0.00000000000E+00  0.11368683772E-12  0.17120000000E+03  0.17120000000E+03 0.  0.
         13    1    1    2    0    0  0.34024284440E+02  0.68619127460E+02  0.43365484854E+03  0.44036663748E+03  0.10566000000E+00 0.  1.
        994    1    1    2    0    0 -0.33088212125E+02 -0.59856776947E+02  0.21163456670E+02  0.18556668728E+03  0.17120000000E+03 0.  0.
        998    1    1    2    0    0 -0.93607231463E+00 -0.87623505131E+01  0.10451816911E+04  0.10452666752E+04  0.10000000000E+02 0.  0.
</event>
<event>
 5    1  0.1369527E-008  0.3849207E+03  0.7957747E-01  0.3430008E+00
         13   -1    0    0    0    0  0.00000000000E+00  0.00000000000E+00  0.14999999963E+04  0.15000000000E+04  0.10566000000E+00 0.  1.
        994   -1    0    0    0    0 -0.00000000000E+00 -0.00000000000E+00  0.11368683772E-12  0.17120000000E+03  0.17120000000E+03 0.  0.
         13    1    1    2    0    0 -0.34483370255E+01  0.94673872859E+01  0.30921214391E+02  0.32521609950E+02  0.10566000000E+00 0.  1.
        994    1    1    2    0    0 -0.30444814147E+01 -0.23099477958E+01  0.17175479554E+01  0.17125126188E+03  0.17120000000E+03 0.  0.
        998    1    1    2    0    0  0.64928184403E+01 -0.71574394901E+01  0.14673612339E+04  0.14674271282E+04  0.10000000000E+02 0.  1.
</event>
<event>
 5    1  0.1369527E-008  0.3828738E+03  0.7957747E-01  0.3438740E+00
         13   -1    0    0    0    0  0.00000000000E+00  0.00000000000E+00  0.14999999963E+04  0.15000000000E+04  0.10566000000E+00 0. -1.
        994   -1    0    0    0    0 -0.00000000000E+00 -0.00000000000E+00  0.11368683772E-12  0.17120000000E+03  0.17120000000E+03 0.  0.
         13    1    1    2    0    0 -0.11274322209E+02 -0.96076086113E+01  0.42055924565E+02  0.44588433921E+02  0.10566000000E+00 0. -1.
        994    1    1    2    0    0  0.15649411213E+01 -0.57629635706E+01  0.28075547386E+01  0.17132712323E+03  0.17120000000E+03 0.  0.
        998    1    1    2    0    0  0.97093810876E+01  0.15370572182E+02  0.14551365170E+04  0.14552844429E+04  0.10000000000E+02 0. -1.
</event>
<event>
 5    1  0.1369527E-008  0.3769241E+03  0.7957747E-01  0.3464662E+00
         13   -1    0    0    0    0  0.00000000000E+00  0.00000000000E+00  0.14999999963E+04  0.15000000000E+04  0.10566000000E+00 0. -1.
        994   -1    0    0    0    0 -0.00000000000E+00 -0.00000000000E+00  0.11368683772E-12  0.17120000000E+03  0.17120000000E+03 0.  0.
         13    1    1    2    0    0  0.43342865844E+02 -0.99469803044E+01  0.18381948386E+03  0.18912207763E+03  0.10566000000E+00 0. -1.
        994    1    1    2    0    0 -0.18182274909E+02 -0.11659395795E+02  0.72711612370E+01  0.17271029621E+03  0.17120000000E+03 0.  0.
        998    1    1    2    0    0 -0.25160590935E+02  0.21606376099E+02  0.13089093512E+04  0.13093676262E+04  0.10000000000E+02 0. -1.
</event>
<event>
 5    1  0.1369527E-008  0.3764839E+03  0.7957747E-01  0.3466613E+00
         13   -1    0    0    0    0  0.00000000000E+00  0.00000000000E+00  0.14999999963E+04  0.15000000000E+04  0.10566000000E+00 0. -1.
        994   -1    0    0    0    0 -0.00000000000E+00 -0.00000000000E+00  0.11368683772E-12  0.17120000000E+03  0.17120000000E+03 0.  0.
         13    1    1    2    0    0  0.75572858227E+02  0.28592363851E+02  0.40444896808E+03  0.41244121898E+03  0.10566000000E+00 0. -1.
        994    1    1    2    0    0 -0.74102113488E+02 -0.28905031150E+02  0.27626029410E+02  0.19078590501E+03  0.17120000000E+03 0.  0.
        998    1    1    2    0    0 -0.14707447384E+01  0.31266729987E+00  0.10679249988E+04  0.10679728760E+04  0.10000000000E+02 0.  0.
</event>
<event>
 5    1  0.1369527E-008  0.3751043E+03  0.7957747E-01  0.3472757E+00
         13   -1    0    0    0    0  0.00000000000E+00  0.00000000000E+00  0.14999999963E+04  0.15000000000E+04  0.10566000000E+00 0.  1.
        994   -1    0    0    0    0 -0.00000000000E+00 -0.00000000000E+00  0.11368683772E-12  0.17120000000E+03  0.17120000000E+03 0.  0.
         13    1    1    2    0    0  0.11222214036E+02  0.16242525222E+02  0.25756213991E+02  0.32452294783E+02  0.10566000000E+00 0.  1.
        994    1    1    2    0    0 -0.21775538954E+02 -0.17461750489E+02  0.92770753756E+01  0.17370835027E+03  0.17120000000E+03 0.  0.
        998    1    1    2    0    0  0.10553324917E+02  0.12192252675E+01  0.14649667069E+04  0.14650393549E+04  0.10000000000E+02 0.  1.
</event>
<event>
 5    1  0.1369527E-008  0.3859378E+03  0.7957747E-01  0.3425705E+00
         13   -1    0    0    0    0  0.00000000000E+00  0.00000000000E+00  0.14999999963E+04  0.15000000000E+04  0.10566000000E+00 0.  1.
        994   -1    0    0    0    0 -0.00000000000E+00 -0.00000000000E+00  0.11368683772E-12  0.17120000000E+03  0.17120000000E+03 0.  0.
         13    1    1    2    0    0  0.51281687644E+01 -0.10500632226E+02  0.61779150179E+02  0.62874764039E+02  0.10566000000E+00 0.  1.
        994    1    1    2    0    0  0.10150888628E+01  0.27833451267E+01  0.11940522419E+01  0.17122979640E+03  0.17120000000E+03 0.  0.
        998    1    1    2    0    0 -0.61432576272E+01  0.77172870995E+01  0.14370267939E+04  0.14370954396E+04  0.10000000000E+02 0.  1.
</event>
<event>
 5    1  0.1369527E-008  0.3833291E+03  0.7957747E-01  0.3436790E+00
         13   -1    0    0    0    0  0.00000000000E+00  0.00000000000E+00  0.14999999963E+04  0.15000000000E+04  0.10566000000E+00 0.  1.
        994   -1    0    0    0    0 -0.00000000000E+00 -0.00000000000E+00  0.11368683772E-12  0.17120000000E+03  0.17120000000E+03 0.  0.
         13    1    1    2    0    0  0.19122799971E+02 -0.14245988449E+02  0.12269208871E+03  0.12498795727E+03  0.10566000000E+00 0.  1.
        994    1    1    2    0    0 -0.45340779537E+01  0.31327158592E+01  0.25623972400E+01  0.17130784469E+03  0.17120000000E+03 0.  0.
        998    1    1    2    0    0 -0.14588722018E+02  0.11113272590E+02  0.13747455103E+04  0.13749041980E+04  0.10000000000E+02 0.  1.
</event>
<event>
 5    1  0.1369527E-008  0.3712295E+03  0.7957747E-01  0.3490259E+00
         13   -1    0    0    0    0  0.00000000000E+00  0.00000000000E+00  0.14999999963E+04  0.15000000000E+04  0.10566000000E+00 0. -1.
        994   -1    0    0    0    0 -0.00000000000E+00 -0.00000000000E+00  0.11368683772E-12  0.17120000000E+03  0.17120000000E+03 0.  0.
         13    1    1    2    0    0  0.21294843693E+02  0.94478261553E+02  0.31174189649E+03  0.32643932585E+03  0.10566000000E+00 0. -1.
        994    1    1    2    0    0 -0.29405611406E+02 -0.93968419450E+02  0.46454975567E+02  0.20288484071E+03  0.17120000000E+03 0.  0.
        998    1    1    2    0    0  0.81107677128E+01 -0.50984210372E+00  0.11418031242E+04  0.11418758334E+04  0.10000000000E+02 0. -1.
</event>
<event>
 5    1  0.1369527E-008  0.3845848E+03  0.7957747E-01  0.3431435E+00
         13   -1    0    0    0    0  0.00000000000E+00  0.00000000000E+00  0.14999999963E+04  0.15000000000E+04  0.10566000000E+00 0. -1.
        994   -1    0    0    0    0 -0.00000000000E+00 -0.00000000000E+00  0.11368683772E-12  0.17120000000E+03  0.17120000000E+03 0.  0.
         13    1    1    2    0    0 -0.76323694594E+01 -0.12348988424E+02  0.63405774507E+02  0.65046552434E+02  0.10566000000E+00 0. -1.
        994    1    1    2    0    0 -0.51493320576E+01 -0.57454747959E+01  0.20324830841E+01  0.17138581356E+03  0.17120000000E+03 0.  0.
        998    1    1    2    0    0  0.12781701517E+02  0.18094463220E+02  0.14345617387E+04  0.14347676340E+04  0.10000000000E+02 0. -1.
</event>
<event>
 5    1  0.1369527E-008  0.3859498E+03  0.7957747E-01  0.3425654E+00
         13   -1    0    0    0    0  0.00000000000E+00  0.00000000000E+00  0.14999999963E+04  0.15000000000E+04  0.10566000000E+00 0. -1.
        994   -1    0    0    0    0 -0.00000000000E+00 -0.00000000000E+00  0.11368683772E-12  0.17120000000E+03  0.17120000000E+03 0.  0.
         13    1    1    2    0    0 -0.46090550645E+01 -0.11778625810E+02  0.74389952526E+02  0.75457641200E+02  0.10566000000E+00 0. -1.
        994    1    1    2    0    0  0.11587788661E+02 -0.38306238100E+01  0.16478235487E+01  0.17164237777E+03  0.17120000000E+03 0.  0.
        998    1    1    2    0    0 -0.69787335962E+01  0.15609249620E+02  0.14239622202E+04  0.14240999810E+04  0.10000000000E+02 0. -1.
</event>
<event>
 5    1  0.1369527E-008  0.3697836E+03  0.7957747E-01  0.3496886E+00
         13   -1    0    0    0    0  0.00000000000E+00  0.00000000000E+00  0.14999999963E+04  0.15000000000E+04  0.10566000000E+00 0.  1.
        994   -1    0    0    0    0 -0.00000000000E+00 -0.00000000000E+00  0.11368683772E-12  0.17120000000E+03  0.17120000000E+03 0.  0.
         13    1    1    2    0    0  0.52841732086E+02 -0.16649672962E+02  0.16505760234E+03  0.17410767793E+03  0.10566000000E+00 0.  1.
        994    1    1    2    0    0 -0.36115408199E+02 -0.22143076165E+02  0.15617770888E+02  0.17705364526E+03  0.17120000000E+03 0.  0.
        998    1    1    2    0    0 -0.16726323887E+02  0.38792749127E+02  0.13193246231E+04  0.13200386768E+04  0.10000000000E+02 0.  1.
</event>
<event>
 5    1  0.1369527E-008  0.3851608E+03  0.7957747E-01  0.3428990E+00
         13   -1    0    0    0    0  0.00000000000E+00  0.00000000000E+00  0.14999999963E+04  0.15000000000E+04  0.10566000000E+00 0. -1.
        994   -1    0    0    0    0 -0.00000000000E+00 -0.00000000000E+00  0.11368683772E-12  0.17120000000E+03  0.17120000000E+03 0.  0.
         13    1    1    2    0    0 -0.62397015137E+01 -0.13588117346E+02  0.79110825432E+02  0.80511518881E+02  0.10566000000E+00 0. -1.
        994    1    1    2    0    0  0.15544436225E+01 -0.36767992369E+01  0.16026867036E+01  0.17125403281E+03  0.17120000000E+03 0.  0.
        998    1    1    2    0    0  0.46852578912E+01  0.17264916583E+02  0.14192864841E+04  0.14194344483E+04  0.10000000000E+02 0. -1.
</event>
<event>
 5    1  0.1369527E-008  0.3844018E+03  0.7957747E-01  0.3432213E+00
         13   -1    0    0    0    0  0.00000000000E+00  0.00000000000E+00  0.14999999963E+04  0.15000000000E+04  0.10566000000E+00 0.  1.
        994   -1    0    0    0    0 -0.00000000000E+00 -0.00000000000E+00  0.11368683772E-12  0.17120000000E+03  0.17120000000E+03 0.  0.
         13    1    1    2    0    0  0.47690969769E+01  0.17095859359E+02  0.85885009330E+02  0.87699821464E+02  0.10566000000E+00 0.  1.
        994    1    1    2    0    0  0.36122061395E+01 -0.47869900122E+01  0.20459521050E+01  0.17131721813E+03  0.17120000000E+03 0.  0.
        998    1    1    2    0    0 -0.83813031164E+01 -0.12308869347E+02  0.14120690348E+04  0.14121829604E+04  0.10000000000E+02 0.  1.
</event>
<event>
 5    1  0.1369527E-008  0.3721241E+03  0.7957747E-01  0.3486185E+00
         13   -1    0    0    0    0  0.00000000000E+00  0.00000000000E+00  0.14999999963E+04  0.15000000000E+04  0.10566000000E+00 0.  1.
        994   -1    0    0    0    0 -0.00000000000E+00 -0.00000000000E+00  0.11368683772E-12  0.17120000000E+03  0.17120000000E+03 0.  0.
         13    1    1    2    0    0  0.91911927403E+02  0.54776224287E+01  0.37684688094E+03  0.38793219715E+03  0.10566000000E+00 0.  1.
        994    1    1    2    0    0 -0.93913468378E+02 -0.25246502852E+01  0.39095576453E+02  0.19915827249E+03  0.17120000000E+03 0.  0.
        998    1    1    2    0    0  0.20015409752E+01 -0.29529721435E+01  0.10840575389E+04  0.10841095304E+04  0.10000000000E+02 0.  1.
</event>
<event>
 5    1  0.1369527E-008  0.3827486E+03  0.7957747E-01  0.3439277E+00
         13   -1    0    0    0    0  0.00000000000E+00  0.00000000000E+00  0.14999999963E+04  0.15000000000E+04  0.10566000000E+00 0. -1.
        994   -1    0    0    0    0 -0.00000000000E+00 -0.00000000000E+00  0.11368683772E-12  0.17120000000E+03  0.17120000000E+03 0.  0.
         13    1    1    2    0    0 -0.15866539650E+02 -0.12829596782E+02  0.76521102067E+02  0.79194923193E+02  0.10566000000E+00 0. -1.
        994    1    1    2    0    0  0.82912541360E+01  0.37732815767E+01  0.30269889973E+01  0.17146890450E+03  0.17120000000E+03 0.  0.
        998    1    1    2    0    0  0.75752855141E+01  0.90563152058E+01  0.14204519052E+04  0.14205361723E+04  0.10000000000E+02 0. -1.
</event>
<event>
 5    1  0.1369527E-008  0.3830163E+03  0.7957747E-01  0.3438129E+00
         13   -1    0    0    0    0  0.00000000000E+00  0.00000000000E+00  0.14999999963E+04  0.15000000000E+04  0.10566000000E+00 0. -1.
        994   -1    0    0    0    0 -0.00000000000E+00 -0.00000000000E+00  0.11368683772E-12  0.17120000000E+03  0.17120000000E+03 0.  0.
         13    1    1    2    0    0  0.12096216601E+02  0.10219105330E+01  0.27660745290E+02  0.30207461847E+02  0.10566000000E+00 0. -1.
        994    1    1    2    0    0 -0.40880706283E+01  0.13947905497E+01  0.26799892839E+01  0.17127545097E+03  0.17120000000E+03 0.  0.
        998    1    1    2    0    0 -0.80081459727E+01 -0.24167010827E+01  0.14696592617E+04  0.14697170872E+04  0.10000000000E+02 0. -1.
</event>
<event>
 5    1  0.1369527E-008  0.3852055E+03  0.7957747E-01  0.3428801E+00
         13   -1    0    0    0    0  0.00000000000E+00  0.00000000000E+00  0.14999999963E+04  0.15000000000E+04  0.10566000000E+00 0.  1.
        994   -1    0    0    0    0 -0.00000000000E+00 -0.00000000000E+00  0.11368683772E-12  0.17120000000E+03  0.17120000000E+03 0.  0.
         13    1    1    2    0    0  0.75991019529E+02 -0.10225532044E+03  0.32116165082E+03  0.34550774626E+03  0.10566000000E+00 0.  1.
        994    1    1    2    0    0 -0.71639853120E+02  0.10338648922E+03  0.80315397473E+02  0.22711459174E+03  0.17120000000E+03 0.  0.
        998    1    1    2    0    0 -0.43511664091E+01 -0.11311687786E+01  0.10985229480E+04  0.10985776620E+04  0.10000000000E+02 0.  1.
</event>
<event>
 5    1  0.1369527E-008  0.3725984E+03  0.7957747E-01  0.3484034E+00
         13   -1    0    0    0    0  0.00000000000E+00  0.00000000000E+00  0.14999999963E+04  0.15000000000E+04  0.10566000000E+00 0.  1.
        994   -1    0    0    0    0 -0.00000000000E+00 -0.00000000000E+00  0.11368683772E-12  0.17120000000E+03  0.17120000000E+03 0.  0.
         13    1    1    2    0    0 -0.42325848703E+01 -0.13165297538E+02  0.87754546172E+01  0.16378632474E+02  0.10566000000E+00 0.  1.
        994    1    1    2    0    0  0.47367328008E+01 -0.53085786680E+01  0.80906947071E+01  0.17153867490E+03  0.17120000000E+03 0.  0.
        998    1    1    2    0    0 -0.50414793049E+00  0.18473876206E+02  0.14831338470E+04  0.14832826926E+04  0.10000000000E+02 0.  1.
</event>
<event>
 5    1  0.1369527E-008  0.3749400E+03  0.7957747E-01  0.3473491E+00
         13   -1    0    0    0    0  0.00000000000E+00  0.00000000000E+00  0.14999999963E+04  0.15000000000E+04  0.10566000000E+00 0. -1.
        994   -1    0    0    0    0 -0.00000000000E+00 -0.00000000000E+00  0.11368683772E-12  0.17120000000E+03  0.17120000000E+03 0.  0.
         13    1    1    2    0    0 -0.10723444432E+02  0.52137953743E+00  0.55374882504E+01  0.12080523054E+02  0.10566000000E+00 0. -1.
        994    1    1    2    0    0  0.47256559430E+01 -0.67285477812E+01  0.69394391338E+01  0.17153775385E+03  0.17120000000E+03 0.  0.
        998    1    1    2    0    0  0.59977884890E+01  0.62071682437E+01  0.14875230689E+04  0.14875817231E+04  0.10000000000E+02 0. -1.
</event>
<event>
 5    1  0.1369527E-008  0.3728369E+03  0.7957747E-01  0.3482954E+00
         13   -1    0    0    0    0  0.00000000000E+00  0.00000000000E+00  0.14999999963E+04  0.15000000000E+04  0.10566000000E+00 0. -1.
        994   -1    0    0    0    0 -0.00000000000E+00 -0.00000000000E+00  0.11368683772E-12  0.17120000000E+03  0.17120000000E+03 0.  0.
         13    1    1    2    0    0  0.30790444836E+02  0.41102189303E+02  0.15359583179E+03  0.16195410512E+03  0.10566000000E+00 0. -1.
        994    1    1    2    0    0 -0.22781185029E+02 -0.41959213416E+02  0.15639966746E+02  0.17841974818E+03  0.17120000000E+03 0.  0.
        998    1    1    2    0    0 -0.80092598065E+01  0.85702411331E+00  0.13307641977E+04  0.13308261467E+04  0.10000000000E+02 0. -1.
</event>
<event>
 5    1  0.1369527E-008  0.3848820E+03  0.7957747E-01  0.3430173E+00
         13   -1    0    0    0    0  0.00000000000E+00  0.00000000000E+00  0.14999999963E+04  0.15000000000E+04  0.10566000000E+00 0. -1.
        994   -1    0    0    0    0 -0.00000000000E+00 -0.00000000000E+00  0.11368683772E-12  0.17120000000E+03  0.17120000000E+03 0.  0.
         13    1    1    2    0    0  0.10680827061E+02  0.94080958985E+01  0.56502790252E+02  0.58268077070E+02  0.10566000000E+00 0. -1.
        994    1    1    2    0    0 -0.84220844261E+01 -0.20233835294E+02  0.32706008247E+01  0.17262814494E+03  0.17120000000E+03 0.  0.
        998    1    1    2    0    0 -0.22587426346E+01  0.10825739395E+02  0.14402266052E+04  0.14403037780E+04  0.10000000000E+02 0. -1.
</event>
<event>
 5    1  0.1369527E-008  0.4241056E+03  0.7957747E-01  0.3279058E+00
         13   -1    0    0    0    0  0.00000000000E+00  0.00000000000E+00  0.14999999963E+04  0.15000000000E+04  0.10566000000E+00 0.  1.
        994   -1    0    0    0    0 -0.00000000000E+00 -0.00000000000E+00  0.11368683772E-12  0.17120000000E+03  0.17120000000E+03 0.  0.
         13    1    1    2    0    0 -0.18535280151E+02  0.44283857738E+02  0.11077152252E+02  0.49267952388E+02  0.10566000000E+00 0.  1.
        994    1    1    2    0    0  0.26786350196E+02 -0.26198059995E+02  0.49186328767E+02  0.18202357496E+03  0.17120000000E+03 0.  0.
        998    1    1    2    0    0 -0.82510700457E+01 -0.18085797743E+02  0.14397365153E+04  0.14399084727E+04  0.10000000000E+02 0.  1.
</event>
<event>
 5    1  0.1369527E-008  0.3837130E+03  0.7957747E-01  0.3435149E+00
         13   -1    0    0    0    0  0.00000000000E+00  0.00000000000E+00  0.14999999963E+04  0.15000000000E+04  0.10566000000E+00 0.  1.
        994   -1    0    0    0    0 -0.00000000000E+00 -0.00000000000E+00  0.11368683772E-12  0.17120000000E+03  0.17120000000E+03 0.  0.
         13    1    1    2    0    0 -0.70111789345E+00  0.15480831577E+02  0.50729511256E+02  0.53043776157E+02  0.10566000000E+00 0.  1.
        994    1    1    2    0    0 -0.29037782079E+01 -0.16813263364E+02  0.32324341742E+01  0.17207848902E+03  0.17120000000E+03 0.  0.
        998    1    1    2    0    0  0.36048961014E+01  0.13324317868E+01  0.14460380508E+04  0.14460777348E+04  0.10000000000E+02 0.  1.
</event>
<event>
 5    1  0.1369527E-008  0.3766277E+03  0.7957747E-01  0.3465975E+00
         13   -1    0    0    0    0  0.00000000000E+00  0.00000000000E+00  0.14999999963E+04  0.15000000000E+04  0.10566000000E+00 0. -1.
        994   -1    0    0    0    0 -0.00000000000E+00 -0.00000000000E+00  0.11368683772E-12  0.17120000000E+03  0.17120000000E+03 0.  0.
         13    1    1    2    0    0  0.13213940662E+01 -0.13997489797E+02  0.14137106698E+02  0.19938524336E+02  0.10566000000E+00 0. -1.
        994    1    1    2    0    0 -0.11183057758E-01  0.16302510086E+02  0.67442371031E+01  0.17210664338E+03  0.17120000000E+03 0.  0.
        998    1    1    2    0    0 -0.13102110085E+01 -0.23050202888E+01  0.14791186525E+04  0.14791548323E+04  0.10000000000E+02 0. -1.
</event>
<event>
 5    1  0.1369527E-008  0.4278319E+03  0.7957747E-01  0.3266125E+00
         13   -1    0    0    0    0  0.00000000000E+00  0.00000000000E+00  0.14999999963E+04  0.15000000000E+04  0.10566000000E+00 0.  1.
        994   -1    0    0    0    0 -0.00000000000E+00 -0.00000000000E+00  0.11368683772E-12  0.17120000000E+03  0.17120000000E+03 0.  0.
         13    1    1    2    0    0  0.95896367550E+02 -0.97336700611E+02  0.15637688791E+03  0.20766388427E+03  0.10566000000E+00 0.  1.
        994    1    1    2    0    0 -0.94246702247E+02  0.12221683831E+03  0.16229268230E+03  0.28190025040E+03  0.17120000000E+03 0.  0.
        998    1    1    2    0    0 -0.16496653026E+01 -0.24880137700E+02  0.11813304261E+04  0.11816358653E+04  0.10000000000E+02 0.  1.
</event>
<event>
 5    1  0.1369527E-008  0.3805437E+03  0.7957747E-01  0.3448795E+00
         13   -1    0    0    0    0  0.00000000000E+00  0.00000000000E+00  0.14999999963E+04  0.15000000000E+04  0.10566000000E+00 0. -1.
        994   -1    0    0    0    0 -0.00000000000E+00 -0.00000000000E+00  0.11368683772E-12  0.17120000000E+03  0.17120000000E+03 0.  0.
         13    1    1    2    0    0  0.29277730111E+02 -0.97292102172E+01  0.11678440346E+03  0.12079093951E+03  0.10566000000E+00 0. -1.
        994    1    1    2    0    0 -0.27913553875E+02 -0.61522075740E+00  0.64645728511E+01  0.17358218713E+03  0.17120000000E+03 0.  0.
        998    1    1    2    0    0 -0.13641762356E+01  0.10344430975E+02  0.13767510200E+04  0.13768268734E+04  0.10000000000E+02 0. -1.
</event>
<event>
 5    1  0.1369527E-008  0.3820080E+03  0.7957747E-01  0.3442462E+00
         13   -1    0    0    0    0  0.00000000000E+00  0.00000000000E+00  0.14999999963E+04  0.15000000000E+04  0.10566000000E+00 0. -1.
        994   -1    0    0    0    0 -0.00000000000E+00 -0.00000000000E+00  0.11368683772E-12  0.17120000000E+03  0.17120000000E+03 0.  0.
         13    1    1    2    0    0  0.14821328676E+02 -0.14744192008E+02  0.76318130915E+02  0.79129837938E+02  0.10566000000E+00 0. -1.
        994    1    1    2    0    0  0.17020471466E+02  0.85062787706E+01  0.43262208310E+01  0.17230847168E+03  0.17120000000E+03 0.  0.
        998    1    1    2    0    0 -0.31841800142E+02  0.62379132377E+01  0.14193556445E+04  0.14197616904E+04  0.10000000000E+02 0. -1.
</event>
<event>
 5    1  0.1369527E-008  0.3759904E+03  0.7957747E-01  0.3468805E+00
         13   -1    0    0    0    0  0.00000000000E+00  0.00000000000E+00  0.14999999963E+04  0.15000000000E+04  0.10566000000E+00 0. -1.
        994   -1    0    0    0    0 -0.00000000000E+00 -0.00000000000E+00  0.11368683772E-12  0.17120000000E+03  0.17120000000E+03 0.  0.
         13    1    1    2    0    0 -0.19968459569E+00 -0.19821445333E+02  0.28802141006E+02  0.34964325527E+02  0.10566000000E+00 0. -1.
        994    1    1    2    0    0 -0.11358846426E+02  0.19881234354E+02  0.79492532568E+01  0.17290725115E+03  0.17120000000E+03 0.  0.
        998    1    1    2    0    0  0.11558531022E+02 -0.59789021717E-01  0.14632486020E+04  0.14633284233E+04  0.10000000000E+02 0. -1.
</event>
<event>
 5    1  0.1369527E-008  0.3816395E+03  0.7957747E-01  0.3444051E+00
         13   -1    0    0    0    0  0.00000000000E+00  0.00000000000E+00  0.14999999963E+04  0.15000000000E+04  0.10566000000E+00 0.  1.
        994   -1    0    0    0    0 -0.00000000000E+00 -0.00000000000E+00  0.11368683772E-12  0.17120000000E+03  0.17120000000E+03 0.  0.
         13    1    1    2    0    0  0.29095998344E+02  0.10701707374E+02  0.15312200073E+03  0.15622887675E+03  0.10566000000E+00 0.  1.
        994    1    1    2    0    0 -0.12420128678E+02  0.47012607999E+01  0.38944034900E+01  0.17175845781E+03  0.17120000000E+03 0.  0.
        998    1    1    2    0    0 -0.16675869666E+02 -0.15402968173E+02  0.13429835921E+04  0.13432126654E+04  0.10000000000E+02 0.  1.
</event>
<event>
 5    1  0.1369527E-008  0.3746815E+03  0.7957747E-01  0.3474649E+00
         13   -1    0    0    0    0  0.00000000000E+00  0.00000000000E+00  0.14999999963E+04  0.15000000000E+04  0.10566000000E+00 0. -1.
        994   -1    0    0    0    0 -0.00000000000E+00 -0.00000000000E+00  0.11368683772E-12  0.17120000000E+03  0.17120000000E+03 0.  0.
         13    1    1    2    0    0 -0.86202313401E+02  0.13428493957E+02  0.43803809027E+03  0.44664140311E+03  0.10566000000E+00 0. -1.
        994    1    1    2    0    0  0.73329457573E+02 -0.20773207545E+02  0.26873164786E+02  0.18931545760E+03  0.17120000000E+03 0.  0.
        998    1    1    2    0    0  0.12872855828E+02  0.73447135881E+01  0.10350887412E+04  0.10352431393E+04  0.10000000000E+02 0. -1.
</event>
<event>
 5    1  0.1369527E-008  0.3685707E+03  0.7957747E-01  0.3502486E+00
         13   -1    0    0    0    0  0.00000000000E+00  0.00000000000E+00  0.14999999963E+04  0.15000000000E+04  0.10566000000E+00 0. -1.
        994   -1    0    0    0    0 -0.00000000000E+00 -0.00000000000E+00  0.11368683772E-12  0.17120000000E+03  0.17120000000E+03 0.  0.
         13    1    1    2    0    0 -0.11871691219E+02  0.37295478785E+02  0.88002426697E+02  0.96313696112E+02  0.10566000000E+00 0. -1.
        994    1    1    2    0    0  0.85666143725E+00  0.31432130681E+02  0.13461399102E+02  0.17458339547E+03  0.17120000000E+03 0.  0.
        998    1    1    2    0    0  0.11015029782E+02 -0.68727609465E+02  0.13985361705E+04  0.14003029084E+04  0.10000000000E+02 0. -1.
</event>
<event>
 5    1  0.1369527E-008  0.3029716E+03  0.7957747E-01  0.3875030E+00
         13   -1    0    0    0    0  0.00000000000E+00  0.00000000000E+00  0.14999999963E+04  0.15000000000E+04  0.10566000000E+00 0. -1.
        994   -1    0    0    0    0 -0.00000000000E+00 -0.00000000000E+00  0.11368683772E-12  0.17120000000E+03  0.17120000000E+03 0.  0.
         13    1    1    2    0    0 -0.75144524153E+02 -0.13646696184E+03  0.81694981066E+03  0.83167117029E+03  0.10566000000E+00 0. -1.
        994    1    1    2    0    0  0.53027880640E+02  0.57659396759E+02  0.41615719763E+02  0.19281563809E+03  0.17120000000E+03 0.  0.
        998    1    1    2    0    0  0.22116643513E+02  0.78807565083E+02  0.64143446586E+03  0.64671319163E+03  0.10000000000E+02 0. -1.
</event>
<event>
 5    1  0.1369527E-008  0.3831644E+03  0.7957747E-01  0.3437495E+00
         13   -1    0    0    0    0  0.00000000000E+00  0.00000000000E+00  0.14999999963E+04  0.15000000000E+04  0.10566000000E+00 0.  1.
        994   -1    0    0    0    0 -0.00000000000E+00 -0.00000000000E+00  0.11368683772E-12  0.17120000000E+03  0.17120000000E+03 0.  0.
         13    1    1    2    0    0  0.70891896220E+01  0.71912378615E+01  0.19403237679E+02  0.21873895582E+02  0.10566000000E+00 0.  1.
        994    1    1    2    0    0  0.48334449671E+01 -0.75583796746E+01  0.28105832230E+01  0.17145795599E+03  0.17120000000E+03 0.  0.
        998    1    1    2    0    0 -0.11922634589E+02  0.36714181315E+00  0.14777861754E+04  0.14778681484E+04  0.10000000000E+02 0.  1.
</event>
<event>
 5    1  0.1369527E-008  0.3828730E+03  0.7957747E-01  0.3438744E+00
         13   -1    0    0    0    0  0.00000000000E+00  0.00000000000E+00  0.14999999963E+04  0.15000000000E+04  0.10566000000E+00 0.  1.
        994   -1    0    0    0    0 -0.00000000000E+00 -0.00000000000E+00  0.11368683772E-12  0.17120000000E+03  0.17120000000E+03 0.  0.
         13    1    1    2    0    0 -0.17302554225E+02  0.32747521624E+01  0.61808358519E+02  0.64268084858E+02  0.10566000000E+00 0.  1.
        994    1    1    2    0    0 -0.44745209864E+01  0.51752575196E+01  0.28448713075E+01  0.17136025771E+03  0.17120000000E+03 0.  0.
        998    1    1    2    0    0  0.21777075211E+02 -0.84500096820E+01  0.14353467665E+04  0.14355716574E+04  0.10000000000E+02 0.  1.
</event>
<event>
 5    1  0.2432379E-008  0.3859281E+03  0.7957747E-01  0.3425746E+00
         13   -1    0    0    0    0  0.00000000000E+00  0.00000000000E+00  0.14999999963E+04  0.15000000000E+04  0.10566000000E+00 0.  1.
        994   -1    0    0    0    0 -0.00000000000E+00 -0.00000000000E+00  0.11368683772E-12  0.17120000000E+03  0.17120000000E+03 0.  0.
         13    1    1    2    0    0 -0.94102940496E+01 -0.58869853738E+01  0.54626502015E+02  0.55742946794E+02  0.10566000000E+00 0.  1.
        994    1    1    2    0    0  0.42304282177E+01  0.70254888276E-01  0.12287489083E+01  0.17125668245E+03  0.17120000000E+03 0.  0.
        998    1    1    2    0    0  0.51798658318E+01  0.58167304855E+01  0.14441447454E+04  0.14442003708E+04  0.10000000000E+02 0.  1.
</event>
<event>
 5    1  0.1369527E-008  0.3856869E+03  0.7957747E-01  0.3426764E+00
         13   -1    0    0    0    0  0.00000000000E+00  0.00000000000E+00  0.14999999963E+04  0.15000000000E+04  0.10566000000E+00 0.  1.
        994   -1    0    0    0    0 -0.00000000000E+00 -0.00000000000E+00  0.11368683772E-12  0.17120000000E+03  0.17120000000E+03 0.  0.
         13    1    1    2    0    0  0.99948471350E+01 -0.55244212319E+01  0.52016582561E+02  0.53255537032E+02  0.10566000000E+00 0.  1.
        994    1    1    2    0    0 -0.58340600058E+01 -0.15732623023E+01  0.14093079796E+01  0.17131239756E+03  0.17120000000E+03 0.  0.
        998    1    1    2    0    0 -0.41607871292E+01  0.70976835342E+01  0.14465741057E+04  0.14466320654E+04  0.10000000000E+02 0.  1.
</event>
<event>
 5    1  0.1369527E-008  0.3862180E+03  0.7957747E-01  0.3424523E+00
         13   -1    0    0    0    0  0.00000000000E+00  0.00000000000E+00  0.14999999963E+04  0.15000000000E+04  0.10566000000E+00 0.  1.
        994   -1    0    0    0    0 -0.00000000000E+00 -0.00000000000E+00  0.11368683772E-12  0.17120000000E+03  0.17120000000E+03 0.  0.
         13    1    1    2    0    0 -0.59477315674E+01 -0.93999349569E+01  0.63272950442E+02  0.64243378723E+02  0.10566000000E+00 0.  1.
        994    1    1    2    0    0  0.19917477868E+01  0.25456184102E+01  0.10608584627E+01  0.17123379530E+03  0.17120000000E+03 0.  0.
        998    1    1    2    0    0  0.39559837805E+01  0.68543165468E+01  0.14356661874E+04  0.14357228260E+04  0.10000000000E+02 0.  1.
</event>
<event>
 5    1  0.1369527E-008  0.3849243E+03  0.7957747E-01  0.3429993E+00
         13   -1    0    0    0    0  0.00000000000E+00  0.00000000000E+00  0.14999999963E+04  0.15000000000E+04  0.10566000000E+00 0.  1.
        994   -1    0    0    0    0 -0.00000000000E+00 -0.00000000000E+00  0.11368683772E-12  0.17120000000E+03  0.17120000000E+03 0.  0.
         13    1    1    2    0    0 -0.13733561520E+02 -0.13348417892E+01  0.62101014887E+02  0.63615562001E+02  0.10566000000E+00 0.  1.
        994    1    1    2    0    0 -0.20097876659E+01 -0.21081267015E+02  0.31442805990E+01  0.17253343318E+03  0.17120000000E+03 0.  0.
        998    1    1    2    0    0  0.15743349186E+02  0.22416108804E+02  0.14347547008E+04  0.14350510048E+04  0.10000000000E+02 0.  1.
</event>
<event>
 5    1  0.1369527E-008  0.3857180E+03  0.7957747E-01  0.3426633E+00
         13   -1    0    0    0    0  0.00000000000E+00  0.00000000000E+00  0.14999999963E+04  0.15000000000E+04  0.10566000000E+00 0. -1.
        994   -1    0    0    0    0 -0.00000000000E+00 -0.00000000000E+00  0.11368683772E-12  0.17120000000E+03  0.17120000000E+03 0.  0.
         13    1    1    2    0    0  0.32022871804E+01  0.14116551615E+02  0.82567092255E+02  0.83826413261E+02  0.10566000000E+00 0. -1.
        994    1    1    2    0    0  0.56674492586E+00 -0.10267934834E+02  0.16211170596E+01  0.17151623744E+03  0.17120000000E+03 0.  0.
        998    1    1    2    0    0 -0.37690321062E+01 -0.38486167808E+01  0.14158117870E+04  0.14158573493E+04  0.10000000000E+02 0. -1.
</event>
<event>
 5    1  0.1369527E-008  0.3808452E+03  0.7957747E-01  0.3447487E+00
         13   -1    0    0    0    0  0.00000000000E+00  0.00000000000E+00  0.14999999963E+04  0.15000000000E+04  0.10566000000E+00 0. -1.
        994   -1    0    0    0    0 -0.00000000000E+00 -0.00000000000E+00  0.11368683772E-12  0.17120000000E+03  0.17120000000E+03 0.  0.
         13    1    1    2    0    0 -0.19321243154E+02  0.60299349779E+02  0.36516449298E+03  0.37061359948E+03  0.10566000000E+00 0. -1.
        994    1    1    2    0    0  0.18109076467E+02 -0.71598577815E+02  0.22108623183E+02  0.18775656104E+03  0.17120000000E+03 0.  0.
        998    1    1    2    0    0  0.12121666876E+01  0.11299228036E+02  0.11127268801E+04  0.11128298395E+04  0.10000000000E+02 0. -1.
</event>
<event>
 5    1  0.1369527E-008  0.2883564E+03  0.7957747E-01  0.3982818E+00
         13   -1    0    0    0    0  0.00000000000E+00  0.00000000000E+00  0.14999999963E+04  0.15000000000E+04  0.10566000000E+00 0. -1.
        994   -1    0    0    0    0 -0.00000000000E+00 -0.00000000000E+00  0.11368683772E-12  0.17120000000E+03  0.17120000000E+03 0.  0.
         13    1    1    2    0    0  0.19871968624E+03 -0.85516351174E+02  0.49711713869E+03  0.54215128955E+03  0.10566000000E+00 0. -1.
        994    1    1    2    0    0 -0.19280185920E+03  0.55419354814E+02  0.21433814176E+03  0.33984428907E+03  0.17120000000E+03 0.  0.
        998    1    1    2    0    0 -0.59178270416E+01  0.30096996360E+02  0.78854471583E+03  0.78920442139E+03  0.10000000000E+02 0. -1.
</event>
<event>
 5    1  0.1369527E-008  0.3778797E+03  0.7957747E-01  0.3460443E+00
         13   -1    0    0    0    0  0.00000000000E+00  0.00000000000E+00  0.14999999963E+04  0.15000000000E+04  0.10566000000E+00 0.  1.
        994   -1    0    0    0    0 -0.00000000000E+00 -0.00000000000E+00  0.11368683772E-12  0.17120000000E+03  0.17120000000E+03 0.  0.
         13    1    1    2    0    0 -0.29762648395E+02 -0.22163451584E+02  0.12578884736E+03  0.13114830960E+03  0.10566000000E+00 0.  1.
        994    1    1    2    0    0  0.37344896606E+02 -0.82526594055E+00  0.99191020243E+01  0.17550826462E+03  0.17120000000E+03 0.  0.
        998    1    1    2    0    0 -0.75822482106E+01  0.22988717525E+02  0.13642920469E+04  0.13645434258E+04  0.10000000000E+02 0.  1.
</event>
<event>
 5    1  0.1369527E-008  0.3843668E+03  0.7957747E-01  0.3432362E+00
         13   -1    0    0    0    0  0.00000000000E+00  0.00000000000E+00  0.14999999963E+04  0.15000000000E+04  0.10566000000E+00 0.  1.
        994   -1    0    0    0    0 -0.00000000000E+00 -0.00000000000E+00  0.11368683772E-12  0.17120000000E+03  0.17120000000E+03 0.  0.
         13    1    1    2    0    0  0.92170888750E+01  0.10801317698E+02  0.53895451566E+02  0.55734675517E+02  0.10566000000E+00 0.  1.
        994    1    1    2    0    0 -0.35028736140E+01  0.16526893552E+01  0.19942663809E+01  0.17125541920E+03  0.17120000000E+03 0.  0.
        998    1    1    2    0    0 -0.57142152610E+01 -0.12454007053E+02  0.14441102783E+04  0.14442099053E+04  0.10000000000E+02 0.  1.
</event>
<event>
 5    1  0.1369527E-008  0.4232832E+03  0.7957747E-01  0.3281943E+00
         13   -1    0    0    0    0  0.00000000000E+00  0.00000000000E+00  0.14999999963E+04  0.15000000000E+04  0.10566000000E+00 0. -1.
        994   -1    0    0    0    0 -0.00000000000E+00 -0.00000000000E+00  0.11368683772E-12  0.17120000000E+03  0.17120000000E+03 0.  0.
         13    1    1    2    0    0 -0.86651509934E+02  0.35489382972E+02  0.92603725694E+02  0.13169450123E+03  0.10566000000E+00 0. -1.
        994    1    1    2    0    0  0.57520094333E+02 -0.37681537815E+02  0.63294282821E+02  0.19504888049E+03  0.17120000000E+03 0.  0.
        998    1    1    2    0    0  0.29131415601E+02  0.21921548434E+01  0.13441019878E+04  0.13444566183E+04  0.10000000000E+02 0. -1.
</event>
<event>
 5    1  0.1369527E-008  0.3836069E+03  0.7957747E-01  0.3435602E+00
         13   -1    0    0    0    0  0.00000000000E+00  0.00000000000E+00  0.14999999963E+04  0.15000000000E+04  0.10566000000E+00 0.  1.
        994   -1    0    0    0    0 -0.00000000000E+00 -0.00000000000E+00  0.11368683772E-12  0.17120000000E+03  0.17120000000E+03 0.  0.
         13    1    1    2    0    0  0.61897244938E+01  0.88950507795E+01  0.23430951273E+02  0.25815794763E+02  0.10566000000E+00 0.  1.
        994    1    1    2    0    0  0.14029059126E+00 -0.25183551295E+02  0.44213904179E+01  0.17309887241E+03  0.17120000000E+03 0.  0.
        998    1    1    2    0    0 -0.63300150851E+01  0.16288500516E+02  0.14721476546E+04  0.14722853328E+04  0.10000000000E+02 0.  1.
</event>
<event>
 5    1  0.1369527E-008  0.3835189E+03  0.7957747E-01  0.3435978E+00
         13   -1    0    0    0    0  0.00000000000E+00  0.00000000000E+00  0.14999999963E+04  0.15000000000E+04  0.10566000000E+00 0. -1.
        994   -1    0    0    0    0 -0.00000000000E+00 -0.00000000000E+00  0.11368683772E-12  0.17120000000E+03  0.17120000000E+03 0.  0.
         13    1    1    2    0    0 -0.83265132872E+01 -0.11700821280E+02  0.42194353067E+02  0.44571455405E+02  0.10566000000E+00 0. -1.
        994    1    1    2    0    0  0.62382134037E+01  0.12019877205E+02  0.29735152835E+01  0.17176051510E+03  0.17120000000E+03 0.  0.
        998    1    1    2    0    0  0.20882998836E+01 -0.31905592492E+00  0.14548321279E+04  0.14548680295E+04  0.10000000000E+02 0. -1.
</event>
<event>
 5    1  0.1369527E-008  0.3814917E+03  0.7957747E-01  0.3444689E+00
         13   -1    0    0    0    0  0.00000000000E+00  0.00000000000E+00  0.14999999963E+04  0.15000000000E+04  0.10566000000E+00 0.  1.
        994   -1    0    0    0    0 -0.00000000000E+00 -0.00000000000E+00  0.11368683772E-12  0.17120000000E+03  0.17120000000E+03 0.  0.
         13    1    1    2    0    0 -0.16541714787E+02  0.15351358687E+02  0.71850948669E+02  0.75311768870E+02  0.10566000000E+00 0.  1.
        994    1    1    2    0    0  0.85046268841E+01 -0.21587181005E+02  0.51748843161E+01  0.17284257140E+03  0.17120000000E+03 0.  0.
        998    1    1    2    0    0  0.80370879031E+01  0.62358223175E+01  0.14229741633E+04  0.14230456597E+04  0.10000000000E+02 0.  1.
</event>
<event>
 5    1  0.1369527E-008  0.3821131E+03  0.7957747E-01  0.3442009E+00
         13   -1    0    0    0    0  0.00000000000E+00  0.00000000000E+00  0.14999999963E+04  0.15000000000E+04  0.10566000000E+00 0. -1.
        994   -1    0    0    0    0 -0.00000000000E+00 -0.00000000000E+00  0.11368683772E-12  0.17120000000E+03  0.17120000000E+03 0.  0.
         13    1    1    2    0    0 -0.14000361536E+02 -0.76834724628E+00  0.31253735775E+02  0.34255038236E+02  0.10566000000E+00 0. -1.
        994    1    1    2    0    0  0.64412835579E+01 -0.32806486128E+01  0.32437430048E+01  0.17138323914E+03  0.17120000000E+03 0.  0.
        998    1    1    2    0    0  0.75590779778E+01  0.40489958591E+01  0.14655025175E+04  0.14655617226E+04  0.10000000000E+02 0. -1.
</event>
<event>
 5    1  0.1369527E-008  0.3844488E+03  0.7957747E-01  0.3432013E+00
         13   -1    0    0    0    0  0.00000000000E+00  0.00000000000E+00  0.14999999963E+04  0.15000000000E+04  0.10566000000E+00 0.  1.
        994   -1    0    0    0    0 -0.00000000000E+00 -0.00000000000E+00  0.11368683772E-12  0.17120000000E+03  0.17120000000E+03 0.  0.
         13    1    1    2    0    0 -0.26418913610E+02  0.49551975180E+01  0.15709623675E+03  0.15937927012E+03  0.10566000000E+00 0.  1.
        994    1    1    2    0    0  0.37088481285E+02 -0.36687734939E+01  0.64936929574E+01  0.17533004133E+03  0.17120000000E+03 0.  0.
        998    1    1    2    0    0 -0.10669567676E+02 -0.12864240241E+01  0.13364100666E+04  0.13364906886E+04  0.10000000000E+02 0.  1.
</event>
<event>
 5    1  0.1369527E-008  0.3828674E+03  0.7957747E-01  0.3438767E+00
         13   -1    0    0    0    0  0.00000000000E+00  0.00000000000E+00  0.14999999963E+04  0.15000000000E+04  0.10566000000E+00 0. -1.
        994   -1    0    0    0    0 -0.00000000000E+00 -0.00000000000E+00  0.11368683772E-12  0.17120000000E+03  0.17120000000E+03 0.  0.
         13    1    1    2    0    0 -0.10686358275E+01  0.14847178185E+02  0.41702030156E+02  0.44279240799E+02  0.10566000000E+00 0. -1.
        994    1    1    2    0    0 -0.73366075979E+00 -0.16417879700E+01  0.27033559021E+01  0.17123078537E+03  0.17120000000E+03 0.  0.
        998    1    1    2    0    0  0.18022965873E+01 -0.13205390215E+02  0.14555946102E+04  0.14556899738E+04  0.10000000000E+02 0. -1.
</event>
<event>
 5    1  0.1369527E-008  0.3860663E+03  0.7957747E-01  0.3425162E+00
         13   -1    0    0    0    0  0.00000000000E+00  0.00000000000E+00  0.14999999963E+04  0.15000000000E+04  0.10566000000E+00 0.  1.
        994   -1    0    0    0    0 -0.00000000000E+00 -0.00000000000E+00  0.11368683772E-12  0.17120000000E+03  0.17120000000E+03 0.  0.
         13    1    1    2    0    0 -0.71098425406E+01  0.10471664771E+02  0.74499970975E+02  0.75567601943E+02  0.10566000000E+00 0.  1.
        994    1    1    2    0    0  0.99466119631E+00 -0.77309986942E+01  0.13007906110E+01  0.17138229123E+03  0.17120000000E+03 0.  0.
        998    1    1    2    0    0  0.61151813443E+01 -0.27406660766E+01  0.14241992347E+04  0.14242501068E+04  0.10000000000E+02 0.  1.
</event>
<event>
 5    1  0.1369527E-008  0.3766043E+03  0.7957747E-01  0.3466079E+00
         13   -1    0    0    0    0  0.00000000000E+00  0.00000000000E+00  0.14999999963E+04  0.15000000000E+04  0.10566000000E+00 0. -1.
        994   -1    0    0    0    0 -0.00000000000E+00 -0.00000000000E+00  0.11368683772E-12  0.17120000000E+03  0.17120000000E+03 0.  0.
         13    1    1    2    0    0 -0.66367977822E+01  0.32601311931E+02  0.31511820239E+02  0.45824650607E+02  0.10566000000E+00 0. -1.
        994    1    1    2    0    0 -0.93290362388E+01 -0.38750805778E+02  0.20181714364E+02  0.17693331360E+03  0.17120000000E+03 0.  0.
        998    1    1    2    0    0  0.15965834021E+02  0.61494938472E+01  0.14483064617E+04  0.14484420358E+04  0.10000000000E+02 0. -1.
</event>
<event>
 5    1  0.1369527E-008  0.3731683E+03  0.7957747E-01  0.3481456E+00
         13   -1    0    0    0    0  0.00000000000E+00  0.00000000000E+00  0.14999999963E+04  0.15000000000E+04  0.10566000000E+00 0. -1.
        994   -1    0    0    0    0 -0.00000000000E+00 -0.00000000000E+00  0.11368683772E-12  0.17120000000E+03  0.17120000000E+03 0.  0.
         13    1    1    2    0    0 -0.34426647223E+02 -0.63209315962E+02  0.39216334938E+03  0.39871382648E+03  0.10566000000E+00 0. -1.
        994    1    1    2    0    0 -0.25787663314E+02  0.45152404167E+02  0.16927185236E+02  0.17972120849E+03  0.17120000000E+03 0.  0.
        998    1    1    2    0    0  0.60214310537E+02  0.18056911795E+02  0.10909094617E+04  0.10927649650E+04  0.10000000000E+02 0. -1.
</event>
<event>
 5    1  0.1369527E-008  0.3856707E+03  0.7957747E-01  0.3426833E+00
         13   -1    0    0    0    0  0.00000000000E+00  0.00000000000E+00  0.14999999963E+04  0.15000000000E+04  0.10566000000E+00 0.  1.
        994   -1    0    0    0    0 -0.00000000000E+00 -0.00000000000E+00  0.11368683772E-12  0.17120000000E+03  0.17120000000E+03 0.  0.
         13    1    1    2    0    0  0.87298914310E+00 -0.14135221508E+02  0.76322377308E+02  0.77625273198E+02  0.10566000000E+00 0.  1.
        994    1    1    2    0    0  0.41397645946E+01  0.12180513646E+02  0.18407852640E+01  0.17169254804E+03  0.17120000000E+03 0.  0.
        998    1    1    2    0    0 -0.50127537377E+01  0.19547078615E+01  0.14218368337E+04  0.14218821788E+04  0.10000000000E+02 0.  1.
</event>
<event>
 5    1  0.1369527E-008  0.3835133E+03  0.7957747E-01  0.3436002E+00
         13   -1    0    0    0    0  0.00000000000E+00  0.00000000000E+00  0.14999999963E+04  0.15000000000E+04  0.10566000000E+00 0.  1.
        994   -1    0    0    0    0 -0.00000000000E+00 -0.00000000000E+00  0.11368683772E-12  0.17120000000E+03  0.17120000000E+03 0.  0.
         13    1    1    2    0    0 -0.15452591241E+02 -0.77140062145E+01  0.66038838754E+02  0.68260001874E+02  0.10566000000E+00 0.  1.
        994    1    1    2    0    0 -0.13696500737E+01  0.40097555475E+01  0.24293723313E+01  0.17126965852E+03  0.17120000000E+03 0.  0.
        998    1    1    2    0    0  0.16822241315E+02  0.37042506670E+01  0.14315317852E+04  0.14316703396E+04  0.10000000000E+02 0.  1.
</event>
<event>
 5    1  0.1369527E-008  0.3828373E+03  0.7957747E-01  0.3438896E+00
         13   -1    0    0    0    0  0.00000000000E+00  0.00000000000E+00  0.14999999963E+04  0.15000000000E+04  0.10566000000E+00 0. -1.
        994   -1    0    0    0    0 -0.00000000000E+00 -0.00000000000E+00  0.11368683772E-12  0.17120000000E+03  0.17120000000E+03 0.  0.
         13    1    1    2    0    0  0.19097132176E+02 -0.16013958668E+02  0.13987698905E+03  0.14208001464E+03  0.10566000000E+00 0. -1.
        994    1    1    2    0    0 -0.20632269778E+01 -0.19891122499E+02  0.40332580590E+01  0.17241119694E+03  0.17120000000E+03 0.  0.
        998    1    1    2    0    0 -0.17033905198E+02  0.35905081168E+02  0.13560897492E+04  0.13567087884E+04  0.10000000000E+02 0. -1.
</event>
<event>
 5    1  0.1369527E-008  0.3839386E+03  0.7957747E-01  0.3434186E+00
         13   -1    0    0    0    0  0.00000000000E+00  0.00000000000E+00  0.14999999963E+04  0.15000000000E+04  0.10566000000E+00 0.  1.
        994   -1    0    0    0    0 -0.00000000000E+00 -0.00000000000E+00  0.11368683772E-12  0.17120000000E+03  0.17120000000E+03 0.  0.
         13    1    1    2    0    0  0.19164541420E+02  0.13083751471E+02  0.11091709225E+03  0.11331847474E+03  0.10566000000E+00 0.  1.
        994    1    1    2    0    0 -0.27390740274E+02 -0.13698117788E+02  0.52591943575E+01  0.17399709828E+03  0.17120000000E+03 0.  0.
        998    1    1    2    0    0  0.82261988532E+01  0.61436631705E+00  0.13838237097E+04  0.13838844270E+04  0.10000000000E+02 0.  1.
</event>
<event>
 5    1  0.1369527E-008  0.3856817E+03  0.7957747E-01  0.3426786E+00
         13   -1    0    0    0    0  0.00000000000E+00  0.00000000000E+00  0.14999999963E+04  0.15000000000E+04  0.10566000000E+00 0.  1.
        994   -1    0    0    0    0 -0.00000000000E+00 -0.00000000000E+00  0.11368683772E-12  0.17120000000E+03  0.17120000000E+03 0.  0.
         13    1    1    2    0    0  0.10178796277E+02  0.75394003769E+01  0.68808590052E+02  0.69964874620E+02  0.10566000000E+00 0.  1.
        994    1    1    2    0    0  0.33059404139E+01  0.30413674326E+01  0.13582900393E+01  0.17126431067E+03  0.17120000000E+03 0.  0.
        998    1    1    2    0    0 -0.13484736691E+02 -0.10580767810E+02  0.14298331162E+04  0.14299708147E+04  0.10000000000E+02 0.  1.
</event>
<event>
 5    1  0.1369527E-008  0.3740066E+03  0.7957747E-01  0.3477677E+00
         13   -1    0    0    0    0  0.00000000000E+00  0.00000000000E+00  0.14999999963E+04  0.15000000000E+04  0.10566000000E+00 0. -1.
        994   -1    0    0    0    0 -0.00000000000E+00 -0.00000000000E+00  0.11368683772E-12  0.17120000000E+03  0.17120000000E+03 0.  0.
         13    1    1    2    0    0 -0.11134518584E+02  0.85999210835E+02  0.39103735472E+03  0.40053722139E+03  0.10566000000E+00 0. -1.
        994    1    1    2    0    0 -0.53987450777E+01 -0.85924040655E+02  0.32906834507E+02  0.19443350269E+03  0.17120000000E+03 0.  0.
        998    1    1    2    0    0  0.16533263661E+02 -0.75170180213E-01  0.10760558071E+04  0.10762292759E+04  0.10000000000E+02 0. -1.
</event>
<event>
 5    1  0.1369527E-008  0.3780164E+03  0.7957747E-01  0.3459841E+00
         13   -1    0    0    0    0  0.00000000000E+00  0.00000000000E+00  0.14999999963E+04  0.15000000000E+04  0.10566000000E+00 0. -1.
        994   -1    0    0    0    0 -0.00000000000E+00 -0.00000000000E+00  0.11368683772E-12  0.17120000000E+03  0.17120000000E+03 0.  0.
         13    1    1    2    0    0  0.10184010762E+02 -0.11037855451E+02  0.19393409751E+02  0.24528836784E+02  0.10566000000E+00 0. -1.
        994    1    1    2    0    0 -0.98963606239E+01  0.15328938771E+02  0.62588870251E+01  0.17228327831E+03  0.17120000000E+03 0.  0.
        998    1    1    2    0    0 -0.28765013809E+00 -0.42910833202E+01  0.14743476995E+04  0.14743878849E+04  0.10000000000E+02 0. -1.
</event>
<event>
 5    1  0.1369527E-008  0.3844037E+03  0.7957747E-01  0.3432205E+00
         13   -1    0    0    0    0  0.00000000000E+00  0.00000000000E+00  0.14999999963E+04  0.15000000000E+04  0.10566000000E+00 0. -1.
        994   -1    0    0    0    0 -0.00000000000E+00 -0.00000000000E+00  0.11368683772E-12  0.17120000000E+03  0.17120000000E+03 0.  0.
         13    1    1    2    0    0 -0.51200409877E+01  0.95668455088E+01  0.30567272695E+02  0.32436224761E+02  0.10566000000E+00 0. -1.
        994    1    1    2    0    0  0.46170193753E+01 -0.17589744315E+01  0.20069152715E+01  0.17128303643E+03  0.17120000000E+03 0.  0.
        998    1    1    2    0    0  0.50302161246E+00 -0.78078710773E+01  0.14674258083E+04  0.14674807388E+04  0.10000000000E+02 0. -1.
</event>
<event>
 5    1  0.1369527E-008  0.3839998E+03  0.7957747E-01  0.3433925E+00
         13   -1    0    0    0    0  0.00000000000E+00  0.00000000000E+00  0.14999999963E+04  0.15000000000E+04  0.10566000000E+00 0.  1.
        994   -1    0    0    0    0 -0.00000000000E+00 -0.00000000000E+00  0.11368683772E-12  0.17120000000E+03  0.17120000000E+03 0.  0.
         13    1    1    2    0    0 -0.79518597022E+01 -0.11137474272E+02  0.43007623065E+02  0.45132496182E+02  0.10566000000E+00 0.  1.
        994    1    1    2    0    0  0.13677988937E+02  0.46615001657E+01  0.28168153800E+01  0.17183186961E+03  0.17120000000E+03 0.  0.
        998    1    1    2    0    0 -0.57261292345E+01  0.64759741059E+01  0.14541755578E+04  0.14542356342E+04  0.10000000000E+02 0.  1.
</event>
<event>
 5    1  0.1369527E-008  0.3815982E+03  0.7957747E-01  0.3444229E+00
         13   -1    0    0    0    0  0.00000000000E+00  0.00000000000E+00  0.14999999963E+04  0.15000000000E+04  0.10566000000E+00 0. -1.
        994   -1    0    0    0    0 -0.00000000000E+00 -0.00000000000E+00  0.11368683772E-12  0.17120000000E+03  0.17120000000E+03 0.  0.
         13    1    1    2    0    0  0.55838825993E+00 -0.82108540582E+02  0.47544559110E+03  0.48248382925E+03  0.10566000000E+00 0. -1.
        994    1    1    2    0    0  0.14565758320E+01  0.10913235607E+03  0.44009215374E+02  0.20774562280E+03  0.17120000000E+03 0.  0.
        998    1    1    2    0    0 -0.20149640919E+01 -0.27023815489E+02  0.98054518981E+03  0.98097054795E+03  0.10000000000E+02 0. -1.
</event>
<event>
 5    1  0.1369527E-008  0.3807055E+03  0.7957747E-01  0.3448092E+00
         13   -1    0    0    0    0  0.00000000000E+00  0.00000000000E+00  0.14999999963E+04  0.15000000000E+04  0.10566000000E+00 0. -1.
        994   -1    0    0    0    0 -0.00000000000E+00 -0.00000000000E+00  0.11368683772E-12  0.17120000000E+03  0.17120000000E+03 0.  0.
         13    1    1    2    0    0  0.28304234505E+02 -0.44423830753E+02  0.29668801940E+03  0.30132772599E+03  0.10566000000E+00 0. -1.
        994    1    1    2    0    0 -0.32409154115E+02  0.41615633637E+02  0.13112815095E+02  0.17962071193E+03  0.17120000000E+03 0.  0.
        998    1    1    2    0    0  0.41049196095E+01  0.28081971160E+01  0.11901991618E+04  0.11902515621E+04  0.10000000000E+02 0.  0.
</event>
<event>
 5    1  0.1369527E-008  0.3817763E+03  0.7957747E-01  0.3443460E+00
         13   -1    0    0    0    0  0.00000000000E+00  0.00000000000E+00  0.14999999963E+04  0.15000000000E+04  0.10566000000E+00 0.  1.
        994   -1    0    0    0    0 -0.00000000000E+00 -0.00000000000E+00  0.11368683772E-12  0.17120000000E+03  0.17120000000E+03 0.  0.
         13    1    1    2    0    0  0.67044238463E+01  0.78201695968E+01  0.15151138216E+02  0.18321367441E+02  0.10566000000E+00 0.  1.
        994    1    1    2    0    0 -0.35581182124E+00 -0.55986337800E+01  0.33437651119E+01  0.17132452267E+03  0.17120000000E+03 0.  0.
        998    1    1    2    0    0 -0.63486120251E+01 -0.22215358168E+01  0.14815050930E+04  0.14815541099E+04  0.10000000000E+02 0.  1.
</event>
<event>
 5    1  0.1369527E-008  0.3824358E+03  0.7957747E-01  0.3440621E+00
         13   -1    0    0    0    0  0.00000000000E+00  0.00000000000E+00  0.14999999963E+04  0.15000000000E+04  0.10566000000E+00 0. -1.
        994   -1    0    0    0    0 -0.00000000000E+00 -0.00000000000E+00  0.11368683772E-12  0.17120000000E+03  0.17120000000E+03 0.  0.
         13    1    1    2    0    0  0.16437526650E+02 -0.43176223171E+01  0.50927001140E+02  0.53688031757E+02  0.10566000000E+00 0. -1.
        994    1    1    2    0    0 -0.95367595476E+00  0.23825705182E+00  0.29118236849E+01  0.17122758242E+03  0.17120000000E+03 0.  0.
        998    1    1    2    0    0 -0.15483850695E+02  0.40793652653E+01  0.14461611715E+04  0.14462843858E+04  0.10000000000E+02 0. -1.
</event>
<event>
 5    1  0.1369527E-008  0.3827407E+03  0.7957747E-01  0.3439311E+00
         13   -1    0    0    0    0  0.00000000000E+00  0.00000000000E+00  0.14999999963E+04  0.15000000000E+04  0.10566000000E+00 0.  1.
        994   -1    0    0    0    0 -0.00000000000E+00 -0.00000000000E+00  0.11368683772E-12  0.17120000000E+03  0.17120000000E+03 0.  0.
         13    1    1    2    0    0  0.72793519603E+01  0.88046339952E+01  0.23163968315E+02  0.25828107497E+02  0.10566000000E+00 0.  1.
        994    1    1    2    0    0 -0.10267395272E+02  0.70684094665E+01  0.32709465452E+01  0.17168436420E+03  0.17120000000E+03 0.  0.
        998    1    1    2    0    0  0.29880433114E+01 -0.15873043462E+02  0.14735650814E+04  0.14736875283E+04  0.10000000000E+02 0.  1.
</event>
<event>
 5    1  0.1369527E-008  0.3860925E+03  0.7957747E-01  0.3425052E+00
         13   -1    0    0    0    0  0.00000000000E+00  0.00000000000E+00  0.14999999963E+04  0.15000000000E+04  0.10566000000E+00 0.  1.
        994   -1    0    0    0    0 -0.00000000000E+00 -0.00000000000E+00  0.11368683772E-12  0.17120000000E+03  0.17120000000E+03 0.  0.
         13    1    1    2    0    0 -0.10781145452E+02  0.60507517716E+01  0.72497024061E+02  0.73543690117E+02  0.10566000000E+00 0.  1.
        994    1    1    2    0    0  0.47062646465E+01 -0.35342026966E+01  0.12022299259E+01  0.17130535564E+03  0.17120000000E+03 0.  0.
        998    1    1    2    0    0  0.60748808059E+01 -0.25165490749E+01  0.14263007423E+04  0.14263509542E+04  0.10000000000E+02 0.  1.
</event>
<event>
 5    1  0.2368651E-008  0.3863507E+03  0.7957747E-01  0.3423964E+00
         13   -1    0    0    0    0  0.00000000000E+00  0.00000000000E+00  0.14999999963E+04  0.15000000000E+04  0.10566000000E+00 0.  1.
        994   -1    0    0    0    0 -0.00000000000E+00 -0.00000000000E+00  0.11368683772E-12  0.17120000000E+03  0.17120000000E+03 0.  0.
         13    1    1    2    0    0  0.80286108250E+01 -0.83342635267E+01  0.67764951524E+02  0.68746042500E+02  0.10566000000E+00 0.  1.
        994    1    1    2    0    0 -0.11027356954E+02  0.77564081413E+01  0.15563808631E+01  0.17173708624E+03  0.17120000000E+03 0.  0.
        998    1    1    2    0    0  0.29987461285E+01  0.57785538533E+00  0.14306786639E+04  0.14307168713E+04  0.10000000000E+02 0.  1.
</event>
<event>
 5    1  0.1369527E-008  0.3917702E+03  0.7957747E-01  0.3401457E+00
         13   -1    0    0    0    0  0.00000000000E+00  0.00000000000E+00  0.14999999963E+04  0.15000000000E+04  0.10566000000E+00 0. -1.
        994   -1    0    0    0    0 -0.00000000000E+00 -0.00000000000E+00  0.11368683772E-12  0.17120000000E+03  0.17120000000E+03 0.  0.
         13    1    1    2    0    0 -0.35225073653E+02 -0.35464896862E+02  0.55832563091E+02  0.74938981769E+02  0.10566000000E+00 0. -1.
        994    1    1    2    0    0 -0.75427229637E+02  0.11598222122E+02  0.45364972170E+02  0.19285021760E+03  0.17120000000E+03 0.  0.
        998    1    1    2    0    0  0.11065230329E+03  0.23866674740E+02  0.13988024610E+04  0.14034108006E+04  0.10000000000E+02 0. -1.
</event>
<event>
 5    1  0.1369527E-008  0.3813827E+03  0.7957747E-01  0.3445160E+00
         13   -1    0    0    0    0  0.00000000000E+00  0.00000000000E+00  0.14999999963E+04  0.15000000000E+04  0.10566000000E+00 0.  1.
        994   -1    0    0    0    0 -0.00000000000E+00 -0.00000000000E+00  0.11368683772E-12  0.17120000000E+03  0.17120000000E+03 0.  0.
         13    1    1    2    0    0  0.47884337596E+01  0.20924623067E+02  0.62306867650E+02  0.65900879120E+02  0.10566000000E+00 0.  1.
        994    1    1    2    0    0 -0.55927016490E+01 -0.25604539104E+02  0.57258509720E+01  0.17328905362E+03  0.17120000000E+03 0.  0.
        998    1    1    2    0    0  0.80426788944E+00  0.46799160374E+01  0.14319672777E+04  0.14320100673E+04  0.10000000000E+02 0.  1.
</event>
<event>
 5    1  0.1369527E-008  0.3720317E+03  0.7957747E-01  0.3486605E+00
         13   -1    0    0    0    0  0.00000000000E+00  0.00000000000E+00  0.14999999963E+04  0.15000000000E+04  0.10566000000E+00 0. -1.
        994   -1    0    0    0    0 -0.00000000000E+00 -0.00000000000E+00  0.11368683772E-12  0.17120000000E+03  0.17120000000E+03 0.  0.
         13    1    1    2    0    0 -0.28555348597E+02 -0.36582489638E+02  0.16874843440E+03  0.17501351879E+03  0.10566000000E+00 0. -1.
        994    1    1    2    0    0  0.23151015749E+00 -0.31583413417E+02  0.11643901860E+02  0.17447803888E+03  0.17120000000E+03 0.  0.
        998    1    1    2    0    0  0.28323838439E+02  0.68165903055E+02  0.13196076600E+04  0.13217084423E+04  0.10000000000E+02 0. -1.
</event>
<event>
 5    1  0.1369527E-008  0.3749126E+03  0.7957747E-01  0.3473614E+00
         13   -1    0    0    0    0  0.00000000000E+00  0.00000000000E+00  0.14999999963E+04  0.15000000000E+04  0.10566000000E+00 0. -1.
        994   -1    0    0    0    0 -0.00000000000E+00 -0.00000000000E+00  0.11368683772E-12  0.17120000000E+03  0.17120000000E+03 0.  0.
         13    1    1    2    0    0  0.75179438609E+02  0.28727566377E+00  0.38506271685E+03  0.39233319715E+03  0.10566000000E+00 0. -1.
        994    1    1    2    0    0 -0.52633655125E+02 -0.13520417145E+02  0.16831831603E+02  0.18040469475E+03  0.17120000000E+03 0.  0.
        998    1    1    2    0    0 -0.22545783484E+02  0.13233141481E+02  0.10981054478E+04  0.10984621081E+04  0.10000000000E+02 0.  1.
</event>
<event>
 5    1  0.1369527E-008  0.3829373E+03  0.7957747E-01  0.3438468E+00
         13   -1    0    0    0    0  0.00000000000E+00  0.00000000000E+00  0.14999999963E+04  0.15000000000E+04  0.10566000000E+00 0.  1.
        994   -1    0    0    0    0 -0.00000000000E+00 -0.00000000000E+00  0.11368683772E-12  0.17120000000E+03  0.17120000000E+03 0.  0.
         13    1    1    2    0    0 -0.95483944503E+01 -0.25602380694E+02  0.15490318778E+03  0.15729482662E+03  0.10566000000E+00 0.  1.
        994    1    1    2    0    0  0.34382153068E+01  0.24117192803E+01  0.27161255055E+01  0.17127304240E+03  0.17120000000E+03 0.  0.
        998    1    1    2    0    0  0.61101791435E+01  0.23190661414E+02  0.13423806830E+04  0.13426321310E+04  0.10000000000E+02 0.  1.
</event>
<event>
 5    1  0.1369527E-008  0.3808921E+03  0.7957747E-01  0.3447283E+00
         13   -1    0    0    0    0  0.00000000000E+00  0.00000000000E+00  0.14999999963E+04  0.15000000000E+04  0.10566000000E+00 0. -1.
        994   -1    0    0    0    0 -0.00000000000E+00 -0.00000000000E+00  0.11368683772E-12  0.17120000000E+03  0.17120000000E+03 0.  0.
         13    1    1    2    0    0 -0.10133585665E+02 -0.10034553117E+01  0.12462549717E+02  0.16094184990E+02  0.10566000000E+00 0. -1.
        994    1    1    2    0    0  0.78403264343E+01  0.37272200679E+01  0.39347182600E+01  0.17146511277E+03  0.17120000000E+03 0.  0.
        998    1    1    2    0    0  0.22932592308E+01 -0.27237647562E+01  0.14836027283E+04  0.14836407022E+04  0.10000000000E+02 0. -1.
</event>
<event>
 5    1  0.1369527E-008  0.3790805E+03  0.7957747E-01  0.3455172E+00
         13   -1    0    0    0    0  0.00000000000E+00  0.00000000000E+00  0.14999999963E+04  0.15000000000E+04  0.10566000000E+00 0.  1.
        994   -1    0    0    0    0 -0.00000000000E+00 -0.00000000000E+00  0.11368683772E-12  0.17120000000E+03  0.17120000000E+03 0.  0.
         13    1    1    2    0    0 -0.11466381345E+02  0.10902352690E+01  0.12704443043E+02  0.17148776958E+02  0.10566000000E+00 0.  1.
        994    1    1    2    0    0 -0.19227696371E+01 -0.18056088578E+01  0.46213505880E+01  0.17128267323E+03  0.17120000000E+03 0.  0.
        998    1    1    2    0    0  0.13389150982E+02  0.71537358890E+00  0.14826742026E+04  0.14827685498E+04  0.10000000000E+02 0.  1.
</event>
<event>
 5    1  0.1369527E-008  0.3763715E+03  0.7957747E-01  0.3467112E+00
         13   -1    0    0    0    0  0.00000000000E+00  0.00000000000E+00  0.14999999963E+04  0.15000000000E+04  0.10566000000E+00 0.  1.
        994   -1    0    0    0    0 -0.00000000000E+00 -0.00000000000E+00  0.11368683772E-12  0.17120000000E+03  0.17120000000E+03 0.  0.
         13    1    1    2    0    0 -0.10692663119E+03 -0.55193614230E+02  0.31570742649E+03  0.33786214617E+03  0.10566000000E+00 0.  1.
        994    1    1    2    0    0  0.14305802991E+03  0.52444249136E+02  0.10278569119E+03  0.25117790010E+03  0.17120000000E+03 0.  0.
        998    1    1    2    0    0 -0.36131398712E+02  0.27493650939E+01  0.10815068786E+04  0.10821599537E+04  0.10000000000E+02 0.  1.
</event>
<event>
 5    1  0.1369527E-008  0.3772015E+03  0.7957747E-01  0.3463435E+00
         13   -1    0    0    0    0  0.00000000000E+00  0.00000000000E+00  0.14999999963E+04  0.15000000000E+04  0.10566000000E+00 0. -1.
        994   -1    0    0    0    0 -0.00000000000E+00 -0.00000000000E+00  0.11368683772E-12  0.17120000000E+03  0.17120000000E+03 0.  0.
         13    1    1    2    0    0  0.11889752744E+02 -0.40957405673E+01  0.12205063046E+02  0.17524726506E+02  0.10566000000E+00 0. -1.
        994    1    1    2    0    0  0.71339584693E+01  0.37552684007E+00  0.57247388219E+01  0.17144458877E+03  0.17120000000E+03 0.  0.
        998    1    1    2    0    0 -0.19023711213E+02  0.37202137272E+01  0.14820701944E+04  0.14822306847E+04  0.10000000000E+02 0. -1.
</event>
<event>
 5    1  0.1369527E-008  0.3797317E+03  0.7957747E-01  0.3452327E+00
         13   -1    0    0    0    0  0.00000000000E+00  0.00000000000E+00  0.14999999963E+04  0.15000000000E+04  0.10566000000E+00 0.  1.
        994   -1    0    0    0    0 -0.00000000000E+00 -0.00000000000E+00  0.11368683772E-12  0.17120000000E+03  0.17120000000E+03 0.  0.
         13    1    1    2    0    0  0.75475035865E+01 -0.80011595626E+01  0.12154332127E+02  0.16392752003E+02  0.10566000000E+00 0.  1.
        994    1    1    2    0    0 -0.95231956238E+01  0.89081006873E+01  0.48377764460E+01  0.17176405210E+03  0.17120000000E+03 0.  0.
        998    1    1    2    0    0  0.19756920373E+01 -0.90694112475E+00  0.14830078877E+04  0.14830431959E+04  0.10000000000E+02 0.  1.
</event>
<event>
 5    1  0.1369527E-008  0.3783869E+03  0.7957747E-01  0.3458213E+00
         13   -1    0    0    0    0  0.00000000000E+00  0.00000000000E+00  0.14999999963E+04  0.15000000000E+04  0.10566000000E+00 0.  1.
        994   -1    0    0    0    0 -0.00000000000E+00 -0.00000000000E+00  0.11368683772E-12  0.17120000000E+03  0.17120000000E+03 0.  0.
         13    1    1    2    0    0 -0.25512699581E+01 -0.20231322387E+02  0.38573738452E+02  0.43632096513E+02  0.10566000000E+00 0.  1.
        994    1    1    2    0    0  0.24289433421E+01  0.25351114150E+02  0.71324975708E+01  0.17323074576E+03  0.17120000000E+03 0.  0.
        998    1    1    2    0    0  0.12232661606E+00 -0.51197917627E+01  0.14542937603E+04  0.14543371577E+04  0.10000000000E+02 0.  1.
</event>
<event>
 5    1  0.1369527E-008  0.3861577E+03  0.7957747E-01  0.3424777E+00
         13   -1    0    0    0    0  0.00000000000E+00  0.00000000000E+00  0.14999999963E+04  0.15000000000E+04  0.10566000000E+00 0. -1.
        994   -1    0    0    0    0 -0.00000000000E+00 -0.00000000000E+00  0.11368683772E-12  0.17120000000E+03  0.17120000000E+03 0.  0.
         13    1    1    2    0    0  0.26124740079E+02  0.15811389428E+02  0.16125580343E+02  0.34533282283E+02  0.10566000000E+00 0. -1.
        994    1    1    2    0    0 -0.10897910442E+02  0.51932307952E+01  0.20292351982E+02  0.17282058224E+03  0.17120000000E+03 0.  0.
        998    1    1    2    0    0 -0.15226829637E+02 -0.21004620223E+02  0.14635820640E+04  0.14638461355E+04  0.10000000000E+02 0. -1.
</event>
<event>
 5    1  0.1369527E-008  0.3698521E+03  0.7957747E-01  0.3496571E+00
         13   -1    0    0    0    0  0.00000000000E+00  0.00000000000E+00  0.14999999963E+04  0.15000000000E+04  0.10566000000E+00 0. -1.
        994   -1    0    0    0    0 -0.00000000000E+00 -0.00000000000E+00  0.11368683772E-12  0.17120000000E+03  0.17120000000E+03 0.  0.
         13    1    1    2    0    0  0.96325624429E+01  0.16214510022E+02  0.11598503671E+02  0.22141206966E+02  0.10566000000E+00 0. -1.
        994    1    1    2    0    0 -0.16219133230E+02 -0.62653159542E+01  0.11917626709E+02  0.17249285288E+03  0.17120000000E+03 0.  0.
        998    1    1    2    0    0  0.65865707875E+01 -0.99491940683E+01  0.14764838659E+04  0.14765659402E+04  0.10000000000E+02 0. -1.
</event>
<event>
 5    1  0.1369527E-008  0.3819838E+03  0.7957747E-01  0.3442566E+00
         13   -1    0    0    0    0  0.00000000000E+00  0.00000000000E+00  0.14999999963E+04  0.15000000000E+04  0.10566000000E+00 0. -1.
        994   -1    0    0    0    0 -0.00000000000E+00 -0.00000000000E+00  0.11368683772E-12  0.17120000000E+03  0.17120000000E+03 0.  0.
         13    1    1    2    0    0 -0.12966285574E+02  0.19210882091E+02  0.87041635982E+02  0.90074636334E+02  0.10566000000E+00 0. -1.
        994    1    1    2    0    0  0.16319540524E+01 -0.10210218454E+02  0.34902457315E+01  0.17154746763E+03  0.17120000000E+03 0.  0.
        998    1    1    2    0    0  0.11334331522E+02 -0.90006636372E+01  0.14094681146E+04  0.14095778960E+04  0.10000000000E+02 0. -1.
</event>
<event>
 5    1  0.1369527E-008  0.3792687E+03  0.7957747E-01  0.3454349E+00
         13   -1    0    0    0    0  0.00000000000E+00  0.00000000000E+00  0.14999999963E+04  0.15000000000E+04  0.10566000000E+00 0. -1.
        994   -1    0    0    0    0 -0.00000000000E+00 -0.00000000000E+00  0.11368683772E-12  0.17120000000E+03  0.17120000000E+03 0.  0.
         13    1    1    2    0    0  0.13405981955E+02  0.12060220466E+00  0.17753023697E+02  0.22246705633E+02  0.10566000000E+00 0. -1.
        994    1    1    2    0    0 -0.15834727262E+02  0.21194116985E+01  0.53585055885E+01  0.17202727713E+03  0.17120000000E+03 0.  0.
        998    1    1    2    0    0  0.24287453064E+01 -0.22400139032E+01  0.14768884670E+04  0.14769260172E+04  0.10000000000E+02 0. -1.
</event>
<event>
 5    1  0.1972317E-008  0.3863600E+03  0.7957747E-01  0.3423925E+00
         13   -1    0    0    0    0  0.00000000000E+00  0.00000000000E+00  0.14999999963E+04  0.15000000000E+04  0.10566000000E+00 0.  1.
        994   -1    0    0    0    0 -0.00000000000E+00 -0.00000000000E+00  0.11368683772E-12  0.17120000000E+03  0.17120000000E+03 0.  0.
         13    1    1    2    0    0 -0.10699929537E+02 -0.82063683274E+00  0.58585270065E+02  0.59560112236E+02  0.10566000000E+00 0.  1.
        994    1    1    2    0    0  0.12827715719E+02  0.46394519977E+01  0.15659218597E+01  0.17174972174E+03  0.17120000000E+03 0.  0.
        998    1    1    2    0    0 -0.21277861821E+01 -0.38188151650E+01  0.14398488044E+04  0.14398901660E+04  0.10000000000E+02 0.  1.
</event>
<event>
 5    1  0.1369527E-008  0.3832409E+03  0.7957747E-01  0.3437167E+00
         13   -1    0    0    0    0  0.00000000000E+00  0.00000000000E+00  0.14999999963E+04  0.15000000000E+04  0.10566000000E+00 0.  1.
        994   -1    0    0    0    0 -0.00000000000E+00 -0.00000000000E+00  0.11368683772E-12  0.17120000000E+03  0.17120000000E+03 0.  0.
         13    1    1    2    0    0 -0.57317176197E+01 -0.18733251049E+02  0.78299422049E+02  0.80713059284E+02  0.10566000000E+00 0.  1.
        994    1    1    2    0    0 -0.14053156457E+01  0.77970887751E+01  0.27136644950E+01  0.17140470670E+03  0.17120000000E+03 0.  0.
        998    1    1    2    0    0  0.71370332654E+01  0.10936162274E+02  0.14189869097E+04  0.14190822340E+04  0.10000000000E+02 0.  1.
</event>
<event>
 5    1  0.1369527E-008  0.3843181E+03  0.7957747E-01  0.3432569E+00
         13   -1    0    0    0    0  0.00000000000E+00  0.00000000000E+00  0.14999999963E+04  0.15000000000E+04  0.10566000000E+00 0.  1.
        994   -1    0    0    0    0 -0.00000000000E+00 -0.00000000000E+00  0.11368683772E-12  0.17120000000E+03  0.17120000000E+03 0.  0.
         13    1    1    2    0    0 -0.18400990635E+02  0.90732464982E+01  0.97628202384E+02  0.99760700294E+02  0.10566000000E+00 0.  1.
        994    1    1    2    0    0  0.14418034133E+02 -0.29631736374E+02  0.55564169276E+01  0.17443117060E+03  0.17120000000E+03 0.  0.
        998    1    1    2    0    0  0.39829565021E+01  0.20558489876E+02  0.13968153770E+04  0.13970081291E+04  0.10000000000E+02 0.  1.
</event>
<event>
 5    1  0.1369527E-008  0.3800727E+03  0.7957747E-01  0.3450842E+00
         13   -1    0    0    0    0  0.00000000000E+00  0.00000000000E+00  0.14999999963E+04  0.15000000000E+04  0.10566000000E+00 0. -1.
        994   -1    0    0    0    0 -0.00000000000E+00 -0.00000000000E+00  0.11368683772E-12  0.17120000000E+03  0.17120000000E+03 0.  0.
         13    1    1    2    0    0 -0.20671882637E+02 -0.68529959686E+00  0.50284083324E+02  0.54371836157E+02  0.10566000000E+00 0. -1.
        994    1    1    2    0    0  0.17553827244E+02 -0.43458460217E+02  0.11473498873E+02  0.17787033421E+03  0.17120000000E+03 0.  0.
        998    1    1    2    0    0  0.31180553933E+01  0.44143759814E+02  0.14382424141E+04  0.14389578296E+04  0.10000000000E+02 0. -1.
</event>
<event>
 5    1  0.1369527E-008  0.3814439E+03  0.7957747E-01  0.3444895E+00
         13   -1    0    0    0    0  0.00000000000E+00  0.00000000000E+00  0.14999999963E+04  0.15000000000E+04  0.10566000000E+00 0. -1.
        994   -1    0    0    0    0 -0.00000000000E+00 -0.00000000000E+00  0.11368683772E-12  0.17120000000E+03  0.17120000000E+03 0.  0.
         13    1    1    2    0    0 -0.60256841420E+01  0.14970366547E+02  0.38091520798E+02  0.41369020591E+02  0.10566000000E+00 0. -1.
        994    1    1    2    0    0  0.81682037503E-02 -0.28134259927E+01  0.34323707625E+01  0.17125751546E+03  0.17120000000E+03 0.  0.
        998    1    1    2    0    0  0.60175159382E+01 -0.12156940554E+02  0.14584761047E+04  0.14585734639E+04  0.10000000000E+02 0. -1.
</event>
<event>
 5    1  0.1369527E-008  0.3719611E+03  0.7957747E-01  0.3486926E+00
         13   -1    0    0    0    0  0.00000000000E+00  0.00000000000E+00  0.14999999963E+04  0.15000000000E+04  0.10566000000E+00 0.  1.
        994   -1    0    0    0    0 -0.00000000000E+00 -0.00000000000E+00  0.11368683772E-12  0.17120000000E+03  0.17120000000E+03 0.  0.
         13    1    1    2    0    0  0.37555553190E+02  0.42505941043E+02  0.17186854672E+03  0.18098614067E+03  0.10566000000E+00 0.  1.
        994    1    1    2    0    0 -0.36962663915E+02 -0.41924509412E+02  0.19053782982E+02  0.18109773510E+03  0.17120000000E+03 0.  0.
        998    1    1    2    0    0 -0.59288927457E+00 -0.58143163128E+00  0.13090776666E+04  0.13091161242E+04  0.10000000000E+02 0.  0.
</event>
<event>
 5    1  0.1369527E-008  0.3784767E+03  0.7957747E-01  0.3457818E+00
         13   -1    0    0    0    0  0.00000000000E+00  0.00000000000E+00  0.14999999963E+04  0.15000000000E+04  0.10566000000E+00 0.  1.
        994   -1    0    0    0    0 -0.00000000000E+00 -0.00000000000E+00  0.11368683772E-12  0.17120000000E+03  0.17120000000E+03 0.  0.
         13    1    1    2    0    0 -0.95769627977E+01 -0.13430176333E+02  0.24923999914E+02  0.29888204839E+02  0.10566000000E+00 0.  1.
        994    1    1    2    0    0  0.14051148769E+02  0.17853437492E+02  0.66402953114E+01  0.17282856689E+03  0.17120000000E+03 0.  0.
        998    1    1    2    0    0 -0.44741859715E+01 -0.44232611586E+01  0.14684357011E+04  0.14684832283E+04  0.10000000000E+02 0.  1.
</event>
<event>
 5    1  0.1369527E-008  0.3816639E+03  0.7957747E-01  0.3443945E+00
         13   -1    0    0    0    0  0.00000000000E+00  0.00000000000E+00  0.14999999963E+04  0.15000000000E+04  0.10566000000E+00 0.  1.
        994   -1    0    0    0    0 -0.00000000000E+00 -0.00000000000E+00  0.11368683772E-12  0.17120000000E+03  0.17120000000E+03 0.  0.
         13    1    1    2    0    0 -0.28622068488E+02 -0.13704880243E+02  0.16099381278E+03  0.16409163740E+03  0.10566000000E+00 0.  1.
        994    1    1    2    0    0  0.40366087374E+01  0.16765020042E+02  0.42848027612E+01  0.17211960853E+03  0.17120000000E+03 0.  0.
        998    1    1    2    0    0  0.24585459751E+02 -0.30601397987E+01  0.13347213807E+04  0.13349887541E+04  0.10000000000E+02 0.  1.
</event>
<event>
 5    1  0.1369527E-008  0.3843269E+03  0.7957747E-01  0.3432532E+00
         13   -1    0    0    0    0  0.00000000000E+00  0.00000000000E+00  0.14999999963E+04  0.15000000000E+04  0.10566000000E+00 0. -1.
        994   -1    0    0    0    0 -0.00000000000E+00 -0.00000000000E+00  0.11368683772E-12  0.17120000000E+03  0.17120000000E+03 0.  0.
         13    1    1    2    0    0  0.51199062362E+02 -0.56668836877E+02  0.12469008191E+03  0.14622013798E+03  0.10566000000E+00 0. -1.
        994    1    1    2    0    0 -0.78303907927E+02  0.68327130852E+02  0.59673728645E+02  0.20897486140E+03  0.17120000000E+03 0.  0.
        998    1    1    2    0    0  0.27104845564E+02 -0.11658293976E+02  0.13156361857E+04  0.13160050006E+04  0.10000000000E+02 0. -1.
</event>
<event>
 5    1  0.1369527E-008  0.3851661E+03  0.7957747E-01  0.3428968E+00
         13   -1    0    0    0    0  0.00000000000E+00  0.00000000000E+00  0.14999999963E+04  0.15000000000E+04  0.10566000000E+00 0.  1.
        994   -1    0    0    0    0 -0.00000000000E+00 -0.00000000000E+00  0.11368683772E-12  0.17120000000E+03  0.17120000000E+03 0.  0.
         13    1    1    2    0    0  0.54305431242E+01  0.12033280161E+02  0.65902703648E+02  0.67212113062E+02  0.10566000000E+00 0.  1.
        994    1    1    2    0    0  0.33866648905E+02 -0.89710760132E+00  0.53293359743E+01  0.17460125009E+03  0.17120000000E+03 0.  0.
        998    1    1    2    0    0 -0.39297192029E+02 -0.11136172560E+02  0.14287679567E+04  0.14293866369E+04  0.10000000000E+02 0.  1.
</event>
<event>
 5    1  0.1369527E-008  0.3804904E+03  0.7957747E-01  0.3449026E+00
         13   -1    0    0    0    0  0.00000000000E+00  0.00000000000E+00  0.14999999963E+04  0.15000000000E+04  0.10566000000E+00 0.  1.
        994   -1    0    0    0    0 -0.00000000000E+00 -0.00000000000E+00  0.11368683772E-12  0.17120000000E+03  0.17120000000E+03 0.  0.
         13    1    1    2    0    0 -0.12008507431E+02  0.90852827238E+00  0.17462963492E+02  0.21213107559E+02  0.10566000000E+00 0.  1.
        994    1    1    2    0    0 -0.90799763710E+00  0.21854078873E+01  0.39044744162E+01  0.17126086940E+03  0.17120000000E+03 0.  0.
        998    1    1    2    0    0  0.12916505068E+02 -0.30939361597E+01  0.14786325584E+04  0.14787260230E+04  0.10000000000E+02 0.  1.
</event>
<event>
 5    1  0.1369527E-008  0.3840392E+03  0.7957747E-01  0.3433757E+00
         13   -1    0    0    0    0  0.00000000000E+00  0.00000000000E+00  0.14999999963E+04  0.15000000000E+04  0.10566000000E+00 0. -1.
        994   -1    0    0    0    0 -0.00000000000E+00 -0.00000000000E+00  0.11368683772E-12  0.17120000000E+03  0.17120000000E+03 0.  0.
         13    1    1    2    0    0 -0.36239717220E+02  0.63255083411E+02  0.13602966542E+03  0.15433276943E+03  0.10566000000E+00 0. -1.
        994    1    1    2    0    0  0.34734433220E+02 -0.38294800132E+02  0.28461525924E+02  0.18108691567E+03  0.17120000000E+03 0.  0.
        998    1    1    2    0    0  0.15052840000E+01 -0.24960283279E+02  0.13355088049E+04  0.13357803149E+04  0.10000000000E+02 0. -1.
</event>
<event>
 5    1  0.1369527E-008  0.3758868E+03  0.7957747E-01  0.3469266E+00
         13   -1    0    0    0    0  0.00000000000E+00  0.00000000000E+00  0.14999999963E+04  0.15000000000E+04  0.10566000000E+00 0. -1.
        994   -1    0    0    0    0 -0.00000000000E+00 -0.00000000000E+00  0.11368683772E-12  0.17120000000E+03  0.17120000000E+03 0.  0.
         13    1    1    2    0    0 -0.90912231273E+01 -0.50271494623E+02  0.92295682326E+02  0.10549112593E+03  0.10566000000E+00 0. -1.
        994    1    1    2    0    0 -0.83995380205E+01  0.19737933962E+02  0.15730254053E+02  0.17325420390E+03  0.17120000000E+03 0.  0.
        998    1    1    2    0    0  0.17490761148E+02  0.30533560661E+02  0.13919740599E+04  0.13924546702E+04  0.10000000000E+02 0. -1.
</event>
<event>
 5    1  0.1369527E-008  0.3806374E+03  0.7957747E-01  0.3448388E+00
         13   -1    0    0    0    0  0.00000000000E+00  0.00000000000E+00  0.14999999963E+04  0.15000000000E+04  0.10566000000E+00 0.  1.
        994   -1    0    0    0    0 -0.00000000000E+00 -0.00000000000E+00  0.11368683772E-12  0.17120000000E+03  0.17120000000E+03 0.  0.
         13    1    1    2    0    0  0.16214364978E+02 -0.24764786211E+02  0.10473859121E+03  0.10884109481E+03  0.10566000000E+00 0.  1.
        994    1    1    2    0    0 -0.81590861543E+00  0.39370248728E+02  0.90020071724E+01  0.17590099012E+03  0.17120000000E+03 0.  0.
        998    1    1    2    0    0 -0.15398456363E+02 -0.14605462518E+02  0.13862593979E+04  0.13864579151E+04  0.10000000000E+02 0.  1.
</event>
<event>
 5    1  0.1369527E-008  0.2532186E+03  0.7957747E-01  0.4299404E+00
         13   -1    0    0    0    0  0.00000000000E+00  0.00000000000E+00  0.14999999963E+04  0.15000000000E+04  0.10566000000E+00 0. -1.
        994   -1    0    0    0    0 -0.00000000000E+00 -0.00000000000E+00  0.11368683772E-12  0.17120000000E+03  0.17120000000E+03 0.  0.
         13    1    1    2    0    0  0.17129537502E+03 -0.85068476400E+02  0.14380352860E+03  0.23928689304E+03  0.10566000000E+00 0. -1.
        994    1    1    2    0    0 -0.14233236075E+03  0.84993071852E+02  0.33970171864E+03  0.41495664933E+03  0.17120000000E+03 0.  0.
        998    1    1    2    0    0 -0.28963014269E+02  0.75404547981E-01  0.10164947490E+04  0.10169564576E+04  0.10000000000E+02 0. -1.
</event>
<event>
 5    1  0.1369527E-008  0.3788515E+03  0.7957747E-01  0.3456174E+00
         13   -1    0    0    0    0  0.00000000000E+00  0.00000000000E+00  0.14999999963E+04  0.15000000000E+04  0.10566000000E+00 0.  1.
        994   -1    0    0    0    0 -0.00000000000E+00 -0.00000000000E+00  0.11368683772E-12  0.17120000000E+03  0.17120000000E+03 0.  0.
         13    1    1    2    0    0 -0.26213886975E+02 -0.33898558172E+02  0.19123062618E+03  0.19597306874E+03  0.10566000000E+00 0.  1.
        994    1    1    2    0    0  0.12141191527E+02  0.23849504655E+02  0.71210708326E+01  0.17342536451E+03  0.17120000000E+03 0.  0.
        998    1    1    2    0    0  0.14072695448E+02  0.10049053516E+02  0.13016482993E+04  0.13018015668E+04  0.10000000000E+02 0.  1.
</event>
<event>
 5    1  0.1369527E-008  0.3772574E+03  0.7957747E-01  0.3463188E+00
         13   -1    0    0    0    0  0.00000000000E+00  0.00000000000E+00  0.14999999963E+04  0.15000000000E+04  0.10566000000E+00 0. -1.
        994   -1    0    0    0    0 -0.00000000000E+00 -0.00000000000E+00  0.11368683772E-12  0.17120000000E+03  0.17120000000E+03 0.  0.
         13    1    1    2    0    0 -0.25472967002E+02 -0.49391145119E+02  0.84863933006E+02  0.10144089685E+03  0.10566000000E+00 0. -1.
        994    1    1    2    0    0 -0.13472061966E+03  0.14898118770E+03  0.17811974698E+03  0.31840402622E+03  0.17120000000E+03 0.  0.
        998    1    1    2    0    0  0.16019358666E+03 -0.99590042579E+02  0.12370163163E+04  0.12513550769E+04  0.10000000000E+02 0. -1.
</event>
<event>
 5    1  0.1369527E-008  0.3767307E+03  0.7957747E-01  0.3465519E+00
         13   -1    0    0    0    0  0.00000000000E+00  0.00000000000E+00  0.14999999963E+04  0.15000000000E+04  0.10566000000E+00 0. -1.
        994   -1    0    0    0    0 -0.00000000000E+00 -0.00000000000E+00  0.11368683772E-12  0.17120000000E+03  0.17120000000E+03 0.  0.
         13    1    1    2    0    0  0.10861894070E+02 -0.12400469812E+02  0.20785618884E+02  0.26529333026E+02  0.10566000000E+00 0. -1.
        994    1    1    2    0    0 -0.14790588465E+02  0.76290928285E+01  0.67292059033E+01  0.17213856853E+03  0.17120000000E+03 0.  0.
        998    1    1    2    0    0  0.39286943944E+01  0.47713769840E+01  0.14724851715E+04  0.14725320984E+04  0.10000000000E+02 0. -1.
</event>
<event>
 5    1  0.1369527E-008  0.3804348E+03  0.7957747E-01  0.3449267E+00
         13   -1    0    0    0    0  0.00000000000E+00  0.00000000000E+00  0.14999999963E+04  0.15000000000E+04  0.10566000000E+00 0.  1.
        994   -1    0    0    0    0 -0.00000000000E+00 -0.00000000000E+00  0.11368683772E-12  0.17120000000E+03  0.17120000000E+03 0.  0.
         13    1    1    2    0    0  0.27323840096E+02 -0.26968556609E+02  0.10470090881E+03  0.11151765221E+03  0.10566000000E+00 0.  1.
        994    1    1    2    0    0 -0.78794521731E+02  0.11250157405E+03  0.69694362633E+02  0.23028661490E+03  0.17120000000E+03 0.  0.
        998    1    1    2    0    0  0.51470681636E+02 -0.85533017442E+02  0.13256047248E+04  0.13293957329E+04  0.10000000000E+02 0.  1.
</event>
<event>
 5    1  0.1369527E-008  0.3822210E+03  0.7957747E-01  0.3441544E+00
         13   -1    0    0    0    0  0.00000000000E+00  0.00000000000E+00  0.14999999963E+04  0.15000000000E+04  0.10566000000E+00 0.  1.
        994   -1    0    0    0    0 -0.00000000000E+00 -0.00000000000E+00  0.11368683772E-12  0.17120000000E+03  0.17120000000E+03 0.  0.
         13    1    1    2    0    0 -0.21779375697E+02  0.79004428254E+01  0.10008435033E+03  0.10273094250E+03  0.10566000000E+00 0.  1.
        994    1    1    2    0    0 -0.38662349603E+01  0.93600492752E+01  0.33565846254E+01  0.17153211057E+03  0.17120000000E+03 0.  0.
        998    1    1    2    0    0  0.25645610657E+02 -0.17260492101E+02  0.13965590613E+04  0.13969369469E+04  0.10000000000E+02 0. -1.
</event>
<event>
 5    1  0.1369527E-008  0.3843520E+03  0.7957747E-01  0.3432425E+00
         13   -1    0    0    0    0  0.00000000000E+00  0.00000000000E+00  0.14999999963E+04  0.15000000000E+04  0.10566000000E+00 0.  1.
        994   -1    0    0    0    0 -0.00000000000E+00 -0.00000000000E+00  0.11368683772E-12  0.17120000000E+03  0.17120000000E+03 0.  0.
         13    1    1    2    0    0  0.81282590761E+01  0.80959531738E+01  0.33746180453E+02  0.35643076644E+02  0.10566000000E+00 0.  1.
        994    1    1    2    0    0 -0.38147534178E+01 -0.24999110382E+01  0.20207499947E+01  0.17127266370E+03  0.17120000000E+03 0.  0.
        998    1    1    2    0    0 -0.43135056583E+01 -0.55960421357E+01  0.14642330658E+04  0.14642842597E+04  0.10000000000E+02 0.  1.
</event>
<event>
 5    1  0.1369527E-008  0.3823398E+03  0.7957747E-01  0.3441033E+00
         13   -1    0    0    0    0  0.00000000000E+00  0.00000000000E+00  0.14999999963E+04  0.15000000000E+04  0.10566000000E+00 0.  1.
        994   -1    0    0    0    0 -0.00000000000E+00 -0.00000000000E+00  0.11368683772E-12  0.17120000000E+03  0.17120000000E+03 0.  0.
         13    1    1    2    0    0  0.13169123128E+02  0.12430198057E+02  0.53512093235E+02  0.56493282026E+02  0.10566000000E+00 0.  1.
        994    1    1    2    0    0 -0.85266069511E+01 -0.14198303058E+02  0.38670931425E+01  0.17204269599E+03  0.17120000000E+03 0.  0.
        998    1    1    2    0    0 -0.46425161765E+01  0.17681050012E+01  0.14426208099E+04  0.14426640220E+04  0.10000000000E+02 0.  1.
</event>
<event>
 5    1  0.1369527E-008  0.3837000E+03  0.7957747E-01  0.3435205E+00
         13   -1    0    0    0    0  0.00000000000E+00  0.00000000000E+00  0.14999999963E+04  0.15000000000E+04  0.10566000000E+00 0. -1.
        994   -1    0    0    0    0 -0.00000000000E+00 -0.00000000000E+00  0.11368683772E-12  0.17120000000E+03  0.17120000000E+03 0.  0.
         13    1    1    2    0    0  0.21554094114E+00  0.29590171503E+02  0.16090859482E+02  0.33683106008E+02  0.10566000000E+00 0. -1.
        994    1    1    2    0    0  0.33446463756E+01 -0.25294668719E+02  0.20769554168E+02  0.17433250215E+03  0.17120000000E+03 0.  0.
        998    1    1    2    0    0 -0.35601873167E+01 -0.42955027832E+01  0.14631395826E+04  0.14631843918E+04  0.10000000000E+02 0. -1.
</event>
<event>
 5    1  0.1369527E-008  0.3853272E+03  0.7957747E-01  0.3428286E+00
         13   -1    0    0    0    0  0.00000000000E+00  0.00000000000E+00  0.14999999963E+04  0.15000000000E+04  0.10566000000E+00 0.  1.
        994   -1    0    0    0    0 -0.00000000000E+00 -0.00000000000E+00  0.11368683772E-12  0.17120000000E+03  0.17120000000E+03 0.  0.
         13    1    1    2    0    0 -0.13403803454E+02 -0.49911597229E+01  0.73282851658E+02  0.74665662346E+02  0.10566000000E+00 0.  1.
        994    1    1    2    0    0  0.31284398783E+01 -0.32216362518E+00  0.15002894746E+01  0.17123545718E+03  0.17120000000E+03 0.  0.
        998    1    1    2    0    0  0.10275363576E+02  0.53133233481E+01  0.14252168551E+04  0.14252988805E+04  0.10000000000E+02 0.  1.
</event>
<event>
 5    1  0.1369527E-008  0.3801042E+03  0.7957747E-01  0.3450705E+00
         13   -1    0    0    0    0  0.00000000000E+00  0.00000000000E+00  0.14999999963E+04  0.15000000000E+04  0.10566000000E+00 0.  1.
        994   -1    0    0    0    0 -0.00000000000E+00 -0.00000000000E+00  0.11368683772E-12  0.17120000000E+03  0.17120000000E+03 0.  0.
         13    1    1    2    0    0  0.17250136553E+02  0.22013291929E+02  0.12253891853E+03  0.12568989598E+03  0.10566000000E+00 0.  1.
        994    1    1    2    0    0 -0.11841753831E+02  0.41466078420E+02  0.10320260829E+02  0.17684911811E+03  0.17120000000E+03 0.  0.
        998    1    1    2    0    0 -0.54083827223E+01 -0.63479370349E+02  0.13671408169E+04  0.13686609859E+04  0.10000000000E+02 0.  1.
</event>
<event>
 5    1  0.1369527E-008  0.3715000E+03  0.7957747E-01  0.3489025E+00
         13   -1    0    0    0    0  0.00000000000E+00  0.00000000000E+00  0.14999999963E+04  0.15000000000E+04  0.10566000000E+00 0.  1.
        994   -1    0    0    0    0 -0.00000000000E+00 -0.00000000000E+00  0.11368683772E-12  0.17120000000E+03  0.17120000000E+03 0.  0.
         13    1    1    2    0    0  0.21808102551E+02 -0.87673006799E+01  0.31795244731E+02  0.39539950046E+02  0.10566000000E+00 0.  1.
        994    1    1    2    0    0  0.27082176836E+02  0.14575451924E+02  0.11747781711E+02  0.17433685346E+03  0.17120000000E+03 0.  0.
        998    1    1    2    0    0 -0.48890279386E+02 -0.58081512438E+01  0.14564569698E+04  0.14573231965E+04  0.10000000000E+02 0.  1.
</event>
<event>
 5    1  0.1369527E-008  0.3788296E+03  0.7957747E-01  0.3456271E+00
         13   -1    0    0    0    0  0.00000000000E+00  0.00000000000E+00  0.14999999963E+04  0.15000000000E+04  0.10566000000E+00 0. -1.
        994   -1    0    0    0    0 -0.00000000000E+00 -0.00000000000E+00  0.11368683772E-12  0.17120000000E+03  0.17120000000E+03 0.  0.
         13    1    1    2    0    0  0.42492396523E+02 -0.72760246905E+01  0.17553726381E+03  0.18075366233E+03  0.10566000000E+00 0. -1.
        994    1    1    2    0    0 -0.40501648394E+02  0.96397487417E+01  0.10564023176E+02  0.17650594002E+03  0.17120000000E+03 0.  0.
        998    1    1    2    0    0 -0.19907481297E+01 -0.23637240511E+01  0.13138987093E+04  0.13139403976E+04  0.10000000000E+02 0. -1.
</event>
<event>
 5    1  0.1369527E-008  0.3800776E+03  0.7957747E-01  0.3450821E+00
         13   -1    0    0    0    0  0.00000000000E+00  0.00000000000E+00  0.14999999963E+04  0.15000000000E+04  0.10566000000E+00 0. -1.
        994   -1    0    0    0    0 -0.00000000000E+00 -0.00000000000E+00  0.11368683772E-12  0.17120000000E+03  0.17120000000E+03 0.  0.
         13    1    1    2    0    0 -0.38587055902E+02  0.24427994211E+01  0.19711711214E+03  0.20087333127E+03  0.10566000000E+00 0. -1.
        994    1    1    2    0    0  0.10968516529E+02 -0.25320138435E+01  0.45175922842E+01  0.17162915862E+03  0.17120000000E+03 0.  0.
        998    1    1    2    0    0  0.27618539374E+02  0.89214422333E-01  0.12983652918E+04  0.12986975101E+04  0.10000000000E+02 0. -1.
</event>
<event>
 5    1  0.1369527E-008  0.3740439E+03  0.7957747E-01  0.3477510E+00
         13   -1    0    0    0    0  0.00000000000E+00  0.00000000000E+00  0.14999999963E+04  0.15000000000E+04  0.10566000000E+00 0. -1.
        994   -1    0    0    0    0 -0.00000000000E+00 -0.00000000000E+00  0.11368683772E-12  0.17120000000E+03  0.17120000000E+03 0.  0.
         13    1    1    2    0    0 -0.61143054378E+01 -0.16969022043E+02  0.19300129592E+02  0.26416635031E+02  0.10566000000E+00 0. -1.
        994    1    1    2    0    0  0.17461528471E+02  0.14134182738E+02  0.88934852876E+01  0.17289654184E+03  0.17120000000E+03 0.  0.
        998    1    1    2    0    0 -0.11347223033E+02  0.28348393050E+01  0.14718063814E+04  0.14718868231E+04  0.10000000000E+02 0. -1.
</event>
<event>
 5    1  0.1369527E-008  0.3809430E+03  0.7957747E-01  0.3447063E+00
         13   -1    0    0    0    0  0.00000000000E+00  0.00000000000E+00  0.14999999963E+04  0.15000000000E+04  0.10566000000E+00 0. -1.
        994   -1    0    0    0    0 -0.00000000000E+00 -0.00000000000E+00  0.11368683772E-12  0.17120000000E+03  0.17120000000E+03 0.  0.
         13    1    1    2    0    0 -0.29825770034E+02 -0.16999508521E+02  0.19942250680E+03  0.20235589251E+03  0.10566000000E+00 0. -1.
        994    1    1    2    0    0 -0.85141498001E+01  0.49167356676E+00  0.39002968625E+01  0.17145665576E+03  0.17120000000E+03 0.  0.
        998    1    1    2    0    0  0.38339919834E+02  0.16507834954E+02  0.12966771926E+04  0.12973874517E+04  0.10000000000E+02 0. -1.
</event>
<event>
 5    1  0.1369527E-008  0.3725384E+03  0.7957747E-01  0.3484306E+00
         13   -1    0    0    0    0  0.00000000000E+00  0.00000000000E+00  0.14999999963E+04  0.15000000000E+04  0.10566000000E+00 0.  1.
        994   -1    0    0    0    0 -0.00000000000E+00 -0.00000000000E+00  0.11368683772E-12  0.17120000000E+03  0.17120000000E+03 0.  0.
         13    1    1    2    0    0  0.50253294308E+02 -0.40184920340E+01  0.89942582913E+02  0.10310781373E+03  0.10566000000E+00 0.  1.
        994    1    1    2    0    0 -0.61861676480E+02  0.44803154775E+01  0.25983593456E+02  0.18393348627E+03  0.17120000000E+03 0.  0.
        998    1    1    2    0    0  0.11608382172E+02 -0.46182344355E+00  0.13840738199E+04  0.13841587000E+04  0.10000000000E+02 0.  1.
</event>
<event>
 5    1  0.1369527E-008  0.3931756E+03  0.7957747E-01  0.3395722E+00
         13   -1    0    0    0    0  0.00000000000E+00  0.00000000000E+00  0.14999999963E+04  0.15000000000E+04  0.10566000000E+00 0. -1.
        994   -1    0    0    0    0 -0.00000000000E+00 -0.00000000000E+00  0.11368683772E-12  0.17120000000E+03  0.17120000000E+03 0.  0.
         13    1    1    2    0    0  0.47601725073E+02 -0.10813812685E+03  0.22752771188E+03  0.25637599253E+03  0.10566000000E+00 0. -1.
        994    1    1    2    0    0 -0.49584127621E+02  0.11905829425E+03  0.90349494567E+02  0.23260682344E+03  0.17120000000E+03 0.  0.
        998    1    1    2    0    0  0.19824025484E+01 -0.10920167409E+02  0.11821227898E+04  0.11822171840E+04  0.10000000000E+02 0. -1.
</event>
<event>
 5    1  0.1369527E-008  0.3842997E+03  0.7957747E-01  0.3432648E+00
         13   -1    0    0    0    0  0.00000000000E+00  0.00000000000E+00  0.14999999963E+04  0.15000000000E+04  0.10566000000E+00 0.  1.
        994   -1    0    0    0    0 -0.00000000000E+00 -0.00000000000E+00  0.11368683772E-12  0.17120000000E+03  0.17120000000E+03 0.  0.
         13    1    1    2    0    0 -0.24485035490E+01 -0.13671177411E+02  0.51037802541E+02  0.52893900534E+02  0.10566000000E+00 0.  1.
        994    1    1    2    0    0 -0.26792220145E+01 -0.51684866434E+00  0.20027462608E+01  0.17123345571E+03  0.17120000000E+03 0.  0.
        998    1    1    2    0    0  0.51277255634E+01  0.14188026076E+02  0.14469594475E+04  0.14470726438E+04  0.10000000000E+02 0.  1.
</event>
<event>
 5    1  0.1369527E-008  0.3788456E+03  0.7957747E-01  0.3456200E+00
         13   -1    0    0    0    0  0.00000000000E+00  0.00000000000E+00  0.14999999963E+04  0.15000000000E+04  0.10566000000E+00 0. -1.
        994   -1    0    0    0    0 -0.00000000000E+00 -0.00000000000E+00  0.11368683772E-12  0.17120000000E+03  0.17120000000E+03 0.  0.
         13    1    1    2    0    0 -0.99995041562E+02 -0.60808742490E+02  0.62021972535E+03  0.63116497873E+03  0.10566000000E+00 0. -1.
        994    1    1    2    0    0  0.11708296405E+03  0.67748702286E+02  0.68797916597E+02  0.22878133766E+03  0.17120000000E+03 0.  0.
        998    1    1    2    0    0 -0.17087922486E+02 -0.69399597959E+01  0.81098235433E+03  0.81125368361E+03  0.10000000000E+02 0. -1.
</event>
<event>
 5    1  0.1369527E-008  0.3839270E+03  0.7957747E-01  0.3434236E+00
         13   -1    0    0    0    0  0.00000000000E+00  0.00000000000E+00  0.14999999963E+04  0.15000000000E+04  0.10566000000E+00 0.  1.
        994   -1    0    0    0    0 -0.00000000000E+00 -0.00000000000E+00  0.11368683772E-12  0.17120000000E+03  0.17120000000E+03 0.  0.
         13    1    1    2    0    0 -0.87567819930E+01 -0.10666808150E+02  0.48117181718E+02  0.50057330807E+02  0.10566000000E+00 0.  1.
        994    1    1    2    0    0  0.56044160270E+00 -0.15160280021E+02  0.29236981078E+01  0.17189571314E+03  0.17120000000E+03 0.  0.
        998    1    1    2    0    0  0.81963403903E+01  0.25827088171E+02  0.14489591165E+04  0.14492469561E+04  0.10000000000E+02 0.  1.
</event>
<event>
 5    1  0.1369527E-008  0.3837699E+03  0.7957747E-01  0.3434906E+00
         13   -1    0    0    0    0  0.00000000000E+00  0.00000000000E+00  0.14999999963E+04  0.15000000000E+04  0.10566000000E+00 0.  1.
        994   -1    0    0    0    0 -0.00000000000E+00 -0.00000000000E+00  0.11368683772E-12  0.17120000000E+03  0.17120000000E+03 0.  0.
         13    1    1    2    0    0 -0.12975508635E+01 -0.23347013378E+02  0.10121980557E+03  0.10388564326E+03  0.10566000000E+00 0.  1.
        994    1    1    2    0    0  0.78611268098E+01  0.41672609786E+02  0.82028249857E+01  0.17656480413E+03  0.17120000000E+03 0.  0.
        998    1    1    2    0    0 -0.65635759463E+01 -0.18325596408E+02  0.13905773657E+04  0.13907495526E+04  0.10000000000E+02 0.  1.
</event>
<event>
 5    1  0.1369527E-008  0.3855121E+03  0.7957747E-01  0.3427503E+00
         13   -1    0    0    0    0  0.00000000000E+00  0.00000000000E+00  0.14999999963E+04  0.15000000000E+04  0.10566000000E+00 0.  1.
        994   -1    0    0    0    0 -0.00000000000E+00 -0.00000000000E+00  0.11368683772E-12  0.17120000000E+03  0.17120000000E+03 0.  0.
         13    1    1    2    0    0  0.86169766799E+01 -0.15252124865E+02  0.10494315493E+03  0.10639528434E+03  0.10566000000E+00 0.  1.
        994    1    1    2    0    0 -0.15900426361E+02  0.12645290182E+02  0.27323575857E+01  0.17242283115E+03  0.17120000000E+03 0.  0.
        998    1    1    2    0    0  0.72834496810E+01  0.26068346826E+01  0.13923244838E+04  0.13923818845E+04  0.10000000000E+02 0.  1.
</event>
<event>
 5    1  0.1369527E-008  0.3706315E+03  0.7957747E-01  0.3492994E+00
         13   -1    0    0    0    0  0.00000000000E+00  0.00000000000E+00  0.14999999963E+04  0.15000000000E+04  0.10566000000E+00 0. -1.
        994   -1    0    0    0    0 -0.00000000000E+00 -0.00000000000E+00  0.11368683772E-12  0.17120000000E+03  0.17120000000E+03 0.  0.
         13    1    1    2    0    0  0.19267669778E+02 -0.30771409475E+02  0.52327079352E+02  0.63688752047E+02  0.10566000000E+00 0. -1.
        994    1    1    2    0    0 -0.20899684823E+02  0.30631263923E+02  0.16106392441E+02  0.17590886002E+03  0.17120000000E+03 0.  0.
        998    1    1    2    0    0  0.16320150446E+01  0.14014555195E+00  0.14315665245E+04  0.14316023879E+04  0.10000000000E+02 0. -1.
</event>
<event>
 5    1  0.1369527E-008  0.3719750E+03  0.7957747E-01  0.3486863E+00
         13   -1    0    0    0    0  0.00000000000E+00  0.00000000000E+00  0.14999999963E+04  0.15000000000E+04  0.10566000000E+00 0.  1.
        994   -1    0    0    0    0 -0.00000000000E+00 -0.00000000000E+00  0.11368683772E-12  0.17120000000E+03  0.17120000000E+03 0.  0.
         13    1    1    2    0    0 -0.15024934449E+02 -0.26163818368E+01  0.10505748705E+02  0.18519612010E+02  0.10566000000E+00 0.  1.
        994    1    1    2    0    0  0.80798055892E+01  0.57894293624E+00  0.84657945178E+01  0.17160048983E+03  0.17120000000E+03 0.  0.
        998    1    1    2    0    0  0.69451288593E+01  0.20374389005E+01  0.14810284531E+04  0.14810798982E+04  0.10000000000E+02 0.  1.
</event>
<event>
 5    1  0.1369527E-008  0.3819739E+03  0.7957747E-01  0.3442608E+00
         13   -1    0    0    0    0  0.00000000000E+00  0.00000000000E+00  0.14999999963E+04  0.15000000000E+04  0.10566000000E+00 0. -1.
        994   -1    0    0    0    0 -0.00000000000E+00 -0.00000000000E+00  0.11368683772E-12  0.17120000000E+03  0.17120000000E+03 0.  0.
         13    1    1    2    0    0  0.17684915376E+02  0.48341852688E+02  0.66458506446E+02  0.84062091314E+02  0.10566000000E+00 0. -1.
        994    1    1    2    0    0 -0.20274280448E+02 -0.50370357394E+02  0.28256317871E+02  0.18181330768E+03  0.17120000000E+03 0.  0.
        998    1    1    2    0    0  0.25893650721E+01  0.20285047061E+01  0.14052851720E+04  0.14053246010E+04  0.10000000000E+02 0. -1.
</event>
<event>
 5    1  0.1369527E-008  0.3859848E+03  0.7957747E-01  0.3425506E+00
         13   -1    0    0    0    0  0.00000000000E+00  0.00000000000E+00  0.14999999963E+04  0.15000000000E+04  0.10566000000E+00 0. -1.
        994   -1    0    0    0    0 -0.00000000000E+00 -0.00000000000E+00  0.11368683772E-12  0.17120000000E+03  0.17120000000E+03 0.  0.
         13    1    1    2    0    0 -0.10155436763E+02  0.67656389159E+01  0.68958509710E+02  0.70029950673E+02  0.10566000000E+00 0. -1.
        994    1    1    2    0    0 -0.21272662936E+01 -0.76747235808E+01  0.13499149207E+01  0.17139045748E+03  0.17120000000E+03 0.  0.
        998    1    1    2    0    0  0.12282703057E+02  0.90908466488E+00  0.14296915716E+04  0.14297795918E+04  0.10000000000E+02 0. -1.
</event>
<event>
 5    1  0.1369527E-008  0.3850826E+03  0.7957747E-01  0.3429322E+00
         13   -1    0    0    0    0  0.00000000000E+00  0.00000000000E+00  0.14999999963E+04  0.15000000000E+04  0.10566000000E+00 0. -1.
        994   -1    0    0    0    0 -0.00000000000E+00 -0.00000000000E+00  0.11368683772E-12  0.17120000000E+03  0.17120000000E+03 0.  0.
         13    1    1    2    0    0 -0.77276518420E+01  0.68614116781E+01  0.35028531874E+02  0.36521292180E+02  0.10566000000E+00 0. -1.
        994    1    1    2    0    0 -0.19966185805E+01  0.16624061396E+01  0.16113511877E+01  0.17122729494E+03  0.17120000000E+03 0.  0.
        998    1    1    2    0    0  0.97242704225E+01 -0.85238178177E+01  0.14633601132E+04  0.14634514129E+04  0.10000000000E+02 0. -1.
</event>
<event>
 5    1  0.1369527E-008  0.3797419E+03  0.7957747E-01  0.3452283E+00
         13   -1    0    0    0    0  0.00000000000E+00  0.00000000000E+00  0.14999999963E+04  0.15000000000E+04  0.10566000000E+00 0. -1.
        994   -1    0    0    0    0 -0.00000000000E+00 -0.00000000000E+00  0.11368683772E-12  0.17120000000E+03  0.17120000000E+03 0.  0.
         13    1    1    2    0    0  0.10798836979E+02  0.16901452324E+02  0.44756885874E+02  0.49045529540E+02  0.10566000000E+00 0. -1.
        994    1    1    2    0    0 -0.70765294329E+01 -0.17102638054E+02  0.54105092922E+01  0.17228259084E+03  0.17120000000E+03 0.  0.
        998    1    1    2    0    0 -0.37223075463E+01  0.20118573024E+00  0.14498326011E+04  0.14498718796E+04  0.10000000000E+02 0. -1.
</event>
<event>
 5    1  0.1369527E-008  0.3815782E+03  0.7957747E-01  0.3444315E+00
         13   -1    0    0    0    0  0.00000000000E+00  0.00000000000E+00  0.14999999963E+04  0.15000000000E+04  0.10566000000E+00 0. -1.
        994   -1    0    0    0    0 -0.00000000000E+00 -0.00000000000E+00  0.11368683772E-12  0.17120000000E+03  0.17120000000E+03 0.  0.
         13    1    1    2    0    0  0.84184787266E+01  0.25034498219E+02  0.11394943981E+03  0.11697043593E+03  0.10566000000E+00 0. -1.
        994    1    1    2    0    0  0.24240048444E+02 -0.91344336794E+01  0.55733234426E+01  0.17323833225E+03  0.17120000000E+03 0.  0.
        998    1    1    2    0    0 -0.32658527170E+02 -0.15900064539E+02  0.13804772330E+04  0.13809912318E+04  0.10000000000E+02 0. -1.
</event>
<event>
 5    1  0.1369527E-008  0.3784084E+03  0.7957747E-01  0.3458118E+00
         13   -1    0    0    0    0  0.00000000000E+00  0.00000000000E+00  0.14999999963E+04  0.15000000000E+04  0.10566000000E+00 0. -1.
        994   -1    0    0    0    0 -0.00000000000E+00 -0.00000000000E+00  0.11368683772E-12  0.17120000000E+03  0.17120000000E+03 0.  0.
         13    1    1    2    0    0 -0.84568570965E+01  0.21169968281E+02  0.52429958792E+02  0.57171651472E+02  0.10566000000E+00 0. -1.
        994    1    1    2    0    0  0.75837586216E+01 -0.30431119396E+01  0.51631681065E+01  0.17147265738E+03  0.17120000000E+03 0.  0.
        998    1    1    2    0    0  0.87309847490E+00 -0.18126856342E+02  0.14424068694E+04  0.14425556911E+04  0.10000000000E+02 0. -1.
</event>
<event>
 5    1  0.1369527E-008  0.3799187E+03  0.7957747E-01  0.3451513E+00
         13   -1    0    0    0    0  0.00000000000E+00  0.00000000000E+00  0.14999999963E+04  0.15000000000E+04  0.10566000000E+00 0.  1.
        994   -1    0    0    0    0 -0.00000000000E+00 -0.00000000000E+00  0.11368683772E-12  0.17120000000E+03  0.17120000000E+03 0.  0.
         13    1    1    2    0    0 -0.39057712406E+02  0.77707650414E+01  0.19428348098E+03  0.19832289790E+03  0.10566000000E+00 0.  1.
        994    1    1    2    0    0  0.25018883295E+02  0.23164032020E+02  0.80712058660E+01  0.17474868030E+03  0.17120000000E+03 0.  0.
        998    1    1    2    0    0  0.14038829111E+02 -0.30934797061E+02  0.12976453094E+04  0.12981284218E+04  0.10000000000E+02 0.  1.
</event>
<event>
 5    1  0.1369527E-008  0.4025302E+03  0.7957747E-01  0.3358565E+00
         13   -1    0    0    0    0  0.00000000000E+00  0.00000000000E+00  0.14999999963E+04  0.15000000000E+04  0.10566000000E+00 0. -1.
        994   -1    0    0    0    0 -0.00000000000E+00 -0.00000000000E+00  0.11368683772E-12  0.17120000000E+03  0.17120000000E+03 0.  0.
         13    1    1    2    0    0  0.42760272173E+02 -0.98749863303E+02  0.23737237934E+03  0.26062546693E+03  0.10566000000E+00 0. -1.
        994    1    1    2    0    0 -0.87583775491E+01  0.10843392858E+02  0.30070899368E+02  0.17437886149E+03  0.17120000000E+03 0.  0.
        998    1    1    2    0    0 -0.34001894624E+02  0.87906470446E+02  0.12325567176E+04  0.12361956716E+04  0.10000000000E+02 0. -1.
</event>
<event>
 5    1  0.1369527E-008  0.3783542E+03  0.7957747E-01  0.3458356E+00
         13   -1    0    0    0    0  0.00000000000E+00  0.00000000000E+00  0.14999999963E+04  0.15000000000E+04  0.10566000000E+00 0. -1.
        994   -1    0    0    0    0 -0.00000000000E+00 -0.00000000000E+00  0.11368683772E-12  0.17120000000E+03  0.17120000000E+03 0.  0.
         13    1    1    2    0    0 -0.53830391686E+01  0.20435579493E+02  0.42252527441E+02  0.47242748217E+02  0.10566000000E+00 0. -1.
        994    1    1    2    0    0  0.12653123863E+02 -0.16852881917E+02  0.64604467769E+01  0.17261314708E+03  0.17120000000E+03 0.  0.
        998    1    1    2    0    0 -0.72700846946E+01 -0.35826975762E+01  0.14512870221E+04  0.14513441047E+04  0.10000000000E+02 0. -1.
</event>
<event>
 5    1  0.1369527E-008  0.3074725E+03  0.7957747E-01  0.3844075E+00
         13   -1    0    0    0    0  0.00000000000E+00  0.00000000000E+00  0.14999999963E+04  0.15000000000E+04  0.10566000000E+00 0. -1.
        994   -1    0    0    0    0 -0.00000000000E+00 -0.00000000000E+00  0.11368683772E-12  0.17120000000E+03  0.17120000000E+03 0.  0.
         13    1    1    2    0    0  0.10127950918E+03  0.10226162072E+03  0.84212499305E+03  0.85433570283E+03  0.10566000000E+00 0. -1.
        994    1    1    2    0    0 -0.46746113837E+02 -0.59689552897E+02  0.35495078510E+02  0.19057120056E+03  0.17120000000E+03 0.  0.
        998    1    1    2    0    0 -0.54533395345E+02 -0.42572067822E+02  0.62237992472E+03  0.62629309661E+03  0.10000000000E+02 0. -1.
</event>
<event>
 5    1  0.1369527E-008  0.3801345E+03  0.7957747E-01  0.3450573E+00
         13   -1    0    0    0    0  0.00000000000E+00  0.00000000000E+00  0.14999999963E+04  0.15000000000E+04  0.10566000000E+00 0.  1.
        994   -1    0    0    0    0 -0.00000000000E+00 -0.00000000000E+00  0.11368683772E-12  0.17120000000E+03  0.17120000000E+03 0.  0.
         13    1    1    2    0    0  0.88311953145E+01 -0.19124151631E+02  0.51981191804E+02  0.56087241435E+02  0.10566000000E+00 0.  1.
        994    1    1    2    0    0  0.12387863341E+01  0.21644955823E+02  0.56374374752E+01  0.17265937393E+03  0.17120000000E+03 0.  0.
        998    1    1    2    0    0 -0.10069981649E+02 -0.25208041917E+01  0.14423813670E+04  0.14424533846E+04  0.10000000000E+02 0.  1.
</event>
<event>
 5    1  0.1369527E-008  0.3739884E+03  0.7957747E-01  0.3477759E+00
         13   -1    0    0    0    0  0.00000000000E+00  0.00000000000E+00  0.14999999963E+04  0.15000000000E+04  0.10566000000E+00 0.  1.
        994   -1    0    0    0    0 -0.00000000000E+00 -0.00000000000E+00  0.11368683772E-12  0.17120000000E+03  0.17120000000E+03 0.  0.
         13    1    1    2    0    0  0.24867428195E+02 -0.29697207384E+02  0.10235125310E+03  0.10943538407E+03  0.10566000000E+00 0.  1.
        994    1    1    2    0    0 -0.11216294938E+02  0.19491156773E+02  0.89259157271E+01  0.17290119270E+03  0.17120000000E+03 0.  0.
        998    1    1    2    0    0 -0.13651133257E+02  0.10206050611E+02  0.13887228275E+04  0.13888634232E+04  0.10000000000E+02 0.  1.
</event>
<event>
 5    1  0.1369527E-008  0.3848747E+03  0.7957747E-01  0.3430204E+00
         13   -1    0    0    0    0  0.00000000000E+00  0.00000000000E+00  0.14999999963E+04  0.15000000000E+04  0.10566000000E+00 0.  1.
        994   -1    0    0    0    0 -0.00000000000E+00 -0.00000000000E+00  0.11368683772E-12  0.17120000000E+03  0.17120000000E+03 0.  0.
         13    1    1    2    0    0 -0.20688206171E+01  0.10099521751E+02  0.28960211581E+02  0.30740614457E+02  0.10566000000E+00 0.  1.
        994    1    1    2    0    0  0.10511719694E+02 -0.22355786477E+02  0.37027432626E+01  0.17301279649E+03  0.17120000000E+03 0.  0.
        998    1    1    2    0    0 -0.84428990771E+01  0.12256264725E+02  0.14673370414E+04  0.14674465891E+04  0.10000000000E+02 0.  1.
</event>
<event>
 5    1  0.1369527E-008  0.3847148E+03  0.7957747E-01  0.3430883E+00
         13   -1    0    0    0    0  0.00000000000E+00  0.00000000000E+00  0.14999999963E+04  0.15000000000E+04  0.10566000000E+00 0.  1.
        994   -1    0    0    0    0 -0.00000000000E+00 -0.00000000000E+00  0.11368683772E-12  0.17120000000E+03  0.17120000000E+03 0.  0.
         13    1    1    2    0    0 -0.11639841260E+02  0.17678097776E+02  0.12368383071E+03  0.12548187992E+03  0.10566000000E+00 0.  1.
        994    1    1    2    0    0  0.95784108740E+01 -0.12452752895E+02  0.25846877989E+01  0.17193876125E+03  0.17120000000E+03 0.  0.
        998    1    1    2    0    0  0.20614303859E+01 -0.52253448815E+01  0.13737314778E+04  0.13737793588E+04  0.10000000000E+02 0.  1.
</event>
<event>
 5    1  0.1369527E-008  0.3779541E+03  0.7957747E-01  0.3460116E+00
         13   -1    0    0    0    0  0.00000000000E+00  0.00000000000E+00  0.14999999963E+04  0.15000000000E+04  0.10566000000E+00 0.  1.
        994   -1    0    0    0    0 -0.00000000000E+00 -0.00000000000E+00  0.11368683772E-12  0.17120000000E+03  0.17120000000E+03 0.  0.
         13    1    1    2    0    0 -0.19766620143E+01 -0.10527335418E+02  0.87903415480E+01  0.13856884653E+02  0.10566000000E+00 0.  1.
        994    1    1    2    0    0  0.11227996689E+01  0.64188432046E+01  0.53124267744E+01  0.17140631291E+03  0.17120000000E+03 0.  0.
        998    1    1    2    0    0  0.85386234533E+00  0.41084922130E+01  0.14858972280E+04  0.14859368024E+04  0.10000000000E+02 0.  1.
</event>
<event>
 5    1  0.1369527E-008  0.3684729E+03  0.7957747E-01  0.3502939E+00
         13   -1    0    0    0    0  0.00000000000E+00  0.00000000000E+00  0.14999999963E+04  0.15000000000E+04  0.10566000000E+00 0.  1.
        994   -1    0    0    0    0 -0.00000000000E+00 -0.00000000000E+00  0.11368683772E-12  0.17120000000E+03  0.17120000000E+03 0.  0.
         13    1    1    2    0    0  0.12493559245E+03  0.89453253669E+01  0.57136766474E+03  0.58493584313E+03  0.10566000000E+00 0.  1.
        994    1    1    2    0    0 -0.10533022313E+03 -0.63362121271E+01  0.49838013898E+02  0.20719042236E+03  0.17120000000E+03 0.  0.
        998    1    1    2    0    0 -0.19605369320E+02 -0.26091132398E+01  0.87879431764E+03  0.87907373451E+03  0.10000000000E+02 0. -1.
</event>
<event>
 5    1  0.1369527E-008  0.3718206E+03  0.7957747E-01  0.3487565E+00
         13   -1    0    0    0    0  0.00000000000E+00  0.00000000000E+00  0.14999999963E+04  0.15000000000E+04  0.10566000000E+00 0. -1.
        994   -1    0    0    0    0 -0.00000000000E+00 -0.00000000000E+00  0.11368683772E-12  0.17120000000E+03  0.17120000000E+03 0.  0.
         13    1    1    2    0    0  0.25686813071E+02  0.13626993572E+02  0.45757381175E+02  0.54214909532E+02  0.10566000000E+00 0. -1.
        994    1    1    2    0    0 -0.32596397042E+02 -0.83877128364E+01  0.12223170833E+02  0.17490490197E+03  0.17120000000E+03 0.  0.
        998    1    1    2    0    0  0.69095839707E+01 -0.52392807356E+01  0.14420194443E+04  0.14420801885E+04  0.10000000000E+02 0. -1.
</event>
<event>
 5    1  0.1369527E-008  0.3807991E+03  0.7957747E-01  0.3447687E+00
         13   -1    0    0    0    0  0.00000000000E+00  0.00000000000E+00  0.14999999963E+04  0.15000000000E+04  0.10566000000E+00 0.  1.
        994   -1    0    0    0    0 -0.00000000000E+00 -0.00000000000E+00  0.11368683772E-12  0.17120000000E+03  0.17120000000E+03 0.  0.
         13    1    1    2    0    0  0.15045124506E+02  0.32030578529E+02  0.14903810019E+03  0.15318185338E+03  0.10566000000E+00 0.  1.
        994    1    1    2    0    0 -0.25936497473E+02 -0.29912408767E+02  0.89741057147E+01  0.17594723264E+03  0.17120000000E+03 0.  0.
        998    1    1    2    0    0  0.10891372967E+02 -0.21181697628E+01  0.13419877904E+04  0.13420709140E+04  0.10000000000E+02 0.  1.
</event>
<event>
 5    1  0.1369527E-008  0.3747701E+03  0.7957747E-01  0.3474252E+00
         13   -1    0    0    0    0  0.00000000000E+00  0.00000000000E+00  0.14999999963E+04  0.15000000000E+04  0.10566000000E+00 0.  1.
        994   -1    0    0    0    0 -0.00000000000E+00 -0.00000000000E+00  0.11368683772E-12  0.17120000000E+03  0.17120000000E+03 0.  0.
         13    1    1    2    0    0  0.22173881166E+02  0.83405211926E+01  0.39187817638E+02  0.45792373983E+02  0.10566000000E+00 0.  1.
        994    1    1    2    0    0 -0.11342173016E+02  0.62757460062E+00  0.72359349458E+01  0.17172896521E+03  0.17120000000E+03 0.  0.
        998    1    1    2    0    0 -0.10831708150E+02 -0.89680957932E+01  0.14535762437E+04  0.14536786608E+04  0.10000000000E+02 0.  1.
</event>
<event>
 5    1  0.1369527E-008  0.3812643E+03  0.7957747E-01  0.3445672E+00
         13   -1    0    0    0    0  0.00000000000E+00  0.00000000000E+00  0.14999999963E+04  0.15000000000E+04  0.10566000000E+00 0. -1.
        994   -1    0    0    0    0 -0.00000000000E+00 -0.00000000000E+00  0.11368683772E-12  0.17120000000E+03  0.17120000000E+03 0.  0.
         13    1    1    2    0    0  0.45069687661E+01 -0.10188472829E+02  0.16869812369E+02  0.20216811802E+02  0.10566000000E+00 0. -1.
        994    1    1    2    0    0  0.11393519456E+01 -0.50113338226E+01  0.35842530432E+01  0.17131461835E+03  0.17120000000E+03 0.  0.
        998    1    1    2    0    0 -0.56463207117E+01  0.15199806652E+02  0.14795459309E+04  0.14796685699E+04  0.10000000000E+02 0. -1.
</event>
<event>
 5    1  0.1369527E-008  0.3842352E+03  0.7957747E-01  0.3432922E+00
         13   -1    0    0    0    0  0.00000000000E+00  0.00000000000E+00  0.14999999963E+04  0.15000000000E+04  0.10566000000E+00 0. -1.
        994   -1    0    0    0    0 -0.00000000000E+00 -0.00000000000E+00  0.11368683772E-12  0.17120000000E+03  0.17120000000E+03 0.  0.
         13    1    1    2    0    0 -0.10510325905E+02 -0.20516110420E+01  0.28680227923E+02  0.30614419743E+02  0.10566000000E+00 0. -1.
        994    1    1    2    0    0  0.48944262362E+00  0.37696708414E+01  0.20579570849E+01  0.17125456245E+03  0.17120000000E+03 0.  0.
        998    1    1    2    0    0  0.10020883281E+02 -0.17180597995E+01  0.14692618113E+04  0.14693310178E+04  0.10000000000E+02 0. -1.
</event>
<event>
 5    1  0.1369527E-008  0.3704457E+03  0.7957747E-01  0.3493845E+00
         13   -1    0    0    0    0  0.00000000000E+00  0.00000000000E+00  0.14999999963E+04  0.15000000000E+04  0.10566000000E+00 0.  1.
        994   -1    0    0    0    0 -0.00000000000E+00 -0.00000000000E+00  0.11368683772E-12  0.17120000000E+03  0.17120000000E+03 0.  0.
         13    1    1    2    0    0 -0.93695689888E+02  0.95293840919E+01  0.38277015660E+03  0.39418611773E+03  0.10566000000E+00 0.  1.
        994    1    1    2    0    0  0.93264146465E+02  0.35365321816E+02  0.44211166804E+02  0.20300978861E+03  0.17120000000E+03 0.  0.
        998    1    1    2    0    0  0.43154342346E+00 -0.44894705908E+02  0.10730186729E+04  0.10740040937E+04  0.10000000000E+02 0.  1.
</event>
<event>
 5    1  0.1369527E-008  0.3841324E+03  0.7957747E-01  0.3433360E+00
         13   -1    0    0    0    0  0.00000000000E+00  0.00000000000E+00  0.14999999963E+04  0.15000000000E+04  0.10566000000E+00 0.  1.
        994   -1    0    0    0    0 -0.00000000000E+00 -0.00000000000E+00  0.11368683772E-12  0.17120000000E+03  0.17120000000E+03 0.  0.
         13    1    1    2    0    0 -0.91199242929E+01  0.77745927956E+01  0.34190897818E+02  0.36230456385E+02  0.10566000000E+00 0.  1.
        994    1    1    2    0    0  0.75800303381E+01 -0.50428233751E+01  0.23348835623E+01  0.17145780416E+03  0.17120000000E+03 0.  0.
        998    1    1    2    0    0  0.15398939547E+01 -0.27317694206E+01  0.14634742149E+04  0.14635117395E+04  0.10000000000E+02 0.  1.
</event>
<event>
 5    1  0.1369527E-008  0.3777758E+03  0.7957747E-01  0.3460901E+00
         13   -1    0    0    0    0  0.00000000000E+00  0.00000000000E+00  0.14999999963E+04  0.15000000000E+04  0.10566000000E+00 0.  1.
        994   -1    0    0    0    0 -0.00000000000E+00 -0.00000000000E+00  0.11368683772E-12  0.17120000000E+03  0.17120000000E+03 0.  0.
         13    1    1    2    0    0 -0.18308534666E+02  0.40652470517E+02  0.16212606890E+03  0.16814487557E+03  0.10566000000E+00 0.  1.
        994    1    1    2    0    0  0.20963474312E+02 -0.46145258324E+02  0.13960513564E+02  0.17908988821E+03  0.17120000000E+03 0.  0.
        998    1    1    2    0    0 -0.26549396462E+01  0.54927878070E+01  0.13239134138E+04  0.13239652362E+04  0.10000000000E+02 0.  1.
</event>
<event>
 5    1  0.1369527E-008  0.3818668E+03  0.7957747E-01  0.3443070E+00
         13   -1    0    0    0    0  0.00000000000E+00  0.00000000000E+00  0.14999999963E+04  0.15000000000E+04  0.10566000000E+00 0.  1.
        994   -1    0    0    0    0 -0.00000000000E+00 -0.00000000000E+00  0.11368683772E-12  0.17120000000E+03  0.17120000000E+03 0.  0.
         13    1    1    2    0    0 -0.77057087574E+00 -0.10910746392E+02 -0.46943586324E+01  0.11903206850E+02  0.10566000000E+00 0.  1.
        994    1    1    2    0    0  0.46236441353E+01  0.23031467113E+02  0.19372280223E+02  0.17388660616E+03  0.17120000000E+03 0.  0.
        998    1    1    2    0    0 -0.38530732596E+01 -0.12120720721E+02  0.14853220747E+04  0.14854101870E+04  0.10000000000E+02 0.  1.
</event>
<event>
 5    1  0.1369527E-008  0.3830814E+03  0.7957747E-01  0.3437850E+00
         13   -1    0    0    0    0  0.00000000000E+00  0.00000000000E+00  0.14999999963E+04  0.15000000000E+04  0.10566000000E+00 0. -1.
        994   -1    0    0    0    0 -0.00000000000E+00 -0.00000000000E+00  0.11368683772E-12  0.17120000000E+03  0.17120000000E+03 0.  0.
         13    1    1    2    0    0  0.59640102443E+01  0.20952413560E+02  0.87204821852E+02  0.89884732688E+02  0.10566000000E+00 0. -1.
        994    1    1    2    0    0 -0.28021023332E+01 -0.21034848032E+02  0.40772913595E+01  0.17255834061E+03  0.17120000000E+03 0.  0.
        998    1    1    2    0    0 -0.31619079111E+01  0.82434471818E-01  0.14087178831E+04  0.14087569267E+04  0.10000000000E+02 0. -1.
</event>
<event>
 5    1  0.1369527E-008  0.3847288E+03  0.7957747E-01  0.3430823E+00
         13   -1    0    0    0    0  0.00000000000E+00  0.00000000000E+00  0.14999999963E+04  0.15000000000E+04  0.10566000000E+00 0. -1.
        994   -1    0    0    0    0 -0.00000000000E+00 -0.00000000000E+00  0.11368683772E-12  0.17120000000E+03  0.17120000000E+03 0.  0.
         13    1    1    2    0    0 -0.11901193891E+01  0.11315765623E+02  0.38362764899E+02  0.40014695183E+02  0.10566000000E+00 0. -1.
        994    1    1    2    0    0 -0.15692025820E+01  0.30821692267E+01  0.18042198016E+01  0.17124443749E+03  0.17120000000E+03 0.  0.
        998    1    1    2    0    0  0.27593219710E+01 -0.14397934850E+02  0.14598330116E+04  0.14599408673E+04  0.10000000000E+02 0. -1.
</event>
<event>
 5    1  0.1369527E-008  0.3851293E+03  0.7957747E-01  0.3429124E+00
         13   -1    0    0    0    0  0.00000000000E+00  0.00000000000E+00  0.14999999963E+04  0.15000000000E+04  0.10566000000E+00 0. -1.
        994   -1    0    0    0    0 -0.00000000000E+00 -0.00000000000E+00  0.11368683772E-12  0.17120000000E+03  0.17120000000E+03 0.  0.
         13    1    1    2    0    0  0.81865995995E+01  0.57445349124E+01  0.31949647020E+02  0.33478518532E+02  0.10566000000E+00 0. -1.
        994    1    1    2    0    0 -0.41578318731E+01 -0.38818504313E+01  0.16723179009E+01  0.17130263564E+03  0.17120000000E+03 0.  0.
        998    1    1    2    0    0 -0.40287677264E+01 -0.18626844811E+01  0.14663780314E+04  0.14664188458E+04  0.10000000000E+02 0. -1.
</event>
<event>
 5    1  0.1369527E-008  0.3781555E+03  0.7957747E-01  0.3459229E+00
         13   -1    0    0    0    0  0.00000000000E+00  0.00000000000E+00  0.14999999963E+04  0.15000000000E+04  0.10566000000E+00 0.  1.
        994   -1    0    0    0    0 -0.00000000000E+00 -0.00000000000E+00  0.11368683772E-12  0.17120000000E+03  0.17120000000E+03 0.  0.
         13    1    1    2    0    0 -0.25914050383E+02 -0.11875864976E+02  0.75639808806E+02  0.80832951303E+02  0.10566000000E+00 0.  1.
        994    1    1    2    0    0  0.27938358285E+02  0.21626373681E+01  0.77126935524E+01  0.17364951628E+03  0.17120000000E+03 0.  0.
        998    1    1    2    0    0 -0.20243079029E+01  0.97132276076E+01  0.14166474939E+04  0.14167175324E+04  0.10000000000E+02 0.  1.
</event>
<event>
 5    1  0.1369527E-008  0.3825993E+03  0.7957747E-01  0.3439918E+00
         13   -1    0    0    0    0  0.00000000000E+00  0.00000000000E+00  0.14999999963E+04  0.15000000000E+04  0.10566000000E+00 0.  1.
        994   -1    0    0    0    0 -0.00000000000E+00 -0.00000000000E+00  0.11368683772E-12  0.17120000000E+03  0.17120000000E+03 0.  0.
         13    1    1    2    0    0  0.16256700151E+01 -0.21692196691E+02  0.78012254234E+02  0.80988376789E+02  0.10566000000E+00 0.  1.
        994    1    1    2    0    0  0.21116293174E+01  0.25186438843E+02  0.49469755723E+01  0.17312633609E+03  0.17120000000E+03 0.  0.
        998    1    1    2    0    0 -0.37372993325E+01 -0.34942421522E+01  0.14170407665E+04  0.14170852871E+04  0.10000000000E+02 0.  1.
</event>
<event>
 5    1  0.1369527E-008  0.3823202E+03  0.7957747E-01  0.3441118E+00
         13   -1    0    0    0    0  0.00000000000E+00  0.00000000000E+00  0.14999999963E+04  0.15000000000E+04  0.10566000000E+00 0. -1.
        994   -1    0    0    0    0 -0.00000000000E+00 -0.00000000000E+00  0.11368683772E-12  0.17120000000E+03  0.17120000000E+03 0.  0.
         13    1    1    2    0    0  0.11045843768E+02 -0.15109021653E+02  0.55946987429E+02  0.58994658794E+02  0.10566000000E+00 0. -1.
        994    1    1    2    0    0 -0.19045560264E+02  0.11497221966E+02  0.46100961348E+01  0.17270093360E+03  0.17120000000E+03 0.  0.
        998    1    1    2    0    0  0.79997164960E+01  0.36117996874E+01  0.14394429127E+04  0.14395044076E+04  0.10000000000E+02 0. -1.
</event>
<event>
 5    1  0.1369527E-008  0.3701389E+03  0.7957747E-01  0.3495253E+00
         13   -1    0    0    0    0  0.00000000000E+00  0.00000000000E+00  0.14999999963E+04  0.15000000000E+04  0.10566000000E+00 0.  1.
        994   -1    0    0    0    0 -0.00000000000E+00 -0.00000000000E+00  0.11368683772E-12  0.17120000000E+03  0.17120000000E+03 0.  0.
         13    1    1    2    0    0  0.30537654364E+02 -0.40539715074E+02  0.12992257968E+03  0.13948442460E+03  0.10566000000E+00 0.  1.
        994    1    1    2    0    0 -0.30452869542E+02  0.31384789917E+02  0.15834788848E+02  0.17740508121E+03  0.17120000000E+03 0.  0.
        998    1    1    2    0    0 -0.84784821355E-01  0.91549251574E+01  0.13542426278E+04  0.13543104942E+04  0.10000000000E+02 0.  1.
</event>
<event>
 5    1  0.1369527E-008  0.3823221E+03  0.7957747E-01  0.3441109E+00
         13   -1    0    0    0    0  0.00000000000E+00  0.00000000000E+00  0.14999999963E+04  0.15000000000E+04  0.10566000000E+00 0.  1.
        994   -1    0    0    0    0 -0.00000000000E+00 -0.00000000000E+00  0.11368683772E-12  0.17120000000E+03  0.17120000000E+03 0.  0.
         13    1    1    2    0    0  0.10049121210E+02  0.56324845110E+00  0.15396932263E+02  0.18395074696E+02  0.10566000000E+00 0.  1.
        994    1    1    2    0    0 -0.18138739570E+02 -0.60121550545E+01  0.41778669419E+01  0.17231382549E+03  0.17120000000E+03 0.  0.
        998    1    1    2    0    0  0.80896183599E+01  0.54489066034E+01  0.14804251971E+04  0.14804910998E+04  0.10000000000E+02 0.  1.
</event>
<event>
 5    1  0.1369527E-008  0.3768186E+03  0.7957747E-01  0.3465129E+00
         13   -1    0    0    0    0  0.00000000000E+00  0.00000000000E+00  0.14999999963E+04  0.15000000000E+04  0.10566000000E+00 0.  1.
        994   -1    0    0    0    0 -0.00000000000E+00 -0.00000000000E+00  0.11368683772E-12  0.17120000000E+03  0.17120000000E+03 0.  0.
         13    1    1    2    0    0  0.27064767973E+02  0.15799786238E+02  0.80310080838E+02  0.86208208187E+02  0.10566000000E+00 0.  1.
        994    1    1    2    0    0 -0.27033404582E+02 -0.10547842239E+02  0.85979437391E+01  0.17385461333E+03  0.17120000000E+03 0.  0.
        998    1    1    2    0    0 -0.31363391199E-01 -0.52519439988E+01  0.14110919717E+04  0.14111371785E+04  0.10000000000E+02 0.  1.
</event>
<event>
 5    1  0.1510803E-008  0.3861761E+03  0.7957747E-01  0.3424700E+00
         13   -1    0    0    0    0  0.00000000000E+00  0.00000000000E+00  0.14999999963E+04  0.15000000000E+04  0.10566000000E+00 0. -1.
        994   -1    0    0    0    0 -0.00000000000E+00 -0.00000000000E+00  0.11368683772E-12  0.17120000000E+03  0.17120000000E+03 0.  0.
         13    1    1    2    0    0  0.80123074491E+01  0.86232506692E+01  0.63957235413E+02  0.65031505045E+02  0.10566000000E+00 0. -1.
        994    1    1    2    0    0 -0.99574723667E+01 -0.10015698289E+02  0.17011052983E+01  0.17178998582E+03  0.17120000000E+03 0.  0.
        998    1    1    2    0    0  0.19451649176E+01  0.13924476201E+01  0.14343416556E+04  0.14343785091E+04  0.10000000000E+02 0. -1.
</event>
<event>
 5    1  0.1369527E-008  0.3836151E+03  0.7957747E-01  0.3435567E+00
         13   -1    0    0    0    0  0.00000000000E+00  0.00000000000E+00  0.14999999963E+04  0.15000000000E+04  0.10566000000E+00 0.  1.
        994   -1    0    0    0    0 -0.00000000000E+00 -0.00000000000E+00  0.11368683772E-12  0.17120000000E+03  0.17120000000E+03 0.  0.
         13    1    1    2    0    0  0.11658783716E+02 -0.36743175066E+01  0.32042171583E+02  0.34294894236E+02  0.10566000000E+00 0.  1.
        994    1    1    2    0    0 -0.65923153367E+01 -0.71551445754E+01  0.26320357378E+01  0.17149642074E+03  0.17120000000E+03 0.  0.
        998    1    1    2    0    0 -0.50664683792E+01  0.10829462082E+02  0.14653257890E+04  0.14654086850E+04  0.10000000000E+02 0.  1.
</event>
<event>
 5    1  0.1369527E-008  0.4292315E+03  0.7957747E-01  0.3261324E+00
         13   -1    0    0    0    0  0.00000000000E+00  0.00000000000E+00  0.14999999963E+04  0.15000000000E+04  0.10566000000E+00 0.  1.
        994   -1    0    0    0    0 -0.00000000000E+00 -0.00000000000E+00  0.11368683772E-12  0.17120000000E+03  0.17120000000E+03 0.  0.
         13    1    1    2    0    0 -0.90302640975E+02  0.32819536219E+02  0.80569352113E+02  0.12539186811E+03  0.10566000000E+00 0.  1.
        994    1    1    2    0    0  0.84961114290E+02 -0.50835196392E+02  0.91848732615E+02  0.21805558424E+03  0.17120000000E+03 0.  0.
        998    1    1    2    0    0  0.53415266841E+01  0.18015660172E+02  0.13275819116E+04  0.13277525477E+04  0.10000000000E+02 0.  1.
</event>
<event>
 5    1  0.1369527E-008  0.3797566E+03  0.7957747E-01  0.3452219E+00
         13   -1    0    0    0    0  0.00000000000E+00  0.00000000000E+00  0.14999999963E+04  0.15000000000E+04  0.10566000000E+00 0.  1.
        994   -1    0    0    0    0 -0.00000000000E+00 -0.00000000000E+00  0.11368683772E-12  0.17120000000E+03  0.17120000000E+03 0.  0.
         13    1    1    2    0    0 -0.20841820098E+02  0.68761694122E+02  0.17394998118E+03  0.18820509865E+03  0.10566000000E+00 0.  1.
        994    1    1    2    0    0  0.80428415973E+01 -0.13508748605E+02  0.17089037853E+02  0.17276761503E+03  0.17120000000E+03 0.  0.
        998    1    1    2    0    0  0.12798978500E+02 -0.55252945518E+02  0.13089609772E+04  0.13102272863E+04  0.10000000000E+02 0.  1.
</event>
<event>
 5    1  0.1369527E-008  0.3851963E+03  0.7957747E-01  0.3428840E+00
         13   -1    0    0    0    0  0.00000000000E+00  0.00000000000E+00  0.14999999963E+04  0.15000000000E+04  0.10566000000E+00 0. -1.
        994   -1    0    0    0    0 -0.00000000000E+00 -0.00000000000E+00  0.11368683772E-12  0.17120000000E+03  0.17120000000E+03 0.  0.
         13    1    1    2    0    0 -0.39372753497E+01  0.12842064670E+02  0.62984130540E+02  0.64400563864E+02  0.10566000000E+00 0. -1.
        994    1    1    2    0    0 -0.31344226659E+01  0.34134462312E+00  0.15654025820E+01  0.17123618662E+03  0.17120000000E+03 0.  0.
        998    1    1    2    0    0  0.70716980155E+01 -0.13183409293E+02  0.14354504632E+04  0.14355632495E+04  0.10000000000E+02 0. -1.
</event>
<event>
 5    1  0.1369527E-008  0.3851346E+03  0.7957747E-01  0.3429102E+00
         13   -1    0    0    0    0  0.00000000000E+00  0.00000000000E+00  0.14999999963E+04  0.15000000000E+04  0.10566000000E+00 0.  1.
        994   -1    0    0    0    0 -0.00000000000E+00 -0.00000000000E+00  0.11368683772E-12  0.17120000000E+03  0.17120000000E+03 0.  0.
         13    1    1    2    0    0 -0.10746547386E+02  0.84759346111E+01  0.56651195058E+02  0.58281204635E+02  0.10566000000E+00 0.  1.
        994    1    1    2    0    0  0.20316148130E+02 -0.44732281975E+01  0.29871957627E+01  0.17248512685E+03  0.17120000000E+03 0.  0.
        998    1    1    2    0    0 -0.95696007435E+01 -0.40027064136E+01  0.14403616055E+04  0.14404336685E+04  0.10000000000E+02 0.  1.
</event>
<event>
 5    1  0.1369527E-008  0.3778936E+03  0.7957747E-01  0.3460382E+00
         13   -1    0    0    0    0  0.00000000000E+00  0.00000000000E+00  0.14999999963E+04  0.15000000000E+04  0.10566000000E+00 0.  1.
        994   -1    0    0    0    0 -0.00000000000E+00 -0.00000000000E+00  0.11368683772E-12  0.17120000000E+03  0.17120000000E+03 0.  0.
         13    1    1    2    0    0  0.15933799555E+02 -0.12935158674E+02  0.37279407131E+02  0.42555489167E+02  0.10566000000E+00 0.  1.
        994    1    1    2    0    0 -0.19932923183E+02  0.12900921166E+02  0.71003427613E+01  0.17298442144E+03  0.17120000000E+03 0.  0.
        998    1    1    2    0    0  0.39991236276E+01  0.34237507719E-01  0.14556202464E+04  0.14556600894E+04  0.10000000000E+02 0.  1.
</event>
<event>
 5    1  0.1369527E-008  0.3834588E+03  0.7957747E-01  0.3436235E+00
         13   -1    0    0    0    0  0.00000000000E+00  0.00000000000E+00  0.14999999963E+04  0.15000000000E+04  0.10566000000E+00 0.  1.
        994   -1    0    0    0    0 -0.00000000000E+00 -0.00000000000E+00  0.11368683772E-12  0.17120000000E+03  0.17120000000E+03 0.  0.
         13    1    1    2    0    0 -0.11561963214E+02  0.17672774456E+02  0.10542058752E+03  0.10751519608E+03  0.10566000000E+00 0.  1.
        994    1    1    2    0    0 -0.18495755227E+01  0.58022983623E+01  0.25198470126E+01  0.17132681409E+03  0.17120000000E+03 0.  0.
        998    1    1    2    0    0  0.13411538737E+02 -0.23475072818E+02  0.13920595617E+04  0.13923579898E+04  0.10000000000E+02 0.  1.
</event>
<event>
 5    1  0.1369527E-008  0.3754083E+03  0.7957747E-01  0.3471399E+00
         13   -1    0    0    0    0  0.00000000000E+00  0.00000000000E+00  0.14999999963E+04  0.15000000000E+04  0.10566000000E+00 0. -1.
        994   -1    0    0    0    0 -0.00000000000E+00 -0.00000000000E+00  0.11368683772E-12  0.17120000000E+03  0.17120000000E+03 0.  0.
         13    1    1    2    0    0  0.13652071065E+02  0.10952437952E+02  0.22124217646E+02  0.28210407865E+02  0.10566000000E+00 0. -1.
        994    1    1    2    0    0  0.81318080385E+01  0.64702028286E+01  0.68358856780E+01  0.17165127194E+03  0.17120000000E+03 0.  0.
        998    1    1    2    0    0 -0.21783879103E+02 -0.17422640781E+02  0.14710398930E+04  0.14713383202E+04  0.10000000000E+02 0. -1.
</event>
<event>
 5    1  0.1369527E-008  0.3822344E+03  0.7957747E-01  0.3441487E+00
         13   -1    0    0    0    0  0.00000000000E+00  0.00000000000E+00  0.14999999963E+04  0.15000000000E+04  0.10566000000E+00 0.  1.
        994   -1    0    0    0    0 -0.00000000000E+00 -0.00000000000E+00  0.11368683772E-12  0.17120000000E+03  0.17120000000E+03 0.  0.
         13    1    1    2    0    0  0.52961128854E+01 -0.20587021980E+02  0.75375361491E+02  0.78315583185E+02  0.10566000000E+00 0.  1.
        994    1    1    2    0    0 -0.24721074478E+01  0.98955548731E+01  0.33547893251E+01  0.17153637496E+03  0.17120000000E+03 0.  0.
        998    1    1    2    0    0 -0.28240054376E+01  0.10691467107E+02  0.14212698455E+04  0.14213480419E+04  0.10000000000E+02 0.  1.
</event>
<event>
 5    1  0.1369527E-008  0.3705770E+03  0.7957747E-01  0.3493243E+00
         13   -1    0    0    0    0  0.00000000000E+00  0.00000000000E+00  0.14999999963E+04  0.15000000000E+04  0.10566000000E+00 0. -1.
        994   -1    0    0    0    0 -0.00000000000E+00 -0.00000000000E+00  0.11368683772E-12  0.17120000000E+03  0.17120000000E+03 0.  0.
         13    1    1    2    0    0  0.10341331320E+03  0.14932214697E+02  0.62448889739E+03  0.63316954957E+03  0.10566000000E+00 0. -1.
        994    1    1    2    0    0 -0.35907598934E+02 -0.62673667993E+02  0.29752054537E+02  0.18818068198E+03  0.17120000000E+03 0.  0.
        998    1    1    2    0    0 -0.67505714270E+02  0.47741453296E+02  0.84575904435E+03  0.84984976845E+03  0.10000000000E+02 0. -1.
</event>
<event>
 5    1  0.1371029E-008  0.3851190E+03  0.7957747E-01  0.3429168E+00
         13   -1    0    0    0    0  0.00000000000E+00  0.00000000000E+00  0.14999999963E+04  0.15000000000E+04  0.10566000000E+00 0.  1.
        994   -1    0    0    0    0 -0.00000000000E+00 -0.00000000000E+00  0.11368683772E-12  0.17120000000E+03  0.17120000000E+03 0.  0.
         13    1    1    2    0    0  0.89586739262E+01  0.74336496350E+01  0.44193099010E+02  0.45700745613E+02  0.10566000000E+00 0.  1.
        994    1    1    2    0    0 -0.37922984404E+01 -0.29515805013E+00  0.16186246095E+01  0.17124990100E+03  0.17120000000E+03 0.  0.
        998    1    1    2    0    0 -0.51663754858E+01 -0.71384915849E+01  0.14541882727E+04  0.14542493534E+04  0.10000000000E+02 0.  1.
</event>
<event>
 5    1  0.1369527E-008  0.3820502E+03  0.7957747E-01  0.3442280E+00
         13   -1    0    0    0    0  0.00000000000E+00  0.00000000000E+00  0.14999999963E+04  0.15000000000E+04  0.10566000000E+00 0. -1.
        994   -1    0    0    0    0 -0.00000000000E+00 -0.00000000000E+00  0.11368683772E-12  0.17120000000E+03  0.17120000000E+03 0.  0.
         13    1    1    2    0    0  0.55403259059E+01 -0.18741042789E+02  0.63718380830E+02  0.66648069107E+02  0.10566000000E+00 0. -1.
        994    1    1    2    0    0  0.56427481452E+01  0.35445336941E+01  0.32492211516E+01  0.17136044399E+03  0.17120000000E+03 0.  0.
        998    1    1    2    0    0 -0.11183074051E+02  0.15196509095E+02  0.14330323943E+04  0.14331914869E+04  0.10000000000E+02 0. -1.
</event>
<event>
 5    1  0.1369527E-008  0.3764103E+03  0.7957747E-01  0.3466939E+00
         13   -1    0    0    0    0  0.00000000000E+00  0.00000000000E+00  0.14999999963E+04  0.15000000000E+04  0.10566000000E+00 0. -1.
        994   -1    0    0    0    0 -0.00000000000E+00 -0.00000000000E+00  0.11368683772E-12  0.17120000000E+03  0.17120000000E+03 0.  0.
         13    1    1    2    0    0 -0.70745896731E+01 -0.12126251045E+02  0.19487813605E+00  0.14040830637E+02  0.10566000000E+00 0. -1.
        994    1    1    2    0    0 -0.24535711513E+01  0.21571452881E+02  0.16056798288E+02  0.17331649766E+03  0.17120000000E+03 0.  0.
        998    1    1    2    0    0  0.95281608244E+01 -0.94452018361E+01  0.14837483199E+04  0.14838426717E+04  0.10000000000E+02 0. -1.
</event>
<event>
 5    1  0.1369527E-008  0.4436271E+03  0.7957747E-01  0.3213656E+00
         13   -1    0    0    0    0  0.00000000000E+00  0.00000000000E+00  0.14999999963E+04  0.15000000000E+04  0.10566000000E+00 0.  1.
        994   -1    0    0    0    0 -0.00000000000E+00 -0.00000000000E+00  0.11368683772E-12  0.17120000000E+03  0.17120000000E+03 0.  0.
         13    1    1    2    0    0  0.59229086520E+01 -0.56044989133E+02  0.80727966379E+01  0.56932441221E+02  0.10566000000E+00 0.  1.
        994    1    1    2    0    0 -0.69025070097E+01  0.47738828875E+02  0.68218127114E+02  0.19049880118E+03  0.17120000000E+03 0.  0.
        998    1    1    2    0    0  0.97959835764E+00  0.83061602581E+01  0.14237090725E+04  0.14237687576E+04  0.10000000000E+02 0.  1.
</event>
<event>
 5    1  0.1369527E-008  0.3700753E+03  0.7957747E-01  0.3495545E+00
         13   -1    0    0    0    0  0.00000000000E+00  0.00000000000E+00  0.14999999963E+04  0.15000000000E+04  0.10566000000E+00 0.  1.
        994   -1    0    0    0    0 -0.00000000000E+00 -0.00000000000E+00  0.11368683772E-12  0.17120000000E+03  0.17120000000E+03 0.  0.
         13    1    1    2    0    0 -0.27304846725E+02  0.57909430285E+02  0.16454380068E+03  0.17656084016E+03  0.10566000000E+00 0.  1.
        994    1    1    2    0    0  0.28965764494E+02 -0.55837517515E+02  0.24946472339E+02  0.18408859377E+03  0.17120000000E+03 0.  0.
        998    1    1    2    0    0 -0.16609177688E+01 -0.20719127696E+01  0.13105097233E+04  0.13105505661E+04  0.10000000000E+02 0.  1.
</event>
<event>
 5    1  0.1369527E-008  0.3764331E+03  0.7957747E-01  0.3466838E+00
         13   -1    0    0    0    0  0.00000000000E+00  0.00000000000E+00  0.14999999963E+04  0.15000000000E+04  0.10566000000E+00 0.  1.
        994   -1    0    0    0    0 -0.00000000000E+00 -0.00000000000E+00  0.11368683772E-12  0.17120000000E+03  0.17120000000E+03 0.  0.
         13    1    1    2    0    0  0.91001267456E+01 -0.77377118791E+01  0.92077839909E+01  0.15082405046E+02  0.10566000000E+00 0.  1.
        994    1    1    2    0    0 -0.10358065495E+02  0.94842524479E+01  0.66121679849E+01  0.17190230170E+03  0.17120000000E+03 0.  0.
        998    1    1    2    0    0  0.12579387494E+01 -0.17465405688E+01  0.14841800443E+04  0.14842152933E+04  0.10000000000E+02 0.  1.
</event>
<event>
 5    1  0.1369527E-008  0.3842813E+03  0.7957747E-01  0.3432726E+00
         13   -1    0    0    0    0  0.00000000000E+00  0.00000000000E+00  0.14999999963E+04  0.15000000000E+04  0.10566000000E+00 0.  1.
        994   -1    0    0    0    0 -0.00000000000E+00 -0.00000000000E+00  0.11368683772E-12  0.17120000000E+03  0.17120000000E+03 0.  0.
         13    1    1    2    0    0  0.19050081536E+02  0.28895923369E+01  0.87935626667E+02  0.90021891514E+02  0.10566000000E+00 0.  1.
        994    1    1    2    0    0 -0.21908875259E+02  0.48980756989E+01  0.36504359533E+01  0.17270424327E+03  0.17120000000E+03 0.  0.
        998    1    1    2    0    0  0.28587937230E+01 -0.77876680359E+01  0.14084139337E+04  0.14084738652E+04  0.10000000000E+02 0.  1.
</event>
<event>
 5    1  0.1369527E-008  0.3755861E+03  0.7957747E-01  0.3470606E+00
         13   -1    0    0    0    0  0.00000000000E+00  0.00000000000E+00  0.14999999963E+04  0.15000000000E+04  0.10566000000E+00 0. -1.
        994   -1    0    0    0    0 -0.00000000000E+00 -0.00000000000E+00  0.11368683772E-12  0.17120000000E+03  0.17120000000E+03 0.  0.
         13    1    1    2    0    0  0.31881440086E+02 -0.43657193199E+01  0.31381424688E+02  0.44947644061E+02  0.10566000000E+00 0. -1.
        994    1    1    2    0    0 -0.26078136452E+02  0.37630302452E+01  0.16402959254E+02  0.17399059362E+03  0.17120000000E+03 0.  0.
        998    1    1    2    0    0 -0.58033036338E+01  0.60268907473E+00  0.14522156123E+04  0.14522617623E+04  0.10000000000E+02 0. -1.
</event>
<event>
 5    1  0.1369527E-008  0.3826080E+03  0.7957747E-01  0.3439881E+00
         13   -1    0    0    0    0  0.00000000000E+00  0.00000000000E+00  0.14999999963E+04  0.15000000000E+04  0.10566000000E+00 0. -1.
        994   -1    0    0    0    0 -0.00000000000E+00 -0.00000000000E+00  0.11368683772E-12  0.17120000000E+03  0.17120000000E+03 0.  0.
         13    1    1    2    0    0  0.16752691217E+01 -0.26604479967E+02  0.12654277623E+03  0.12932010773E+03  0.10566000000E+00 0. -1.
        994    1    1    2    0    0 -0.52151212273E+00  0.14345641642E+02  0.35057049377E+01  0.17183654843E+03  0.17120000000E+03 0.  0.
        998    1    1    2    0    0 -0.11537569989E+01  0.12258838325E+02  0.13699515151E+04  0.13700433438E+04  0.10000000000E+02 0. -1.
</event>
<event>
 5    1  0.1369527E-008  0.3748276E+03  0.7957747E-01  0.3473994E+00
         13   -1    0    0    0    0  0.00000000000E+00  0.00000000000E+00  0.14999999963E+04  0.15000000000E+04  0.10566000000E+00 0.  1.
        994   -1    0    0    0    0 -0.00000000000E+00 -0.00000000000E+00  0.11368683772E-12  0.17120000000E+03  0.17120000000E+03 0.  0.
         13    1    1    2    0    0 -0.43823699675E+01  0.37480466516E+02  0.11470087234E+03  0.12074887915E+03  0.10566000000E+00 0.  1.
        994    1    1    2    0    0  0.31865218052E+02  0.43425584012E+01  0.10292993458E+02  0.17449823967E+03  0.17120000000E+03 0.  0.
        998    1    1    2    0    0 -0.27482848084E+02 -0.41823024917E+02  0.13750061305E+04  0.13759528812E+04  0.10000000000E+02 0.  1.
</event>
<event>
 5    1  0.1369527E-008  0.3779545E+03  0.7957747E-01  0.3460114E+00
         13   -1    0    0    0    0  0.00000000000E+00  0.00000000000E+00  0.14999999963E+04  0.15000000000E+04  0.10566000000E+00 0. -1.
        994   -1    0    0    0    0 -0.00000000000E+00 -0.00000000000E+00  0.11368683772E-12  0.17120000000E+03  0.17120000000E+03 0.  0.
         13    1    1    2    0    0 -0.34554764242E+02 -0.21622192236E+02  0.14772229193E+03  0.15324306714E+03  0.10566000000E+00 0. -1.
        994    1    1    2    0    0  0.28759755639E+02  0.23737802773E+02  0.98639114155E+01  0.17549171939E+03  0.17120000000E+03 0.  0.
        998    1    1    2    0    0  0.57950086022E+01 -0.21156105377E+01  0.13424137929E+04  0.13424652135E+04  0.10000000000E+02 0. -1.
</event>
<event>
 5    1  0.1369527E-008  0.3847567E+03  0.7957747E-01  0.3430705E+00
         13   -1    0    0    0    0  0.00000000000E+00  0.00000000000E+00  0.14999999963E+04  0.15000000000E+04  0.10566000000E+00 0. -1.
        994   -1    0    0    0    0 -0.00000000000E+00 -0.00000000000E+00  0.11368683772E-12  0.17120000000E+03  0.17120000000E+03 0.  0.
         13    1    1    2    0    0 -0.10129579983E+02  0.88026177640E+01  0.58678988598E+02  0.60194097194E+02  0.10566000000E+00 0. -1.
        994    1    1    2    0    0 -0.13990332300E+02  0.47261793363E+01  0.24690227876E+01  0.17185343244E+03  0.17120000000E+03 0.  0.
        998    1    1    2    0    0  0.24119912283E+02 -0.13528797100E+02  0.14388519849E+04  0.14391524704E+04  0.10000000000E+02 0. -1.
</event>
<event>
 5    1  0.1369527E-008  0.3812767E+03  0.7957747E-01  0.3445618E+00
         13   -1    0    0    0    0  0.00000000000E+00  0.00000000000E+00  0.14999999963E+04  0.15000000000E+04  0.10566000000E+00 0. -1.
        994   -1    0    0    0    0 -0.00000000000E+00 -0.00000000000E+00  0.11368683772E-12  0.17120000000E+03  0.17120000000E+03 0.  0.
         13    1    1    2    0    0 -0.13835486933E+02 -0.11212947266E+02  0.45503372686E+02  0.48864291409E+02  0.10566000000E+00 0. -1.
        994    1    1    2    0    0  0.33587409297E+02 -0.33838331438E+02  0.11094369676E+02  0.17806086537E+03  0.17120000000E+03 0.  0.
        998    1    1    2    0    0 -0.19751922363E+02  0.45051278704E+02  0.14434022539E+04  0.14442748432E+04  0.10000000000E+02 0. -1.
</event>
<event>
 5    1  0.1369527E-008  0.3797604E+03  0.7957747E-01  0.3452203E+00
         13   -1    0    0    0    0  0.00000000000E+00  0.00000000000E+00  0.14999999963E+04  0.15000000000E+04  0.10566000000E+00 0.  1.
        994   -1    0    0    0    0 -0.00000000000E+00 -0.00000000000E+00  0.11368683772E-12  0.17120000000E+03  0.17120000000E+03 0.  0.
         13    1    1    2    0    0 -0.14521811600E+02  0.31938079493E+01  0.24228941046E+02  0.28427735921E+02  0.10566000000E+00 0.  1.
        994    1    1    2    0    0  0.11728128707E+02  0.44368730652E+01  0.47803745725E+01  0.17172514908E+03  0.17120000000E+03 0.  0.
        998    1    1    2    0    0  0.27936828931E+01 -0.76306810145E+01  0.14709906807E+04  0.14710471150E+04  0.10000000000E+02 0.  1.
</event>
<event>
 5    1  0.1369527E-008  0.3821042E+03  0.7957747E-01  0.3442047E+00
         13   -1    0    0    0    0  0.00000000000E+00  0.00000000000E+00  0.14999999963E+04  0.15000000000E+04  0.10566000000E+00 0. -1.
        994   -1    0    0    0    0 -0.00000000000E+00 -0.00000000000E+00  0.11368683772E-12  0.17120000000E+03  0.17120000000E+03 0.  0.
         13    1    1    2    0    0 -0.46140400945E+01  0.12176855817E+02  0.25967178511E+02  0.29049452791E+02  0.10566000000E+00 0. -1.
        994    1    1    2    0    0  0.78967485522E+01 -0.12319060043E+02  0.37858583775E+01  0.17186590878E+03  0.17120000000E+03 0.  0.
        998    1    1    2    0    0 -0.32827084577E+01  0.14220422594E+00  0.14702469594E+04  0.14702846384E+04  0.10000000000E+02 0. -1.
</event>
<event>
 5    1  0.1369527E-008  0.3840427E+03  0.7957747E-01  0.3433742E+00
         13   -1    0    0    0    0  0.00000000000E+00  0.00000000000E+00  0.14999999963E+04  0.15000000000E+04  0.10566000000E+00 0. -1.
        994   -1    0    0    0    0 -0.00000000000E+00 -0.00000000000E+00  0.11368683772E-12  0.17120000000E+03  0.17120000000E+03 0.  0.
         13    1    1    2    0    0  0.97337412254E+01  0.64485418171E+01  0.31801159381E+02  0.33877046976E+02  0.10566000000E+00 0. -1.
        994    1    1    2    0    0 -0.68469655310E+01 -0.40996726135E+01  0.23162727663E+01  0.17140155592E+03  0.17120000000E+03 0.  0.
        998    1    1    2    0    0 -0.28867756944E+01 -0.23488692036E+01  0.14658825641E+04  0.14659213971E+04  0.10000000000E+02 0. -1.
</event>
<event>
 5    1  0.1369527E-008  0.3803043E+03  0.7957747E-01  0.3449835E+00
         13   -1    0    0    0    0  0.00000000000E+00  0.00000000000E+00  0.14999999963E+04  0.15000000000E+04  0.10566000000E+00 0.  1.
        994   -1    0    0    0    0 -0.00000000000E+00 -0.00000000000E+00  0.11368683772E-12  0.17120000000E+03  0.17120000000E+03 0.  0.
         13    1    1    2    0    0 -0.15798548719E+02 -0.53698840837E+02  0.31903254861E+03  0.32390575463E+03  0.10566000000E+00 0.  1.
        994    1    1    2    0    0  0.16877539251E+02  0.50808006718E+02  0.13611818976E+02  0.17989170768E+03  0.17120000000E+03 0.  0.
        998    1    1    2    0    0 -0.10789905328E+01  0.28908341193E+01  0.11673556287E+04  0.11674025377E+04  0.10000000000E+02 0.  1.
</event>
<event>
 5    1  0.1369527E-008  0.3738043E+03  0.7957747E-01  0.3478588E+00
         13   -1    0    0    0    0  0.00000000000E+00  0.00000000000E+00  0.14999999963E+04  0.15000000000E+04  0.10566000000E+00 0. -1.
        994   -1    0    0    0    0 -0.00000000000E+00 -0.00000000000E+00  0.11368683772E-12  0.17120000000E+03  0.17120000000E+03 0.  0.
         13    1    1    2    0    0 -0.17512564839E+02  0.72506732621E+01  0.21139937215E+02  0.28393138246E+02  0.10566000000E+00 0. -1.
        994    1    1    2    0    0  0.18512580325E+02 -0.93103630226E+01  0.87609114782E+01  0.17267192030E+03  0.17120000000E+03 0.  0.
        998    1    1    2    0    0 -0.10000154853E+01  0.20596897605E+01  0.14700991476E+04  0.14701349415E+04  0.10000000000E+02 0. -1.
</event>
<event>
 5    1  0.1369527E-008  0.3801684E+03  0.7957747E-01  0.3450425E+00
         13   -1    0    0    0    0  0.00000000000E+00  0.00000000000E+00  0.14999999963E+04  0.15000000000E+04  0.10566000000E+00 0. -1.
        994   -1    0    0    0    0 -0.00000000000E+00 -0.00000000000E+00  0.11368683772E-12  0.17120000000E+03  0.17120000000E+03 0.  0.
         13    1    1    2    0    0  0.35582943850E+01  0.18747553676E+02  0.43604471262E+02  0.47597198508E+02  0.10566000000E+00 0. -1.
        994    1    1    2    0    0  0.41350190058E+01 -0.12603659776E+02  0.46362310679E+01  0.17177568297E+03  0.17120000000E+03 0.  0.
        998    1    1    2    0    0 -0.76933133908E+01 -0.61438938997E+01  0.14517592939E+04  0.14518271185E+04  0.10000000000E+02 0.  0.
</event>
<event>
 5    1  0.1369527E-008  0.4012715E+03  0.7957747E-01  0.3363464E+00
         13   -1    0    0    0    0  0.00000000000E+00  0.00000000000E+00  0.14999999963E+04  0.15000000000E+04  0.10566000000E+00 0. -1.
        994   -1    0    0    0    0 -0.00000000000E+00 -0.00000000000E+00  0.11368683772E-12  0.17120000000E+03  0.17120000000E+03 0.  0.
         13    1    1    2    0    0  0.11189600907E+03 -0.69820716061E+02  0.20515699030E+03  0.24389557411E+03  0.10566000000E+00 0. -1.
        994    1    1    2    0    0 -0.12761389917E+03  0.12075326640E+03  0.16381521232E+03  0.29497715571E+03  0.17120000000E+03 0.  0.
        998    1    1    2    0    0  0.15717890100E+02 -0.50932550338E+02  0.11310277937E+04  0.11323272702E+04  0.10000000000E+02 0.  1.
</event>
<event>
 5    1  0.1369527E-008  0.3847663E+03  0.7957747E-01  0.3430664E+00
         13   -1    0    0    0    0  0.00000000000E+00  0.00000000000E+00  0.14999999963E+04  0.15000000000E+04  0.10566000000E+00 0.  1.
        994   -1    0    0    0    0 -0.00000000000E+00 -0.00000000000E+00  0.11368683772E-12  0.17120000000E+03  0.17120000000E+03 0.  0.
         13    1    1    2    0    0 -0.18004883660E+02 -0.51311147319E+01  0.10391751803E+03  0.10559055778E+03  0.10566000000E+00 0.  1.
        994    1    1    2    0    0  0.11596356930E+02 -0.12546996126E+02  0.27075006977E+01  0.17207170937E+03  0.17120000000E+03 0.  0.
        998    1    1    2    0    0  0.64085267302E+01  0.17678110858E+02  0.13933749775E+04  0.13935377329E+04  0.10000000000E+02 0.  1.
</event>
<event>
 5    1  0.1369527E-008  0.3808833E+03  0.7957747E-01  0.3447322E+00
         13   -1    0    0    0    0  0.00000000000E+00  0.00000000000E+00  0.14999999963E+04  0.15000000000E+04  0.10566000000E+00 0.  1.
        994   -1    0    0    0    0 -0.00000000000E+00 -0.00000000000E+00  0.11368683772E-12  0.17120000000E+03  0.17120000000E+03 0.  0.
         13    1    1    2    0    0 -0.15440489754E+03  0.73413792947E+02  0.40702145203E+03  0.44147132518E+03  0.10566000000E+00 0.  1.
        994    1    1    2    0    0  0.18348536623E+03 -0.11046100053E+03  0.20981567597E+03  0.34525435571E+03  0.17120000000E+03 0.  0.
        998    1    1    2    0    0 -0.29080468689E+02  0.37047207578E+02  0.88316286828E+03  0.88447431910E+03  0.10000000000E+02 0.  1.
</event>
<event>
 5    1  0.1369527E-008  0.3853387E+03  0.7957747E-01  0.3428237E+00
         13   -1    0    0    0    0  0.00000000000E+00  0.00000000000E+00  0.14999999963E+04  0.15000000000E+04  0.10566000000E+00 0. -1.
        994   -1    0    0    0    0 -0.00000000000E+00 -0.00000000000E+00  0.11368683772E-12  0.17120000000E+03  0.17120000000E+03 0.  0.
         13    1    1    2    0    0  0.68275400606E+01  0.92027678380E+01  0.44856243756E+02  0.46296868221E+02  0.10566000000E+00 0. -1.
        994    1    1    2    0    0 -0.46652172344E+01 -0.67810857235E+01  0.16846720964E+01  0.17140602526E+03  0.17120000000E+03 0.  0.
        998    1    1    2    0    0 -0.21623228262E+01 -0.24216821145E+01  0.14534590804E+04  0.14534971065E+04  0.10000000000E+02 0. -1.
</event>
<event>
 5    1  0.1369527E-008  0.3797083E+03  0.7957747E-01  0.3452430E+00
         13   -1    0    0    0    0  0.00000000000E+00  0.00000000000E+00  0.14999999963E+04  0.15000000000E+04  0.10566000000E+00 0. -1.
        994   -1    0    0    0    0 -0.00000000000E+00 -0.00000000000E+00  0.11368683772E-12  0.17120000000E+03  0.17120000000E+03 0.  0.
         13    1    1    2    0    0  0.15072262821E+01 -0.35619579547E+02  0.13905002329E+03  0.14354771443E+03  0.10566000000E+00 0. -1.
        994    1    1    2    0    0  0.31028858951E+01  0.30594570367E+02  0.74512518865E+01  0.17409944512E+03  0.17120000000E+03 0.  0.
        998    1    1    2    0    0 -0.46101121772E+01  0.50250091798E+01  0.13534987211E+04  0.13535528404E+04  0.10000000000E+02 0. -1.
</event>
<event>
 5    1  0.1369527E-008  0.3853101E+03  0.7957747E-01  0.3428358E+00
         13   -1    0    0    0    0  0.00000000000E+00  0.00000000000E+00  0.14999999963E+04  0.15000000000E+04  0.10566000000E+00 0.  1.
        994   -1    0    0    0    0 -0.00000000000E+00 -0.00000000000E+00  0.11368683772E-12  0.17120000000E+03  0.17120000000E+03 0.  0.
         13    1    1    2    0    0 -0.12691057408E+02 -0.58152141613E+01  0.65795662350E+02  0.67260389547E+02  0.10566000000E+00 0.  1.
        994    1    1    2    0    0  0.10716166359E+02  0.10495481137E+01  0.18572431018E+01  0.17154832300E+03  0.17120000000E+03 0.  0.
        998    1    1    2    0    0  0.19748910487E+01  0.47656660476E+01  0.14323470908E+04  0.14323912875E+04  0.10000000000E+02 0.  1.
</event>
<event>
 5    1  0.1369527E-008  0.3862247E+03  0.7957747E-01  0.3424495E+00
         13   -1    0    0    0    0  0.00000000000E+00  0.00000000000E+00  0.14999999963E+04  0.15000000000E+04  0.10566000000E+00 0. -1.
        994   -1    0    0    0    0 -0.00000000000E+00 -0.00000000000E+00  0.11368683772E-12  0.17120000000E+03  0.17120000000E+03 0.  0.
         13    1    1    2    0    0 -0.10297912389E+02 -0.30026726999E+01  0.57847224472E+02  0.58833456349E+02  0.10566000000E+00 0. -1.
        994    1    1    2    0    0  0.35025271498E+01  0.78722059330E+01  0.12665424167E+01  0.17142136230E+03  0.17120000000E+03 0.  0.
        998    1    1    2    0    0  0.67953852387E+01 -0.48695332331E+01  0.14408862294E+04  0.14409451814E+04  0.10000000000E+02 0. -1.
</event>
<event>
 5    1  0.1369527E-008  0.4018478E+03  0.7957747E-01  0.3361217E+00
         13   -1    0    0    0    0  0.00000000000E+00  0.00000000000E+00  0.14999999963E+04  0.15000000000E+04  0.10566000000E+00 0. -1.
        994   -1    0    0    0    0 -0.00000000000E+00 -0.00000000000E+00  0.11368683772E-12  0.17120000000E+03  0.17120000000E+03 0.  0.
         13    1    1    2    0    0 -0.11884820150E+03  0.10019408481E+03  0.40087298711E+03  0.42995687294E+03  0.10566000000E+00 0. -1.
        994    1    1    2    0    0  0.45846134981E+02 -0.10227708248E+03  0.80403061574E+02  0.21985577546E+03  0.17120000000E+03 0.  0.
        998    1    1    2    0    0  0.73002066520E+02  0.20829976672E+01  0.10187239476E+04  0.10213873516E+04  0.10000000000E+02 0. -1.
</event>
<event>
 5    1  0.1369527E-008  0.3756514E+03  0.7957747E-01  0.3470315E+00
         13   -1    0    0    0    0  0.00000000000E+00  0.00000000000E+00  0.14999999963E+04  0.15000000000E+04  0.10566000000E+00 0.  1.
        994   -1    0    0    0    0 -0.00000000000E+00 -0.00000000000E+00  0.11368683772E-12  0.17120000000E+03  0.17120000000E+03 0.  0.
         13    1    1    2    0    0 -0.28522816951E+02 -0.78001934954E+01  0.65928617152E+02  0.72256403378E+02  0.10566000000E+00 0.  1.
        994    1    1    2    0    0  0.14261560241E+02  0.29233570065E+02  0.99414457841E+01  0.17454588527E+03  0.17120000000E+03 0.  0.
        998    1    1    2    0    0  0.14261256711E+02 -0.21433376570E+02  0.14241299333E+04  0.14243977114E+04  0.10000000000E+02 0.  1.
</event>
<event>
 5    1  0.1369527E-008  0.3853954E+03  0.7957747E-01  0.3427997E+00
         13   -1    0    0    0    0  0.00000000000E+00  0.00000000000E+00  0.14999999963E+04  0.15000000000E+04  0.10566000000E+00 0. -1.
        994   -1    0    0    0    0 -0.00000000000E+00 -0.00000000000E+00  0.11368683772E-12  0.17120000000E+03  0.17120000000E+03 0.  0.
         13    1    1    2    0    0  0.92011121425E+01  0.14159516823E+02  0.89177523408E+02  0.90762295181E+02  0.10566000000E+00 0. -1.
        994    1    1    2    0    0 -0.16328714564E+02 -0.19774321669E+02  0.35969691922E+01  0.17314741957E+03  0.17120000000E+03 0.  0.
        998    1    1    2    0    0  0.71276024218E+01  0.56148048460E+01  0.14072255037E+04  0.14072902852E+04  0.10000000000E+02 0. -1.
</event>
<event>
 5    1  0.1369527E-008  0.3831863E+03  0.7957747E-01  0.3437401E+00
         13   -1    0    0    0    0  0.00000000000E+00  0.00000000000E+00  0.14999999963E+04  0.15000000000E+04  0.10566000000E+00 0. -1.
        994   -1    0    0    0    0 -0.00000000000E+00 -0.00000000000E+00  0.11368683772E-12  0.17120000000E+03  0.17120000000E+03 0.  0.
         13    1    1    2    0    0 -0.16471114849E+02 -0.13885351127E+02  0.10354683189E+03  0.10576416292E+03  0.10566000000E+00 0. -1.
        994    1    1    2    0    0 -0.42640679730E+01 -0.43953315737E+01  0.26573841171E+01  0.17133009924E+03  0.17120000000E+03 0.  0.
        998    1    1    2    0    0  0.20735182822E+02  0.18280682701E+02  0.13937957803E+04  0.13941057378E+04  0.10000000000E+02 0. -1.
</event>
<event>
 5    1  0.1369527E-008  0.3846461E+03  0.7957747E-01  0.3431175E+00
         13   -1    0    0    0    0  0.00000000000E+00  0.00000000000E+00  0.14999999963E+04  0.15000000000E+04  0.10566000000E+00 0. -1.
        994   -1    0    0    0    0 -0.00000000000E+00 -0.00000000000E+00  0.11368683772E-12  0.17120000000E+03  0.17120000000E+03 0.  0.
         13    1    1    2    0    0 -0.89477606511E-01  0.17739534193E+02  0.91504923079E+02  0.93208696973E+02  0.10566000000E+00 0. -1.
        994    1    1    2    0    0 -0.19661339807E+01 -0.43841581000E+01  0.18819696795E+01  0.17127775201E+03  0.17120000000E+03 0.  0.
        998    1    1    2    0    0  0.20556115872E+01 -0.13355376093E+02  0.14066131035E+04  0.14067135510E+04  0.10000000000E+02 0. -1.
</event>
<event>
 5    1  0.1369527E-008  0.3850454E+03  0.7957747E-01  0.3429480E+00
         13   -1    0    0    0    0  0.00000000000E+00  0.00000000000E+00  0.14999999963E+04  0.15000000000E+04  0.10566000000E+00 0.  1.
        994   -1    0    0    0    0 -0.00000000000E+00 -0.00000000000E+00  0.11368683772E-12  0.17120000000E+03  0.17120000000E+03 0.  0.
         13    1    1    2    0    0  0.14948892864E+00 -0.14841826320E+02  0.66133228769E+02  0.67778442494E+02  0.10566000000E+00 0.  1.
        994    1    1    2    0    0 -0.31460152516E+01  0.15406673926E+02  0.24210634474E+01  0.17193767639E+03  0.17120000000E+03 0.  0.
        998    1    1    2    0    0  0.29965263230E+01 -0.56484760563E+00  0.14314457041E+04  0.14314838811E+04  0.10000000000E+02 0.  1.
</event>
<event>
 5    1  0.1369527E-008  0.3843133E+03  0.7957747E-01  0.3432590E+00
         13   -1    0    0    0    0  0.00000000000E+00  0.00000000000E+00  0.14999999963E+04  0.15000000000E+04  0.10566000000E+00 0. -1.
        994   -1    0    0    0    0 -0.00000000000E+00 -0.00000000000E+00  0.11368683772E-12  0.17120000000E+03  0.17120000000E+03 0.  0.
         13    1    1    2    0    0  0.20113186604E+02 -0.20310558558E+02  0.16878504822E+03  0.17118838375E+03  0.10566000000E+00 0. -1.
        994    1    1    2    0    0 -0.40507620916E+02  0.16152353263E+02  0.82650046590E+01  0.17686015993E+03  0.17120000000E+03 0.  0.
        998    1    1    2    0    0  0.20394434312E+02  0.41582052955E+01  0.13229499434E+04  0.13231514563E+04  0.10000000000E+02 0. -1.
</event>
<event>
 5    1  0.1369527E-008  0.3837488E+03  0.7957747E-01  0.3434996E+00
         13   -1    0    0    0    0  0.00000000000E+00  0.00000000000E+00  0.14999999963E+04  0.15000000000E+04  0.10566000000E+00 0.  1.
        994   -1    0    0    0    0 -0.00000000000E+00 -0.00000000000E+00  0.11368683772E-12  0.17120000000E+03  0.17120000000E+03 0.  0.
         13    1    1    2    0    0 -0.90616836451E+01 -0.18853620044E+02  0.11566508671E+03  0.11754146735E+03  0.10566000000E+00 0.  1.
        994    1    1    2    0    0 -0.14803403146E+02 -0.46956947190E+01  0.30494249218E+01  0.17193001276E+03  0.17120000000E+03 0.  0.
        998    1    1    2    0    0  0.23865086792E+02  0.23549314763E+02  0.13812854847E+04  0.13817285199E+04  0.10000000000E+02 0.  1.
</event>
<event>
 5    1  0.1369527E-008  0.3844216E+03  0.7957747E-01  0.3432129E+00
         13   -1    0    0    0    0  0.00000000000E+00  0.00000000000E+00  0.14999999963E+04  0.15000000000E+04  0.10566000000E+00 0. -1.
        994   -1    0    0    0    0 -0.00000000000E+00 -0.00000000000E+00  0.11368683772E-12  0.17120000000E+03  0.17120000000E+03 0.  0.
         13    1    1    2    0    0 -0.13468737582E+02  0.91693049148E+00  0.51311333741E+02  0.53057627048E+02  0.10566000000E+00 0. -1.
        994    1    1    2    0    0 -0.12067921005E+01  0.49305069087E+02  0.99735878508E+01  0.17844147119E+03  0.17120000000E+03 0.  0.
        998    1    1    2    0    0  0.14675529682E+02 -0.50221999579E+02  0.14387150747E+04  0.14397009018E+04  0.10000000000E+02 0. -1.
</event>
<event>
 5    1  0.1369527E-008  0.3729601E+03  0.7957747E-01  0.3482396E+00
         13   -1    0    0    0    0  0.00000000000E+00  0.00000000000E+00  0.14999999963E+04  0.15000000000E+04  0.10566000000E+00 0. -1.
        994   -1    0    0    0    0 -0.00000000000E+00 -0.00000000000E+00  0.11368683772E-12  0.17120000000E+03  0.17120000000E+03 0.  0.
         13    1    1    2    0    0  0.36777066747E+02  0.22871328840E+02  0.10947553381E+03  0.11773085402E+03  0.10566000000E+00 0. -1.
        994    1    1    2    0    0 -0.40313511113E+02 -0.21864408916E+02  0.14963304654E+02  0.17786672550E+03  0.17120000000E+03 0.  0.
        998    1    1    2    0    0  0.35364443660E+01 -0.10069199235E+01  0.13755611578E+04  0.13756024205E+04  0.10000000000E+02 0. -1.
</event>
<event>
 5    1  0.1369527E-008  0.3790337E+03  0.7957747E-01  0.3455377E+00
         13   -1    0    0    0    0  0.00000000000E+00  0.00000000000E+00  0.14999999963E+04  0.15000000000E+04  0.10566000000E+00 0. -1.
        994   -1    0    0    0    0 -0.00000000000E+00 -0.00000000000E+00  0.11368683772E-12  0.17120000000E+03  0.17120000000E+03 0.  0.
         13    1    1    2    0    0 -0.10797573006E+03  0.56708825663E+01  0.45205935773E+03  0.46481027448E+03  0.10566000000E+00 0. -1.
        994    1    1    2    0    0  0.16424915664E+03 -0.87961631559E+01  0.10146614730E+03  0.25818593492E+03  0.17120000000E+03 0.  0.
        998    1    1    2    0    0 -0.56273426583E+02  0.31252805896E+01  0.94647449125E+03  0.94820379060E+03  0.10000000000E+02 0. -1.
</event>
<event>
 5    1  0.1369527E-008  0.3798428E+03  0.7957747E-01  0.3451843E+00
         13   -1    0    0    0    0  0.00000000000E+00  0.00000000000E+00  0.14999999963E+04  0.15000000000E+04  0.10566000000E+00 0.  1.
        994   -1    0    0    0    0 -0.00000000000E+00 -0.00000000000E+00  0.11368683772E-12  0.17120000000E+03  0.17120000000E+03 0.  0.
         13    1    1    2    0    0 -0.59633241028E+01  0.13928365979E+02  0.24921982708E+02  0.29166367606E+02  0.10566000000E+00 0.  1.
        994    1    1    2    0    0  0.10275031296E+02 -0.16158043814E+02  0.54398062867E+01  0.17235338738E+03  0.17120000000E+03 0.  0.
        998    1    1    2    0    0 -0.43117071928E+01  0.22296778350E+01  0.14696382073E+04  0.14696802450E+04  0.10000000000E+02 0.  1.
</event>
<event>
 5    1  0.1369527E-008  0.3830936E+03  0.7957747E-01  0.3437798E+00
         13   -1    0    0    0    0  0.00000000000E+00  0.00000000000E+00  0.14999999963E+04  0.15000000000E+04  0.10566000000E+00 0. -1.
        994   -1    0    0    0    0 -0.00000000000E+00 -0.00000000000E+00  0.11368683772E-12  0.17120000000E+03  0.17120000000E+03 0.  0.
         13    1    1    2    0    0 -0.22852353845E+02  0.11732926776E+03  0.63594894842E+03  0.64708536014E+03  0.10566000000E+00 0. -1.
        994    1    1    2    0    0  0.42340426163E+02 -0.16272480516E+03  0.10256432581E+03  0.26096159647E+03  0.17120000000E+03 0.  0.
        998    1    1    2    0    0 -0.19488072318E+02  0.45395537404E+02  0.76148672205E+03  0.76315304339E+03  0.10000000000E+02 0. -1.
</event>
<event>
 5    1  0.1369527E-008  0.3854767E+03  0.7957747E-01  0.3427653E+00
         13   -1    0    0    0    0  0.00000000000E+00  0.00000000000E+00  0.14999999963E+04  0.15000000000E+04  0.10566000000E+00 0. -1.
        994   -1    0    0    0    0 -0.00000000000E+00 -0.00000000000E+00  0.11368683772E-12  0.17120000000E+03  0.17120000000E+03 0.  0.
         13    1    1    2    0    0 -0.16302291263E+02 -0.59045701498E+01  0.95418304744E+02  0.96980888289E+02  0.10566000000E+00 0. -1.
        994    1    1    2    0    0  0.24018368829E+02  0.12521199738E+02  0.38064036967E+01  0.17337125250E+03  0.17120000000E+03 0.  0.
        998    1    1    2    0    0 -0.77160775663E+01 -0.66166295883E+01  0.14007752878E+04  0.14008478592E+04  0.10000000000E+02 0. -1.
</event>
<event>
 5    1  0.1369527E-008  0.4189714E+03  0.7957747E-01  0.3297247E+00
         13   -1    0    0    0    0  0.00000000000E+00  0.00000000000E+00  0.14999999963E+04  0.15000000000E+04  0.10566000000E+00 0. -1.
        994   -1    0    0    0    0 -0.00000000000E+00 -0.00000000000E+00  0.11368683772E-12  0.17120000000E+03  0.17120000000E+03 0.  0.
         13    1    1    2    0    0 -0.12321099020E+03  0.53930620010E+02  0.18362737621E+03  0.22761477180E+03  0.10566000000E+00 0. -1.
        994    1    1    2    0    0  0.12978178953E+03 -0.47812115208E+02  0.12693037091E+03  0.25406705870E+03  0.17120000000E+03 0.  0.
        998    1    1    2    0    0 -0.65707993317E+01 -0.61185048021E+01  0.11894422492E+04  0.11895181695E+04  0.10000000000E+02 0. -1.
</event>
<event>
 5    1  0.1369527E-008  0.3785370E+03  0.7957747E-01  0.3457553E+00
         13   -1    0    0    0    0  0.00000000000E+00  0.00000000000E+00  0.14999999963E+04  0.15000000000E+04  0.10566000000E+00 0. -1.
        994   -1    0    0    0    0 -0.00000000000E+00 -0.00000000000E+00  0.11368683772E-12  0.17120000000E+03  0.17120000000E+03 0.  0.
         13    1    1    2    0    0  0.60365099604E+01 -0.21092735096E+02  0.49170801908E+02  0.53843494042E+02  0.10566000000E+00 0. -1.
        994    1    1    2    0    0  0.64284260698E+01  0.66219380212E+01  0.51596256302E+01  0.17152619760E+03  0.17120000000E+03 0.  0.
        998    1    1    2    0    0 -0.12464936030E+02  0.14470797074E+02  0.14456695687E+04  0.14458303084E+04  0.10000000000E+02 0. -1.
</event>
<event>
 5    1  0.1369527E-008  0.3772634E+03  0.7957747E-01  0.3463162E+00
         13   -1    0    0    0    0  0.00000000000E+00  0.00000000000E+00  0.14999999963E+04  0.15000000000E+04  0.10566000000E+00 0. -1.
        994   -1    0    0    0    0 -0.00000000000E+00 -0.00000000000E+00  0.11368683772E-12  0.17120000000E+03  0.17120000000E+03 0.  0.
         13    1    1    2    0    0 -0.17802885138E+02  0.38525841466E+02  0.17700727950E+03  0.18202409550E+03  0.10566000000E+00 0. -1.
        994    1    1    2    0    0 -0.17370094160E+02 -0.19306564278E+02  0.77996019885E+01  0.17333417836E+03  0.17120000000E+03 0.  0.
        998    1    1    2    0    0  0.35172979299E+02 -0.19219277188E+02  0.13151931148E+04  0.13158417261E+04  0.10000000000E+02 0. -1.
</event>
<event>
 5    1  0.1728002E-008  0.3843554E+03  0.7957747E-01  0.3432411E+00
         13   -1    0    0    0    0  0.00000000000E+00  0.00000000000E+00  0.14999999963E+04  0.15000000000E+04  0.10566000000E+00 0. -1.
        994   -1    0    0    0    0 -0.00000000000E+00 -0.00000000000E+00  0.11368683772E-12  0.17120000000E+03  0.17120000000E+03 0.  0.
         13    1    1    2    0    0 -0.61831813967E+01 -0.10540672593E+02  0.36938757004E+02  0.38907845532E+02  0.10566000000E+00 0. -1.
        994    1    1    2    0    0  0.69750149581E+01  0.11973245345E+02  0.25835257625E+01  0.17177928875E+03  0.17120000000E+03 0.  0.
        998    1    1    2    0    0 -0.79183356140E+00 -0.14325727515E+01  0.14604777135E+04  0.14605128657E+04  0.10000000000E+02 0.  0.
</event>
<event>
 5    1  0.1369527E-008  0.3700854E+03  0.7957747E-01  0.3495499E+00
         13   -1    0    0    0    0  0.00000000000E+00  0.00000000000E+00  0.14999999963E+04  0.15000000000E+04  0.10566000000E+00 0. -1.
        994   -1    0    0    0    0 -0.00000000000E+00 -0.00000000000E+00  0.11368683772E-12  0.17120000000E+03  0.17120000000E+03 0.  0.
         13    1    1    2    0    0 -0.64773111573E+02  0.88303423379E+02  0.46674614831E+03  0.47942155634E+03  0.10566000000E+00 0. -1.
        994    1    1    2    0    0  0.53548761700E+02 -0.62824010471E+02  0.35210232529E+02  0.19329647344E+03  0.17120000000E+03 0.  0.
        998    1    1    2    0    0  0.11224349873E+02 -0.25479412908E+02  0.99804361544E+03  0.99848197021E+03  0.10000000000E+02 0.  0.
</event>
<event>
 5    1  0.1369527E-008  0.3757785E+03  0.7957747E-01  0.3469748E+00
         13   -1    0    0    0    0  0.00000000000E+00  0.00000000000E+00  0.14999999963E+04  0.15000000000E+04  0.10566000000E+00 0. -1.
        994   -1    0    0    0    0 -0.00000000000E+00 -0.00000000000E+00  0.11368683772E-12  0.17120000000E+03  0.17120000000E+03 0.  0.
         13    1    1    2    0    0  0.24019201228E+02  0.38770862783E+01  0.43036387346E+02  0.49437795516E+02  0.10566000000E+00 0. -1.
        994    1    1    2    0    0 -0.29875412042E+02  0.82963136775E+01  0.95457348705E+01  0.17424675067E+03  0.17120000000E+03 0.  0.
        998    1    1    2    0    0  0.58562108131E+01 -0.12173399956E+02  0.14474178741E+04  0.14475154538E+04  0.10000000000E+02 0. -1.
</event>
<event>
 5    1  0.1369527E-008  0.3855382E+03  0.7957747E-01  0.3427393E+00
         13   -1    0    0    0    0  0.00000000000E+00  0.00000000000E+00  0.14999999963E+04  0.15000000000E+04  0.10566000000E+00 0. -1.
        994   -1    0    0    0    0 -0.00000000000E+00 -0.00000000000E+00  0.11368683772E-12  0.17120000000E+03  0.17120000000E+03 0.  0.
         13    1    1    2    0    0  0.90886193723E+01  0.76781726015E+01  0.53735677278E+02  0.55037183005E+02  0.10566000000E+00 0. -1.
        994    1    1    2    0    0 -0.25941684426E+01 -0.20929210654E+01  0.13996618051E+01  0.17123816479E+03  0.17120000000E+03 0.  0.
        998    1    1    2    0    0 -0.64944509297E+01 -0.55852515361E+01  0.14448646572E+04  0.14449246522E+04  0.10000000000E+02 0. -1.
</event>
<event>
 5    1  0.1369527E-008  0.3779455E+03  0.7957747E-01  0.3460153E+00
         13   -1    0    0    0    0  0.00000000000E+00  0.00000000000E+00  0.14999999963E+04  0.15000000000E+04  0.10566000000E+00 0.  1.
        994   -1    0    0    0    0 -0.00000000000E+00 -0.00000000000E+00  0.11368683772E-12  0.17120000000E+03  0.17120000000E+03 0.  0.
         13    1    1    2    0    0  0.24980032069E+02  0.37118234055E+02  0.19441711628E+03  0.19949885105E+03  0.10566000000E+00 0.  1.
        994    1    1    2    0    0 -0.13346694120E+02 -0.19624846149E+02  0.70720213052E+01  0.17298185545E+03  0.17120000000E+03 0.  0.
        998    1    1    2    0    0 -0.11633337949E+02 -0.17493387906E+02  0.12985108587E+04  0.12987192935E+04  0.10000000000E+02 0.  1.
</event>
<event>
 5    1  0.1369527E-008  0.3776182E+03  0.7957747E-01  0.3461596E+00
         13   -1    0    0    0    0  0.00000000000E+00  0.00000000000E+00  0.14999999963E+04  0.15000000000E+04  0.10566000000E+00 0. -1.
        994   -1    0    0    0    0 -0.00000000000E+00 -0.00000000000E+00  0.11368683772E-12  0.17120000000E+03  0.17120000000E+03 0.  0.
         13    1    1    2    0    0  0.52092536835E+02  0.30746640709E+02  0.27034087277E+03  0.27702560705E+03  0.10566000000E+00 0. -1.
        994    1    1    2    0    0 -0.53172594339E+02 -0.38132476351E+02  0.19904869910E+02  0.18435578208E+03  0.17120000000E+03 0.  0.
        998    1    1    2    0    0  0.10800575048E+01  0.73858356426E+01  0.12097542536E+04  0.12098186109E+04  0.10000000000E+02 0. -1.
</event>
<event>
 5    1  0.1369527E-008  0.3831336E+03  0.7957747E-01  0.3437627E+00
         13   -1    0    0    0    0  0.00000000000E+00  0.00000000000E+00  0.14999999963E+04  0.15000000000E+04  0.10566000000E+00 0.  1.
        994   -1    0    0    0    0 -0.00000000000E+00 -0.00000000000E+00  0.11368683772E-12  0.17120000000E+03  0.17120000000E+03 0.  0.
         13    1    1    2    0    0  0.16391837078E+02 -0.55530463673E+01  0.57424082135E+02  0.59975536845E+02  0.10566000000E+00 0.  1.
        994    1    1    2    0    0 -0.12459595130E+02  0.23799462407E+01  0.30921914527E+01  0.17169713831E+03  0.17120000000E+03 0.  0.
        998    1    1    2    0    0 -0.39322419483E+01  0.31731001267E+01  0.14394837227E+04  0.14395273248E+04  0.10000000000E+02 0.  1.
</event>
<event>
 5    1  0.1369527E-008  0.3827565E+03  0.7957747E-01  0.3439243E+00
         13   -1    0    0    0    0  0.00000000000E+00  0.00000000000E+00  0.14999999963E+04  0.15000000000E+04  0.10566000000E+00 0. -1.
        994   -1    0    0    0    0 -0.00000000000E+00 -0.00000000000E+00  0.11368683772E-12  0.17120000000E+03  0.17120000000E+03 0.  0.
         13    1    1    2    0    0  0.56013643000E+01  0.31626958641E+02  0.16185914322E+03  0.16501525143E+03  0.10566000000E+00 0. -1.
        994    1    1    2    0    0  0.10337900462E+02 -0.40388997492E+02  0.85275845775E+01  0.17640947538E+03  0.17120000000E+03 0.  0.
        998    1    1    2    0    0 -0.15939264762E+02  0.87620388509E+01  0.13296132685E+04  0.13297752732E+04  0.10000000000E+02 0. -1.
</event>
<event>
 5    1  0.1369527E-008  0.3826304E+03  0.7957747E-01  0.3439784E+00
         13   -1    0    0    0    0  0.00000000000E+00  0.00000000000E+00  0.14999999963E+04  0.15000000000E+04  0.10566000000E+00 0. -1.
        994   -1    0    0    0    0 -0.00000000000E+00 -0.00000000000E+00  0.11368683772E-12  0.17120000000E+03  0.17120000000E+03 0.  0.
         13    1    1    2    0    0 -0.15859336072E+02  0.22249884404E+02  0.11660812249E+03  0.11976661176E+03  0.10566000000E+00 0. -1.
        994    1    1    2    0    0  0.23057050155E+02 -0.27305890594E+02  0.70556641237E+01  0.17503274442E+03  0.17120000000E+03 0.  0.
        998    1    1    2    0    0 -0.71977140829E+01  0.50560061893E+01  0.13763362097E+04  0.13764006438E+04  0.10000000000E+02 0. -1.
</event>
<event>
 5    1  0.1369527E-008  0.3827703E+03  0.7957747E-01  0.3439184E+00
         13   -1    0    0    0    0  0.00000000000E+00  0.00000000000E+00  0.14999999963E+04  0.15000000000E+04  0.10566000000E+00 0.  1.
        994   -1    0    0    0    0 -0.00000000000E+00 -0.00000000000E+00  0.11368683772E-12  0.17120000000E+03  0.17120000000E+03 0.  0.
         13    1    1    2    0    0  0.10112588747E+02  0.18395829998E+02  0.85696863058E+02  0.88230575848E+02  0.10566000000E+00 0.  1.
        994    1    1    2    0    0 -0.35155065761E+01  0.14578826048E+01  0.27891725395E+01  0.17126501012E+03  0.17120000000E+03 0.  0.
        998    1    1    2    0    0 -0.65970821709E+01 -0.19853712603E+02  0.14115139607E+04  0.14117044140E+04  0.10000000000E+02 0.  1.
</event>
<event>
 5    1  0.1369527E-008  0.3850226E+03  0.7957747E-01  0.3429577E+00
         13   -1    0    0    0    0  0.00000000000E+00  0.00000000000E+00  0.14999999963E+04  0.15000000000E+04  0.10566000000E+00 0.  1.
        994   -1    0    0    0    0 -0.00000000000E+00 -0.00000000000E+00  0.11368683772E-12  0.17120000000E+03  0.17120000000E+03 0.  0.
         13    1    1    2    0    0  0.19455087166E+01 -0.17851061135E+02  0.77554245615E+02  0.79606014627E+02  0.10566000000E+00 0.  1.
        994    1    1    2    0    0 -0.12238602968E+02  0.48365765596E+02  0.98471268066E+01  0.17859293544E+03  0.17120000000E+03 0.  0.
        998    1    1    2    0    0  0.10293094251E+02 -0.30514704461E+02  0.14125986239E+04  0.14130010499E+04  0.10000000000E+02 0.  1.
</event>
<event>
 5    1  0.1506221E-008  0.3856438E+03  0.7957747E-01  0.3426946E+00
         13   -1    0    0    0    0  0.00000000000E+00  0.00000000000E+00  0.14999999963E+04  0.15000000000E+04  0.10566000000E+00 0.  1.
        994   -1    0    0    0    0 -0.00000000000E+00 -0.00000000000E+00  0.11368683772E-12  0.17120000000E+03  0.17120000000E+03 0.  0.
         13    1    1    2    0    0  0.68067025010E+01  0.10393727061E+02  0.59983903993E+02  0.61257168261E+02  0.10566000000E+00 0.  1.
        994    1    1    2    0    0 -0.56128173608E+01 -0.41320063902E+01  0.14702623707E+01  0.17134812187E+03  0.17120000000E+03 0.  0.
        998    1    1    2    0    0 -0.11938851402E+01 -0.62617206704E+01  0.14385458299E+04  0.14385947099E+04  0.10000000000E+02 0.  1.
</event>
<event>
 5    1  0.1369527E-008  0.3809680E+03  0.7957747E-01  0.3446954E+00
         13   -1    0    0    0    0  0.00000000000E+00  0.00000000000E+00  0.14999999963E+04  0.15000000000E+04  0.10566000000E+00 0. -1.
        994   -1    0    0    0    0 -0.00000000000E+00 -0.00000000000E+00  0.11368683772E-12  0.17120000000E+03  0.17120000000E+03 0.  0.
         13    1    1    2    0    0  0.12377311590E+02 -0.21998105418E+02  0.95245876989E+02  0.98533764424E+02  0.10566000000E+00 0. -1.
        994    1    1    2    0    0  0.23233573384E+01 -0.22225990036E+01  0.36797350223E+01  0.17126972408E+03  0.17120000000E+03 0.  0.
        998    1    1    2    0    0 -0.14700668929E+02  0.24220704422E+02  0.14010743843E+04  0.14013965115E+04  0.10000000000E+02 0. -1.
</event>
<event>
 5    1  0.1369527E-008  0.3722578E+03  0.7957747E-01  0.3485578E+00
         13   -1    0    0    0    0  0.00000000000E+00  0.00000000000E+00  0.14999999963E+04  0.15000000000E+04  0.10566000000E+00 0. -1.
        994   -1    0    0    0    0 -0.00000000000E+00 -0.00000000000E+00  0.11368683772E-12  0.17120000000E+03  0.17120000000E+03 0.  0.
         13    1    1    2    0    0  0.58490519991E+01 -0.38627274847E+02  0.56074002342E+02  0.68341661335E+02  0.10566000000E+00 0. -1.
        994    1    1    2    0    0  0.40793366361E+01  0.41567935745E+02  0.18310436650E+02  0.17717010572E+03  0.17120000000E+03 0.  0.
        998    1    1    2    0    0 -0.99283886352E+01 -0.29406608979E+01  0.14256155573E+04  0.14256882329E+04  0.10000000000E+02 0. -1.
</event>
<event>
 5    1  0.1369527E-008  0.3843443E+03  0.7957747E-01  0.3432458E+00
         13   -1    0    0    0    0  0.00000000000E+00  0.00000000000E+00  0.14999999963E+04  0.15000000000E+04  0.10566000000E+00 0. -1.
        994   -1    0    0    0    0 -0.00000000000E+00 -0.00000000000E+00  0.11368683772E-12  0.17120000000E+03  0.17120000000E+03 0.  0.
         13    1    1    2    0    0  0.19096802923E+02 -0.13143335615E+02  0.12505268811E+03  0.12718341527E+03  0.10566000000E+00 0. -1.
        994    1    1    2    0    0 -0.20765195234E+02  0.15315874472E+02  0.41532447713E+01  0.17318330978E+03  0.17120000000E+03 0.  0.
        998    1    1    2    0    0  0.16683923113E+01 -0.21725388574E+01  0.13707940634E+04  0.13708332749E+04  0.10000000000E+02 0. -1.
</event>
<event>
 5    1  0.1376046E-008  0.3853000E+03  0.7957747E-01  0.3428401E+00
         13   -1    0    0    0    0  0.00000000000E+00  0.00000000000E+00  0.14999999963E+04  0.15000000000E+04  0.10566000000E+00 0. -1.
        994   -1    0    0    0    0 -0.00000000000E+00 -0.00000000000E+00  0.11368683772E-12  0.17120000000E+03  0.17120000000E+03 0.  0.
         13    1    1    2    0    0  0.44385145810E+01 -0.12256452477E+02  0.54116060367E+02  0.55663993682E+02  0.10566000000E+00 0. -1.
        994    1    1    2    0    0 -0.64525051288E+01  0.17677954727E+02  0.26456765534E+01  0.17225151526E+03  0.17120000000E+03 0.  0.
        998    1    1    2    0    0  0.20139905478E+01 -0.54215022494E+01  0.14432382594E+04  0.14432844911E+04  0.10000000000E+02 0. -1.
</event>
<event>
 5    1  0.1369527E-008  0.3694418E+03  0.7957747E-01  0.3498460E+00
         13   -1    0    0    0    0  0.00000000000E+00  0.00000000000E+00  0.14999999963E+04  0.15000000000E+04  0.10566000000E+00 0. -1.
        994   -1    0    0    0    0 -0.00000000000E+00 -0.00000000000E+00  0.11368683772E-12  0.17120000000E+03  0.17120000000E+03 0.  0.
         13    1    1    2    0    0 -0.12969351498E+03  0.13926323261E+03  0.69863872698E+03  0.72409304498E+03  0.10566000000E+00 0. -1.
        994    1    1    2    0    0  0.96881285975E+02 -0.18641547654E+03  0.18532243011E+03  0.32831472183E+03  0.17120000000E+03 0.  0.
        998    1    1    2    0    0  0.32812229005E+02  0.47152243926E+02  0.61603883918E+03  0.61879223319E+03  0.10000000000E+02 0. -1.
</event>
<event>
 5    1  0.1369527E-008  0.3814796E+03  0.7957747E-01  0.3444741E+00
         13   -1    0    0    0    0  0.00000000000E+00  0.00000000000E+00  0.14999999963E+04  0.15000000000E+04  0.10566000000E+00 0.  1.
        994   -1    0    0    0    0 -0.00000000000E+00 -0.00000000000E+00  0.11368683772E-12  0.17120000000E+03  0.17120000000E+03 0.  0.
         13    1    1    2    0    0 -0.32383015835E+02 -0.17432214724E+02  0.17197039834E+03  0.17585895170E+03  0.10566000000E+00 0.  1.
        994    1    1    2    0    0  0.32695698187E+02  0.26249839112E+02  0.92587454438E+01  0.17650276797E+03  0.17120000000E+03 0.  0.
        998    1    1    2    0    0 -0.31268235191E+00 -0.88176243887E+01  0.13187708525E+04  0.13188382803E+04  0.10000000000E+02 0.  1.
</event>
<event>
 5    1  0.1369527E-008  0.3819223E+03  0.7957747E-01  0.3442831E+00
         13   -1    0    0    0    0  0.00000000000E+00  0.00000000000E+00  0.14999999963E+04  0.15000000000E+04  0.10566000000E+00 0.  1.
        994   -1    0    0    0    0 -0.00000000000E+00 -0.00000000000E+00  0.11368683772E-12  0.17120000000E+03  0.17120000000E+03 0.  0.
         13    1    1    2    0    0  0.14989945916E+02 -0.94923799677E+00  0.35376088402E+02  0.38432776714E+02  0.10566000000E+00 0.  1.
        994    1    1    2    0    0 -0.33095496268E+01 -0.38318410092E+01  0.32511051856E+01  0.17130570863E+03  0.17120000000E+03 0.  0.
        998    1    1    2    0    0 -0.11680396289E+02  0.47810790059E+01  0.14613728027E+04  0.14614615147E+04  0.10000000000E+02 0.  1.
</event>
<event>
 5    1  0.1369527E-008  0.3839807E+03  0.7957747E-01  0.3434007E+00
         13   -1    0    0    0    0  0.00000000000E+00  0.00000000000E+00  0.14999999963E+04  0.15000000000E+04  0.10566000000E+00 0.  1.
        994   -1    0    0    0    0 -0.00000000000E+00 -0.00000000000E+00  0.11368683772E-12  0.17120000000E+03  0.17120000000E+03 0.  0.
         13    1    1    2    0    0  0.73207008819E+01  0.78951432759E+01  0.27958480737E+02  0.29960202902E+02  0.10566000000E+00 0.  1.
        994    1    1    2    0    0 -0.19102372425E+01  0.10761303179E+02  0.25313172803E+01  0.17156719447E+03  0.17120000000E+03 0.  0.
        998    1    1    2    0    0 -0.54104636394E+01 -0.18656446455E+02  0.14695101983E+04  0.14696726026E+04  0.10000000000E+02 0.  1.
</event>
<event>
 5    1  0.1369527E-008  0.3788682E+03  0.7957747E-01  0.3456102E+00
         13   -1    0    0    0    0  0.00000000000E+00  0.00000000000E+00  0.14999999963E+04  0.15000000000E+04  0.10566000000E+00 0.  1.
        994   -1    0    0    0    0 -0.00000000000E+00 -0.00000000000E+00  0.11368683772E-12  0.17120000000E+03  0.17120000000E+03 0.  0.
         13    1    1    2    0    0 -0.77782293693E+02 -0.25217042776E+02  0.48197482379E+03  0.48886166386E+03  0.10566000000E+00 0.  1.
        994    1    1    2    0    0  0.96341563600E+02 -0.16381483033E+02  0.37448898839E+02  0.20065370639E+03  0.17120000000E+03 0.  0.
        998    1    1    2    0    0 -0.18559269908E+02  0.41598525809E+02  0.98057627364E+03  0.98168462975E+03  0.10000000000E+02 0.  1.
</event>
<event>
 5    1  0.1369527E-008  0.3730421E+03  0.7957747E-01  0.3482026E+00
         13   -1    0    0    0    0  0.00000000000E+00  0.00000000000E+00  0.14999999963E+04  0.15000000000E+04  0.10566000000E+00 0.  1.
        994   -1    0    0    0    0 -0.00000000000E+00 -0.00000000000E+00  0.11368683772E-12  0.17120000000E+03  0.17120000000E+03 0.  0.
         13    1    1    2    0    0 -0.29871376811E+02  0.13846046129E+02  0.74944730019E+02  0.81858022623E+02  0.10566000000E+00 0.  1.
        994    1    1    2    0    0  0.32089478606E+01  0.25543226219E+02  0.99587428959E+01  0.17341098671E+03  0.17120000000E+03 0.  0.
        998    1    1    2    0    0  0.26662428950E+02 -0.39389272348E+02  0.14150965234E+04  0.14159309907E+04  0.10000000000E+02 0.  1.
</event>
<event>
 5    1  0.1369527E-008  0.3803415E+03  0.7957747E-01  0.3449673E+00
         13   -1    0    0    0    0  0.00000000000E+00  0.00000000000E+00  0.14999999963E+04  0.15000000000E+04  0.10566000000E+00 0. -1.
        994   -1    0    0    0    0 -0.00000000000E+00 -0.00000000000E+00  0.11368683772E-12  0.17120000000E+03  0.17120000000E+03 0.  0.
         13    1    1    2    0    0 -0.42938097689E+01  0.97914702874E+01  0.12878889010E+02  0.16738776505E+02  0.10566000000E+00 0. -1.
        994    1    1    2    0    0  0.11904452497E+02  0.27438600429E+01  0.44593729786E+01  0.17169324612E+03  0.17120000000E+03 0.  0.
        998    1    1    2    0    0 -0.76106427279E+01 -0.12535330330E+02  0.14826617343E+04  0.14827679774E+04  0.10000000000E+02 0. -1.
</event>
<event>
 5    1  0.1369527E-008  0.3822754E+03  0.7957747E-01  0.3441310E+00
         13   -1    0    0    0    0  0.00000000000E+00  0.00000000000E+00  0.14999999963E+04  0.15000000000E+04  0.10566000000E+00 0. -1.
        994   -1    0    0    0    0 -0.00000000000E+00 -0.00000000000E+00  0.11368683772E-12  0.17120000000E+03  0.17120000000E+03 0.  0.
         13    1    1    2    0    0 -0.71329630950E+01 -0.32843434222E+02  0.16942042183E+03  0.17272191763E+03  0.10566000000E+00 0. -1.
        994    1    1    2    0    0 -0.21826506243E+01  0.34636352241E+02  0.69955100721E+01  0.17482224693E+03  0.17120000000E+03 0.  0.
        998    1    1    2    0    0  0.93156137193E+01 -0.17929180184E+01  0.13235840644E+04  0.13236558354E+04  0.10000000000E+02 0. -1.
</event>
<event>
 5    1  0.1369527E-008  0.3814065E+03  0.7957747E-01  0.3445057E+00
         13   -1    0    0    0    0  0.00000000000E+00  0.00000000000E+00  0.14999999963E+04  0.15000000000E+04  0.10566000000E+00 0.  1.
        994   -1    0    0    0    0 -0.00000000000E+00 -0.00000000000E+00  0.11368683772E-12  0.17120000000E+03  0.17120000000E+03 0.  0.
         13    1    1    2    0    0 -0.20782247743E+02 -0.15718067024E+02  0.13320499758E+03  0.13572966513E+03  0.10566000000E+00 0.  1.
        994    1    1    2    0    0 -0.17813793384E+02 -0.24577830222E+02  0.64968162363E+01  0.17399152162E+03  0.17120000000E+03 0.  0.
        998    1    1    2    0    0  0.38596041127E+02  0.40295897246E+02  0.13602981825E+04  0.13614788133E+04  0.10000000000E+02 0.  1.
</event>
<event>
 5    1  0.1369527E-008  0.3720176E+03  0.7957747E-01  0.3486669E+00
         13   -1    0    0    0    0  0.00000000000E+00  0.00000000000E+00  0.14999999963E+04  0.15000000000E+04  0.10566000000E+00 0. -1.
        994   -1    0    0    0    0 -0.00000000000E+00 -0.00000000000E+00  0.11368683772E-12  0.17120000000E+03  0.17120000000E+03 0.  0.
         13    1    1    2    0    0  0.22828233701E+02  0.58658272902E+02  0.21174316578E+03  0.22090065788E+03  0.10566000000E+00 0. -1.
        994    1    1    2    0    0  0.13395491642E+02 -0.68509359602E+02  0.25141174526E+02  0.18658641485E+03  0.17120000000E+03 0.  0.
        998    1    1    2    0    0 -0.36223725342E+02  0.98510866998E+01  0.12631156560E+04  0.12637129273E+04  0.10000000000E+02 0. -1.
</event>
<event>
 5    1  0.1369527E-008  0.3805051E+03  0.7957747E-01  0.3448962E+00
         13   -1    0    0    0    0  0.00000000000E+00  0.00000000000E+00  0.14999999963E+04  0.15000000000E+04  0.10566000000E+00 0. -1.
        994   -1    0    0    0    0 -0.00000000000E+00 -0.00000000000E+00  0.11368683772E-12  0.17120000000E+03  0.17120000000E+03 0.  0.
         13    1    1    2    0    0  0.10385966422E+02  0.36254713215E+01  0.13864397201E+02  0.17698729181E+02  0.10566000000E+00 0. -1.
        994    1    1    2    0    0 -0.10536751704E+02 -0.28478848697E-01  0.42490077552E+01  0.17157656604E+03  0.17120000000E+03 0.  0.
        998    1    1    2    0    0  0.15078528213E+00 -0.35969924728E+01  0.14818865913E+04  0.14819247048E+04  0.10000000000E+02 0. -1.
</event>
<event>
 5    1  0.1369527E-008  0.3838963E+03  0.7957747E-01  0.3434367E+00
         13   -1    0    0    0    0  0.00000000000E+00  0.00000000000E+00  0.14999999963E+04  0.15000000000E+04  0.10566000000E+00 0.  1.
        994   -1    0    0    0    0 -0.00000000000E+00 -0.00000000000E+00  0.11368683772E-12  0.17120000000E+03  0.17120000000E+03 0.  0.
         13    1    1    2    0    0  0.10961793537E+02 -0.10773438938E+02  0.57157838117E+02  0.59188322551E+02  0.10566000000E+00 0.  1.
        994    1    1    2    0    0  0.14626322786E+01 -0.92240762129E+00  0.21889572062E+01  0.17122272531E+03  0.17120000000E+03 0.  0.
        998    1    1    2    0    0 -0.12424425815E+02  0.11695846559E+02  0.14406532010E+04  0.14407889521E+04  0.10000000000E+02 0.  1.
</event>
<event>
 5    1  0.1369527E-008  0.3842350E+03  0.7957747E-01  0.3432923E+00
         13   -1    0    0    0    0  0.00000000000E+00  0.00000000000E+00  0.14999999963E+04  0.15000000000E+04  0.10566000000E+00 0.  1.
        994   -1    0    0    0    0 -0.00000000000E+00 -0.00000000000E+00  0.11368683772E-12  0.17120000000E+03  0.17120000000E+03 0.  0.
         13    1    1    2    0    0  0.96162609071E+01 -0.65216987418E+01  0.33122802091E+02  0.35101797828E+02  0.10566000000E+00 0.  1.
        994    1    1    2    0    0 -0.60221270684E+01  0.47715605256E+01  0.22050955113E+01  0.17138651129E+03  0.17120000000E+03 0.  0.
        998    1    1    2    0    0 -0.35941338387E+01  0.17501382162E+01  0.14646720987E+04  0.14647116909E+04  0.10000000000E+02 0.  1.
</event>
<event>
 5    1  0.1369527E-008  0.3829262E+03  0.7957747E-01  0.3438516E+00
         13   -1    0    0    0    0  0.00000000000E+00  0.00000000000E+00  0.14999999963E+04  0.15000000000E+04  0.10566000000E+00 0. -1.
        994   -1    0    0    0    0 -0.00000000000E+00 -0.00000000000E+00  0.11368683772E-12  0.17120000000E+03  0.17120000000E+03 0.  0.
         13    1    1    2    0    0  0.62654590510E+01  0.12961570802E+02  0.39451233077E+02  0.41996062317E+02  0.10566000000E+00 0. -1.
        994    1    1    2    0    0  0.15071378631E+02 -0.82770045750E+01  0.36427745192E+01  0.17209986945E+03  0.17120000000E+03 0.  0.
        998    1    1    2    0    0 -0.21336837682E+02 -0.46845662267E+01  0.14569059887E+04  0.14571040682E+04  0.10000000000E+02 0. -1.
</event>
<event>
 5    1  0.1369527E-008  0.3828474E+03  0.7957747E-01  0.3438853E+00
         13   -1    0    0    0    0  0.00000000000E+00  0.00000000000E+00  0.14999999963E+04  0.15000000000E+04  0.10566000000E+00 0.  1.
        994   -1    0    0    0    0 -0.00000000000E+00 -0.00000000000E+00  0.11368683772E-12  0.17120000000E+03  0.17120000000E+03 0.  0.
         13    1    1    2    0    0 -0.27290426261E+02 -0.59074665177E+01  0.13918410625E+03  0.14195736023E+03  0.10566000000E+00 0.  1.
        994    1    1    2    0    0  0.20250860495E+02  0.49054663349E+01  0.41417962887E+01  0.17251305872E+03  0.17120000000E+03 0.  0.
        998    1    1    2    0    0  0.70395657664E+01  0.10020001828E+01  0.13566740937E+04  0.13567295811E+04  0.10000000000E+02 0.  1.
</event>
<event>
 5    1  0.1369527E-008  0.2677615E+03  0.7957747E-01  0.4156960E+00
         13   -1    0    0    0    0  0.00000000000E+00  0.00000000000E+00  0.14999999963E+04  0.15000000000E+04  0.10566000000E+00 0. -1.
        994   -1    0    0    0    0 -0.00000000000E+00 -0.00000000000E+00  0.11368683772E-12  0.17120000000E+03  0.17120000000E+03 0.  0.
         13    1    1    2    0    0 -0.91163145436E+02  0.11224191509E+03  0.70229754056E+03  0.71702915787E+03  0.10566000000E+00 0. -1.
        994    1    1    2    0    0  0.15734195338E+03  0.77774336894E+02  0.17921139445E+03  0.30369639721E+03  0.17120000000E+03 0.  0.
        998    1    1    2    0    0 -0.66178807946E+02 -0.19001625199E+03  0.61849106126E+03  0.65047444492E+03  0.10000000000E+02 0. -1.
</event>
<event>
 5    1  0.1369527E-008  0.3689373E+03  0.7957747E-01  0.3500789E+00
         13   -1    0    0    0    0  0.00000000000E+00  0.00000000000E+00  0.14999999963E+04  0.15000000000E+04  0.10566000000E+00 0.  1.
        994   -1    0    0    0    0 -0.00000000000E+00 -0.00000000000E+00  0.11368683772E-12  0.17120000000E+03  0.17120000000E+03 0.  0.
         13    1    1    2    0    0  0.76705119858E+01  0.77590735762E+01  0.95213725538E+00  0.10952520544E+02  0.10566000000E+00 0.  1.
        994    1    1    2    0    0  0.10423603850E+02 -0.11316590720E+02  0.11202896731E+02  0.17225464185E+03  0.17120000000E+03 0.  0.
        998    1    1    2    0    0 -0.18094115836E+02  0.35575171436E+01  0.14878449623E+04  0.14879928376E+04  0.10000000000E+02 0.  1.
</event>
<event>
 5    1  0.1369527E-008  0.3741838E+03  0.7957747E-01  0.3476881E+00
         13   -1    0    0    0    0  0.00000000000E+00  0.00000000000E+00  0.14999999963E+04  0.15000000000E+04  0.10566000000E+00 0. -1.
        994   -1    0    0    0    0 -0.00000000000E+00 -0.00000000000E+00  0.11368683772E-12  0.17120000000E+03  0.17120000000E+03 0.  0.
         13    1    1    2    0    0  0.35542562950E+01  0.11369229058E+02  0.67611977432E+01  0.13697337922E+02  0.10566000000E+00 0. -1.
        994    1    1    2    0    0  0.35225446459E+01 -0.95750262833E+01  0.74533344924E+01  0.17166560996E+03  0.17120000000E+03 0.  0.
        998    1    1    2    0    0 -0.70768009409E+01 -0.17942027748E+01  0.14857854640E+04  0.14858370521E+04  0.10000000000E+02 0. -1.
</event>
<event>
 5    1  0.1369527E-008  0.3741776E+03  0.7957747E-01  0.3476909E+00
         13   -1    0    0    0    0  0.00000000000E+00  0.00000000000E+00  0.14999999963E+04  0.15000000000E+04  0.10566000000E+00 0.  1.
        994   -1    0    0    0    0 -0.00000000000E+00 -0.00000000000E+00  0.11368683772E-12  0.17120000000E+03  0.17120000000E+03 0.  0.
         13    1    1    2    0    0 -0.37589036179E+02  0.21796643163E+02  0.72365060856E+02  0.84408189714E+02  0.10566000000E+00 0.  1.
        994    1    1    2    0    0 -0.36410041253E+01 -0.11778336204E+02  0.13704496230E+02  0.17218954478E+03  0.17120000000E+03 0.  0.
        998    1    1    2    0    0  0.41230040304E+02 -0.10018306960E+02  0.14139304392E+04  0.14146022655E+04  0.10000000000E+02 0.  1.
</event>
<event>
 5    1  0.1369527E-008  0.3802571E+03  0.7957747E-01  0.3450040E+00
         13   -1    0    0    0    0  0.00000000000E+00  0.00000000000E+00  0.14999999963E+04  0.15000000000E+04  0.10566000000E+00 0. -1.
        994   -1    0    0    0    0 -0.00000000000E+00 -0.00000000000E+00  0.11368683772E-12  0.17120000000E+03  0.17120000000E+03 0.  0.
         13    1    1    2    0    0  0.49348109579E+01  0.95579312908E+01  0.12968304578E+02  0.16849169042E+02  0.10566000000E+00 0. -1.
        994    1    1    2    0    0  0.43890413293E+01 -0.17738206014E+01  0.40783043023E+01  0.17131398860E+03  0.17120000000E+03 0.  0.
        998    1    1    2    0    0 -0.93238522872E+01 -0.77841106893E+01  0.14829533874E+04  0.14830368424E+04  0.10000000000E+02 0. -1.
</event>
<event>
 5    1  0.1369527E-008  0.3802220E+03  0.7957747E-01  0.3450192E+00
         13   -1    0    0    0    0  0.00000000000E+00  0.00000000000E+00  0.14999999963E+04  0.15000000000E+04  0.10566000000E+00 0.  1.
        994   -1    0    0    0    0 -0.00000000000E+00 -0.00000000000E+00  0.11368683772E-12  0.17120000000E+03  0.17120000000E+03 0.  0.
         13    1    1    2    0    0  0.38070994018E+02  0.20515016407E+02  0.23864895343E+03  0.24253577184E+03  0.10566000000E+00 0.  1.
        994    1    1    2    0    0 -0.13060550177E+02 -0.20457782661E+02  0.59914643319E+01  0.17301571168E+03  0.17120000000E+03 0.  0.
        998    1    1    2    0    0 -0.25010443841E+02 -0.57233745893E-01  0.12553595785E+04  0.12556485165E+04  0.10000000000E+02 0.  1.
</event>
<event>
 5    1  0.1369527E-008  0.3818423E+03  0.7957747E-01  0.3443176E+00
         13   -1    0    0    0    0  0.00000000000E+00  0.00000000000E+00  0.14999999963E+04  0.15000000000E+04  0.10566000000E+00 0.  1.
        994   -1    0    0    0    0 -0.00000000000E+00 -0.00000000000E+00  0.11368683772E-12  0.17120000000E+03  0.17120000000E+03 0.  0.
         13    1    1    2    0    0 -0.21334545134E+02  0.14290570327E+02  0.11455238458E+03  0.11739524349E+03  0.10566000000E+00 0.  1.
        994    1    1    2    0    0 -0.12752974030E+02 -0.14151838458E+02  0.44128381563E+01  0.17231316264E+03  0.17120000000E+03 0.  0.
        998    1    1    2    0    0  0.34087519164E+02 -0.13873186961E+00  0.13810347735E+04  0.13814915939E+04  0.10000000000E+02 0.  1.
</event>
<event>
 5    1  0.1369527E-008  0.3858337E+03  0.7957747E-01  0.3426144E+00
         13   -1    0    0    0    0  0.00000000000E+00  0.00000000000E+00  0.14999999963E+04  0.15000000000E+04  0.10566000000E+00 0.  1.
        994   -1    0    0    0    0 -0.00000000000E+00 -0.00000000000E+00  0.11368683772E-12  0.17120000000E+03  0.17120000000E+03 0.  0.
         13    1    1    2    0    0  0.71064906902E+01  0.88703357167E+01  0.51238376485E+02  0.52483973311E+02  0.10566000000E+00 0.  1.
        994    1    1    2    0    0 -0.10373405856E+02 -0.10343274901E+02  0.19209083940E+01  0.17183631972E+03  0.17120000000E+03 0.  0.
        998    1    1    2    0    0  0.32669151657E+01  0.14729391843E+01  0.14468407114E+04  0.14468797070E+04  0.10000000000E+02 0.  1.
</event>
<event>
 5    1  0.1369527E-008  0.2616307E+03  0.7957747E-01  0.4214797E+00
         13   -1    0    0    0    0  0.00000000000E+00  0.00000000000E+00  0.14999999963E+04  0.15000000000E+04  0.10566000000E+00 0. -1.
        994   -1    0    0    0    0 -0.00000000000E+00 -0.00000000000E+00  0.11368683772E-12  0.17120000000E+03  0.17120000000E+03 0.  0.
         13    1    1    2    0    0  0.12609685689E+03 -0.13290991391E+03  0.24093086925E+03  0.30267665495E+03  0.10566000000E+00 0. -1.
        994    1    1    2    0    0 -0.21263198974E+03  0.86374195966E+02  0.34148360997E+03  0.44563814992E+03  0.17120000000E+03 0.  0.
        998    1    1    2    0    0  0.86535132844E+02  0.46535717943E+02  0.91758551706E+03  0.92288519513E+03  0.10000000000E+02 0. -1.
</event>
<event>
 5    1  0.1369527E-008  0.3952195E+03  0.7957747E-01  0.3387454E+00
         13   -1    0    0    0    0  0.00000000000E+00  0.00000000000E+00  0.14999999963E+04  0.15000000000E+04  0.10566000000E+00 0. -1.
        994   -1    0    0    0    0 -0.00000000000E+00 -0.00000000000E+00  0.11368683772E-12  0.17120000000E+03  0.17120000000E+03 0.  0.
         13    1    1    2    0    0  0.10333378965E+02 -0.18178555815E+01 -0.91498414961E+01  0.13921712653E+02  0.10566000000E+00 0. -1.
        994    1    1    2    0    0  0.39497483203E+01  0.12625114678E+02  0.25625258294E+02  0.17361188869E+03  0.17120000000E+03 0.  0.
        998    1    1    2    0    0 -0.14283127286E+02 -0.10807259096E+02  0.14835245795E+04  0.14836663987E+04  0.10000000000E+02 0. -1.
</event>
<event>
 5    1  0.1369527E-008  0.3753500E+03  0.7957747E-01  0.3471659E+00
         13   -1    0    0    0    0  0.00000000000E+00  0.00000000000E+00  0.14999999963E+04  0.15000000000E+04  0.10566000000E+00 0.  1.
        994   -1    0    0    0    0 -0.00000000000E+00 -0.00000000000E+00  0.11368683772E-12  0.17120000000E+03  0.17120000000E+03 0.  0.
         13    1    1    2    0    0  0.25720716864E+02  0.64089922256E+02  0.31373406073E+03  0.32124468157E+03  0.10566000000E+00 0.  1.
        994    1    1    2    0    0 -0.30059449576E+02 -0.51646006757E+02  0.18720969975E+02  0.18229315741E+03  0.17120000000E+03 0.  0.
        998    1    1    2    0    0  0.43387327110E+01 -0.12443915499E+02  0.11675449656E+04  0.11676621610E+04  0.10000000000E+02 0.  1.
</event>
<event>
 5    1  0.1369527E-008  0.3828509E+03  0.7957747E-01  0.3438838E+00
         13   -1    0    0    0    0  0.00000000000E+00  0.00000000000E+00  0.14999999963E+04  0.15000000000E+04  0.10566000000E+00 0. -1.
        994   -1    0    0    0    0 -0.00000000000E+00 -0.00000000000E+00  0.11368683772E-12  0.17120000000E+03  0.17120000000E+03 0.  0.
         13    1    1    2    0    0 -0.18179993777E+02 -0.30680124239E+02  0.18878645668E+03  0.19212527056E+03  0.10566000000E+00 0. -1.
        994    1    1    2    0    0  0.41668063319E+02  0.30505461312E+02  0.11583336664E+02  0.17919381786E+03  0.17120000000E+03 0.  0.
        998    1    1    2    0    0 -0.23488069542E+02  0.17466292672E+00  0.12996302029E+04  0.12998809116E+04  0.10000000000E+02 0. -1.
</event>
<event>
 5    1  0.1369527E-008  0.3817013E+03  0.7957747E-01  0.3443784E+00
         13   -1    0    0    0    0  0.00000000000E+00  0.00000000000E+00  0.14999999963E+04  0.15000000000E+04  0.10566000000E+00 0. -1.
        994   -1    0    0    0    0 -0.00000000000E+00 -0.00000000000E+00  0.11368683772E-12  0.17120000000E+03  0.17120000000E+03 0.  0.
         13    1    1    2    0    0 -0.10389845769E+02 -0.13983423979E+02  0.46322272421E+02  0.49489889145E+02  0.10566000000E+00 0. -1.
        994    1    1    2    0    0  0.46846972076E+01  0.28881914771E+01  0.33774789241E+01  0.17132173068E+03  0.17120000000E+03 0.  0.
        998    1    1    2    0    0  0.57051485613E+01  0.11095232502E+02  0.14503002449E+04  0.14503883802E+04  0.10000000000E+02 0. -1.
</event>
<event>
 5    1  0.1369527E-008  0.2688425E+03  0.7957747E-01  0.4147073E+00
         13   -1    0    0    0    0  0.00000000000E+00  0.00000000000E+00  0.14999999963E+04  0.15000000000E+04  0.10566000000E+00 0.  1.
        994   -1    0    0    0    0 -0.00000000000E+00 -0.00000000000E+00  0.11368683772E-12  0.17120000000E+03  0.17120000000E+03 0.  0.
         13    1    1    2    0    0 -0.12415945164E+03 -0.12145763686E+03  0.61581243975E+03  0.63983786938E+03  0.10566000000E+00 0.  1.
        994    1    1    2    0    0  0.77974851021E+02 -0.27069134880E+00  0.60825831278E+02  0.19771032451E+03  0.17120000000E+03 0.  0.
        998    1    1    2    0    0  0.46184600618E+02  0.12172832821E+03  0.82336172525E+03  0.83365180611E+03  0.10000000000E+02 0.  1.
</event>
<event>
 5    1  0.1369527E-008  0.3698444E+03  0.7957747E-01  0.3496606E+00
         13   -1    0    0    0    0  0.00000000000E+00  0.00000000000E+00  0.14999999963E+04  0.15000000000E+04  0.10566000000E+00 0.  1.
        994   -1    0    0    0    0 -0.00000000000E+00 -0.00000000000E+00  0.11368683772E-12  0.17120000000E+03  0.17120000000E+03 0.  0.
         13    1    1    2    0    0  0.73303534268E+00  0.12598519805E+02  0.24906355874E+01  0.12863688108E+02  0.10566000000E+00 0.  1.
        994    1    1    2    0    0 -0.81129841102E+01  0.69484100194E+01  0.11255324368E+02  0.17190178370E+03  0.17120000000E+03 0.  0.
        998    1    1    2    0    0  0.73799487675E+01 -0.19546929824E+02  0.14862540363E+04  0.14864345282E+04  0.10000000000E+02 0.  1.
</event>
<event>
 5    1  0.1369527E-008  0.3830251E+03  0.7957747E-01  0.3438091E+00
         13   -1    0    0    0    0  0.00000000000E+00  0.00000000000E+00  0.14999999963E+04  0.15000000000E+04  0.10566000000E+00 0. -1.
        994   -1    0    0    0    0 -0.00000000000E+00 -0.00000000000E+00  0.11368683772E-12  0.17120000000E+03  0.17120000000E+03 0.  0.
         13    1    1    2    0    0 -0.25214013083E+02 -0.17270981417E+03  0.98487683643E+03  0.10002233853E+04  0.10566000000E+00 0. -1.
        994    1    1    2    0    0  0.35850107233E+02  0.18590389854E+03  0.13203160569E+03  0.28738001772E+03  0.17120000000E+03 0.  0.
        998    1    1    2    0    0 -0.10636094150E+02 -0.13194084372E+02  0.38309155416E+03  0.38359659700E+03  0.10000000000E+02 0.  0.
</event>
<event>
 5    1  0.1369527E-008  0.3800713E+03  0.7957747E-01  0.3450848E+00
         13   -1    0    0    0    0  0.00000000000E+00  0.00000000000E+00  0.14999999963E+04  0.15000000000E+04  0.10566000000E+00 0. -1.
        994   -1    0    0    0    0 -0.00000000000E+00 -0.00000000000E+00  0.11368683772E-12  0.17120000000E+03  0.17120000000E+03 0.  0.
         13    1    1    2    0    0 -0.27697518839E+01 -0.20371771143E+02  0.50497198407E+02  0.54522094567E+02  0.10566000000E+00 0. -1.
        994    1    1    2    0    0 -0.30139457385E+01  0.11626315722E+02  0.45794107034E+01  0.17168187467E+03  0.17120000000E+03 0.  0.
        998    1    1    2    0    0  0.57836976224E+01  0.87454554208E+01  0.14449233872E+04  0.14449960308E+04  0.10000000000E+02 0. -1.
</event>
<event>
 5    1  0.1369527E-008  0.3815969E+03  0.7957747E-01  0.3444234E+00
         13   -1    0    0    0    0  0.00000000000E+00  0.00000000000E+00  0.14999999963E+04  0.15000000000E+04  0.10566000000E+00 0.  1.
        994   -1    0    0    0    0 -0.00000000000E+00 -0.00000000000E+00  0.11368683772E-12  0.17120000000E+03  0.17120000000E+03 0.  0.
         13    1    1    2    0    0  0.44328961821E+01 -0.11058828274E+02  0.20090245250E+02  0.23357597684E+02  0.10566000000E+00 0.  1.
        994    1    1    2    0    0 -0.39429417731E+01  0.54097106498E+01  0.34782301402E+01  0.17136612805E+03  0.17120000000E+03 0.  0.
        998    1    1    2    0    0 -0.48995440902E+00  0.56491176241E+01  0.14764315209E+04  0.14764762743E+04  0.10000000000E+02 0.  1.
</event>
<event>
 5    1  0.1369527E-008  0.3817568E+03  0.7957747E-01  0.3443545E+00
         13   -1    0    0    0    0  0.00000000000E+00  0.00000000000E+00  0.14999999963E+04  0.15000000000E+04  0.10566000000E+00 0.  1.
        994   -1    0    0    0    0 -0.00000000000E+00 -0.00000000000E+00  0.11368683772E-12  0.17120000000E+03  0.17120000000E+03 0.  0.
         13    1    1    2    0    0  0.20839351488E+02  0.28900603021E+02  0.21215159095E+03  0.21512283033E+03  0.10566000000E+00 0.  1.
        994    1    1    2    0    0 -0.52276580055E+01 -0.91936394907E+01  0.36208049500E+01  0.17156456990E+03  0.17120000000E+03 0.  0.
        998    1    1    2    0    0 -0.15611693483E+02 -0.19706963531E+02  0.12842276004E+04  0.12845125998E+04  0.10000000000E+02 0.  1.
</event>
<event>
 5    1  0.1369527E-008  0.3814022E+03  0.7957747E-01  0.3445076E+00
         13   -1    0    0    0    0  0.00000000000E+00  0.00000000000E+00  0.14999999963E+04  0.15000000000E+04  0.10566000000E+00 0. -1.
        994   -1    0    0    0    0 -0.00000000000E+00 -0.00000000000E+00  0.11368683772E-12  0.17120000000E+03  0.17120000000E+03 0.  0.
         13    1    1    2    0    0  0.97815759419E+01  0.93242847168E+01  0.25976018425E+02  0.29281157946E+02  0.10566000000E+00 0. -1.
        994    1    1    2    0    0  0.16630500518E+01 -0.30872947446E+01  0.34679177309E+01  0.17127102375E+03  0.17120000000E+03 0.  0.
        998    1    1    2    0    0 -0.11444625994E+02 -0.62369899722E+01  0.14705560601E+04  0.14706478183E+04  0.10000000000E+02 0. -1.
</event>
<event>
 5    1  0.1369527E-008  0.3685532E+03  0.7957747E-01  0.3502567E+00
         13   -1    0    0    0    0  0.00000000000E+00  0.00000000000E+00  0.14999999963E+04  0.15000000000E+04  0.10566000000E+00 0.  1.
        994   -1    0    0    0    0 -0.00000000000E+00 -0.00000000000E+00  0.11368683772E-12  0.17120000000E+03  0.17120000000E+03 0.  0.
         13    1    1    2    0    0 -0.52997089259E+02 -0.31304079922E+02  0.16323983586E+03  0.17445885494E+03  0.10566000000E+00 0.  1.
        994    1    1    2    0    0  0.57306905028E+02  0.31173010135E+02  0.24965717383E+02  0.18490150072E+03  0.17120000000E+03 0.  0.
        998    1    1    2    0    0 -0.43098157689E+01  0.13106978789E+00  0.13117944430E+04  0.13118396443E+04  0.10000000000E+02 0.  1.
</event>
<event>
 5    1  0.1369527E-008  0.3819842E+03  0.7957747E-01  0.3442564E+00
         13   -1    0    0    0    0  0.00000000000E+00  0.00000000000E+00  0.14999999963E+04  0.15000000000E+04  0.10566000000E+00 0. -1.
        994   -1    0    0    0    0 -0.00000000000E+00 -0.00000000000E+00  0.11368683772E-12  0.17120000000E+03  0.17120000000E+03 0.  0.
         13    1    1    2    0    0 -0.29466427139E+01  0.18096848941E+02  0.52763666823E+02  0.55858699819E+02  0.10566000000E+00 0. -1.
        994    1    1    2    0    0  0.10755354767E+02 -0.95079314862E+01  0.38196081796E+01  0.17184326529E+03  0.17120000000E+03 0.  0.
        998    1    1    2    0    0 -0.78087120535E+01 -0.85889174543E+01  0.14434167213E+04  0.14434980349E+04  0.10000000000E+02 0. -1.
</event>
<event>
 5    1  0.1369527E-008  0.3707432E+03  0.7957747E-01  0.3492482E+00
         13   -1    0    0    0    0  0.00000000000E+00  0.00000000000E+00  0.14999999963E+04  0.15000000000E+04  0.10566000000E+00 0. -1.
        994   -1    0    0    0    0 -0.00000000000E+00 -0.00000000000E+00  0.11368683772E-12  0.17120000000E+03  0.17120000000E+03 0.  0.
         13    1    1    2    0    0 -0.42268462787E+01  0.24413605014E+02  0.29852046761E+02  0.38794924914E+02  0.10566000000E+00 0. -1.
        994    1    1    2    0    0  0.10758341507E+02 -0.29534527959E+02  0.12296263592E+02  0.17449546800E+03  0.17120000000E+03 0.  0.
        998    1    1    2    0    0 -0.65314952283E+01  0.51209229444E+01  0.14578516859E+04  0.14579096071E+04  0.10000000000E+02 0. -1.
</event>
<event>
 5    1  0.1369527E-008  0.3797304E+03  0.7957747E-01  0.3452333E+00
         13   -1    0    0    0    0  0.00000000000E+00  0.00000000000E+00  0.14999999963E+04  0.15000000000E+04  0.10566000000E+00 0.  1.
        994   -1    0    0    0    0 -0.00000000000E+00 -0.00000000000E+00  0.11368683772E-12  0.17120000000E+03  0.17120000000E+03 0.  0.
         13    1    1    2    0    0 -0.24418000146E+02  0.26722119787E+02  0.15375526334E+03  0.15795886359E+03  0.10566000000E+00 0.  1.
        994    1    1    2    0    0  0.15782411096E+02 -0.11926402951E+02  0.55797363143E+01  0.17242939728E+03  0.17120000000E+03 0.  0.
        998    1    1    2    0    0  0.86355890496E+01 -0.14795716836E+02  0.13406649966E+04  0.13408117391E+04  0.10000000000E+02 0.  1.
</event>
<event>
 5    1  0.1369527E-008  0.3849993E+03  0.7957747E-01  0.3429675E+00
         13   -1    0    0    0    0  0.00000000000E+00  0.00000000000E+00  0.14999999963E+04  0.15000000000E+04  0.10566000000E+00 0. -1.
        994   -1    0    0    0    0 -0.00000000000E+00 -0.00000000000E+00  0.11368683772E-12  0.17120000000E+03  0.17120000000E+03 0.  0.
         13    1    1    2    0    0  0.42379650512E+01 -0.10622405570E+02  0.47162105825E+02  0.48529076210E+02  0.10566000000E+00 0. -1.
        994    1    1    2    0    0 -0.17081488655E+02 -0.29591171930E+02  0.54791779573E+01  0.17466217708E+03  0.17120000000E+03 0.  0.
        998    1    1    2    0    0  0.12843523604E+02  0.40213577500E+02  0.14473587125E+04  0.14480087467E+04  0.10000000000E+02 0. -1.
</event>
<event>
 5    1  0.1369527E-008  0.3840719E+03  0.7957747E-01  0.3433618E+00
         13   -1    0    0    0    0  0.00000000000E+00  0.00000000000E+00  0.14999999963E+04  0.15000000000E+04  0.10566000000E+00 0. -1.
        994   -1    0    0    0    0 -0.00000000000E+00 -0.00000000000E+00  0.11368683772E-12  0.17120000000E+03  0.17120000000E+03 0.  0.
         13    1    1    2    0    0 -0.83444261094E+01  0.89012913428E+01  0.34608571282E+02  0.36696414060E+02  0.10566000000E+00 0. -1.
        994    1    1    2    0    0  0.89801161660E+01 -0.71231837318E+01  0.25250968374E+01  0.17160185997E+03  0.17120000000E+03 0.  0.
        998    1    1    2    0    0 -0.63569005655E+00 -0.17781076111E+01  0.14628663282E+04  0.14629017260E+04  0.10000000000E+02 0. -1.
</event>
<event>
 5    1  0.1369527E-008  0.3772347E+03  0.7957747E-01  0.3463288E+00
         13   -1    0    0    0    0  0.00000000000E+00  0.00000000000E+00  0.14999999963E+04  0.15000000000E+04  0.10566000000E+00 0. -1.
        994   -1    0    0    0    0 -0.00000000000E+00 -0.00000000000E+00  0.11368683772E-12  0.17120000000E+03  0.17120000000E+03 0.  0.
         13    1    1    2    0    0  0.12904927449E+02 -0.30517983657E+02  0.97349335154E+02  0.10283379162E+03  0.10566000000E+00 0. -1.
        994    1    1    2    0    0  0.59106485002E+01  0.24226697960E+02  0.76364864229E+01  0.17317512692E+03  0.17120000000E+03 0.  0.
        998    1    1    2    0    0 -0.18815575949E+02  0.62912856965E+01  0.13950141747E+04  0.13951910815E+04  0.10000000000E+02 0. -1.
</event>
<event>
 5    1  0.1369527E-008  0.3797402E+03  0.7957747E-01  0.3452291E+00
         13   -1    0    0    0    0  0.00000000000E+00  0.00000000000E+00  0.14999999963E+04  0.15000000000E+04  0.10566000000E+00 0. -1.
        994   -1    0    0    0    0 -0.00000000000E+00 -0.00000000000E+00  0.11368683772E-12  0.17120000000E+03  0.17120000000E+03 0.  0.
         13    1    1    2    0    0 -0.20054985450E+02 -0.64357814067E+01  0.49647395150E+02  0.53930480555E+02  0.10566000000E+00 0. -1.
        994    1    1    2    0    0  0.17521982207E+02  0.39753003555E+01  0.53452081163E+01  0.17222321018E+03  0.17120000000E+03 0.  0.
        998    1    1    2    0    0  0.25330032428E+01  0.24604810512E+01  0.14450073930E+04  0.14450463093E+04  0.10000000000E+02 0. -1.
</event>
<event>
 5    1  0.1369527E-008  0.3791482E+03  0.7957747E-01  0.3454876E+00
         13   -1    0    0    0    0  0.00000000000E+00  0.00000000000E+00  0.14999999963E+04  0.15000000000E+04  0.10566000000E+00 0. -1.
        994   -1    0    0    0    0 -0.00000000000E+00 -0.00000000000E+00  0.11368683772E-12  0.17120000000E+03  0.17120000000E+03 0.  0.
         13    1    1    2    0    0 -0.33123882659E+02  0.19387913271E+02  0.14536173443E+03  0.15034336628E+03  0.10566000000E+00 0. -1.
        994    1    1    2    0    0  0.36384390341E+02 -0.14506469207E+02  0.97243812179E+01  0.17589276591E+03  0.17120000000E+03 0.  0.
        998    1    1    2    0    0 -0.32605076816E+01 -0.48814440641E+01  0.13449138806E+04  0.13449638678E+04  0.10000000000E+02 0. -1.
</event>
<event>
 5    1  0.1369527E-008  0.3797371E+03  0.7957747E-01  0.3452304E+00
         13   -1    0    0    0    0  0.00000000000E+00  0.00000000000E+00  0.14999999963E+04  0.15000000000E+04  0.10566000000E+00 0.  1.
        994   -1    0    0    0    0 -0.00000000000E+00 -0.00000000000E+00  0.11368683772E-12  0.17120000000E+03  0.17120000000E+03 0.  0.
         13    1    1    2    0    0  0.18829099166E+02 -0.24618259346E+02  0.12093382042E+03  0.12484227551E+03  0.10566000000E+00 0.  1.
        994    1    1    2    0    0  0.41719001581E+01  0.78295865332E+01  0.45292996653E+01  0.17148953826E+03  0.17120000000E+03 0.  0.
        998    1    1    2    0    0 -0.23000999324E+02  0.16788672813E+02  0.13745368762E+04  0.13748681862E+04  0.10000000000E+02 0.  1.
</event>
<event>
 5    1  0.1369527E-008  0.3832722E+03  0.7957747E-01  0.3437033E+00
         13   -1    0    0    0    0  0.00000000000E+00  0.00000000000E+00  0.14999999963E+04  0.15000000000E+04  0.10566000000E+00 0. -1.
        994   -1    0    0    0    0 -0.00000000000E+00 -0.00000000000E+00  0.11368683772E-12  0.17120000000E+03  0.17120000000E+03 0.  0.
         13    1    1    2    0    0 -0.35055371786E+01  0.14058673428E+02  0.41504173967E+02  0.43960695061E+02  0.10566000000E+00 0. -1.
        994    1    1    2    0    0  0.10485957028E+02 -0.68485085260E+01  0.30093428036E+01  0.17168387667E+03  0.17120000000E+03 0.  0.
        998    1    1    2    0    0 -0.69804198498E+01 -0.72101649018E+01  0.14554864795E+04  0.14555554283E+04  0.10000000000E+02 0. -1.
</event>
<event>
 5    1  0.1369527E-008  0.3775626E+03  0.7957747E-01  0.3461841E+00
         13   -1    0    0    0    0  0.00000000000E+00  0.00000000000E+00  0.14999999963E+04  0.15000000000E+04  0.10566000000E+00 0. -1.
        994   -1    0    0    0    0 -0.00000000000E+00 -0.00000000000E+00  0.11368683772E-12  0.17120000000E+03  0.17120000000E+03 0.  0.
         13    1    1    2    0    0 -0.96461617352E+01  0.46941380352E+02  0.21833311707E+03  0.22353054108E+03  0.10566000000E+00 0. -1.
        994    1    1    2    0    0 -0.14240181200E+01 -0.24200469848E+02  0.73517076462E+01  0.17306408690E+03  0.17120000000E+03 0.  0.
        998    1    1    2    0    0  0.11070179855E+02 -0.22740910504E+02  0.12743151716E+04  0.12746053720E+04  0.10000000000E+02 0. -1.
</event>
<event>
 5    1  0.1369527E-008  0.3803659E+03  0.7957747E-01  0.3449567E+00
         13   -1    0    0    0    0  0.00000000000E+00  0.00000000000E+00  0.14999999963E+04  0.15000000000E+04  0.10566000000E+00 0.  1.
        994   -1    0    0    0    0 -0.00000000000E+00 -0.00000000000E+00  0.11368683772E-12  0.17120000000E+03  0.17120000000E+03 0.  0.
         13    1    1    2    0    0  0.27350781777E+02  0.17636358114E+02  0.13361773316E+03  0.13752387491E+03  0.10566000000E+00 0.  1.
        994    1    1    2    0    0 -0.16347605577E+02 -0.84011585690E+01  0.50773079870E+01  0.17225865067E+03  0.17120000000E+03 0.  0.
        998    1    1    2    0    0 -0.11003176200E+02 -0.92351995452E+01  0.13613049551E+04  0.13614174744E+04  0.10000000000E+02 0.  1.
</event>
<event>
 5    1  0.1369527E-008  0.3783278E+03  0.7957747E-01  0.3458472E+00
         13   -1    0    0    0    0  0.00000000000E+00  0.00000000000E+00  0.14999999963E+04  0.15000000000E+04  0.10566000000E+00 0. -1.
        994   -1    0    0    0    0 -0.00000000000E+00 -0.00000000000E+00  0.11368683772E-12  0.17120000000E+03  0.17120000000E+03 0.  0.
         13    1    1    2    0    0 -0.35934395032E+01  0.11795407040E+02  0.12990449716E+02  0.17911096632E+02  0.10566000000E+00 0. -1.
        994    1    1    2    0    0  0.18657967562E+01 -0.11676928916E+02  0.54498187665E+01  0.17169441572E+03  0.17120000000E+03 0.  0.
        998    1    1    2    0    0  0.17276427470E+01 -0.11847812421E+00  0.14815597278E+04  0.14815944876E+04  0.10000000000E+02 0. -1.
</event>
<event>
 5    1  0.1369527E-008  0.3741218E+03  0.7957747E-01  0.3477160E+00
         13   -1    0    0    0    0  0.00000000000E+00  0.00000000000E+00  0.14999999963E+04  0.15000000000E+04  0.10566000000E+00 0. -1.
        994   -1    0    0    0    0 -0.00000000000E+00 -0.00000000000E+00  0.11368683772E-12  0.17120000000E+03  0.17120000000E+03 0.  0.
         13    1    1    2    0    0  0.27216416600E+01  0.19982001325E+02  0.24955521882E+02  0.32085463168E+02  0.10566000000E+00 0. -1.
        994    1    1    2    0    0 -0.55461272644E+01 -0.22441925744E+02  0.89544364920E+01  0.17298561065E+03  0.17120000000E+03 0.  0.
        998    1    1    2    0    0  0.28244856045E+01  0.24599244198E+01  0.14660900379E+04  0.14661289262E+04  0.10000000000E+02 0. -1.
</event>
<event>
 5    1  0.1369527E-008  0.3697051E+03  0.7957747E-01  0.3497247E+00
         13   -1    0    0    0    0  0.00000000000E+00  0.00000000000E+00  0.14999999963E+04  0.15000000000E+04  0.10566000000E+00 0.  1.
        994   -1    0    0    0    0 -0.00000000000E+00 -0.00000000000E+00  0.11368683772E-12  0.17120000000E+03  0.17120000000E+03 0.  0.
         13    1    1    2    0    0  0.17759043617E+02 -0.36147164874E+02  0.65165514872E+02  0.76606505279E+02  0.10566000000E+00 0.  1.
        994    1    1    2    0    0 -0.50994275051E+02  0.36656850528E+02  0.24687259424E+02  0.18401913367E+03  0.17120000000E+03 0.  0.
        998    1    1    2    0    0  0.33235231434E+02 -0.50968565416E+00  0.14101472220E+04  0.14105743611E+04  0.10000000000E+02 0.  1.
</event>
<event>
 5    1  0.1369527E-008  0.3845105E+03  0.7957747E-01  0.3431751E+00
         13   -1    0    0    0    0  0.00000000000E+00  0.00000000000E+00  0.14999999963E+04  0.15000000000E+04  0.10566000000E+00 0.  1.
        994   -1    0    0    0    0 -0.00000000000E+00 -0.00000000000E+00  0.11368683772E-12  0.17120000000E+03  0.17120000000E+03 0.  0.
         13    1    1    2    0    0 -0.19730232179E+02 -0.15522908453E+02  0.15184446715E+03  0.15390580274E+03  0.10566000000E+00 0.  1.
        994    1    1    2    0    0  0.20037119448E+02  0.17282458926E+02  0.41830365455E+01  0.17328331523E+03  0.17120000000E+03 0.  0.
        998    1    1    2    0    0 -0.30688726880E+00 -0.17595504722E+01  0.13439724926E+04  0.13440108820E+04  0.10000000000E+02 0.  1.
</event>
<event>
 5    1  0.1369527E-008  0.3694021E+03  0.7957747E-01  0.3498643E+00
         13   -1    0    0    0    0  0.00000000000E+00  0.00000000000E+00  0.14999999963E+04  0.15000000000E+04  0.10566000000E+00 0. -1.
        994   -1    0    0    0    0 -0.00000000000E+00 -0.00000000000E+00  0.11368683772E-12  0.17120000000E+03  0.17120000000E+03 0.  0.
         13    1    1    2    0    0 -0.18712412773E+02  0.27583462793E+02  0.48133855926E+02  0.58548108952E+02  0.10566000000E+00 0. -1.
        994    1    1    2    0    0  0.13446584871E+02 -0.18826034035E+02  0.12492450598E+02  0.17320719247E+03  0.17120000000E+03 0.  0.
        998    1    1    2    0    0  0.52658279024E+01 -0.87574287580E+01  0.14393736898E+04  0.14394446986E+04  0.10000000000E+02 0. -1.
</event>
<event>
 5    1  0.1369527E-008  0.3813952E+03  0.7957747E-01  0.3445106E+00
         13   -1    0    0    0    0  0.00000000000E+00  0.00000000000E+00  0.14999999963E+04  0.15000000000E+04  0.10566000000E+00 0. -1.
        994   -1    0    0    0    0 -0.00000000000E+00 -0.00000000000E+00  0.11368683772E-12  0.17120000000E+03  0.17120000000E+03 0.  0.
         13    1    1    2    0    0 -0.22143114552E+02  0.91026522552E+01  0.84637147814E+02  0.87958136373E+02  0.10566000000E+00 0. -1.
        994    1    1    2    0    0  0.94825883832E+01 -0.24469720105E+01  0.37497333928E+01  0.17152086653E+03  0.17120000000E+03 0.  0.
        998    1    1    2    0    0  0.12660526169E+02 -0.66556802447E+01  0.14116131151E+04  0.14117209971E+04  0.10000000000E+02 0. -1.
</event>
<event>
 5    1  0.1369527E-008  0.3709865E+03  0.7957747E-01  0.3491370E+00
         13   -1    0    0    0    0  0.00000000000E+00  0.00000000000E+00  0.14999999963E+04  0.15000000000E+04  0.10566000000E+00 0.  1.
        994   -1    0    0    0    0 -0.00000000000E+00 -0.00000000000E+00  0.11368683772E-12  0.17120000000E+03  0.17120000000E+03 0.  0.
         13    1    1    2    0    0 -0.22128416552E+02  0.10173914931E+02  0.29725427207E+02  0.38428993622E+02  0.10566000000E+00 0.  1.
        994    1    1    2    0    0  0.20555055797E+02 -0.13223968506E+02  0.10815632994E+02  0.17327377637E+03  0.17120000000E+03 0.  0.
        998    1    1    2    0    0  0.15733607547E+01  0.30500535750E+01  0.14594589361E+04  0.14594972300E+04  0.10000000000E+02 0.  1.
</event>
<event>
 5    1  0.1369527E-008  0.3775875E+03  0.7957747E-01  0.3461731E+00
         13   -1    0    0    0    0  0.00000000000E+00  0.00000000000E+00  0.14999999963E+04  0.15000000000E+04  0.10566000000E+00 0.  1.
        994   -1    0    0    0    0 -0.00000000000E+00 -0.00000000000E+00  0.11368683772E-12  0.17120000000E+03  0.17120000000E+03 0.  0.
         13    1    1    2    0    0 -0.24768958019E+02  0.41072841792E+02  0.23759453950E+03  0.24238740887E+03  0.10566000000E+00 0.  1.
        994    1    1    2    0    0  0.12760334309E+02 -0.72076918190E+01  0.60800250081E+01  0.17193366063E+03  0.17120000000E+03 0.  0.
        998    1    1    2    0    0  0.12008623711E+02 -0.33865149973E+02  0.12563254318E+04  0.12568789305E+04  0.10000000000E+02 0.  1.
</event>
<event>
 5    1  0.1646740E-008  0.3846763E+03  0.7957747E-01  0.3431046E+00
         13   -1    0    0    0    0  0.00000000000E+00  0.00000000000E+00  0.14999999963E+04  0.15000000000E+04  0.10566000000E+00 0. -1.
        994   -1    0    0    0    0 -0.00000000000E+00 -0.00000000000E+00  0.11368683772E-12  0.17120000000E+03  0.17120000000E+03 0.  0.
         13    1    1    2    0    0 -0.34965028306E+01  0.12071630476E+02  0.42516726042E+02  0.44335459305E+02  0.10566000000E+00 0. -1.
        994    1    1    2    0    0  0.47115282384E+01 -0.13960036414E+02  0.25059273149E+01  0.17185110063E+03  0.17120000000E+03 0.  0.
        998    1    1    2    0    0 -0.12150254078E+01  0.18884059389E+01  0.14549773429E+04  0.14550134401E+04  0.10000000000E+02 0. -1.
</event>
<event>
 5    1  0.1369527E-008  0.3710479E+03  0.7957747E-01  0.3491089E+00
         13   -1    0    0    0    0  0.00000000000E+00  0.00000000000E+00  0.14999999963E+04  0.15000000000E+04  0.10566000000E+00 0. -1.
        994   -1    0    0    0    0 -0.00000000000E+00 -0.00000000000E+00  0.11368683772E-12  0.17120000000E+03  0.17120000000E+03 0.  0.
         13    1    1    2    0    0 -0.70962341412E+02 -0.20597266072E+02  0.22366659603E+03  0.23555606256E+03  0.10566000000E+00 0. -1.
        994    1    1    2    0    0  0.48773428801E+02  0.20766957113E+02  0.21420291035E+02  0.18049482744E+03  0.17120000000E+03 0.  0.
        998    1    1    2    0    0  0.22188912612E+02 -0.16969104138E+00  0.12549131092E+04  0.12551491100E+04  0.10000000000E+02 0. -1.
</event>
<event>
 5    1  0.1369527E-008  0.3827425E+03  0.7957747E-01  0.3439303E+00
         13   -1    0    0    0    0  0.00000000000E+00  0.00000000000E+00  0.14999999963E+04  0.15000000000E+04  0.10566000000E+00 0.  1.
        994   -1    0    0    0    0 -0.00000000000E+00 -0.00000000000E+00  0.11368683772E-12  0.17120000000E+03  0.17120000000E+03 0.  0.
         13    1    1    2    0    0 -0.22376990917E+01  0.18364085297E+02  0.65050185931E+02  0.67629762529E+02  0.10566000000E+00 0.  1.
        994    1    1    2    0    0  0.10337286443E+01  0.46359427322E-01  0.27586643970E+01  0.17122535143E+03  0.17120000000E+03 0.  0.
        998    1    1    2    0    0  0.12039704474E+01 -0.18410444725E+02  0.14321911460E+04  0.14323448860E+04  0.10000000000E+02 0.  1.
</event>
<event>
 5    1  0.1369527E-008  0.3848229E+03  0.7957747E-01  0.3430423E+00
         13   -1    0    0    0    0  0.00000000000E+00  0.00000000000E+00  0.14999999963E+04  0.15000000000E+04  0.10566000000E+00 0. -1.
        994   -1    0    0    0    0 -0.00000000000E+00 -0.00000000000E+00  0.11368683772E-12  0.17120000000E+03  0.17120000000E+03 0.  0.
         13    1    1    2    0    0 -0.11567415805E+02  0.24756734485E+01  0.40758598756E+02  0.42440648016E+02  0.10566000000E+00 0. -1.
        994    1    1    2    0    0  0.58581135052E+01 -0.51687406646E+01  0.19189279431E+01  0.17138890179E+03  0.17120000000E+03 0.  0.
        998    1    1    2    0    0  0.57093023000E+01  0.26930672161E+01  0.14573224696E+04  0.14573704502E+04  0.10000000000E+02 0. -1.
</event>
<event>
 5    1  0.1369527E-008  0.3837891E+03  0.7957747E-01  0.3434824E+00
         13   -1    0    0    0    0  0.00000000000E+00  0.00000000000E+00  0.14999999963E+04  0.15000000000E+04  0.10566000000E+00 0. -1.
        994   -1    0    0    0    0 -0.00000000000E+00 -0.00000000000E+00  0.11368683772E-12  0.17120000000E+03  0.17120000000E+03 0.  0.
         13    1    1    2    0    0  0.15771485383E+02  0.91691863387E+01  0.73903537056E+02  0.76121992110E+02  0.10566000000E+00 0. -1.
        994    1    1    2    0    0 -0.89458811107E+01 -0.85993553917E+01  0.27410552178E+01  0.17167099664E+03  0.17120000000E+03 0.  0.
        998    1    1    2    0    0 -0.68256042722E+01 -0.56983094697E+00  0.14233554040E+04  0.14234070113E+04  0.10000000000E+02 0. -1.
</event>
<event>
 5    1  0.1369527E-008  0.3771836E+03  0.7957747E-01  0.3463514E+00
         13   -1    0    0    0    0  0.00000000000E+00  0.00000000000E+00  0.14999999963E+04  0.15000000000E+04  0.10566000000E+00 0.  1.
        994   -1    0    0    0    0 -0.00000000000E+00 -0.00000000000E+00  0.11368683772E-12  0.17120000000E+03  0.17120000000E+03 0.  0.
         13    1    1    2    0    0 -0.86343683728E+01  0.47855410932E+02  0.15217609615E+03  0.15975690307E+03  0.10566000000E+00 0.  1.
        994    1    1    2    0    0  0.40259836967E+02 -0.82980028127E+02  0.34826521777E+02  0.19755724780E+03  0.17120000000E+03 0.  0.
        998    1    1    2    0    0 -0.31625468594E+02  0.35124617194E+02  0.13129973783E+04  0.13138858491E+04  0.10000000000E+02 0.  1.
</event>
<event>
 5    1  0.1369527E-008  0.3734168E+03  0.7957747E-01  0.3480334E+00
         13   -1    0    0    0    0  0.00000000000E+00  0.00000000000E+00  0.14999999963E+04  0.15000000000E+04  0.10566000000E+00 0.  1.
        994   -1    0    0    0    0 -0.00000000000E+00 -0.00000000000E+00  0.11368683772E-12  0.17120000000E+03  0.17120000000E+03 0.  0.
         13    1    1    2    0    0 -0.59070081049E+02  0.12674841101E+02  0.18026253386E+03  0.19011711746E+03  0.10566000000E+00 0.  1.
        994    1    1    2    0    0  0.88636144975E+02 -0.17548632991E+02  0.35930940296E+02  0.19688776800E+03  0.17120000000E+03 0.  0.
        998    1    1    2    0    0 -0.29566063927E+02  0.48737918902E+01  0.12838065221E+04  0.12841951145E+04  0.10000000000E+02 0.  1.
</event>
<event>
 5    1  0.1369527E-008  0.3812618E+03  0.7957747E-01  0.3445682E+00
         13   -1    0    0    0    0  0.00000000000E+00  0.00000000000E+00  0.14999999963E+04  0.15000000000E+04  0.10566000000E+00 0. -1.
        994   -1    0    0    0    0 -0.00000000000E+00 -0.00000000000E+00  0.11368683772E-12  0.17120000000E+03  0.17120000000E+03 0.  0.
         13    1    1    2    0    0  0.19345831755E+02 -0.15699439467E+01  0.52322947883E+02  0.55807060212E+02  0.10566000000E+00 0. -1.
        994    1    1    2    0    0 -0.13740231441E+02  0.39952956463E+01  0.41794615189E+01  0.17184779383E+03  0.17120000000E+03 0.  0.
        998    1    1    2    0    0 -0.56056003143E+01 -0.24253516996E+01  0.14434975869E+04  0.14435451460E+04  0.10000000000E+02 0. -1.
</event>
<event>
 5    1  0.1369527E-008  0.3836563E+03  0.7957747E-01  0.3435391E+00
         13   -1    0    0    0    0  0.00000000000E+00  0.00000000000E+00  0.14999999963E+04  0.15000000000E+04  0.10566000000E+00 0.  1.
        994   -1    0    0    0    0 -0.00000000000E+00 -0.00000000000E+00  0.11368683772E-12  0.17120000000E+03  0.17120000000E+03 0.  0.
         13    1    1    2    0    0  0.23353501380E+02 -0.54738345269E+01  0.13366522215E+03  0.13580041115E+03  0.10566000000E+00 0.  1.
        994    1    1    2    0    0 -0.38833347107E+01  0.88828994839E+01  0.26092111726E+01  0.17149412286E+03  0.17120000000E+03 0.  0.
        998    1    1    2    0    0 -0.19470166669E+02 -0.34090649571E+01  0.13637255630E+04  0.13639054660E+04  0.10000000000E+02 0.  1.
</event>
<event>
 5    1  0.1369527E-008  0.3859863E+03  0.7957747E-01  0.3425500E+00
         13   -1    0    0    0    0  0.00000000000E+00  0.00000000000E+00  0.14999999963E+04  0.15000000000E+04  0.10566000000E+00 0. -1.
        994   -1    0    0    0    0 -0.00000000000E+00 -0.00000000000E+00  0.11368683772E-12  0.17120000000E+03  0.17120000000E+03 0.  0.
         13    1    1    2    0    0  0.29721768067E+01 -0.10809245387E+02  0.54340372495E+02  0.55484780506E+02  0.10566000000E+00 0. -1.
        994    1    1    2    0    0 -0.45575553707E+01  0.10290341106E+02  0.15565783523E+01  0.17157658747E+03  0.17120000000E+03 0.  0.
        998    1    1    2    0    0  0.15853785640E+01  0.51890428142E+00  0.14441030454E+04  0.14441386320E+04  0.10000000000E+02 0. -1.
</event>
<event>
 5    1  0.1369527E-008  0.3831828E+03  0.7957747E-01  0.3437416E+00
         13   -1    0    0    0    0  0.00000000000E+00  0.00000000000E+00  0.14999999963E+04  0.15000000000E+04  0.10566000000E+00 0.  1.
        994   -1    0    0    0    0 -0.00000000000E+00 -0.00000000000E+00  0.11368683772E-12  0.17120000000E+03  0.17120000000E+03 0.  0.
         13    1    1    2    0    0  0.23633091873E+02  0.97942789539E+01  0.13041489298E+03  0.13290036270E+03  0.10566000000E+00 0.  1.
        994    1    1    2    0    0 -0.14544291363E+02  0.87137131698E-01  0.32351876916E+01  0.17184717176E+03  0.17120000000E+03 0.  0.
        998    1    1    2    0    0 -0.90888005096E+01 -0.98814160856E+01  0.13663499156E+04  0.13664524655E+04  0.10000000000E+02 0.  1.
</event>
<event>
 5    1  0.1369527E-008  0.3739257E+03  0.7957747E-01  0.3478041E+00
         13   -1    0    0    0    0  0.00000000000E+00  0.00000000000E+00  0.14999999963E+04  0.15000000000E+04  0.10566000000E+00 0. -1.
        994   -1    0    0    0    0 -0.00000000000E+00 -0.00000000000E+00  0.11368683772E-12  0.17120000000E+03  0.17120000000E+03 0.  0.
         13    1    1    2    0    0 -0.52079907099E+02 -0.31570946557E+02  0.35246957488E+03  0.35769240105E+03  0.10566000000E+00 0. -1.
        994    1    1    2    0    0  0.79031396183E+01 -0.18434015880E+02  0.86049942833E+01  0.17258551064E+03  0.17120000000E+03 0.  0.
        998    1    1    2    0    0  0.44176767480E+02  0.50004962437E+02  0.11389254271E+04  0.11409220883E+04  0.10000000000E+02 0. -1.
</event>
<event>
 5    1  0.1369527E-008  0.3814359E+03  0.7957747E-01  0.3444930E+00
         13   -1    0    0    0    0  0.00000000000E+00  0.00000000000E+00  0.14999999963E+04  0.15000000000E+04  0.10566000000E+00 0. -1.
        994   -1    0    0    0    0 -0.00000000000E+00 -0.00000000000E+00  0.11368683772E-12  0.17120000000E+03  0.17120000000E+03 0.  0.
         13    1    1    2    0    0 -0.15487572527E+02 -0.10015116249E+02  0.52395600577E+02  0.55547075351E+02  0.10566000000E+00 0. -1.
        994    1    1    2    0    0 -0.52421500369E+01 -0.22871018895E+01  0.35189123295E+01  0.17133164832E+03  0.17120000000E+03 0.  0.
        998    1    1    2    0    0  0.20729722563E+02  0.12302218139E+02  0.14440854834E+04  0.14443212763E+04  0.10000000000E+02 0. -1.
</event>
<event>
 5    1  0.1369527E-008  0.3821803E+03  0.7957747E-01  0.3441720E+00
         13   -1    0    0    0    0  0.00000000000E+00  0.00000000000E+00  0.14999999963E+04  0.15000000000E+04  0.10566000000E+00 0.  1.
        994   -1    0    0    0    0 -0.00000000000E+00 -0.00000000000E+00  0.11368683772E-12  0.17120000000E+03  0.17120000000E+03 0.  0.
         13    1    1    2    0    0  0.77336931897E+01  0.67618879174E+01  0.19059963930E+02  0.21652402352E+02  0.10566000000E+00 0.  1.
        994    1    1    2    0    0  0.51326784477E+02  0.17845559139E+02  0.12899906447E+02  0.18007984444E+03  0.17120000000E+03 0.  0.
        998    1    1    2    0    0 -0.59060477666E+02 -0.24607447057E+02  0.14680401259E+04  0.14694677532E+04  0.10000000000E+02 0.  1.
</event>
<event>
 5    1  0.1369527E-008  0.3900622E+03  0.7957747E-01  0.3408482E+00
         13   -1    0    0    0    0  0.00000000000E+00  0.00000000000E+00  0.14999999963E+04  0.15000000000E+04  0.10566000000E+00 0. -1.
        994   -1    0    0    0    0 -0.00000000000E+00 -0.00000000000E+00  0.11368683772E-12  0.17120000000E+03  0.17120000000E+03 0.  0.
         13    1    1    2    0    0 -0.44107502406E+02 -0.74473328737E+02  0.18574300562E+03  0.20492004237E+03  0.10566000000E+00 0. -1.
        994    1    1    2    0    0  0.19321999076E+01  0.25789392023E+02  0.24488685507E+02  0.17486555366E+03  0.17120000000E+03 0.  0.
        998    1    1    2    0    0  0.42175302498E+02  0.48683936715E+02  0.12897683051E+04  0.12914144040E+04  0.10000000000E+02 0. -1.
</event>
<event>
 5    1  0.1369527E-008  0.3849214E+03  0.7957747E-01  0.3430006E+00
         13   -1    0    0    0    0  0.00000000000E+00  0.00000000000E+00  0.14999999963E+04  0.15000000000E+04  0.10566000000E+00 0.  1.
        994   -1    0    0    0    0 -0.00000000000E+00 -0.00000000000E+00  0.11368683772E-12  0.17120000000E+03  0.17120000000E+03 0.  0.
         13    1    1    2    0    0 -0.10025023629E+02  0.51351885935E+01  0.38681909295E+02  0.40288615407E+02  0.10566000000E+00 0.  1.
        994    1    1    2    0    0  0.14535693225E+01 -0.38380207746E+01  0.17245697497E+01  0.17125786816E+03  0.17120000000E+03 0.  0.
        998    1    1    2    0    0  0.85714543061E+01 -0.12971678189E+01  0.14595935172E+04  0.14596535164E+04  0.10000000000E+02 0.  1.
</event>
<event>
 5    1  0.1369527E-008  0.2717331E+03  0.7957747E-01  0.4121070E+00
         13   -1    0    0    0    0  0.00000000000E+00  0.00000000000E+00  0.14999999963E+04  0.15000000000E+04  0.10566000000E+00 0.  1.
        994   -1    0    0    0    0 -0.00000000000E+00 -0.00000000000E+00  0.11368683772E-12  0.17120000000E+03  0.17120000000E+03 0.  0.
         13    1    1    2    0    0 -0.40328816534E+02 -0.15789505541E+03  0.59381083379E+03  0.61576665991E+03  0.10566000000E+00 0.  1.
        994    1    1    2    0    0  0.26611502433E+02  0.68461582295E+02  0.47928085465E+02  0.19235826389E+03  0.17120000000E+03 0.  0.
        998    1    1    2    0    0  0.13717314101E+02  0.89433473111E+02  0.85826107703E+03  0.86307507620E+03  0.10000000000E+02 0. -1.
</event>
<event>
 5    1  0.1369527E-008  0.3859129E+03  0.7957747E-01  0.3425810E+00
         13   -1    0    0    0    0  0.00000000000E+00  0.00000000000E+00  0.14999999963E+04  0.15000000000E+04  0.10566000000E+00 0.  1.
        994   -1    0    0    0    0 -0.00000000000E+00 -0.00000000000E+00  0.11368683772E-12  0.17120000000E+03  0.17120000000E+03 0.  0.
         13    1    1    2    0    0  0.70264988534E+01 -0.80330083593E+01  0.60793070025E+02  0.61722843717E+02  0.10566000000E+00 0.  1.
        994    1    1    2    0    0 -0.10357166972E+02 -0.36250444147E+02  0.58521028361E+01  0.17539969417E+03  0.17120000000E+03 0.  0.
        998    1    1    2    0    0  0.33306681182E+01  0.44283452506E+02  0.14333548234E+04  0.14340774621E+04  0.10000000000E+02 0.  1.
</event>
<event>
 5    1  0.1369527E-008  0.3829363E+03  0.7957747E-01  0.3438472E+00
         13   -1    0    0    0    0  0.00000000000E+00  0.00000000000E+00  0.14999999963E+04  0.15000000000E+04  0.10566000000E+00 0.  1.
        994   -1    0    0    0    0 -0.00000000000E+00 -0.00000000000E+00  0.11368683772E-12  0.17120000000E+03  0.17120000000E+03 0.  0.
         13    1    1    2    0    0 -0.27515664483E+01  0.26931170655E+02  0.13265294561E+03  0.13538712721E+03  0.10566000000E+00 0.  1.
        994    1    1    2    0    0  0.24047452278E+02 -0.19200300299E+02  0.57996195719E+01  0.17404024557E+03  0.17120000000E+03 0.  0.
        998    1    1    2    0    0 -0.21295885829E+02 -0.77308703558E+01  0.13615474311E+04  0.13617726272E+04  0.10000000000E+02 0.  1.
</event>
<event>
 5    1  0.1369527E-008  0.2851411E+03  0.7957747E-01  0.4008162E+00
         13   -1    0    0    0    0  0.00000000000E+00  0.00000000000E+00  0.14999999963E+04  0.15000000000E+04  0.10566000000E+00 0.  1.
        994   -1    0    0    0    0 -0.00000000000E+00 -0.00000000000E+00  0.11368683772E-12  0.17120000000E+03  0.17120000000E+03 0.  0.
         13    1    1    2    0    0 -0.98978924029E+02 -0.13722510869E+03  0.56225309370E+03  0.58715935690E+03  0.10566000000E+00 0.  1.
        994    1    1    2    0    0  0.10046330438E+03  0.13253965724E+03  0.12170029867E+03  0.26791797059E+03  0.17120000000E+03 0.  0.
        998    1    1    2    0    0 -0.14843803533E+01  0.46854514526E+01  0.81604660391E+03  0.81612267251E+03  0.10000000000E+02 0.  0.
</event>
<event>
 5    1  0.1369527E-008  0.3845981E+03  0.7957747E-01  0.3431379E+00
         13   -1    0    0    0    0  0.00000000000E+00  0.00000000000E+00  0.14999999963E+04  0.15000000000E+04  0.10566000000E+00 0.  1.
        994   -1    0    0    0    0 -0.00000000000E+00 -0.00000000000E+00  0.11368683772E-12  0.17120000000E+03  0.17120000000E+03 0.  0.
         13    1    1    2    0    0  0.59115194889E+01  0.12982811893E+02  0.58444749456E+02  0.60160613115E+02  0.10566000000E+00 0.  1.
        994    1    1    2    0    0  0.68257508573E+01 -0.33068490993E+01  0.20192804369E+01  0.17137982267E+03  0.17120000000E+03 0.  0.
        998    1    1    2    0    0 -0.12737270346E+02 -0.96759627936E+01  0.14395359664E+04  0.14396595642E+04  0.10000000000E+02 0.  1.
</event>
<event>
 5    1  0.1369527E-008  0.3720186E+03  0.7957747E-01  0.3486665E+00
         13   -1    0    0    0    0  0.00000000000E+00  0.00000000000E+00  0.14999999963E+04  0.15000000000E+04  0.10566000000E+00 0.  1.
        994   -1    0    0    0    0 -0.00000000000E+00 -0.00000000000E+00  0.11368683772E-12  0.17120000000E+03  0.17120000000E+03 0.  0.
         13    1    1    2    0    0  0.54160907741E+02  0.13169747609E+03  0.63439160898E+03  0.65017717112E+03  0.10566000000E+00 0.  1.
        994    1    1    2    0    0 -0.69254403261E+02 -0.12926235697E+03  0.86105470251E+02  0.24130586671E+03  0.17120000000E+03 0.  0.
        998    1    1    2    0    0  0.15093495519E+02 -0.24351191159E+01  0.77950291704E+03  0.77971696217E+03  0.10000000000E+02 0.  0.
</event>
<event>
 5    1  0.1369527E-008  0.3365693E+03  0.7957747E-01  0.3665216E+00
         13   -1    0    0    0    0  0.00000000000E+00  0.00000000000E+00  0.14999999963E+04  0.15000000000E+04  0.10566000000E+00 0. -1.
        994   -1    0    0    0    0 -0.00000000000E+00 -0.00000000000E+00  0.11368683772E-12  0.17120000000E+03  0.17120000000E+03 0.  0.
         13    1    1    2    0    0 -0.31967271363E+03 -0.53074508067E+02  0.61396961936E+03  0.69423789288E+03  0.10566000000E+00 0. -1.
        994    1    1    2    0    0  0.25631352275E+03 -0.77822883988E+01  0.56130152786E+03  0.64041082997E+03  0.17120000000E+03 0.  0.
        998    1    1    2    0    0  0.63359190879E+02  0.60856796466E+02  0.32472884906E+03  0.33655127716E+03  0.10000000000E+02 0.  1.
</event>
<event>
 5    1  0.1369527E-008  0.3797244E+03  0.7957747E-01  0.3452360E+00
         13   -1    0    0    0    0  0.00000000000E+00  0.00000000000E+00  0.14999999963E+04  0.15000000000E+04  0.10566000000E+00 0.  1.
        994   -1    0    0    0    0 -0.00000000000E+00 -0.00000000000E+00  0.11368683772E-12  0.17120000000E+03  0.17120000000E+03 0.  0.
         13    1    1    2    0    0  0.11861960930E+02 -0.18829116506E+02  0.57348848204E+02  0.61515390756E+02  0.10566000000E+00 0.  1.
        994    1    1    2    0    0 -0.74277939708E+01  0.71554879329E+01  0.46283511551E+01  0.17157282642E+03  0.17120000000E+03 0.  0.
        998    1    1    2    0    0 -0.44341669597E+01  0.11673628573E+02  0.14380227969E+04  0.14381117828E+04  0.10000000000E+02 0.  1.
</event>
<event>
 5    1  0.1369527E-008  0.3731206E+03  0.7957747E-01  0.3481671E+00
         13   -1    0    0    0    0  0.00000000000E+00  0.00000000000E+00  0.14999999963E+04  0.15000000000E+04  0.10566000000E+00 0. -1.
        994   -1    0    0    0    0 -0.00000000000E+00 -0.00000000000E+00  0.11368683772E-12  0.17120000000E+03  0.17120000000E+03 0.  0.
         13    1    1    2    0    0  0.63357020250E+02  0.69077156704E+01  0.16364146981E+03  0.17561426581E+03  0.10566000000E+00 0. -1.
        994    1    1    2    0    0 -0.32154994663E+02  0.20404308141E+02  0.17742162820E+02  0.17627961826E+03  0.17120000000E+03 0.  0.
        998    1    1    2    0    0 -0.31202025586E+02 -0.27312023811E+02  0.13186163636E+04  0.13193061159E+04  0.10000000000E+02 0. -1.
</event>
<event>
 5    1  0.1369527E-008  0.3850924E+03  0.7957747E-01  0.3429280E+00
         13   -1    0    0    0    0  0.00000000000E+00  0.00000000000E+00  0.14999999963E+04  0.15000000000E+04  0.10566000000E+00 0. -1.
        994   -1    0    0    0    0 -0.00000000000E+00 -0.00000000000E+00  0.11368683772E-12  0.17120000000E+03  0.17120000000E+03 0.  0.
         13    1    1    2    0    0 -0.13860654199E+02 -0.70449634187E+01  0.83374603364E+02  0.84812056304E+02  0.10566000000E+00 0. -1.
        994    1    1    2    0    0 -0.54728686706E+01  0.72829610297E+01  0.18571779205E+01  0.17145227593E+03  0.17120000000E+03 0.  0.
        998    1    1    2    0    0  0.19333522869E+02 -0.23799761100E+00  0.14147682150E+04  0.14149356678E+04  0.10000000000E+02 0. -1.
</event>
<event>
 5    1  0.1369527E-008  0.3794166E+03  0.7957747E-01  0.3453703E+00
         13   -1    0    0    0    0  0.00000000000E+00  0.00000000000E+00  0.14999999963E+04  0.15000000000E+04  0.10566000000E+00 0. -1.
        994   -1    0    0    0    0 -0.00000000000E+00 -0.00000000000E+00  0.11368683772E-12  0.17120000000E+03  0.17120000000E+03 0.  0.
         13    1    1    2    0    0  0.35309882340E+02 -0.60081319540E+02  0.13377489804E+03  0.15083861328E+03  0.10566000000E+00 0. -1.
        994    1    1    2    0    0 -0.36545781911E+02  0.59780637929E+02  0.33980026896E+02  0.18807817809E+03  0.17120000000E+03 0.  0.
        998    1    1    2    0    0  0.12358995707E+01  0.30068161117E+00  0.13322450713E+04  0.13322832086E+04  0.10000000000E+02 0. -1.
</event>
<event>
 5    1  0.1369527E-008  0.3812736E+03  0.7957747E-01  0.3445632E+00
         13   -1    0    0    0    0  0.00000000000E+00  0.00000000000E+00  0.14999999963E+04  0.15000000000E+04  0.10566000000E+00 0. -1.
        994   -1    0    0    0    0 -0.00000000000E+00 -0.00000000000E+00  0.11368683772E-12  0.17120000000E+03  0.17120000000E+03 0.  0.
         13    1    1    2    0    0 -0.12536026216E+02 -0.12587695252E+02  0.43558949981E+02  0.47042484124E+02  0.10566000000E+00 0. -1.
        994    1    1    2    0    0  0.26129357116E+01  0.17186526460E+02  0.44982830404E+01  0.17213912593E+03  0.17120000000E+03 0.  0.
        998    1    1    2    0    0  0.99230905047E+01 -0.45988312075E+01  0.14519427633E+04  0.14520183899E+04  0.10000000000E+02 0. -1.
</event>
<event>
 5    1  0.1369527E-008  0.2592886E+03  0.7957747E-01  0.4237719E+00
         13   -1    0    0    0    0  0.00000000000E+00  0.00000000000E+00  0.14999999963E+04  0.15000000000E+04  0.10566000000E+00 0. -1.
        994   -1    0    0    0    0 -0.00000000000E+00 -0.00000000000E+00  0.11368683772E-12  0.17120000000E+03  0.17120000000E+03 0.  0.
         13    1    1    2    0    0  0.26698256759E+03  0.50664574067E+02  0.10102503980E+04  0.10461608234E+04  0.10566000000E+00 0. -1.
        994    1    1    2    0    0 -0.11228787377E+03 -0.13363969220E+02  0.37878690168E+03  0.43078546767E+03  0.17120000000E+03 0.  0.
        998    1    1    2    0    0 -0.15469469382E+03 -0.37300604847E+02  0.11096269657E+03  0.19425370897E+03  0.10000000000E+02 0.  1.
</event>
<event>
 5    1  0.1369527E-008  0.3845824E+03  0.7957747E-01  0.3431445E+00
         13   -1    0    0    0    0  0.00000000000E+00  0.00000000000E+00  0.14999999963E+04  0.15000000000E+04  0.10566000000E+00 0.  1.
        994   -1    0    0    0    0 -0.00000000000E+00 -0.00000000000E+00  0.11368683772E-12  0.17120000000E+03  0.17120000000E+03 0.  0.
         13    1    1    2    0    0  0.12426467772E+01  0.10808444688E+02  0.32629885277E+02  0.34396035016E+02  0.10566000000E+00 0.  1.
        994    1    1    2    0    0 -0.15615146184E+01 -0.15736832475E+01  0.18537816179E+01  0.17122438878E+03  0.17120000000E+03 0.  0.
        998    1    1    2    0    0  0.31886784120E+00 -0.92347614405E+01  0.14655163294E+04  0.14655795762E+04  0.10000000000E+02 0.  1.
</event>
<event>
 5    1  0.1369527E-008  0.3692299E+03  0.7957747E-01  0.3499438E+00
         13   -1    0    0    0    0  0.00000000000E+00  0.00000000000E+00  0.14999999963E+04  0.15000000000E+04  0.10566000000E+00 0.  1.
        994   -1    0    0    0    0 -0.00000000000E+00 -0.00000000000E+00  0.11368683772E-12  0.17120000000E+03  0.17120000000E+03 0.  0.
         13    1    1    2    0    0 -0.71821895776E+02  0.24388837030E+01  0.34812467179E+03  0.35546466933E+03  0.10566000000E+00 0.  1.
        994    1    1    2    0    0  0.51823214864E+01  0.20358649570E+02  0.11203680258E+02  0.17284760201E+03  0.17120000000E+03 0.  0.
        998    1    1    2    0    0  0.66639574290E+02 -0.22797533273E+02  0.11406716442E+04  0.11428877287E+04  0.10000000000E+02 0.  1.
</event>
<event>
 5    1  0.1369527E-008  0.3802727E+03  0.7957747E-01  0.3449972E+00
         13   -1    0    0    0    0  0.00000000000E+00  0.00000000000E+00  0.14999999963E+04  0.15000000000E+04  0.10566000000E+00 0.  1.
        994   -1    0    0    0    0 -0.00000000000E+00 -0.00000000000E+00  0.11368683772E-12  0.17120000000E+03  0.17120000000E+03 0.  0.
         13    1    1    2    0    0  0.10935477714E+02 -0.21126354935E+00  0.13037498565E+02  0.17018132624E+02  0.10566000000E+00 0.  1.
        994    1    1    2    0    0 -0.14178405589E+02  0.12028554780E+01  0.46720806973E+01  0.17185384018E+03  0.17120000000E+03 0.  0.
        998    1    1    2    0    0  0.32429278752E+01 -0.99159192866E+00  0.14822904170E+04  0.14823280272E+04  0.10000000000E+02 0.  1.
</event>
<event>
 5    1  0.1369527E-008  0.3771941E+03  0.7957747E-01  0.3463468E+00
         13   -1    0    0    0    0  0.00000000000E+00  0.00000000000E+00  0.14999999963E+04  0.15000000000E+04  0.10566000000E+00 0. -1.
        994   -1    0    0    0    0 -0.00000000000E+00 -0.00000000000E+00  0.11368683772E-12  0.17120000000E+03  0.17120000000E+03 0.  0.
         13    1    1    2    0    0 -0.98953176147E+02  0.84920162688E+01  0.50905072558E+03  0.51864872293E+03  0.10566000000E+00 0. -1.
        994    1    1    2    0    0  0.62515362135E+01 -0.62988593073E+02  0.29308336406E+02  0.18486498626E+03  0.17120000000E+03 0.  0.
        998    1    1    2    0    0  0.92701639934E+02  0.54496576804E+02  0.96164093429E+03  0.96768629081E+03  0.10000000000E+02 0. -1.
</event>
<event>
 5    1  0.1369527E-008  0.3690606E+03  0.7957747E-01  0.3500219E+00
         13   -1    0    0    0    0  0.00000000000E+00  0.00000000000E+00  0.14999999963E+04  0.15000000000E+04  0.10566000000E+00 0.  1.
        994   -1    0    0    0    0 -0.00000000000E+00 -0.00000000000E+00  0.11368683772E-12  0.17120000000E+03  0.17120000000E+03 0.  0.
         13    1    1    2    0    0 -0.51990072612E+02 -0.15835946247E+02  0.14382312767E+03  0.15374930263E+03  0.10566000000E+00 0.  1.
        994    1    1    2    0    0  0.33681117122E+02  0.25830297055E+02  0.16036598401E+02  0.17711079692E+03  0.17120000000E+03 0.  0.
        998    1    1    2    0    0  0.18308955490E+02 -0.99943508080E+01  0.13401402702E+04  0.13403399004E+04  0.10000000000E+02 0.  1.
</event>
<event>
 5    1  0.1369527E-008  0.3743780E+03  0.7957747E-01  0.3476009E+00
         13   -1    0    0    0    0  0.00000000000E+00  0.00000000000E+00  0.14999999963E+04  0.15000000000E+04  0.10566000000E+00 0. -1.
        994   -1    0    0    0    0 -0.00000000000E+00 -0.00000000000E+00  0.11368683772E-12  0.17120000000E+03  0.17120000000E+03 0.  0.
         13    1    1    2    0    0 -0.36212540895E+02  0.16311312251E+02  0.11739491865E+03  0.12393137260E+03  0.10566000000E+00 0. -1.
        994    1    1    2    0    0 -0.43451071030E+01 -0.35836425639E+02  0.11450300050E+02  0.17533875421E+03  0.17120000000E+03 0.  0.
        998    1    1    2    0    0  0.40557647998E+02  0.19525113389E+02  0.13711547776E+04  0.13719298732E+04  0.10000000000E+02 0. -1.
</event>
<event>
 5    1  0.1369527E-008  0.3805105E+03  0.7957747E-01  0.3448939E+00
         13   -1    0    0    0    0  0.00000000000E+00  0.00000000000E+00  0.14999999963E+04  0.15000000000E+04  0.10566000000E+00 0.  1.
        994   -1    0    0    0    0 -0.00000000000E+00 -0.00000000000E+00  0.11368683772E-12  0.17120000000E+03  0.17120000000E+03 0.  0.
         13    1    1    2    0    0  0.13321788108E+02 -0.29368802163E+02  0.15957394555E+03  0.16280003637E+03  0.10566000000E+00 0.  1.
        994    1    1    2    0    0  0.85144706205E+01 -0.41636757999E+01  0.41755056639E+01  0.17151299442E+03  0.17120000000E+03 0.  0.
        998    1    1    2    0    0 -0.21836258728E+02  0.33532477963E+02  0.13362505451E+04  0.13368869692E+04  0.10000000000E+02 0.  1.
</event>
<event>
 5    1  0.1369527E-008  0.3794118E+03  0.7957747E-01  0.3453724E+00
         13   -1    0    0    0    0  0.00000000000E+00  0.00000000000E+00  0.14999999963E+04  0.15000000000E+04  0.10566000000E+00 0.  1.
        994   -1    0    0    0    0 -0.00000000000E+00 -0.00000000000E+00  0.11368683772E-12  0.17120000000E+03  0.17120000000E+03 0.  0.
         13    1    1    2    0    0 -0.15690919910E+02 -0.27331722448E+01  0.28909482886E+02  0.33006735115E+02  0.10566000000E+00 0.  1.
        994    1    1    2    0    0 -0.13366871633E+02 -0.67684984112E+01  0.51826077864E+01  0.17193250202E+03  0.17120000000E+03 0.  0.
        998    1    1    2    0    0  0.29057791544E+02  0.95016706560E+01  0.14659079056E+04  0.14662607629E+04  0.10000000000E+02 0.  1.
</event>
<event>
 5    1  0.1369527E-008  0.3791347E+03  0.7957747E-01  0.3454935E+00
         13   -1    0    0    0    0  0.00000000000E+00  0.00000000000E+00  0.14999999963E+04  0.15000000000E+04  0.10566000000E+00 0. -1.
        994   -1    0    0    0    0 -0.00000000000E+00 -0.00000000000E+00  0.11368683772E-12  0.17120000000E+03  0.17120000000E+03 0.  0.
         13    1    1    2    0    0  0.15235190655E+02 -0.28602908270E+01  0.23931756117E+02  0.28513723236E+02  0.10566000000E+00 0. -1.
        994    1    1    2    0    0 -0.17829287517E+02  0.11283124373E+01  0.56412847540E+01  0.17222200985E+03  0.17120000000E+03 0.  0.
        998    1    1    2    0    0  0.25940968625E+01  0.17319783897E+01  0.14704269554E+04  0.14704642669E+04  0.10000000000E+02 0. -1.
</event>
<event>
 5    1  0.1369527E-008  0.3818656E+03  0.7957747E-01  0.3443075E+00
         13   -1    0    0    0    0  0.00000000000E+00  0.00000000000E+00  0.14999999963E+04  0.15000000000E+04  0.10566000000E+00 0.  1.
        994   -1    0    0    0    0 -0.00000000000E+00 -0.00000000000E+00  0.11368683772E-12  0.17120000000E+03  0.17120000000E+03 0.  0.
         13    1    1    2    0    0 -0.43417685598E+00 -0.11187177267E+02  0.18113695636E+02  0.21294566874E+02  0.10566000000E+00 0.  1.
        994    1    1    2    0    0 -0.59788171635E+00  0.12204416337E+02  0.36905771085E+01  0.17167517468E+03  0.17120000000E+03 0.  0.
        998    1    1    2    0    0  0.10320585723E+01 -0.10172390701E+01  0.14781957235E+04  0.14782302584E+04  0.10000000000E+02 0.  1.
</event>
<event>
 5    1  0.1369527E-008  0.3854542E+03  0.7957747E-01  0.3427748E+00
         13   -1    0    0    0    0  0.00000000000E+00  0.00000000000E+00  0.14999999963E+04  0.15000000000E+04  0.10566000000E+00 0. -1.
        994   -1    0    0    0    0 -0.00000000000E+00 -0.00000000000E+00  0.11368683772E-12  0.17120000000E+03  0.17120000000E+03 0.  0.
         13    1    1    2    0    0  0.81809184641E+01  0.10353507949E+02  0.71067438273E+02  0.72282186606E+02  0.10566000000E+00 0. -1.
        994    1    1    2    0    0  0.17286632365E+02 -0.20813821924E+01  0.24009506890E+01  0.17209986744E+03  0.17120000000E+03 0.  0.
        998    1    1    2    0    0 -0.25467550829E+02 -0.82721257570E+01  0.14265316073E+04  0.14268179459E+04  0.10000000000E+02 0. -1.
</event>
<event>
 5    1  0.1369527E-008  0.3844323E+03  0.7957747E-01  0.3432083E+00
         13   -1    0    0    0    0  0.00000000000E+00  0.00000000000E+00  0.14999999963E+04  0.15000000000E+04  0.10566000000E+00 0.  1.
        994   -1    0    0    0    0 -0.00000000000E+00 -0.00000000000E+00  0.11368683772E-12  0.17120000000E+03  0.17120000000E+03 0.  0.
         13    1    1    2    0    0 -0.59365049912E+01 -0.90408909810E+01  0.31298409726E+02  0.33114670717E+02  0.10566000000E+00 0.  1.
        994    1    1    2    0    0 -0.27044683498E+01 -0.63148801575E-01  0.19363706111E+01  0.17123232075E+03  0.17120000000E+03 0.  0.
        998    1    1    2    0    0  0.86409733411E+01  0.91040397826E+01  0.14667652159E+04  0.14668530085E+04  0.10000000000E+02 0.  1.
</event>
<event>
 5    1  0.1369527E-008  0.3634546E+03  0.7957747E-01  0.3526524E+00
         13   -1    0    0    0    0  0.00000000000E+00  0.00000000000E+00  0.14999999963E+04  0.15000000000E+04  0.10566000000E+00 0. -1.
        994   -1    0    0    0    0 -0.00000000000E+00 -0.00000000000E+00  0.11368683772E-12  0.17120000000E+03  0.17120000000E+03 0.  0.
         13    1    1    2    0    0  0.24795075212E+03 -0.11491484138E+03  0.25319226287E+03  0.37254708345E+03  0.10566000000E+00 0. -1.
        994    1    1    2    0    0 -0.25873348346E+03  0.11119081351E+03  0.10328118830E+04  0.10841200294E+04  0.17120000000E+03 0.  0.
        998    1    1    2    0    0  0.10782731341E+02  0.37240278661E+01  0.21399585036E+03  0.21453288711E+03  0.10000000000E+02 0.  1.
</event>
<event>
 5    1  0.1369527E-008  0.3842271E+03  0.7957747E-01  0.3432957E+00
         13   -1    0    0    0    0  0.00000000000E+00  0.00000000000E+00  0.14999999963E+04  0.15000000000E+04  0.10566000000E+00 0. -1.
        994   -1    0    0    0    0 -0.00000000000E+00 -0.00000000000E+00  0.11368683772E-12  0.17120000000E+03  0.17120000000E+03 0.  0.
         13    1    1    2    0    0 -0.15394987093E+02 -0.68365225280E-01  0.63215906554E+02  0.65063602013E+02  0.10566000000E+00 0. -1.
        994    1    1    2    0    0 -0.34576858172E+01  0.65368108580E+01  0.21946850754E+01  0.17137369148E+03  0.17120000000E+03 0.  0.
        998    1    1    2    0    0  0.18852672910E+02 -0.64684456328E+01  0.14345894046E+04  0.14347627065E+04  0.10000000000E+02 0. -1.
</event>
<event>
 5    1  0.1369527E-008  0.3860424E+03  0.7957747E-01  0.3425263E+00
         13   -1    0    0    0    0  0.00000000000E+00  0.00000000000E+00  0.14999999963E+04  0.15000000000E+04  0.10566000000E+00 0. -1.
        994   -1    0    0    0    0 -0.00000000000E+00 -0.00000000000E+00  0.11368683772E-12  0.17120000000E+03  0.17120000000E+03 0.  0.
         13    1    1    2    0    0 -0.36944879651E+00 -0.10925736886E+02  0.56433517913E+02  0.57482704590E+02  0.10566000000E+00 0. -1.
        994    1    1    2    0    0 -0.17918752700E+02  0.31201991997E+01  0.21985160423E+01  0.17217749799E+03  0.17120000000E+03 0.  0.
        998    1    1    2    0    0  0.18288201497E+02  0.78055376866E+01  0.14413679623E+04  0.14415397974E+04  0.10000000000E+02 0. -1.
</event>
<event>
 5    1  0.1369527E-008  0.3740420E+03  0.7957747E-01  0.3477518E+00
         13   -1    0    0    0    0  0.00000000000E+00  0.00000000000E+00  0.14999999963E+04  0.15000000000E+04  0.10566000000E+00 0. -1.
        994   -1    0    0    0    0 -0.00000000000E+00 -0.00000000000E+00  0.11368683772E-12  0.17120000000E+03  0.17120000000E+03 0.  0.
         13    1    1    2    0    0 -0.16755899211E+02 -0.11186012310E+02  0.25018210283E+02  0.32121784502E+02  0.10566000000E+00 0. -1.
        994    1    1    2    0    0  0.11491252713E+02  0.15742366587E+02  0.84680124143E+01  0.17251382040E+03  0.17120000000E+03 0.  0.
        998    1    1    2    0    0  0.52646464977E+01 -0.45563542773E+01  0.14665137736E+04  0.14665643951E+04  0.10000000000E+02 0. -1.
</event>
<event>
 5    1  0.1369527E-008  0.3820280E+03  0.7957747E-01  0.3442375E+00
         13   -1    0    0    0    0  0.00000000000E+00  0.00000000000E+00  0.14999999963E+04  0.15000000000E+04  0.10566000000E+00 0.  1.
        994   -1    0    0    0    0 -0.00000000000E+00 -0.00000000000E+00  0.11368683772E-12  0.17120000000E+03  0.17120000000E+03 0.  0.
         13    1    1    2    0    0  0.38533882708E+02  0.18195649394E+01  0.22080837661E+03  0.22415289710E+03  0.10566000000E+00 0.  1.
        994    1    1    2    0    0 -0.31595157939E+02  0.10587235569E+02  0.68087471117E+01  0.17454553159E+03  0.17120000000E+03 0.  0.
        998    1    1    2    0    0 -0.69387247684E+01 -0.12406800508E+02  0.12723828726E+04  0.12725015713E+04  0.10000000000E+02 0.  1.
</event>
<event>
 5    1  0.1369527E-008  0.3843051E+03  0.7957747E-01  0.3432625E+00
         13   -1    0    0    0    0  0.00000000000E+00  0.00000000000E+00  0.14999999963E+04  0.15000000000E+04  0.10566000000E+00 0.  1.
        994   -1    0    0    0    0 -0.00000000000E+00 -0.00000000000E+00  0.11368683772E-12  0.17120000000E+03  0.17120000000E+03 0.  0.
         13    1    1    2    0    0  0.12747034749E+02 -0.16277563066E+01  0.41183334344E+02  0.43141797334E+02  0.10566000000E+00 0.  1.
        994    1    1    2    0    0 -0.93712263624E+01  0.34566602103E+01  0.23044625169E+01  0.17150661483E+03  0.17120000000E+03 0.  0.
        998    1    1    2    0    0 -0.33758083861E+01 -0.18289039037E+01  0.14565121994E+04  0.14565515878E+04  0.10000000000E+02 0.  1.
</event>
<event>
 5    1  0.1369527E-008  0.3848013E+03  0.7957747E-01  0.3430515E+00
         13   -1    0    0    0    0  0.00000000000E+00  0.00000000000E+00  0.14999999963E+04  0.15000000000E+04  0.10566000000E+00 0. -1.
        994   -1    0    0    0    0 -0.00000000000E+00 -0.00000000000E+00  0.11368683772E-12  0.17120000000E+03  0.17120000000E+03 0.  0.
         13    1    1    2    0    0 -0.21939043620E+01 -0.11109310739E+02  0.36442826635E+02  0.38161771167E+02  0.10566000000E+00 0. -1.
        994    1    1    2    0    0  0.16891425989E+01  0.98529805818E+01  0.20577402311E+01  0.17150396125E+03  0.17120000000E+03 0.  0.
        998    1    1    2    0    0  0.50476176306E+00  0.12563301567E+01  0.14614994294E+04  0.14615342676E+04  0.10000000000E+02 0. -1.
</event>
<event>
 5    1  0.1369527E-008  0.3847998E+03  0.7957747E-01  0.3430522E+00
         13   -1    0    0    0    0  0.00000000000E+00  0.00000000000E+00  0.14999999963E+04  0.15000000000E+04  0.10566000000E+00 0. -1.
        994   -1    0    0    0    0 -0.00000000000E+00 -0.00000000000E+00  0.11368683772E-12  0.17120000000E+03  0.17120000000E+03 0.  0.
         13    1    1    2    0    0 -0.16223639568E+02  0.97490240316E+01  0.95179278931E+02  0.97043063906E+02  0.10566000000E+00 0. -1.
        994    1    1    2    0    0  0.19494825299E+02 -0.13139882493E+02  0.35505230585E+01  0.17284313969E+03  0.17120000000E+03 0.  0.
        998    1    1    2    0    0 -0.32711857308E+01  0.33908584615E+01  0.14012701943E+04  0.14013137964E+04  0.10000000000E+02 0. -1.
</event>
<event>
 5    1  0.1369527E-008  0.3991169E+03  0.7957747E-01  0.3371922E+00
         13   -1    0    0    0    0  0.00000000000E+00  0.00000000000E+00  0.14999999963E+04  0.15000000000E+04  0.10566000000E+00 0. -1.
        994   -1    0    0    0    0 -0.00000000000E+00 -0.00000000000E+00  0.11368683772E-12  0.17120000000E+03  0.17120000000E+03 0.  0.
         13    1    1    2    0    0  0.46264898235E+02  0.53475071106E+02  0.78248124783E+02  0.10546470611E+03  0.10566000000E+00 0. -1.
        994    1    1    2    0    0 -0.46902235084E+02 -0.55835750282E+02  0.48305910518E+02  0.19225075203E+03  0.17120000000E+03 0.  0.
        998    1    1    2    0    0  0.63733684930E+00  0.23606791756E+01  0.13734459610E+04  0.13734845419E+04  0.10000000000E+02 0. -1.
</event>
<event>
 5    1  0.1369527E-008  0.3819628E+03  0.7957747E-01  0.3442656E+00
         13   -1    0    0    0    0  0.00000000000E+00  0.00000000000E+00  0.14999999963E+04  0.15000000000E+04  0.10566000000E+00 0.  1.
        994   -1    0    0    0    0 -0.00000000000E+00 -0.00000000000E+00  0.11368683772E-12  0.17120000000E+03  0.17120000000E+03 0.  0.
         13    1    1    2    0    0  0.11059427413E+02  0.30084017873E+02  0.15879258491E+03  0.16199523219E+03  0.10566000000E+00 0.  1.
        994    1    1    2    0    0  0.31261102044E+00 -0.23491005649E+02  0.49808971248E+01  0.17287618230E+03  0.17120000000E+03 0.  0.
        998    1    1    2    0    0 -0.11372038433E+02 -0.65930122241E+01  0.13362265142E+04  0.13363285855E+04  0.10000000000E+02 0.  1.
</event>
<event>
 5    1  0.1369527E-008  0.3856502E+03  0.7957747E-01  0.3426919E+00
         13   -1    0    0    0    0  0.00000000000E+00  0.00000000000E+00  0.14999999963E+04  0.15000000000E+04  0.10566000000E+00 0.  1.
        994   -1    0    0    0    0 -0.00000000000E+00 -0.00000000000E+00  0.11368683772E-12  0.17120000000E+03  0.17120000000E+03 0.  0.
         13    1    1    2    0    0 -0.61862473099E+01  0.12480029003E+02  0.77780006137E+02  0.79017474640E+02  0.10566000000E+00 0.  1.
        994    1    1    2    0    0  0.50397837626E+01 -0.19100666192E+01  0.14029938663E+01  0.17129056065E+03  0.17120000000E+03 0.  0.
        998    1    1    2    0    0  0.11464635473E+01 -0.10569962384E+02  0.14208169963E+04  0.14208919647E+04  0.10000000000E+02 0.  1.
</event>
<event>
 5    1  0.1369527E-008  0.3823808E+03  0.7957747E-01  0.3440857E+00
         13   -1    0    0    0    0  0.00000000000E+00  0.00000000000E+00  0.14999999963E+04  0.15000000000E+04  0.10566000000E+00 0.  1.
        994   -1    0    0    0    0 -0.00000000000E+00 -0.00000000000E+00  0.11368683772E-12  0.17120000000E+03  0.17120000000E+03 0.  0.
         13    1    1    2    0    0 -0.12654073465E+03  0.25059978044E+02  0.73382756600E+03  0.74507950436E+03  0.10566000000E+00 0.  1.
        994    1    1    2    0    0  0.15459266568E+03 -0.36656617063E+02  0.91745560444E+02  0.25093682017E+03  0.17120000000E+03 0.  0.
        998    1    1    2    0    0 -0.28051931027E+02  0.11596639019E+02  0.67442686983E+03  0.67518367547E+03  0.10000000000E+02 0.  1.
</event>
<event>
 5    1  0.1369527E-008  0.3845450E+03  0.7957747E-01  0.3431604E+00
         13   -1    0    0    0    0  0.00000000000E+00  0.00000000000E+00  0.14999999963E+04  0.15000000000E+04  0.10566000000E+00 0.  1.
        994   -1    0    0    0    0 -0.00000000000E+00 -0.00000000000E+00  0.11368683772E-12  0.17120000000E+03  0.17120000000E+03 0.  0.
         13    1    1    2    0    0  0.11053100032E+02  0.20288630689E+01  0.33344862090E+02  0.35187757779E+02  0.10566000000E+00 0.  1.
        994    1    1    2    0    0 -0.10734607675E+02  0.46613105401E+01  0.23073984827E+01  0.17161504510E+03  0.17120000000E+03 0.  0.
        998    1    1    2    0    0 -0.31849235689E+00 -0.66901736090E+01  0.14643477357E+04  0.14643971971E+04  0.10000000000E+02 0.  1.
</event>
<event>
 5    1  0.1369527E-008  0.3835522E+03  0.7957747E-01  0.3435836E+00
         13   -1    0    0    0    0  0.00000000000E+00  0.00000000000E+00  0.14999999963E+04  0.15000000000E+04  0.10566000000E+00 0.  1.
        994   -1    0    0    0    0 -0.00000000000E+00 -0.00000000000E+00  0.11368683772E-12  0.17120000000E+03  0.17120000000E+03 0.  0.
         13    1    1    2    0    0  0.64746683945E+01 -0.27170575326E+02  0.15760386200E+03  0.16005983249E+03  0.10566000000E+00 0.  1.
        994    1    1    2    0    0 -0.53767057887E+01  0.21758503180E+02  0.40122135426E+01  0.17270749631E+03  0.17120000000E+03 0.  0.
        998    1    1    2    0    0 -0.10979626058E+01  0.54120721459E+01  0.13383839207E+04  0.13384326712E+04  0.10000000000E+02 0.  1.
</event>
<event>
 5    1  0.1369527E-008  0.3687507E+03  0.7957747E-01  0.3501652E+00
         13   -1    0    0    0    0  0.00000000000E+00  0.00000000000E+00  0.14999999963E+04  0.15000000000E+04  0.10566000000E+00 0.  1.
        994   -1    0    0    0    0 -0.00000000000E+00 -0.00000000000E+00  0.11368683772E-12  0.17120000000E+03  0.17120000000E+03 0.  0.
         13    1    1    2    0    0 -0.10347775742E+02  0.23681531504E+02  0.27502404629E+02  0.37739698219E+02  0.10566000000E+00 0.  1.
        994    1    1    2    0    0  0.87635296125E+01 -0.27993001177E+02  0.13280441798E+02  0.17420165815E+03  0.17120000000E+03 0.  0.
        998    1    1    2    0    0  0.15842461298E+01  0.43114696726E+01  0.14592171499E+04  0.14592586436E+04  0.10000000000E+02 0.  1.
</event>
<event>
 5    1  0.1369527E-008  0.3845450E+03  0.7957747E-01  0.3431604E+00
         13   -1    0    0    0    0  0.00000000000E+00  0.00000000000E+00  0.14999999963E+04  0.15000000000E+04  0.10566000000E+00 0. -1.
        994   -1    0    0    0    0 -0.00000000000E+00 -0.00000000000E+00  0.11368683772E-12  0.17120000000E+03  0.17120000000E+03 0.  0.
         13    1    1    2    0    0 -0.12837577733E+02  0.61344858200E+01  0.56015951460E+02  0.57794751495E+02  0.10566000000E+00 0. -1.
        994    1    1    2    0    0  0.31405593124E+01 -0.22738496239E+01  0.19057420317E+01  0.17125450463E+03  0.17120000000E+03 0.  0.
        998    1    1    2    0    0  0.96970184209E+01 -0.38606361962E+01  0.14420783028E+04  0.14421507439E+04  0.10000000000E+02 0. -1.
</event>
<event>
 5    1  0.1369527E-008  0.3775199E+03  0.7957747E-01  0.3462029E+00
         13   -1    0    0    0    0  0.00000000000E+00  0.00000000000E+00  0.14999999963E+04  0.15000000000E+04  0.10566000000E+00 0.  1.
        994   -1    0    0    0    0 -0.00000000000E+00 -0.00000000000E+00  0.11368683772E-12  0.17120000000E+03  0.17120000000E+03 0.  0.
         13    1    1    2    0    0 -0.45064840592E+02 -0.24891134727E+02  0.80748485423E+02  0.95763967689E+02  0.10566000000E+00 0.  1.
        994    1    1    2    0    0  0.37401999936E+02  0.25314988193E+02  0.22332225852E+02  0.17845987375E+03  0.17120000000E+03 0.  0.
        998    1    1    2    0    0  0.76628406553E+01 -0.42385346644E+00  0.13969192850E+04  0.13969761586E+04  0.10000000000E+02 0.  1.
</event>
<event>
 5    1  0.1369527E-008  0.3842604E+03  0.7957747E-01  0.3432815E+00
         13   -1    0    0    0    0  0.00000000000E+00  0.00000000000E+00  0.14999999963E+04  0.15000000000E+04  0.10566000000E+00 0. -1.
        994   -1    0    0    0    0 -0.00000000000E+00 -0.00000000000E+00  0.11368683772E-12  0.17120000000E+03  0.17120000000E+03 0.  0.
         13    1    1    2    0    0  0.11851686443E+02 -0.10490327972E+02  0.60357545369E+02  0.62398348532E+02  0.10566000000E+00 0. -1.
        994    1    1    2    0    0 -0.14832215221E+02  0.78231008651E+01  0.29253280719E+01  0.17204416020E+03  0.17120000000E+03 0.  0.
        998    1    1    2    0    0  0.29805287784E+01  0.26672271070E+01  0.14367171228E+04  0.14367574913E+04  0.10000000000E+02 0. -1.
</event>
<event>
 5    1  0.1369527E-008  0.3851142E+03  0.7957747E-01  0.3429188E+00
         13   -1    0    0    0    0  0.00000000000E+00  0.00000000000E+00  0.14999999963E+04  0.15000000000E+04  0.10566000000E+00 0.  1.
        994   -1    0    0    0    0 -0.00000000000E+00 -0.00000000000E+00  0.11368683772E-12  0.17120000000E+03  0.17120000000E+03 0.  0.
         13    1    1    2    0    0  0.94496338489E+01 -0.67014864523E+01  0.41366338383E+02  0.42958009915E+02  0.10566000000E+00 0.  1.
        994    1    1    2    0    0 -0.87596663142E+01  0.10922408326E+02  0.22181651101E+01  0.17178588712E+03  0.17120000000E+03 0.  0.
        998    1    1    2    0    0 -0.68996753467E+00 -0.42209218737E+01  0.14564154928E+04  0.14564561030E+04  0.10000000000E+02 0.  1.
</event>
<event>
 5    1  0.1369527E-008  0.4032461E+03  0.7957747E-01  0.3355792E+00
         13   -1    0    0    0    0  0.00000000000E+00  0.00000000000E+00  0.14999999963E+04  0.15000000000E+04  0.10566000000E+00 0. -1.
        994   -1    0    0    0    0 -0.00000000000E+00 -0.00000000000E+00  0.11368683772E-12  0.17120000000E+03  0.17120000000E+03 0.  0.
         13    1    1    2    0    0 -0.34059215840E+02 -0.29264801936E+02  0.21162493485E+02  0.49641928957E+02  0.10566000000E+00 0. -1.
        994    1    1    2    0    0  0.48333735566E+02  0.33481545048E+02  0.43578743060E+02  0.18618730005E+03  0.17120000000E+03 0.  0.
        998    1    1    2    0    0 -0.14274519727E+02 -0.42167431119E+01  0.14352587597E+04  0.14353707710E+04  0.10000000000E+02 0. -1.
</event>
<event>
 5    1  0.1369527E-008  0.3723135E+03  0.7957747E-01  0.3485326E+00
         13   -1    0    0    0    0  0.00000000000E+00  0.00000000000E+00  0.14999999963E+04  0.15000000000E+04  0.10566000000E+00 0. -1.
        994   -1    0    0    0    0 -0.00000000000E+00 -0.00000000000E+00  0.11368683772E-12  0.17120000000E+03  0.17120000000E+03 0.  0.
         13    1    1    2    0    0 -0.24402140227E+02  0.35916897368E+02  0.11535350950E+03  0.12325555274E+03  0.10566000000E+00 0. -1.
        994    1    1    2    0    0 -0.26149779616E+01 -0.30888711865E+02  0.11368270135E+02  0.17435489152E+03  0.17120000000E+03 0.  0.
        998    1    1    2    0    0  0.27017118189E+02 -0.50281855031E+01  0.13732782166E+04  0.13735895557E+04  0.10000000000E+02 0. -1.
</event>
<event>
 5    1  0.1369527E-008  0.3804893E+03  0.7957747E-01  0.3449031E+00
         13   -1    0    0    0    0  0.00000000000E+00  0.00000000000E+00  0.14999999963E+04  0.15000000000E+04  0.10566000000E+00 0. -1.
        994   -1    0    0    0    0 -0.00000000000E+00 -0.00000000000E+00  0.11368683772E-12  0.17120000000E+03  0.17120000000E+03 0.  0.
         13    1    1    2    0    0 -0.16399210179E+02  0.18814814823E+02  0.80951437518E+02  0.84711733258E+02  0.10566000000E+00 0. -1.
        994    1    1    2    0    0  0.17556219768E+02  0.19837076575E+01  0.49288783774E+01  0.17217981819E+03  0.17120000000E+03 0.  0.
        998    1    1    2    0    0 -0.11570095885E+01 -0.20798522481E+02  0.14141196804E+04  0.14143084486E+04  0.10000000000E+02 0. -1.
</event>
<event>
 5    1  0.1369527E-008  0.3847735E+03  0.7957747E-01  0.3430634E+00
         13   -1    0    0    0    0  0.00000000000E+00  0.00000000000E+00  0.14999999963E+04  0.15000000000E+04  0.10566000000E+00 0.  1.
        994   -1    0    0    0    0 -0.00000000000E+00 -0.00000000000E+00  0.11368683772E-12  0.17120000000E+03  0.17120000000E+03 0.  0.
         13    1    1    2    0    0 -0.16239766716E+02  0.89029599482E+01  0.10825993328E+03  0.10983267745E+03  0.10566000000E+00 0.  1.
        994    1    1    2    0    0 -0.18165022817E+01 -0.30930442286E+01  0.17850027486E+01  0.17124687687E+03  0.17120000000E+03 0.  0.
        998    1    1    2    0    0  0.18056268998E+02 -0.58099157197E+01  0.13899550602E+04  0.13901204457E+04  0.10000000000E+02 0.  1.
</event>
<event>
 5    1  0.1369527E-008  0.3841400E+03  0.7957747E-01  0.3433328E+00
         13   -1    0    0    0    0  0.00000000000E+00  0.00000000000E+00  0.14999999963E+04  0.15000000000E+04  0.10566000000E+00 0. -1.
        994   -1    0    0    0    0 -0.00000000000E+00 -0.00000000000E+00  0.11368683772E-12  0.17120000000E+03  0.17120000000E+03 0.  0.
         13    1    1    2    0    0  0.10217121908E+02 -0.30673558412E+01  0.27031615643E+02  0.29060586027E+02  0.10566000000E+00 0. -1.
        994    1    1    2    0    0 -0.38475880065E+01  0.14413348131E+02  0.27919682715E+01  0.17187141596E+03  0.17120000000E+03 0.  0.
        998    1    1    2    0    0 -0.63695339019E+01 -0.11345992290E+02  0.14701764124E+04  0.14702679980E+04  0.10000000000E+02 0. -1.
</event>
<event>
 5    1  0.1369527E-008  0.4354596E+03  0.7957747E-01  0.3240325E+00
         13   -1    0    0    0    0  0.00000000000E+00  0.00000000000E+00  0.14999999963E+04  0.15000000000E+04  0.10566000000E+00 0.  1.
        994   -1    0    0    0    0 -0.00000000000E+00 -0.00000000000E+00  0.11368683772E-12  0.17120000000E+03  0.17120000000E+03 0.  0.
         13    1    1    2    0    0  0.29563019307E+02 -0.51301222143E+02  0.15513405533E+02  0.61208368865E+02  0.10566000000E+00 0.  1.
        994    1    1    2    0    0 -0.49985857956E+02  0.48691253565E+02  0.73707353672E+02  0.19902672724E+03  0.17120000000E+03 0.  0.
        998    1    1    2    0    0  0.20422838649E+02  0.26099685781E+01  0.14107792371E+04  0.14109649039E+04  0.10000000000E+02 0.  1.
</event>
<event>
 5    1  0.1369527E-008  0.3784201E+03  0.7957747E-01  0.3458067E+00
         13   -1    0    0    0    0  0.00000000000E+00  0.00000000000E+00  0.14999999963E+04  0.15000000000E+04  0.10566000000E+00 0. -1.
        994   -1    0    0    0    0 -0.00000000000E+00 -0.00000000000E+00  0.11368683772E-12  0.17120000000E+03  0.17120000000E+03 0.  0.
         13    1    1    2    0    0 -0.20887517954E+02  0.19605232238E+02  0.86298111068E+02  0.90928701054E+02  0.10566000000E+00 0. -1.
        994    1    1    2    0    0 -0.81847661605E+00 -0.77880743748E+01  0.51389123578E+01  0.17145603643E+03  0.17120000000E+03 0.  0.
        998    1    1    2    0    0  0.21705994570E+02 -0.11817157864E+02  0.14085629729E+04  0.14088152625E+04  0.10000000000E+02 0. -1.
</event>
<event>
 5    1  0.1369527E-008  0.3812535E+03  0.7957747E-01  0.3445719E+00
         13   -1    0    0    0    0  0.00000000000E+00  0.00000000000E+00  0.14999999963E+04  0.15000000000E+04  0.10566000000E+00 0.  1.
        994   -1    0    0    0    0 -0.00000000000E+00 -0.00000000000E+00  0.11368683772E-12  0.17120000000E+03  0.17120000000E+03 0.  0.
         13    1    1    2    0    0  0.12270611328E+02 -0.90954336067E+00  0.20364270958E+02  0.23793063426E+02  0.10566000000E+00 0.  1.
        994    1    1    2    0    0 -0.60259295570E+01 -0.35283716671E+01  0.36640695848E+01  0.17138152362E+03  0.17120000000E+03 0.  0.
        998    1    1    2    0    0 -0.62446817713E+01  0.44379150278E+01  0.14759716557E+04  0.14760254130E+04  0.10000000000E+02 0.  1.
</event>
<event>
 5    1  0.1369527E-008  0.3813939E+03  0.7957747E-01  0.3445112E+00
         13   -1    0    0    0    0  0.00000000000E+00  0.00000000000E+00  0.14999999963E+04  0.15000000000E+04  0.10566000000E+00 0. -1.
        994   -1    0    0    0    0 -0.00000000000E+00 -0.00000000000E+00  0.11368683772E-12  0.17120000000E+03  0.17120000000E+03 0.  0.
         13    1    1    2    0    0 -0.50506947230E+01  0.14525622414E+02  0.33526667521E+02  0.36885658769E+02  0.10566000000E+00 0. -1.
        994    1    1    2    0    0 -0.25468869248E+00 -0.78683081687E+01  0.36374391267E+01  0.17141950328E+03  0.17120000000E+03 0.  0.
        998    1    1    2    0    0  0.53053834155E+01 -0.66573142451E+01  0.14628358896E+04  0.14628948380E+04  0.10000000000E+02 0. -1.
</event>
<event>
 5    1  0.1369527E-008  0.3829799E+03  0.7957747E-01  0.3438285E+00
         13   -1    0    0    0    0  0.00000000000E+00  0.00000000000E+00  0.14999999963E+04  0.15000000000E+04  0.10566000000E+00 0. -1.
        994   -1    0    0    0    0 -0.00000000000E+00 -0.00000000000E+00  0.11368683772E-12  0.17120000000E+03  0.17120000000E+03 0.  0.
         13    1    1    2    0    0 -0.74817492050E+01 -0.71198193261E+01  0.19126055432E+02  0.21736732938E+02  0.10566000000E+00 0. -1.
        994    1    1    2    0    0  0.14591286274E+02 -0.19836700220E+01  0.33545316288E+01  0.17186486978E+03  0.17120000000E+03 0.  0.
        998    1    1    2    0    0 -0.71095370689E+01  0.91034893481E+01  0.14775194092E+04  0.14775983973E+04  0.10000000000E+02 0. -1.
</event>
<event>
 5    1  0.1369527E-008  0.3811932E+03  0.7957747E-01  0.3445979E+00
         13   -1    0    0    0    0  0.00000000000E+00  0.00000000000E+00  0.14999999963E+04  0.15000000000E+04  0.10566000000E+00 0.  1.
        994   -1    0    0    0    0 -0.00000000000E+00 -0.00000000000E+00  0.11368683772E-12  0.17120000000E+03  0.17120000000E+03 0.  0.
         13    1    1    2    0    0 -0.70020473347E+01 -0.37253069355E+02  0.18581073835E+03  0.18963771116E+03  0.10566000000E+00 0.  1.
        994    1    1    2    0    0  0.16902530786E+01  0.33542516379E+02  0.72969911044E+01  0.17461570216E+03  0.17120000000E+03 0.  0.
        998    1    1    2    0    0  0.53117942561E+01  0.37105529764E+01  0.13068922668E+04  0.13069465867E+04  0.10000000000E+02 0.  1.
</event>
<event>
 5    1  0.1369527E-008  0.2587006E+03  0.7957747E-01  0.4243549E+00
         13   -1    0    0    0    0  0.00000000000E+00  0.00000000000E+00  0.14999999963E+04  0.15000000000E+04  0.10566000000E+00 0. -1.
        994   -1    0    0    0    0 -0.00000000000E+00 -0.00000000000E+00  0.11368683772E-12  0.17120000000E+03  0.17120000000E+03 0.  0.
         13    1    1    2    0    0  0.51127048088E+02  0.19358302393E+03  0.38706193811E+03  0.43578127232E+03  0.10566000000E+00 0. -1.
        994    1    1    2    0    0  0.63092082354E+02 -0.16128680023E+03  0.20107384116E+03  0.31580717595E+03  0.17120000000E+03 0.  0.
        998    1    1    2    0    0 -0.11421913044E+03 -0.32296223708E+02  0.91186421701E+03  0.91961155173E+03  0.10000000000E+02 0. -1.
</event>
<event>
 5    1  0.1369527E-008  0.3856317E+03  0.7957747E-01  0.3426997E+00
         13   -1    0    0    0    0  0.00000000000E+00  0.00000000000E+00  0.14999999963E+04  0.15000000000E+04  0.10566000000E+00 0.  1.
        994   -1    0    0    0    0 -0.00000000000E+00 -0.00000000000E+00  0.11368683772E-12  0.17120000000E+03  0.17120000000E+03 0.  0.
         13    1    1    2    0    0 -0.15727585353E+02 -0.45949820257E+01  0.98943897441E+02  0.10029145929E+03  0.10566000000E+00 0.  1.
        994    1    1    2    0    0  0.11988921238E+02  0.11766881411E+02  0.22435021899E+01  0.17203681883E+03  0.17120000000E+03 0.  0.
        998    1    1    2    0    0  0.37386641153E+01 -0.71718993851E+01  0.13988125966E+04  0.13988717219E+04  0.10000000000E+02 0.  1.
</event>
<event>
 5    1  0.1369527E-008  0.3775649E+03  0.7957747E-01  0.3461831E+00
         13   -1    0    0    0    0  0.00000000000E+00  0.00000000000E+00  0.14999999963E+04  0.15000000000E+04  0.10566000000E+00 0.  1.
        994   -1    0    0    0    0 -0.00000000000E+00 -0.00000000000E+00  0.11368683772E-12  0.17120000000E+03  0.17120000000E+03 0.  0.
         13    1    1    2    0    0 -0.10142645426E+02  0.27400352969E+01  0.83456281658E+01  0.13417962706E+02  0.10566000000E+00 0.  1.
        994    1    1    2    0    0 -0.25451715632E+02 -0.14250378088E+02  0.82402520334E+01  0.17386260339E+03  0.17120000000E+03 0.  0.
        998    1    1    2    0    0  0.35594361059E+02  0.11510342791E+02  0.14834141161E+04  0.14839194339E+04  0.10000000000E+02 0.  1.
</event>
<event>
 5    1  0.1369527E-008  0.3830752E+03  0.7957747E-01  0.3437877E+00
         13   -1    0    0    0    0  0.00000000000E+00  0.00000000000E+00  0.14999999963E+04  0.15000000000E+04  0.10566000000E+00 0. -1.
        994   -1    0    0    0    0 -0.00000000000E+00 -0.00000000000E+00  0.11368683772E-12  0.17120000000E+03  0.17120000000E+03 0.  0.
         13    1    1    2    0    0 -0.55981578149E+01  0.11915227386E+02  0.32600928264E+02  0.35158835337E+02  0.10566000000E+00 0. -1.
        994    1    1    2    0    0  0.52156165529E+01 -0.76502474525E+01  0.28725599090E+01  0.17147425621E+03  0.17120000000E+03 0.  0.
        998    1    1    2    0    0  0.38254126201E+00 -0.42649799336E+01  0.14645265081E+04  0.14645669085E+04  0.10000000000E+02 0. -1.
</event>
<event>
 5    1  0.1369527E-008  0.3840284E+03  0.7957747E-01  0.3433803E+00
         13   -1    0    0    0    0  0.00000000000E+00  0.00000000000E+00  0.14999999963E+04  0.15000000000E+04  0.10566000000E+00 0.  1.
        994   -1    0    0    0    0 -0.00000000000E+00 -0.00000000000E+00  0.11368683772E-12  0.17120000000E+03  0.17120000000E+03 0.  0.
         13    1    1    2    0    0  0.83825663890E+01  0.13624617115E+02  0.65752311568E+02  0.67670342480E+02  0.10566000000E+00 0.  1.
        994    1    1    2    0    0  0.38599031823E+01  0.36832200028E+01  0.22071862375E+01  0.17129733399E+03  0.17120000000E+03 0.  0.
        998    1    1    2    0    0 -0.12242469571E+02 -0.17307837118E+02  0.14320404985E+04  0.14322323235E+04  0.10000000000E+02 0.  1.
</event>
<event>
 5    1  0.1369527E-008  0.3825198E+03  0.7957747E-01  0.3440260E+00
         13   -1    0    0    0    0  0.00000000000E+00  0.00000000000E+00  0.14999999963E+04  0.15000000000E+04  0.10566000000E+00 0. -1.
        994   -1    0    0    0    0 -0.00000000000E+00 -0.00000000000E+00  0.11368683772E-12  0.17120000000E+03  0.17120000000E+03 0.  0.
         13    1    1    2    0    0  0.12329674808E+02 -0.10518150420E+02  0.46112091791E+02  0.48877280432E+02  0.10566000000E+00 0. -1.
        994    1    1    2    0    0 -0.22828988692E+01  0.39058384654E+01  0.29343953307E+01  0.17128490265E+03  0.17120000000E+03 0.  0.
        998    1    1    2    0    0 -0.10046775939E+02  0.66123119542E+01  0.14509535092E+04  0.14510378169E+04  0.10000000000E+02 0. -1.
</event>
<event>
 5    1  0.1369527E-008  0.3848394E+03  0.7957747E-01  0.3430354E+00
         13   -1    0    0    0    0  0.00000000000E+00  0.00000000000E+00  0.14999999963E+04  0.15000000000E+04  0.10566000000E+00 0.  1.
        994   -1    0    0    0    0 -0.00000000000E+00 -0.00000000000E+00  0.11368683772E-12  0.17120000000E+03  0.17120000000E+03 0.  0.
         13    1    1    2    0    0  0.10649427458E+02 -0.64042410631E+01  0.47204948162E+02  0.48813347598E+02  0.10566000000E+00 0.  1.
        994    1    1    2    0    0  0.17946109550E+01  0.17952625973E+01  0.17310973072E+01  0.17122756873E+03  0.17120000000E+03 0.  0.
        998    1    1    2    0    0 -0.12444038413E+02  0.46089784658E+01  0.14510639508E+04  0.14511590837E+04  0.10000000000E+02 0.  1.
</event>
<event>
 5    1  0.1369527E-008  0.3814195E+03  0.7957747E-01  0.3445001E+00
         13   -1    0    0    0    0  0.00000000000E+00  0.00000000000E+00  0.14999999963E+04  0.15000000000E+04  0.10566000000E+00 0. -1.
        994   -1    0    0    0    0 -0.00000000000E+00 -0.00000000000E+00  0.11368683772E-12  0.17120000000E+03  0.17120000000E+03 0.  0.
         13    1    1    2    0    0  0.15526131667E+02 -0.18394636750E+01  0.34004737217E+02  0.37426964991E+02  0.10566000000E+00 0. -1.
        994    1    1    2    0    0 -0.14723031331E+02 -0.24747938330E+00  0.41401003448E+01  0.17188196336E+03  0.17120000000E+03 0.  0.
        998    1    1    2    0    0 -0.80310033603E+00  0.20869430583E+01  0.14618551587E+04  0.14618910716E+04  0.10000000000E+02 0. -1.
</event>
<event>
 5    1  0.1369527E-008  0.3856008E+03  0.7957747E-01  0.3427128E+00
         13   -1    0    0    0    0  0.00000000000E+00  0.00000000000E+00  0.14999999963E+04  0.15000000000E+04  0.10566000000E+00 0. -1.
        994   -1    0    0    0    0 -0.00000000000E+00 -0.00000000000E+00  0.11368683772E-12  0.17120000000E+03  0.17120000000E+03 0.  0.
         13    1    1    2    0    0  0.11978381893E+02 -0.67475157447E+01  0.75727047190E+02  0.76964975421E+02  0.10566000000E+00 0. -1.
        994    1    1    2    0    0  0.22463214415E+00  0.30654444411E+01  0.13631675755E+01  0.17123301561E+03  0.17120000000E+03 0.  0.
        998    1    1    2    0    0 -0.12203014038E+02  0.36820713036E+01  0.14229097815E+04  0.14230020090E+04  0.10000000000E+02 0. -1.
</event>
<event>
 5    1  0.1369527E-008  0.3828560E+03  0.7957747E-01  0.3438816E+00
         13   -1    0    0    0    0  0.00000000000E+00  0.00000000000E+00  0.14999999963E+04  0.15000000000E+04  0.10566000000E+00 0.  1.
        994   -1    0    0    0    0 -0.00000000000E+00 -0.00000000000E+00  0.11368683772E-12  0.17120000000E+03  0.17120000000E+03 0.  0.
         13    1    1    2    0    0 -0.19694305914E+02  0.12998232574E+02  0.99501849246E+02  0.10226166879E+03  0.10566000000E+00 0.  1.
        994    1    1    2    0    0  0.13105039696E+02 -0.15092988688E+02  0.40226014793E+01  0.17240986542E+03  0.17120000000E+03 0.  0.
        998    1    1    2    0    0  0.65892662185E+01  0.20947561144E+01  0.13964755456E+04  0.13965284658E+04  0.10000000000E+02 0.  1.
</event>
<event>
 5    1  0.1369527E-008  0.3685892E+03  0.7957747E-01  0.3502400E+00
         13   -1    0    0    0    0  0.00000000000E+00  0.00000000000E+00  0.14999999963E+04  0.15000000000E+04  0.10566000000E+00 0. -1.
        994   -1    0    0    0    0 -0.00000000000E+00 -0.00000000000E+00  0.11368683772E-12  0.17120000000E+03  0.17120000000E+03 0.  0.
         13    1    1    2    0    0  0.86153783855E+02  0.10132747962E+02  0.29662689700E+03  0.30905124857E+03  0.10566000000E+00 0. -1.
        994    1    1    2    0    0 -0.87917335233E+02  0.18870180394E+02  0.38876729628E+02  0.19724700669E+03  0.17120000000E+03 0.  0.
        998    1    1    2    0    0  0.17635513778E+01 -0.29002928357E+02  0.11644963697E+04  0.11649017447E+04  0.10000000000E+02 0. -1.
</event>
<event>
 5    1  0.1369527E-008  0.3822353E+03  0.7957747E-01  0.3441483E+00
         13   -1    0    0    0    0  0.00000000000E+00  0.00000000000E+00  0.14999999963E+04  0.15000000000E+04  0.10566000000E+00 0.  1.
        994   -1    0    0    0    0 -0.00000000000E+00 -0.00000000000E+00  0.11368683772E-12  0.17120000000E+03  0.17120000000E+03 0.  0.
         13    1    1    2    0    0  0.16634936467E+02 -0.34165668336E+01  0.46853788353E+02  0.49836559745E+02  0.10566000000E+00 0.  1.
        994    1    1    2    0    0 -0.11619832045E+02  0.62933471589E+00  0.34584972622E+01  0.17162988598E+03  0.17120000000E+03 0.  0.
        998    1    1    2    0    0 -0.50151044215E+01  0.27872321177E+01  0.14496877107E+04  0.14497335543E+04  0.10000000000E+02 0.  1.
</event>
<event>
 5    1  0.1369527E-008  0.3841166E+03  0.7957747E-01  0.3433427E+00
         13   -1    0    0    0    0  0.00000000000E+00  0.00000000000E+00  0.14999999963E+04  0.15000000000E+04  0.10566000000E+00 0. -1.
        994   -1    0    0    0    0 -0.00000000000E+00 -0.00000000000E+00  0.11368683772E-12  0.17120000000E+03  0.17120000000E+03 0.  0.
         13    1    1    2    0    0 -0.43794288187E+02 -0.60626160669E+01  0.24458304497E+03  0.24854692121E+03  0.10566000000E+00 0. -1.
        994    1    1    2    0    0  0.87870483190E+02  0.38054000474E+02  0.32920620031E+02  0.19890333328E+03  0.17120000000E+03 0.  0.
        998    1    1    2    0    0 -0.44076195003E+02 -0.31991384407E+02  0.12224963313E+04  0.12237497455E+04  0.10000000000E+02 0. -1.
</event>
<event>
 5    1  0.1369527E-008  0.3852642E+03  0.7957747E-01  0.3428553E+00
         13   -1    0    0    0    0  0.00000000000E+00  0.00000000000E+00  0.14999999963E+04  0.15000000000E+04  0.10566000000E+00 0.  1.
        994   -1    0    0    0    0 -0.00000000000E+00 -0.00000000000E+00  0.11368683772E-12  0.17120000000E+03  0.17120000000E+03 0.  0.
         13    1    1    2    0    0  0.75056712132E+01 -0.75202447969E+01  0.37679507216E+02  0.39149017999E+02  0.10566000000E+00 0.  1.
        994    1    1    2    0    0 -0.46322434457E+01  0.51217751487E+01  0.16557588562E+01  0.17134722582E+03  0.17120000000E+03 0.  0.
        998    1    1    2    0    0 -0.28734277675E+01  0.23984696482E+01  0.14606647302E+04  0.14607037562E+04  0.10000000000E+02 0.  1.
</event>
<event>
 5    1  0.1369527E-008  0.3821840E+03  0.7957747E-01  0.3441703E+00
         13   -1    0    0    0    0  0.00000000000E+00  0.00000000000E+00  0.14999999963E+04  0.15000000000E+04  0.10566000000E+00 0.  1.
        994   -1    0    0    0    0 -0.00000000000E+00 -0.00000000000E+00  0.11368683772E-12  0.17120000000E+03  0.17120000000E+03 0.  0.
         13    1    1    2    0    0  0.13692419417E+02  0.23397335339E+02  0.11449291429E+03  0.11765864285E+03  0.10566000000E+00 0.  1.
        994    1    1    2    0    0 -0.10721027249E+02 -0.21634376933E+02  0.49720064157E+01  0.17296574094E+03  0.17120000000E+03 0.  0.
        998    1    1    2    0    0 -0.29713921679E+01 -0.17629584060E+01  0.13805350756E+04  0.13805756162E+04  0.10000000000E+02 0.  1.
</event>
<event>
 5    1  0.1369527E-008  0.3853106E+03  0.7957747E-01  0.3428356E+00
         13   -1    0    0    0    0  0.00000000000E+00  0.00000000000E+00  0.14999999963E+04  0.15000000000E+04  0.10566000000E+00 0. -1.
        994   -1    0    0    0    0 -0.00000000000E+00 -0.00000000000E+00  0.11368683772E-12  0.17120000000E+03  0.17120000000E+03 0.  0.
         13    1    1    2    0    0  0.13553697940E+02 -0.25409924689E+01  0.69091849274E+02  0.70454624906E+02  0.10566000000E+00 0. -1.
        994    1    1    2    0    0  0.53799706197E+01  0.35400359624E+02  0.56996182991E+01  0.17499730053E+03  0.17120000000E+03 0.  0.
        998    1    1    2    0    0 -0.18933668560E+02 -0.32859367155E+02  0.14252085287E+04  0.14257480746E+04  0.10000000000E+02 0. -1.
</event>
<event>
 5    1  0.1369527E-008  0.3842304E+03  0.7957747E-01  0.3432943E+00
         13   -1    0    0    0    0  0.00000000000E+00  0.00000000000E+00  0.14999999963E+04  0.15000000000E+04  0.10566000000E+00 0.  1.
        994   -1    0    0    0    0 -0.00000000000E+00 -0.00000000000E+00  0.11368683772E-12  0.17120000000E+03  0.17120000000E+03 0.  0.
         13    1    1    2    0    0 -0.22249254620E+03 -0.87749164641E+02  0.12228432447E+04  0.12460130261E+04  0.10566000000E+00 0.  1.
        994    1    1    2    0    0  0.22036265473E+03  0.87668341339E+02  0.21709125715E+03  0.36425745236E+03  0.17120000000E+03 0.  0.
        998    1    1    2    0    0  0.21298914699E+01  0.80823301824E-01  0.60065494426E+02  0.60929521504E+02  0.10000000000E+02 0.  0.
</event>
<event>
 5    1  0.1369527E-008  0.3742973E+03  0.7957747E-01  0.3476372E+00
         13   -1    0    0    0    0  0.00000000000E+00  0.00000000000E+00  0.14999999963E+04  0.15000000000E+04  0.10566000000E+00 0.  1.
        994   -1    0    0    0    0 -0.00000000000E+00 -0.00000000000E+00  0.11368683772E-12  0.17120000000E+03  0.17120000000E+03 0.  0.
         13    1    1    2    0    0  0.70232498761E+02 -0.55762469577E+02  0.44990538569E+03  0.45875584370E+03  0.10566000000E+00 0.  1.
        994    1    1    2    0    0 -0.45126869508E+02  0.68700096693E+02  0.30421024171E+02  0.19233048731E+03  0.17120000000E+03 0.  0.
        998    1    1    2    0    0 -0.25105629252E+02 -0.12937627117E+02  0.10196735864E+04  0.10201136690E+04  0.10000000000E+02 0.  1.
</event>
<event>
 5    1  0.1369527E-008  0.3840594E+03  0.7957747E-01  0.3433671E+00
         13   -1    0    0    0    0  0.00000000000E+00  0.00000000000E+00  0.14999999963E+04  0.15000000000E+04  0.10566000000E+00 0. -1.
        994   -1    0    0    0    0 -0.00000000000E+00 -0.00000000000E+00  0.11368683772E-12  0.17120000000E+03  0.17120000000E+03 0.  0.
         13    1    1    2    0    0 -0.12509579295E+02  0.10834098559E+02  0.63697523572E+02  0.65812255234E+02  0.10566000000E+00 0. -1.
        994    1    1    2    0    0  0.71970694004E+01 -0.13196989471E+02  0.28435810361E+01  0.17188218143E+03  0.17120000000E+03 0.  0.
        998    1    1    2    0    0  0.53125098941E+01  0.23628909126E+01  0.14334588917E+04  0.14335055633E+04  0.10000000000E+02 0. -1.
</event>
<event>
 5    1  0.1369527E-008  0.4009338E+03  0.7957747E-01  0.3364784E+00
         13   -1    0    0    0    0  0.00000000000E+00  0.00000000000E+00  0.14999999963E+04  0.15000000000E+04  0.10566000000E+00 0. -1.
        994   -1    0    0    0    0 -0.00000000000E+00 -0.00000000000E+00  0.11368683772E-12  0.17120000000E+03  0.17120000000E+03 0.  0.
         13    1    1    2    0    0 -0.83932554582E+02 -0.33199264905E+02  0.12460608913E+03  0.15386212504E+03  0.10566000000E+00 0. -1.
        994    1    1    2    0    0  0.83207752725E+02  0.32320454425E+02  0.60393819518E+02  0.20229927168E+03  0.17120000000E+03 0.  0.
        998    1    1    2    0    0  0.72480185784E+00  0.87881047998E+00  0.13150000876E+04  0.13150386033E+04  0.10000000000E+02 0. -1.
</event>
<event>
 5    1  0.1369527E-008  0.3757853E+03  0.7957747E-01  0.3469718E+00
         13   -1    0    0    0    0  0.00000000000E+00  0.00000000000E+00  0.14999999963E+04  0.15000000000E+04  0.10566000000E+00 0.  1.
        994   -1    0    0    0    0 -0.00000000000E+00 -0.00000000000E+00  0.11368683772E-12  0.17120000000E+03  0.17120000000E+03 0.  0.
         13    1    1    2    0    0 -0.11061175011E+03  0.19141720877E+03  0.86907181112E+03  0.89675042856E+03  0.10566000000E+00 0.  1.
        994    1    1    2    0    0  0.11431065420E+03 -0.20223166966E+03  0.21905623676E+03  0.36229773493E+03  0.17120000000E+03 0.  0.
        998    1    1    2    0    0 -0.36989040840E+01  0.10814460884E+02  0.41187194840E+03  0.41215183651E+03  0.10000000000E+02 0.  0.
</event>
<event>
 5    1  0.1369527E-008  0.3857046E+03  0.7957747E-01  0.3426689E+00
         13   -1    0    0    0    0  0.00000000000E+00  0.00000000000E+00  0.14999999963E+04  0.15000000000E+04  0.10566000000E+00 0. -1.
        994   -1    0    0    0    0 -0.00000000000E+00 -0.00000000000E+00  0.11368683772E-12  0.17120000000E+03  0.17120000000E+03 0.  0.
         13    1    1    2    0    0  0.10600223826E+02 -0.27112959086E+01  0.46781031438E+02  0.48043646168E+02  0.10566000000E+00 0. -1.
        994    1    1    2    0    0 -0.63604105609E+01  0.90638691858E+01  0.16831173439E+01  0.17156596816E+03  0.17120000000E+03 0.  0.
        998    1    1    2    0    0 -0.42398132654E+01 -0.63525732772E+01  0.14515358475E+04  0.14515903857E+04  0.10000000000E+02 0. -1.
</event>
<event>
 5    1  0.1369527E-008  0.3796311E+03  0.7957747E-01  0.3452766E+00
         13   -1    0    0    0    0  0.00000000000E+00  0.00000000000E+00  0.14999999963E+04  0.15000000000E+04  0.10566000000E+00 0.  1.
        994   -1    0    0    0    0 -0.00000000000E+00 -0.00000000000E+00  0.11368683772E-12  0.17120000000E+03  0.17120000000E+03 0.  0.
         13    1    1    2    0    0 -0.11928852460E+02 -0.14281197784E+02  0.36579648496E+02  0.41040613778E+02  0.10566000000E+00 0.  1.
        994    1    1    2    0    0  0.46022742966E+02 -0.29262478465E+01  0.11470473895E+02  0.17767292300E+03  0.17120000000E+03 0.  0.
        998    1    1    2    0    0 -0.34093890506E+02  0.17207445631E+02  0.14519498739E+04  0.14524864632E+04  0.10000000000E+02 0.  1.
</event>
<event>
 5    1  0.1369527E-008  0.3848466E+03  0.7957747E-01  0.3430323E+00
         13   -1    0    0    0    0  0.00000000000E+00  0.00000000000E+00  0.14999999963E+04  0.15000000000E+04  0.10566000000E+00 0.  1.
        994   -1    0    0    0    0 -0.00000000000E+00 -0.00000000000E+00  0.11368683772E-12  0.17120000000E+03  0.17120000000E+03 0.  0.
         13    1    1    2    0    0 -0.43733007641E+01 -0.11285316545E+02  0.42222042917E+02  0.43922616056E+02  0.10566000000E+00 0.  1.
        994    1    1    2    0    0  0.99416389922E+00  0.10988904216E+02  0.21070013624E+01  0.17156813175E+03  0.17120000000E+03 0.  0.
        998    1    1    2    0    0  0.33791368649E+01  0.29641232837E+00  0.14556709520E+04  0.14557092522E+04  0.10000000000E+02 0.  1.
</event>
<event>
 5    1  0.1369527E-008  0.3792850E+03  0.7957747E-01  0.3454278E+00
         13   -1    0    0    0    0  0.00000000000E+00  0.00000000000E+00  0.14999999963E+04  0.15000000000E+04  0.10566000000E+00 0.  1.
        994   -1    0    0    0    0 -0.00000000000E+00 -0.00000000000E+00  0.11368683772E-12  0.17120000000E+03  0.17120000000E+03 0.  0.
         13    1    1    2    0    0  0.57010262080E+01  0.20252861025E+02  0.47795529289E+02  0.52221680015E+02  0.10566000000E+00 0.  1.
        994    1    1    2    0    0 -0.66265238916E+01 -0.10887267530E+02  0.50390046986E+01  0.17174770735E+03  0.17120000000E+03 0.  0.
        998    1    1    2    0    0  0.92549768358E+00 -0.93655934950E+01  0.14471654623E+04  0.14472306126E+04  0.10000000000E+02 0.  1.
</event>
<event>
 5    1  0.1369527E-008  0.3837534E+03  0.7957747E-01  0.3434977E+00
         13   -1    0    0    0    0  0.00000000000E+00  0.00000000000E+00  0.14999999963E+04  0.15000000000E+04  0.10566000000E+00 0. -1.
        994   -1    0    0    0    0 -0.00000000000E+00 -0.00000000000E+00  0.11368683772E-12  0.17120000000E+03  0.17120000000E+03 0.  0.
         13    1    1    2    0    0 -0.22338579972E+00  0.11764551288E+02  0.29369877475E+02  0.31639460096E+02  0.10566000000E+00 0. -1.
        994    1    1    2    0    0 -0.81930887117E+00 -0.14455223197E+02  0.29428141105E+01  0.17183633172E+03  0.17120000000E+03 0.  0.
        998    1    1    2    0    0  0.10426946709E+01  0.26906719090E+01  0.14676873047E+04  0.14677242082E+04  0.10000000000E+02 0. -1.
</event>
<event>
 5    1  0.1369527E-008  0.3723719E+03  0.7957747E-01  0.3485061E+00
         13   -1    0    0    0    0  0.00000000000E+00  0.00000000000E+00  0.14999999963E+04  0.15000000000E+04  0.10566000000E+00 0.  1.
        994   -1    0    0    0    0 -0.00000000000E+00 -0.00000000000E+00  0.11368683772E-12  0.17120000000E+03  0.17120000000E+03 0.  0.
         13    1    1    2    0    0 -0.27734506473E+02  0.65423248267E+02  0.21748008926E+03  0.22879467794E+03  0.10566000000E+00 0.  1.
        994    1    1    2    0    0  0.11841414669E+03 -0.69144095205E+02  0.75557007236E+02  0.23199378738E+03  0.17120000000E+03 0.  0.
        998    1    1    2    0    0 -0.90679640221E+02  0.37208469375E+01  0.12069628998E+04  0.12104115347E+04  0.10000000000E+02 0.  1.
</event>
<event>
 5    1  0.1369527E-008  0.3693017E+03  0.7957747E-01  0.3499106E+00
         13   -1    0    0    0    0  0.00000000000E+00  0.00000000000E+00  0.14999999963E+04  0.15000000000E+04  0.10566000000E+00 0. -1.
        994   -1    0    0    0    0 -0.00000000000E+00 -0.00000000000E+00  0.11368683772E-12  0.17120000000E+03  0.17120000000E+03 0.  0.
         13    1    1    2    0    0 -0.31676643025E+01 -0.12218069160E+02  0.30549213741E+01  0.12986878753E+02  0.10566000000E+00 0. -1.
        994    1    1    2    0    0  0.14340712749E+01 -0.29943291245E+02  0.13710464783E+02  0.17434469908E+03  0.17120000000E+03 0.  0.
        998    1    1    2    0    0  0.17335930276E+01  0.42161360405E+02  0.14832346101E+04  0.14838684222E+04  0.10000000000E+02 0. -1.
</event>
<event>
 5    1  0.1369527E-008  0.3757967E+03  0.7957747E-01  0.3469667E+00
         13   -1    0    0    0    0  0.00000000000E+00  0.00000000000E+00  0.14999999963E+04  0.15000000000E+04  0.10566000000E+00 0. -1.
        994   -1    0    0    0    0 -0.00000000000E+00 -0.00000000000E+00  0.11368683772E-12  0.17120000000E+03  0.17120000000E+03 0.  0.
         13    1    1    2    0    0 -0.37193105099E+01 -0.18467277687E+02  0.25479350213E+02  0.31687254017E+02  0.10566000000E+00 0. -1.
        994    1    1    2    0    0  0.60260537333E+01  0.15132021178E+02  0.71700369896E+01  0.17212245879E+03  0.17120000000E+03 0.  0.
        998    1    1    2    0    0 -0.23067432235E+01  0.33352565088E+01  0.14673506091E+04  0.14673902872E+04  0.10000000000E+02 0. -1.
</event>
<event>
 5    1  0.1369527E-008  0.3779591E+03  0.7957747E-01  0.3460094E+00
         13   -1    0    0    0    0  0.00000000000E+00  0.00000000000E+00  0.14999999963E+04  0.15000000000E+04  0.10566000000E+00 0. -1.
        994   -1    0    0    0    0 -0.00000000000E+00 -0.00000000000E+00  0.11368683772E-12  0.17120000000E+03  0.17120000000E+03 0.  0.
         13    1    1    2    0    0  0.22868141131E+02 -0.27469594722E+02  0.11498295857E+03  0.12041022564E+03  0.10566000000E+00 0. -1.
        994    1    1    2    0    0 -0.11074686852E+02  0.33923637288E+02  0.94649298255E+01  0.17513562388E+03  0.17120000000E+03 0.  0.
        998    1    1    2    0    0 -0.11793454279E+02 -0.64540425652E+01  0.13755521079E+04  0.13756541505E+04  0.10000000000E+02 0. -1.
</event>
<event>
 5    1  0.1369527E-008  0.3685047E+03  0.7957747E-01  0.3502791E+00
         13   -1    0    0    0    0  0.00000000000E+00  0.00000000000E+00  0.14999999963E+04  0.15000000000E+04  0.10566000000E+00 0. -1.
        994   -1    0    0    0    0 -0.00000000000E+00 -0.00000000000E+00  0.11368683772E-12  0.17120000000E+03  0.17120000000E+03 0.  0.
         13    1    1    2    0    0  0.14252410022E+03  0.91617148248E+02  0.77307806265E+03  0.79142689057E+03  0.10566000000E+00 0. -1.
        994    1    1    2    0    0 -0.12517510462E+03 -0.88885546349E+02  0.97079190433E+02  0.24960620261E+03  0.17120000000E+03 0.  0.
        998    1    1    2    0    0 -0.17348995594E+02 -0.27316018985E+01  0.62984274319E+03  0.63016690682E+03  0.10000000000E+02 0. -1.
</event>
<event>
 5    1  0.1369527E-008  0.3715111E+03  0.7957747E-01  0.3488975E+00
         13   -1    0    0    0    0  0.00000000000E+00  0.00000000000E+00  0.14999999963E+04  0.15000000000E+04  0.10566000000E+00 0. -1.
        994   -1    0    0    0    0 -0.00000000000E+00 -0.00000000000E+00  0.11368683772E-12  0.17120000000E+03  0.17120000000E+03 0.  0.
         13    1    1    2    0    0 -0.44748781158E+02 -0.79680792603E+02  0.49561683193E+03  0.50397176249E+03  0.10566000000E+00 0. -1.
        994    1    1    2    0    0  0.10979967530E+01  0.15669296589E+02  0.12607662751E+02  0.17238075766E+03  0.17120000000E+03 0.  0.
        998    1    1    2    0    0  0.43650784405E+02  0.64011496015E+02  0.99177550159E+03  0.99484747985E+03  0.10000000000E+02 0. -1.
</event>
<event>
 5    1  0.1369527E-008  0.3835469E+03  0.7957747E-01  0.3435858E+00
         13   -1    0    0    0    0  0.00000000000E+00  0.00000000000E+00  0.14999999963E+04  0.15000000000E+04  0.10566000000E+00 0. -1.
        994   -1    0    0    0    0 -0.00000000000E+00 -0.00000000000E+00  0.11368683772E-12  0.17120000000E+03  0.17120000000E+03 0.  0.
         13    1    1    2    0    0  0.74323456526E+01  0.81012581344E+01  0.24956394300E+02  0.27270917215E+02  0.10566000000E+00 0. -1.
        994    1    1    2    0    0 -0.70044145363E+01 -0.31098361113E+01  0.25473756274E+01  0.17139037904E+03  0.17120000000E+03 0.  0.
        998    1    1    2    0    0 -0.42793111635E+00 -0.49914220231E+01  0.14724962264E+04  0.14725387037E+04  0.10000000000E+02 0. -1.
</event>
<event>
 5    1  0.1369527E-008  0.3759071E+03  0.7957747E-01  0.3469176E+00
         13   -1    0    0    0    0  0.00000000000E+00  0.00000000000E+00  0.14999999963E+04  0.15000000000E+04  0.10566000000E+00 0. -1.
        994   -1    0    0    0    0 -0.00000000000E+00 -0.00000000000E+00  0.11368683772E-12  0.17120000000E+03  0.17120000000E+03 0.  0.
         13    1    1    2    0    0  0.57170081599E+02 -0.17842489928E+02  0.34676443508E+03  0.35189822005E+03  0.10566000000E+00 0. -1.
        994    1    1    2    0    0 -0.18485162298E+02 -0.14817300574E+02  0.81179852159E+01  0.17302195036E+03  0.17120000000E+03 0.  0.
        998    1    1    2    0    0 -0.38684919302E+02  0.32659790502E+02  0.11451175760E+04  0.11462798296E+04  0.10000000000E+02 0. -1.
</event>
<event>
 5    1  0.1369527E-008  0.3839870E+03  0.7957747E-01  0.3433980E+00
         13   -1    0    0    0    0  0.00000000000E+00  0.00000000000E+00  0.14999999963E+04  0.15000000000E+04  0.10566000000E+00 0. -1.
        994   -1    0    0    0    0 -0.00000000000E+00 -0.00000000000E+00  0.11368683772E-12  0.17120000000E+03  0.17120000000E+03 0.  0.
         13    1    1    2    0    0  0.94515192037E+01 -0.92069814689E+01  0.39781376617E+02  0.41912633091E+02  0.10566000000E+00 0. -1.
        994    1    1    2    0    0 -0.72767929521E+01  0.92044898803E+01  0.25883110639E+01  0.17162113420E+03  0.17120000000E+03 0.  0.
        998    1    1    2    0    0 -0.21747262516E+01  0.24915886470E-02  0.14576303086E+04  0.14576662327E+04  0.10000000000E+02 0. -1.
</event>
<event>
 5    1  0.1369527E-008  0.3723301E+03  0.7957747E-01  0.3485250E+00
         13   -1    0    0    0    0  0.00000000000E+00  0.00000000000E+00  0.14999999963E+04  0.15000000000E+04  0.10566000000E+00 0.  1.
        994   -1    0    0    0    0 -0.00000000000E+00 -0.00000000000E+00  0.11368683772E-12  0.17120000000E+03  0.17120000000E+03 0.  0.
         13    1    1    2    0    0  0.39279770063E+02 -0.39066053333E+01  0.57837071398E+02  0.70023566700E+02  0.10566000000E+00 0.  1.
        994    1    1    2    0    0 -0.36455667934E+02  0.16329372866E+01  0.16884691866E+02  0.17585850855E+03  0.17120000000E+03 0.  0.
        998    1    1    2    0    0 -0.28241021294E+01  0.22736680467E+01  0.14252782330E+04  0.14253179248E+04  0.10000000000E+02 0.  1.
</event>
<event>
 5    1  0.1369527E-008  0.3794616E+03  0.7957747E-01  0.3453506E+00
         13   -1    0    0    0    0  0.00000000000E+00  0.00000000000E+00  0.14999999963E+04  0.15000000000E+04  0.10566000000E+00 0. -1.
        994   -1    0    0    0    0 -0.00000000000E+00 -0.00000000000E+00  0.11368683772E-12  0.17120000000E+03  0.17120000000E+03 0.  0.
         13    1    1    2    0    0 -0.22954127228E+02  0.19276349306E+02  0.97137901960E+02  0.10165752683E+03  0.10566000000E+00 0. -1.
        994    1    1    2    0    0  0.15374123778E+02 -0.20686043111E+02  0.66329204144E+01  0.17325620247E+03  0.17120000000E+03 0.  0.
        998    1    1    2    0    0  0.75800034503E+01  0.14096938055E+01  0.13962291739E+04  0.13962862707E+04  0.10000000000E+02 0. -1.
</event>
<event>
 5    1  0.1369527E-008  0.3858341E+03  0.7957747E-01  0.3426142E+00
         13   -1    0    0    0    0  0.00000000000E+00  0.00000000000E+00  0.14999999963E+04  0.15000000000E+04  0.10566000000E+00 0. -1.
        994   -1    0    0    0    0 -0.00000000000E+00 -0.00000000000E+00  0.11368683772E-12  0.17120000000E+03  0.17120000000E+03 0.  0.
         13    1    1    2    0    0 -0.88180898537E+01 -0.56154676694E+01  0.48657723027E+02  0.49768236457E+02  0.10566000000E+00 0. -1.
        994    1    1    2    0    0 -0.88992287521E+01  0.66193138040E+01  0.16201393353E+01  0.17156653648E+03  0.17120000000E+03 0.  0.
        998    1    1    2    0    0  0.17717318606E+02 -0.10038461346E+01  0.14497221339E+04  0.14498652271E+04  0.10000000000E+02 0. -1.
</event>
<event>
 5    1  0.1369527E-008  0.3737925E+03  0.7957747E-01  0.3478641E+00
         13   -1    0    0    0    0  0.00000000000E+00  0.00000000000E+00  0.14999999963E+04  0.15000000000E+04  0.10566000000E+00 0.  1.
        994   -1    0    0    0    0 -0.00000000000E+00 -0.00000000000E+00  0.11368683772E-12  0.17120000000E+03  0.17120000000E+03 0.  0.
         13    1    1    2    0    0 -0.85296424788E+01 -0.85702783960E+02  0.35939296065E+03  0.36956871256E+03  0.10566000000E+00 0.  1.
        994    1    1    2    0    0  0.15789997307E+02  0.92153418566E+02  0.37749660566E+02  0.19868581590E+03  0.17120000000E+03 0.  0.
        998    1    1    2    0    0 -0.72603548277E+01 -0.64506346067E+01  0.11028573751E+04  0.11029454715E+04  0.10000000000E+02 0.  1.
</event>
<event>
 5    1  0.1369527E-008  0.3692200E+03  0.7957747E-01  0.3499483E+00
         13   -1    0    0    0    0  0.00000000000E+00  0.00000000000E+00  0.14999999963E+04  0.15000000000E+04  0.10566000000E+00 0.  1.
        994   -1    0    0    0    0 -0.00000000000E+00 -0.00000000000E+00  0.11368683772E-12  0.17120000000E+03  0.17120000000E+03 0.  0.
         13    1    1    2    0    0 -0.70752857072E+02 -0.40316648025E+02  0.48427695059E+03  0.49107593602E+03  0.10566000000E+00 0.  1.
        994    1    1    2    0    0  0.94443607810E+01  0.21677228136E+01  0.10002966133E+02  0.17176552129E+03  0.17120000000E+03 0.  0.
        998    1    1    2    0    0  0.61308496291E+02  0.38148925211E+02  0.10057200796E+04  0.10083585427E+04  0.10000000000E+02 0.  1.
</event>
<event>
 5    1  0.1369527E-008  0.3808536E+03  0.7957747E-01  0.3447450E+00
         13   -1    0    0    0    0  0.00000000000E+00  0.00000000000E+00  0.14999999963E+04  0.15000000000E+04  0.10566000000E+00 0. -1.
        994   -1    0    0    0    0 -0.00000000000E+00 -0.00000000000E+00  0.11368683772E-12  0.17120000000E+03  0.17120000000E+03 0.  0.
         13    1    1    2    0    0  0.79342936532E+01 -0.13269440806E+02  0.31467790898E+02  0.35060862840E+02  0.10566000000E+00 0. -1.
        994    1    1    2    0    0  0.51045646390E+00  0.53780580562E+01  0.38001664878E+01  0.17132736308E+03  0.17120000000E+03 0.  0.
        998    1    1    2    0    0 -0.84447501171E+01  0.78913827496E+01  0.14647320389E+04  0.14648117741E+04  0.10000000000E+02 0. -1.
</event>
<event>
 5    1  0.1369527E-008  0.3785981E+03  0.7957747E-01  0.3457285E+00
         13   -1    0    0    0    0  0.00000000000E+00  0.00000000000E+00  0.14999999963E+04  0.15000000000E+04  0.10566000000E+00 0. -1.
        994   -1    0    0    0    0 -0.00000000000E+00 -0.00000000000E+00  0.11368683772E-12  0.17120000000E+03  0.17120000000E+03 0.  0.
         13    1    1    2    0    0 -0.23872324485E+03  0.87976248330E+02  0.96906197132E+03  0.10019030509E+04  0.10566000000E+00 0. -1.
        994    1    1    2    0    0  0.24686435363E+03 -0.82381990061E+02  0.28270586171E+03  0.42066714351E+03  0.17120000000E+03 0.  0.
        998    1    1    2    0    0 -0.81411087792E+01 -0.55942582694E+01  0.24823216324E+03  0.24862980563E+03  0.10000000000E+02 0. -1.
</event>
<event>
 5    1  0.1369527E-008  0.3698744E+03  0.7957747E-01  0.3496468E+00
         13   -1    0    0    0    0  0.00000000000E+00  0.00000000000E+00  0.14999999963E+04  0.15000000000E+04  0.10566000000E+00 0.  1.
        994   -1    0    0    0    0 -0.00000000000E+00 -0.00000000000E+00  0.11368683772E-12  0.17120000000E+03  0.17120000000E+03 0.  0.
         13    1    1    2    0    0 -0.69180182333E+02 -0.32171866620E+02  0.40246856195E+03  0.40963627909E+03  0.10566000000E+00 0.  1.
        994    1    1    2    0    0  0.15479672933E+02 -0.45980678818E+02  0.19143441536E+02  0.17896858510E+03  0.17120000000E+03 0.  0.
        998    1    1    2    0    0  0.53700509400E+02  0.78152545438E+02  0.10783879928E+04  0.10825951358E+04  0.10000000000E+02 0.  1.
</event>
<event>
 5    1  0.1369527E-008  0.3811774E+03  0.7957747E-01  0.3446048E+00
         13   -1    0    0    0    0  0.00000000000E+00  0.00000000000E+00  0.14999999963E+04  0.15000000000E+04  0.10566000000E+00 0. -1.
        994   -1    0    0    0    0 -0.00000000000E+00 -0.00000000000E+00  0.11368683772E-12  0.17120000000E+03  0.17120000000E+03 0.  0.
         13    1    1    2    0    0  0.32386034569E+02  0.77145687750E+01  0.14020627648E+03  0.14410475681E+03  0.10566000000E+00 0. -1.
        994    1    1    2    0    0 -0.30884729559E+02 -0.25703754443E+02  0.89351283127E+01  0.17607903348E+03  0.17120000000E+03 0.  0.
        998    1    1    2    0    0 -0.15013050095E+01  0.17989185668E+02  0.13508585915E+04  0.13510162097E+04  0.10000000000E+02 0. -1.
</event>
<event>
 5    1  0.1369527E-008  0.3822710E+03  0.7957747E-01  0.3441329E+00
         13   -1    0    0    0    0  0.00000000000E+00  0.00000000000E+00  0.14999999963E+04  0.15000000000E+04  0.10566000000E+00 0. -1.
        994   -1    0    0    0    0 -0.00000000000E+00 -0.00000000000E+00  0.11368683772E-12  0.17120000000E+03  0.17120000000E+03 0.  0.
         13    1    1    2    0    0  0.11556428597E+02 -0.33188416616E+01  0.22754105965E+02  0.25735699994E+02  0.10566000000E+00 0. -1.
        994    1    1    2    0    0 -0.12212491619E+02  0.16318257734E+01  0.34949988115E+01  0.17167837028E+03  0.17120000000E+03 0.  0.
        998    1    1    2    0    0  0.65606302210E+00  0.16870158881E+01  0.14737508915E+04  0.14737859297E+04  0.10000000000E+02 0. -1.
</event>
<event>
 5    1  0.1369527E-008  0.3834505E+03  0.7957747E-01  0.3436270E+00
         13   -1    0    0    0    0  0.00000000000E+00  0.00000000000E+00  0.14999999963E+04  0.15000000000E+04  0.10566000000E+00 0. -1.
        994   -1    0    0    0    0 -0.00000000000E+00 -0.00000000000E+00  0.11368683772E-12  0.17120000000E+03  0.17120000000E+03 0.  0.
         13    1    1    2    0    0  0.56315694401E+01  0.24510657369E+02  0.87045824775E+01  0.26613301545E+02  0.10566000000E+00 0. -1.
        994    1    1    2    0    0 -0.18949066277E+02 -0.43889411411E+02  0.26670583987E+02  0.17973899854E+03  0.17120000000E+03 0.  0.
        998    1    1    2    0    0  0.13317496837E+02  0.19378754043E+02  0.14646248298E+04  0.14648476999E+04  0.10000000000E+02 0. -1.
</event>
<event>
 5    1  0.1369527E-008  0.3773825E+03  0.7957747E-01  0.3462636E+00
         13   -1    0    0    0    0  0.00000000000E+00  0.00000000000E+00  0.14999999963E+04  0.15000000000E+04  0.10566000000E+00 0.  1.
        994   -1    0    0    0    0 -0.00000000000E+00 -0.00000000000E+00  0.11368683772E-12  0.17120000000E+03  0.17120000000E+03 0.  0.
         13    1    1    2    0    0  0.92921333267E+01  0.14594589386E+02  0.24137280679E+02  0.29697899988E+02  0.10566000000E+00 0.  1.
        994    1    1    2    0    0  0.21528590137E+01 -0.33276313289E+02  0.92190859217E+01  0.17466075510E+03  0.17120000000E+03 0.  0.
        998    1    1    2    0    0 -0.11444992340E+02  0.18681723904E+02  0.14666436297E+04  0.14668413449E+04  0.10000000000E+02 0.  1.
</event>
<event>
 5    1  0.1369527E-008  0.3801173E+03  0.7957747E-01  0.3450648E+00
         13   -1    0    0    0    0  0.00000000000E+00  0.00000000000E+00  0.14999999963E+04  0.15000000000E+04  0.10566000000E+00 0. -1.
        994   -1    0    0    0    0 -0.00000000000E+00 -0.00000000000E+00  0.11368683772E-12  0.17120000000E+03  0.17120000000E+03 0.  0.
         13    1    1    2    0    0 -0.33955024759E+02  0.57033188657E+00  0.12931983196E+03  0.13370452156E+03  0.10566000000E+00 0. -1.
        994    1    1    2    0    0  0.33905323133E+02 -0.50313509988E+01  0.80099280492E+01  0.17478124721E+03  0.17120000000E+03 0.  0.
        998    1    1    2    0    0  0.49701626175E-01  0.44610191122E+01  0.13626702363E+04  0.13627142312E+04  0.10000000000E+02 0. -1.
</event>
<event>
 5    1  0.1369527E-008  0.3709559E+03  0.7957747E-01  0.3491509E+00
         13   -1    0    0    0    0  0.00000000000E+00  0.00000000000E+00  0.14999999963E+04  0.15000000000E+04  0.10566000000E+00 0.  1.
        994   -1    0    0    0    0 -0.00000000000E+00 -0.00000000000E+00  0.11368683772E-12  0.17120000000E+03  0.17120000000E+03 0.  0.
         13    1    1    2    0    0 -0.51686119365E+02 -0.16036613927E+03  0.69252001540E+03  0.71272206115E+03  0.10566000000E+00 0.  1.
        994    1    1    2    0    0  0.47397139719E+02  0.16910697801E+03  0.12394552409E+03  0.27480100401E+03  0.17120000000E+03 0.  0.
        998    1    1    2    0    0  0.42889796464E+01 -0.87408387352E+01  0.68353445679E+03  0.68367693484E+03  0.10000000000E+02 0.  1.
</event>
<event>
 5    1  0.1369527E-008  0.3804391E+03  0.7957747E-01  0.3449249E+00
         13   -1    0    0    0    0  0.00000000000E+00  0.00000000000E+00  0.14999999963E+04  0.15000000000E+04  0.10566000000E+00 0. -1.
        994   -1    0    0    0    0 -0.00000000000E+00 -0.00000000000E+00  0.11368683772E-12  0.17120000000E+03  0.17120000000E+03 0.  0.
         13    1    1    2    0    0 -0.31681104455E+02  0.26350615867E+02  0.18606149347E+03  0.19057003399E+03  0.10566000000E+00 0. -1.
        994    1    1    2    0    0  0.42724963367E+02 -0.18800177311E+02  0.11219385734E+02  0.17780377886E+03  0.17120000000E+03 0.  0.
        998    1    1    2    0    0 -0.11043858912E+02 -0.75504385558E+01  0.13027191171E+04  0.13028261872E+04  0.10000000000E+02 0. -1.
</event>
<event>
 5    1  0.1369527E-008  0.3684543E+03  0.7957747E-01  0.3503025E+00
         13   -1    0    0    0    0  0.00000000000E+00  0.00000000000E+00  0.14999999963E+04  0.15000000000E+04  0.10566000000E+00 0.  1.
        994   -1    0    0    0    0 -0.00000000000E+00 -0.00000000000E+00  0.11368683772E-12  0.17120000000E+03  0.17120000000E+03 0.  0.
         13    1    1    2    0    0  0.21894102303E+02 -0.70808118889E+01  0.21577513287E+02  0.31545044878E+02  0.10566000000E+00 0.  1.
        994    1    1    2    0    0 -0.17455365093E+02  0.25595918869E+02  0.13423111775E+02  0.17449773856E+03  0.17120000000E+03 0.  0.
        998    1    1    2    0    0 -0.44387372099E+01 -0.18515106980E+02  0.14649993712E+04  0.14651572166E+04  0.10000000000E+02 0.  1.
</event>
<event>
 5    1  0.1719958E-008  0.3852097E+03  0.7957747E-01  0.3428783E+00
         13   -1    0    0    0    0  0.00000000000E+00  0.00000000000E+00  0.14999999963E+04  0.15000000000E+04  0.10566000000E+00 0.  1.
        994   -1    0    0    0    0 -0.00000000000E+00 -0.00000000000E+00  0.11368683772E-12  0.17120000000E+03  0.17120000000E+03 0.  0.
         13    1    1    2    0    0  0.14542439917E+01  0.10682180794E+02  0.37438487827E+02  0.38959919750E+02  0.10566000000E+00 0.  1.
        994    1    1    2    0    0 -0.59952533297E-01 -0.10491245735E+02  0.18878903445E+01  0.17153155384E+03  0.17120000000E+03 0.  0.
        998    1    1    2    0    0 -0.13942914584E+01 -0.19093505949E+00  0.14606736181E+04  0.14607085264E+04  0.10000000000E+02 0.  1.
</event>
<event>
 5    1  0.1369527E-008  0.3847956E+03  0.7957747E-01  0.3430539E+00
         13   -1    0    0    0    0  0.00000000000E+00  0.00000000000E+00  0.14999999963E+04  0.15000000000E+04  0.10566000000E+00 0. -1.
        994   -1    0    0    0    0 -0.00000000000E+00 -0.00000000000E+00  0.11368683772E-12  0.17120000000E+03  0.17120000000E+03 0.  0.
         13    1    1    2    0    0  0.96073726946E+01  0.10283888860E+02  0.55262123364E+02  0.57026076692E+02  0.10566000000E+00 0. -1.
        994    1    1    2    0    0 -0.94278220064E+01 -0.11742108208E+02  0.24782254036E+01  0.17187886006E+03  0.17120000000E+03 0.  0.
        998    1    1    2    0    0 -0.17955068818E+00  0.14582193483E+01  0.14422596475E+04  0.14422950633E+04  0.10000000000E+02 0. -1.
</event>
<event>
 5    1  0.1369527E-008  0.3849104E+03  0.7957747E-01  0.3430052E+00
         13   -1    0    0    0    0  0.00000000000E+00  0.00000000000E+00  0.14999999963E+04  0.15000000000E+04  0.10566000000E+00 0. -1.
        994   -1    0    0    0    0 -0.00000000000E+00 -0.00000000000E+00  0.11368683772E-12  0.17120000000E+03  0.17120000000E+03 0.  0.
         13    1    1    2    0    0  0.13870760469E+02 -0.74838213236E+01  0.80523272221E+02  0.82051289513E+02  0.10566000000E+00 0. -1.
        994    1    1    2    0    0  0.34605257690E+00 -0.22921215765E+01  0.16923124519E+01  0.17122405641E+03  0.17120000000E+03 0.  0.
        998    1    1    2    0    0 -0.14216813045E+02  0.97759429001E+01  0.14177844116E+04  0.14179246541E+04  0.10000000000E+02 0. -1.
</event>
<event>
 5    1  0.1369527E-008  0.3836970E+03  0.7957747E-01  0.3435217E+00
         13   -1    0    0    0    0  0.00000000000E+00  0.00000000000E+00  0.14999999963E+04  0.15000000000E+04  0.10566000000E+00 0. -1.
        994   -1    0    0    0    0 -0.00000000000E+00 -0.00000000000E+00  0.11368683772E-12  0.17120000000E+03  0.17120000000E+03 0.  0.
         13    1    1    2    0    0 -0.11362643528E+02 -0.55716508210E+01  0.34480498146E+02  0.36729672981E+02  0.10566000000E+00 0. -1.
        994    1    1    2    0    0  0.10915808386E+02 -0.25116409954E+01  0.26929164800E+01  0.17158716447E+03  0.17120000000E+03 0.  0.
        998    1    1    2    0    0  0.44683514257E+00  0.80832918164E+01  0.14628265817E+04  0.14628831625E+04  0.10000000000E+02 0. -1.
</event>
<event>
 5    1  0.1621818E-008  0.3852082E+03  0.7957747E-01  0.3428790E+00
         13   -1    0    0    0    0  0.00000000000E+00  0.00000000000E+00  0.14999999963E+04  0.15000000000E+04  0.10566000000E+00 0.  1.
        994   -1    0    0    0    0 -0.00000000000E+00 -0.00000000000E+00  0.11368683772E-12  0.17120000000E+03  0.17120000000E+03 0.  0.
         13    1    1    2    0    0  0.96387953228E+01  0.10999770387E+02  0.72564324476E+02  0.74023602145E+02  0.10566000000E+00 0.  1.
        994    1    1    2    0    0 -0.52553373780E+01 -0.18494086682E+01  0.16288112404E+01  0.17129837101E+03  0.17120000000E+03 0.  0.
        998    1    1    2    0    0 -0.43834579447E+01 -0.91503617188E+01  0.14258068606E+04  0.14258780268E+04  0.10000000000E+02 0.  1.
</event>
<event>
 5    1  0.1369527E-008  0.3808215E+03  0.7957747E-01  0.3447589E+00
         13   -1    0    0    0    0  0.00000000000E+00  0.00000000000E+00  0.14999999963E+04  0.15000000000E+04  0.10566000000E+00 0. -1.
        994   -1    0    0    0    0 -0.00000000000E+00 -0.00000000000E+00  0.11368683772E-12  0.17120000000E+03  0.17120000000E+03 0.  0.
         13    1    1    2    0    0  0.95055792051E+01  0.53425045440E+02  0.31211407598E+03  0.31679614755E+03  0.10566000000E+00 0. -1.
        994    1    1    2    0    0  0.10534348335E+01 -0.56481641568E+02  0.14432521279E+02  0.18085636077E+03  0.17120000000E+03 0.  0.
        998    1    1    2    0    0 -0.10559014039E+02  0.30565961282E+01  0.11734533990E+04  0.11735474917E+04  0.10000000000E+02 0. -1.
</event>
<event>
 5    1  0.1369527E-008  0.3813377E+03  0.7957747E-01  0.3445354E+00
         13   -1    0    0    0    0  0.00000000000E+00  0.00000000000E+00  0.14999999963E+04  0.15000000000E+04  0.10566000000E+00 0. -1.
        994   -1    0    0    0    0 -0.00000000000E+00 -0.00000000000E+00  0.11368683772E-12  0.17120000000E+03  0.17120000000E+03 0.  0.
         13    1    1    2    0    0 -0.23767152800E+02 -0.21067844116E+00  0.78837754159E+02  0.82342726349E+02  0.10566000000E+00 0. -1.
        994    1    1    2    0    0  0.19064794367E+02 -0.21381291804E+01  0.46852435012E+01  0.17233522416E+03  0.17120000000E+03 0.  0.
        998    1    1    2    0    0  0.47023584331E+01  0.23488076215E+01  0.14164769986E+04  0.14165220495E+04  0.10000000000E+02 0. -1.
</event>
<event>
 5    1  0.1369527E-008  0.3861036E+03  0.7957747E-01  0.3425005E+00
         13   -1    0    0    0    0  0.00000000000E+00  0.00000000000E+00  0.14999999963E+04  0.15000000000E+04  0.10566000000E+00 0. -1.
        994   -1    0    0    0    0 -0.00000000000E+00 -0.00000000000E+00  0.11368683772E-12  0.17120000000E+03  0.17120000000E+03 0.  0.
         13    1    1    2    0    0  0.99076436537E+01 -0.44349595635E+01  0.58686168497E+02  0.59681720870E+02  0.10566000000E+00 0. -1.
        994    1    1    2    0    0 -0.26760854091E+00 -0.33441614638E+01  0.11200669520E+01  0.17123653109E+03  0.17120000000E+03 0.  0.
        998    1    1    2    0    0 -0.96400351128E+01  0.77791210273E+01  0.14401937608E+04  0.14402817480E+04  0.10000000000E+02 0. -1.
</event>
<event>
 5    1  0.1369527E-008  0.3841292E+03  0.7957747E-01  0.3433374E+00
         13   -1    0    0    0    0  0.00000000000E+00  0.00000000000E+00  0.14999999963E+04  0.15000000000E+04  0.10566000000E+00 0. -1.
        994   -1    0    0    0    0 -0.00000000000E+00 -0.00000000000E+00  0.11368683772E-12  0.17120000000E+03  0.17120000000E+03 0.  0.
         13    1    1    2    0    0 -0.22189118744E+01  0.23053148999E+02  0.13202509260E+03  0.13404106642E+03  0.10566000000E+00 0. -1.
        994    1    1    2    0    0  0.83968131365E+00 -0.11905852170E+02  0.25330197662E+01  0.17163423484E+03  0.17120000000E+03 0.  0.
        998    1    1    2    0    0  0.13792305608E+01 -0.11147296830E+02  0.13654418839E+04  0.13655246987E+04  0.10000000000E+02 0. -1.
</event>
<event>
 5    1  0.1369527E-008  0.3722999E+03  0.7957747E-01  0.3485387E+00
         13   -1    0    0    0    0  0.00000000000E+00  0.00000000000E+00  0.14999999963E+04  0.15000000000E+04  0.10566000000E+00 0. -1.
        994   -1    0    0    0    0 -0.00000000000E+00 -0.00000000000E+00  0.11368683772E-12  0.17120000000E+03  0.17120000000E+03 0.  0.
         13    1    1    2    0    0 -0.72295290395E+02  0.59838651136E+02  0.41806298021E+03  0.42846696462E+03  0.10566000000E+00 0. -1.
        994    1    1    2    0    0  0.65204747851E+02 -0.55090898771E+02  0.33498231097E+02  0.19421183732E+03  0.17120000000E+03 0.  0.
        998    1    1    2    0    0  0.70905425438E+01 -0.47477523657E+01  0.10484387850E+04  0.10485211981E+04  0.10000000000E+02 0. -1.
</event>
<event>
 5    1  0.1369527E-008  0.3836335E+03  0.7957747E-01  0.3435488E+00
         13   -1    0    0    0    0  0.00000000000E+00  0.00000000000E+00  0.14999999963E+04  0.15000000000E+04  0.10566000000E+00 0.  1.
        994   -1    0    0    0    0 -0.00000000000E+00 -0.00000000000E+00  0.11368683772E-12  0.17120000000E+03  0.17120000000E+03 0.  0.
         13    1    1    2    0    0  0.10088943077E+02  0.53736066194E+01  0.28275516804E+02  0.30498826782E+02  0.10566000000E+00 0.  1.
        994    1    1    2    0    0 -0.18375682571E+01  0.14571686235E+01  0.23282688474E+01  0.17123189199E+03  0.17120000000E+03 0.  0.
        998    1    1    2    0    0 -0.82513748199E+01 -0.68307752428E+01  0.14693962106E+04  0.14694692812E+04  0.10000000000E+02 0.  1.
</event>
<event>
 5    1  0.1369527E-008  0.3802398E+03  0.7957747E-01  0.3450115E+00
         13   -1    0    0    0    0  0.00000000000E+00  0.00000000000E+00  0.14999999963E+04  0.15000000000E+04  0.10566000000E+00 0.  1.
        994   -1    0    0    0    0 -0.00000000000E+00 -0.00000000000E+00  0.11368683772E-12  0.17120000000E+03  0.17120000000E+03 0.  0.
         13    1    1    2    0    0 -0.44077758326E+02  0.27560933712E+02  0.30576401010E+03  0.31015172881E+03  0.10566000000E+00 0.  1.
        994    1    1    2    0    0  0.28700524029E+02 -0.28667197916E+02  0.95282844008E+01  0.17619806049E+03  0.17120000000E+03 0.  0.
        998    1    1    2    0    0  0.15377234297E+02  0.11062642037E+01  0.11847077018E+04  0.11848502107E+04  0.10000000000E+02 0.  1.
</event>
<event>
 5    1  0.1369527E-008  0.3837031E+03  0.7957747E-01  0.3435191E+00
         13   -1    0    0    0    0  0.00000000000E+00  0.00000000000E+00  0.14999999963E+04  0.15000000000E+04  0.10566000000E+00 0.  1.
        994   -1    0    0    0    0 -0.00000000000E+00 -0.00000000000E+00  0.11368683772E-12  0.17120000000E+03  0.17120000000E+03 0.  0.
         13    1    1    2    0    0  0.23165136776E+02 -0.99214683915E+01  0.12377290529E+03  0.12631232063E+03  0.10566000000E+00 0.  1.
        994    1    1    2    0    0 -0.28438038116E+02  0.12655477140E+02  0.54817558532E+01  0.17409300032E+03  0.17120000000E+03 0.  0.
        998    1    1    2    0    0  0.52729013405E+01 -0.27340087488E+01  0.13707453351E+04  0.13707946790E+04  0.10000000000E+02 0.  1.
</event>
<event>
 5    1  0.1369527E-008  0.3788316E+03  0.7957747E-01  0.3456262E+00
         13   -1    0    0    0    0  0.00000000000E+00  0.00000000000E+00  0.14999999963E+04  0.15000000000E+04  0.10566000000E+00 0. -1.
        994   -1    0    0    0    0 -0.00000000000E+00 -0.00000000000E+00  0.11368683772E-12  0.17120000000E+03  0.17120000000E+03 0.  0.
         13    1    1    2    0    0  0.26034841868E+02 -0.16652548020E+03  0.92626779593E+03  0.94147787520E+03  0.10566000000E+00 0. -1.
        994    1    1    2    0    0 -0.28036956805E+02  0.16771798536E+03  0.10882757967E+03  0.26470412853E+03  0.17120000000E+03 0.  0.
        998    1    1    2    0    0  0.20021149371E+01 -0.11925051617E+01  0.46490462068E+03  0.46501799628E+03  0.10000000000E+02 0.  0.
</event>
<event>
 5    1  0.1369527E-008  0.3861992E+03  0.7957747E-01  0.3424602E+00
         13   -1    0    0    0    0  0.00000000000E+00  0.00000000000E+00  0.14999999963E+04  0.15000000000E+04  0.10566000000E+00 0.  1.
        994   -1    0    0    0    0 -0.00000000000E+00 -0.00000000000E+00  0.11368683772E-12  0.17120000000E+03  0.17120000000E+03 0.  0.
         13    1    1    2    0    0 -0.90087419570E+01  0.64829505087E+01  0.59978981505E+02  0.60997339822E+02  0.10566000000E+00 0.  1.
        994    1    1    2    0    0  0.62889820128E+01 -0.54526851842E+01  0.12629244747E+01  0.17140687865E+03  0.17120000000E+03 0.  0.
        998    1    1    2    0    0  0.27197599441E+01 -0.10302653246E+01  0.14387580903E+04  0.14387957815E+04  0.10000000000E+02 0.  1.
</event>
<event>
 5    1  0.1369527E-008  0.3726229E+03  0.7957747E-01  0.3483923E+00
         13   -1    0    0    0    0  0.00000000000E+00  0.00000000000E+00  0.14999999963E+04  0.15000000000E+04  0.10566000000E+00 0.  1.
        994   -1    0    0    0    0 -0.00000000000E+00 -0.00000000000E+00  0.11368683772E-12  0.17120000000E+03  0.17120000000E+03 0.  0.
         13    1    1    2    0    0  0.25397294279E+02 -0.71357300845E+01  0.22678159775E+02  0.34788666191E+02  0.10566000000E+00 0.  1.
        994    1    1    2    0    0 -0.26393072941E+02  0.42906278494E+01  0.14859400330E+02  0.17391160273E+03  0.17120000000E+03 0.  0.
        998    1    1    2    0    0  0.99577866158E+00  0.28451022351E+01  0.14624624362E+04  0.14624997311E+04  0.10000000000E+02 0.  1.
</event>
<event>
 5    1  0.1369527E-008  0.3745171E+03  0.7957747E-01  0.3475385E+00
         13   -1    0    0    0    0  0.00000000000E+00  0.00000000000E+00  0.14999999963E+04  0.15000000000E+04  0.10566000000E+00 0. -1.
        994   -1    0    0    0    0 -0.00000000000E+00 -0.00000000000E+00  0.11368683772E-12  0.17120000000E+03  0.17120000000E+03 0.  0.
         13    1    1    2    0    0 -0.15331553569E+02 -0.55746643908E+02  0.22248742952E+03  0.22987695035E+03  0.10566000000E+00 0. -1.
        994    1    1    2    0    0  0.20354263284E+02  0.41099839138E+02  0.14122687355E+02  0.17779871515E+03  0.17120000000E+03 0.  0.
        998    1    1    2    0    0 -0.50227097148E+01  0.14646804769E+02  0.12633898794E+04  0.12635243345E+04  0.10000000000E+02 0.  0.
</event>
<event>
 5    1  0.1369527E-008  0.3850907E+03  0.7957747E-01  0.3429288E+00
         13   -1    0    0    0    0  0.00000000000E+00  0.00000000000E+00  0.14999999963E+04  0.15000000000E+04  0.10566000000E+00 0.  1.
        994   -1    0    0    0    0 -0.00000000000E+00 -0.00000000000E+00  0.11368683772E-12  0.17120000000E+03  0.17120000000E+03 0.  0.
         13    1    1    2    0    0  0.10379214428E+02 -0.46290026047E+01  0.37834218899E+02  0.39504367366E+02  0.10566000000E+00 0.  1.
        994    1    1    2    0    0 -0.17840993584E+02  0.14805068868E+02  0.33541936232E+01  0.17279520170E+03  0.17120000000E+03 0.  0.
        998    1    1    2    0    0  0.74617791562E+01 -0.10176066263E+02  0.14588115838E+04  0.14589004309E+04  0.10000000000E+02 0.  1.
</event>
<event>
 5    1  0.1493417E-008  0.3846752E+03  0.7957747E-01  0.3431051E+00
         13   -1    0    0    0    0  0.00000000000E+00  0.00000000000E+00  0.14999999963E+04  0.15000000000E+04  0.10566000000E+00 0.  1.
        994   -1    0    0    0    0 -0.00000000000E+00 -0.00000000000E+00  0.11368683772E-12  0.17120000000E+03  0.17120000000E+03 0.  0.
         13    1    1    2    0    0 -0.52814619962E+01 -0.10018332302E+02  0.34689695597E+02  0.36491738347E+02  0.10566000000E+00 0.  1.
        994    1    1    2    0    0  0.49483267945E+01  0.11802042343E+02  0.23308083162E+01  0.17169346758E+03  0.17120000000E+03 0.  0.
        998    1    1    2    0    0  0.33313520166E+00 -0.17837100408E+01  0.14629794924E+04  0.14630147941E+04  0.10000000000E+02 0.  1.
</event>
<event>
 5    1  0.1369527E-008  0.3823097E+03  0.7957747E-01  0.3441163E+00
         13   -1    0    0    0    0  0.00000000000E+00  0.00000000000E+00  0.14999999963E+04  0.15000000000E+04  0.10566000000E+00 0. -1.
        994   -1    0    0    0    0 -0.00000000000E+00 -0.00000000000E+00  0.11368683772E-12  0.17120000000E+03  0.17120000000E+03 0.  0.
         13    1    1    2    0    0 -0.13543780094E+02  0.20859328390E+02  0.11359454026E+03  0.11628532281E+03  0.10566000000E+00 0. -1.
        994    1    1    2    0    0 -0.61931194822E+01 -0.44049025868E+01  0.31633714756E+01  0.17139779700E+03  0.17120000000E+03 0.  0.
        998    1    1    2    0    0  0.19736899576E+02 -0.16454425803E+02  0.13832420845E+04  0.13835168802E+04  0.10000000000E+02 0. -1.
</event>
<event>
 5    1  0.1369527E-008  0.3771151E+03  0.7957747E-01  0.3463817E+00
         13   -1    0    0    0    0  0.00000000000E+00  0.00000000000E+00  0.14999999963E+04  0.15000000000E+04  0.10566000000E+00 0.  1.
        994   -1    0    0    0    0 -0.00000000000E+00 -0.00000000000E+00  0.11368683772E-12  0.17120000000E+03  0.17120000000E+03 0.  0.
         13    1    1    2    0    0  0.10916772621E+02 -0.25189165196E+02  0.19057127503E+02  0.33419384202E+02  0.10566000000E+00 0.  1.
        994    1    1    2    0    0 -0.12596006285E+02  0.24553154614E+02  0.17486773792E+02  0.17428925392E+03  0.17120000000E+03 0.  0.
        998    1    1    2    0    0  0.16792336647E+01  0.63601058116E+00  0.14634560950E+04  0.14634913619E+04  0.10000000000E+02 0.  1.
</event>
<event>
 5    1  0.1369527E-008  0.3841401E+03  0.7957747E-01  0.3433327E+00
         13   -1    0    0    0    0  0.00000000000E+00  0.00000000000E+00  0.14999999963E+04  0.15000000000E+04  0.10566000000E+00 0. -1.
        994   -1    0    0    0    0 -0.00000000000E+00 -0.00000000000E+00  0.11368683772E-12  0.17120000000E+03  0.17120000000E+03 0.  0.
         13    1    1    2    0    0 -0.12861762033E+02  0.13344318918E+01  0.38985111012E+02  0.41073783314E+02  0.10566000000E+00 0. -1.
        994    1    1    2    0    0  0.15010370392E+02 -0.41535926652E+01  0.28579836802E+01  0.17193071751E+03  0.17120000000E+03 0.  0.
        998    1    1    2    0    0 -0.21486083594E+01  0.28191607734E+01  0.14581569016E+04  0.14581954992E+04  0.10000000000E+02 0. -1.
</event>
<event>
 5    1  0.1369527E-008  0.3845191E+03  0.7957747E-01  0.3431714E+00
         13   -1    0    0    0    0  0.00000000000E+00  0.00000000000E+00  0.14999999963E+04  0.15000000000E+04  0.10566000000E+00 0. -1.
        994   -1    0    0    0    0 -0.00000000000E+00 -0.00000000000E+00  0.11368683772E-12  0.17120000000E+03  0.17120000000E+03 0.  0.
         13    1    1    2    0    0  0.28255343644E+01 -0.15960106431E+02  0.71726366800E+02  0.73534967873E+02  0.10566000000E+00 0. -1.
        994    1    1    2    0    0  0.19106326874E+01  0.72719195482E+01  0.20553293911E+01  0.17137734888E+03  0.17120000000E+03 0.  0.
        998    1    1    2    0    0 -0.47361670518E+01  0.86881868823E+01  0.14262183001E+04  0.14262876832E+04  0.10000000000E+02 0. -1.
</event>
<event>
 5    1  0.1369527E-008  0.3734431E+03  0.7957747E-01  0.3480215E+00
         13   -1    0    0    0    0  0.00000000000E+00  0.00000000000E+00  0.14999999963E+04  0.15000000000E+04  0.10566000000E+00 0.  1.
        994   -1    0    0    0    0 -0.00000000000E+00 -0.00000000000E+00  0.11368683772E-12  0.17120000000E+03  0.17120000000E+03 0.  0.
         13    1    1    2    0    0 -0.25992104244E+02 -0.89365285383E-02  0.43171285549E+02  0.50392069047E+02  0.10566000000E+00 0.  1.
        994    1    1    2    0    0  0.94995076018E+01  0.90825572394E+01  0.80708913368E+01  0.17189331801E+03  0.17120000000E+03 0.  0.
        998    1    1    2    0    0  0.16492596642E+02 -0.90736207108E+01  0.14487578194E+04  0.14489146129E+04  0.10000000000E+02 0.  1.
</event>
<event>
 5    1  0.1369527E-008  0.3790640E+03  0.7957747E-01  0.3455244E+00
         13   -1    0    0    0    0  0.00000000000E+00  0.00000000000E+00  0.14999999963E+04  0.15000000000E+04  0.10566000000E+00 0.  1.
        994   -1    0    0    0    0 -0.00000000000E+00 -0.00000000000E+00  0.11368683772E-12  0.17120000000E+03  0.17120000000E+03 0.  0.
         13    1    1    2    0    0  0.20174423303E+02 -0.96717084082E+01  0.55311722502E+02  0.59665292334E+02  0.10566000000E+00 0.  1.
        994    1    1    2    0    0 -0.31111627228E+01 -0.38458017603E+01  0.46884243346E+01  0.17133560881E+03  0.17120000000E+03 0.  0.
        998    1    1    2    0    0 -0.17063260580E+02  0.13517510168E+02  0.14399998494E+04  0.14401990989E+04  0.10000000000E+02 0.  1.
</event>
<event>
 5    1  0.1369527E-008  0.3864368E+03  0.7957747E-01  0.3423601E+00
         13   -1    0    0    0    0  0.00000000000E+00  0.00000000000E+00  0.14999999963E+04  0.15000000000E+04  0.10566000000E+00 0.  1.
        994   -1    0    0    0    0 -0.00000000000E+00 -0.00000000000E+00  0.11368683772E-12  0.17120000000E+03  0.17120000000E+03 0.  0.
         13    1    1    2    0    0 -0.76181685295E+01 -0.71118823803E+01  0.54392552970E+02  0.55382094086E+02  0.10566000000E+00 0.  1.
        994    1    1    2    0    0  0.23976111951E+02  0.52269383233E+01  0.28920812246E+01  0.17297392567E+03  0.17120000000E+03 0.  0.
        998    1    1    2    0    0 -0.16357943422E+02  0.18849440570E+01  0.14427153621E+04  0.14428439802E+04  0.10000000000E+02 0.  1.
</event>
<event>
 5    1  0.1369527E-008  0.3818532E+03  0.7957747E-01  0.3443129E+00
         13   -1    0    0    0    0  0.00000000000E+00  0.00000000000E+00  0.14999999963E+04  0.15000000000E+04  0.10566000000E+00 0.  1.
        994   -1    0    0    0    0 -0.00000000000E+00 -0.00000000000E+00  0.11368683772E-12  0.17120000000E+03  0.17120000000E+03 0.  0.
         13    1    1    2    0    0 -0.13987088965E+02  0.39796013522E+02  0.23865637512E+03  0.24235560216E+03  0.10566000000E+00 0.  1.
        994    1    1    2    0    0  0.22185989089E+02 -0.35641939873E+02  0.90790701523E+01  0.17650619112E+03  0.17120000000E+03 0.  0.
        998    1    1    2    0    0 -0.81989001235E+01 -0.41540736494E+01  0.12522645510E+04  0.12523382067E+04  0.10000000000E+02 0.  1.
</event>
<event>
 5    1  0.1369527E-008  0.3691760E+03  0.7957747E-01  0.3499686E+00
         13   -1    0    0    0    0  0.00000000000E+00  0.00000000000E+00  0.14999999963E+04  0.15000000000E+04  0.10566000000E+00 0.  1.
        994   -1    0    0    0    0 -0.00000000000E+00 -0.00000000000E+00  0.11368683772E-12  0.17120000000E+03  0.17120000000E+03 0.  0.
         13    1    1    2    0    0 -0.89932667864E+01 -0.65245894977E+01  0.97930441631E+00  0.11154340715E+02  0.10566000000E+00 0.  1.
        994    1    1    2    0    0  0.76103191780E+01  0.46871328923E+01  0.10782301630E+02  0.17177189584E+03  0.17120000000E+03 0.  0.
        998    1    1    2    0    0  0.13829476084E+01  0.18374566053E+01  0.14882383902E+04  0.14882737634E+04  0.10000000000E+02 0.  1.
</event>
<event>
 5    1  0.1369527E-008  0.3851880E+03  0.7957747E-01  0.3428875E+00
         13   -1    0    0    0    0  0.00000000000E+00  0.00000000000E+00  0.14999999963E+04  0.15000000000E+04  0.10566000000E+00 0.  1.
        994   -1    0    0    0    0 -0.00000000000E+00 -0.00000000000E+00  0.11368683772E-12  0.17120000000E+03  0.17120000000E+03 0.  0.
         13    1    1    2    0    0  0.10262217988E+02  0.12158613718E+02  0.83320015804E+02  0.84825592855E+02  0.10566000000E+00 0.  1.
        994    1    1    2    0    0 -0.61529457661E+00 -0.11424111329E+02  0.19671152689E+01  0.17159311889E+03  0.17120000000E+03 0.  0.
        998    1    1    2    0    0 -0.96469234116E+01 -0.73450238848E+00  0.14147128652E+04  0.14147812883E+04  0.10000000000E+02 0.  1.
</event>
<event>
 5    1  0.1369527E-008  0.3714081E+03  0.7957747E-01  0.3489445E+00
         13   -1    0    0    0    0  0.00000000000E+00  0.00000000000E+00  0.14999999963E+04  0.15000000000E+04  0.10566000000E+00 0.  1.
        994   -1    0    0    0    0 -0.00000000000E+00 -0.00000000000E+00  0.11368683772E-12  0.17120000000E+03  0.17120000000E+03 0.  0.
         13    1    1    2    0    0 -0.14029860374E+02  0.46305860144E+02  0.84590369816E+02  0.97450559236E+02  0.10566000000E+00 0.  1.
        994    1    1    2    0    0  0.12462881258E+02 -0.69153673983E+02  0.29240737507E+02  0.18735531688E+03  0.17120000000E+03 0.  0.
        998    1    1    2    0    0  0.15669791158E+01  0.22847813839E+02  0.13861688890E+04  0.13863941239E+04  0.10000000000E+02 0.  1.
</event>
<event>
 5    1  0.1369527E-008  0.3853661E+03  0.7957747E-01  0.3428121E+00
         13   -1    0    0    0    0  0.00000000000E+00  0.00000000000E+00  0.14999999963E+04  0.15000000000E+04  0.10566000000E+00 0.  1.
        994   -1    0    0    0    0 -0.00000000000E+00 -0.00000000000E+00  0.11368683772E-12  0.17120000000E+03  0.17120000000E+03 0.  0.
         13    1    1    2    0    0 -0.10237185972E+02 -0.70109340749E+01  0.56993686188E+02  0.58328763081E+02  0.10566000000E+00 0.  1.
        994    1    1    2    0    0 -0.35443141112E+01  0.12596005212E+01  0.14949493388E+01  0.17124784270E+03  0.17120000000E+03 0.  0.
        998    1    1    2    0    0  0.13781500083E+02  0.57513335537E+01  0.14415113608E+04  0.14416233942E+04  0.10000000000E+02 0.  1.
</event>
<event>
 5    1  0.1371410E-008  0.3848904E+03  0.7957747E-01  0.3430137E+00
         13   -1    0    0    0    0  0.00000000000E+00  0.00000000000E+00  0.14999999963E+04  0.15000000000E+04  0.10566000000E+00 0. -1.
        994   -1    0    0    0    0 -0.00000000000E+00 -0.00000000000E+00  0.11368683772E-12  0.17120000000E+03  0.17120000000E+03 0.  0.
         13    1    1    2    0    0 -0.12537771360E+01  0.10299779427E+02  0.31319519717E+02  0.32993649278E+02  0.10566000000E+00 0. -1.
        994    1    1    2    0    0 -0.26624785028E+00 -0.98630099739E+01  0.20048686244E+01  0.17149579981E+03  0.17120000000E+03 0.  0.
        998    1    1    2    0    0  0.15200249863E+01 -0.43676945275E+00  0.14666756079E+04  0.14667105509E+04  0.10000000000E+02 0. -1.
</event>
<event>
 5    1  0.1369527E-008  0.3851874E+03  0.7957747E-01  0.3428878E+00
         13   -1    0    0    0    0  0.00000000000E+00  0.00000000000E+00  0.14999999963E+04  0.15000000000E+04  0.10566000000E+00 0. -1.
        994   -1    0    0    0    0 -0.00000000000E+00 -0.00000000000E+00  0.11368683772E-12  0.17120000000E+03  0.17120000000E+03 0.  0.
         13    1    1    2    0    0 -0.19977918297E+01  0.16476522916E+02  0.84379267600E+02  0.85996156568E+02  0.10566000000E+00 0. -1.
        994    1    1    2    0    0  0.66975378963E+01 -0.18579392780E+02  0.28201324633E+01  0.17235847527E+03  0.17120000000E+03 0.  0.
        998    1    1    2    0    0 -0.46997460666E+01  0.21028698640E+01  0.14128005962E+04  0.14128453682E+04  0.10000000000E+02 0. -1.
</event>
<event>
 5    1  0.1369527E-008  0.3836952E+03  0.7957747E-01  0.3435225E+00
         13   -1    0    0    0    0  0.00000000000E+00  0.00000000000E+00  0.14999999963E+04  0.15000000000E+04  0.10566000000E+00 0.  1.
        994   -1    0    0    0    0 -0.00000000000E+00 -0.00000000000E+00  0.11368683772E-12  0.17120000000E+03  0.17120000000E+03 0.  0.
         13    1    1    2    0    0 -0.27073605456E+01  0.18164274315E+02  0.76413317527E+02  0.78589292668E+02  0.10566000000E+00 0.  1.
        994    1    1    2    0    0 -0.25949567114E+01 -0.55624268054E+01  0.24037709974E+01  0.17132685869E+03  0.17120000000E+03 0.  0.
        998    1    1    2    0    0  0.53023172569E+01 -0.12601847509E+02  0.14211829078E+04  0.14212838486E+04  0.10000000000E+02 0.  1.
</event>
<event>
 5    1  0.1369527E-008  0.3701190E+03  0.7957747E-01  0.3495344E+00
         13   -1    0    0    0    0  0.00000000000E+00  0.00000000000E+00  0.14999999963E+04  0.15000000000E+04  0.10566000000E+00 0. -1.
        994   -1    0    0    0    0 -0.00000000000E+00 -0.00000000000E+00  0.11368683772E-12  0.17120000000E+03  0.17120000000E+03 0.  0.
         13    1    1    2    0    0  0.77649828538E+01 -0.19988915352E+02  0.20806633028E+02  0.29879404908E+02  0.10566000000E+00 0. -1.
        994    1    1    2    0    0 -0.86471683506E+01  0.18538335316E+02  0.10654432832E+02  0.17274663625E+03  0.17120000000E+03 0.  0.
        998    1    1    2    0    0  0.88218549673E+00  0.14505800359E+01  0.14685389304E+04  0.14685739588E+04  0.10000000000E+02 0. -1.
</event>
<event>
 5    1  0.1369527E-008  0.3793046E+03  0.7957747E-01  0.3454192E+00
         13   -1    0    0    0    0  0.00000000000E+00  0.00000000000E+00  0.14999999963E+04  0.15000000000E+04  0.10566000000E+00 0. -1.
        994   -1    0    0    0    0 -0.00000000000E+00 -0.00000000000E+00  0.11368683772E-12  0.17120000000E+03  0.17120000000E+03 0.  0.
         13    1    1    2    0    0  0.33622115952E+00 -0.11831247275E+02  0.14037606229E+02  0.18361835677E+02  0.10566000000E+00 0. -1.
        994    1    1    2    0    0  0.22976103729E+01 -0.25247821084E+01  0.45236472679E+01  0.17129377374E+03  0.17120000000E+03 0.  0.
        998    1    1    2    0    0 -0.26338315324E+01  0.14356029383E+02  0.14814387428E+04  0.14815443906E+04  0.10000000000E+02 0. -1.
</event>
<event>
 5    1  0.1369527E-008  0.3781196E+03  0.7957747E-01  0.3459387E+00
         13   -1    0    0    0    0  0.00000000000E+00  0.00000000000E+00  0.14999999963E+04  0.15000000000E+04  0.10566000000E+00 0. -1.
        994   -1    0    0    0    0 -0.00000000000E+00 -0.00000000000E+00  0.11368683772E-12  0.17120000000E+03  0.17120000000E+03 0.  0.
         13    1    1    2    0    0  0.25413011164E+02  0.15826885688E+02  0.22659737806E+02  0.37547121441E+02  0.10566000000E+00 0. -1.
        994    1    1    2    0    0 -0.25832106905E+02 -0.12943584220E+02  0.18308251867E+02  0.17458369399E+03  0.17120000000E+03 0.  0.
        998    1    1    2    0    0  0.41909574072E+00 -0.28833014675E+01  0.14590320066E+04  0.14590691846E+04  0.10000000000E+02 0. -1.
</event>
<event>
 5    1  0.1369527E-008  0.3743023E+03  0.7957747E-01  0.3476349E+00
         13   -1    0    0    0    0  0.00000000000E+00  0.00000000000E+00  0.14999999963E+04  0.15000000000E+04  0.10566000000E+00 0.  1.
        994   -1    0    0    0    0 -0.00000000000E+00 -0.00000000000E+00  0.11368683772E-12  0.17120000000E+03  0.17120000000E+03 0.  0.
         13    1    1    2    0    0  0.34268213891E+02 -0.99222653170E+01  0.85502504892E+02  0.92646917592E+02  0.10566000000E+00 0.  1.
        994    1    1    2    0    0 -0.28017381463E+02  0.87833542483E+01  0.99805032322E+01  0.17398612422E+03  0.17120000000E+03 0.  0.
        998    1    1    2    0    0 -0.62508324286E+01  0.11389110687E+01  0.14045169882E+04  0.14045669582E+04  0.10000000000E+02 0.  1.
</event>
<event>
 5    1  0.1369527E-008  0.3801818E+03  0.7957747E-01  0.3450367E+00
         13   -1    0    0    0    0  0.00000000000E+00  0.00000000000E+00  0.14999999963E+04  0.15000000000E+04  0.10566000000E+00 0. -1.
        994   -1    0    0    0    0 -0.00000000000E+00 -0.00000000000E+00  0.11368683772E-12  0.17120000000E+03  0.17120000000E+03 0.  0.
         13    1    1    2    0    0 -0.39616915812E+02  0.52997142248E+02  0.30288684282E+03  0.31003007568E+03  0.10566000000E+00 0. -1.
        994    1    1    2    0    0  0.52813671627E+02 -0.91270173032E+02  0.42132128708E+02  0.20543632752E+03  0.17120000000E+03 0.  0.
        998    1    1    2    0    0 -0.13196755815E+02  0.38273030785E+02  0.11549810247E+04  0.11557335968E+04  0.10000000000E+02 0. -1.
</event>
<event>
 5    1  0.1369527E-008  0.3776270E+03  0.7957747E-01  0.3461557E+00
         13   -1    0    0    0    0  0.00000000000E+00  0.00000000000E+00  0.14999999963E+04  0.15000000000E+04  0.10566000000E+00 0. -1.
        994   -1    0    0    0    0 -0.00000000000E+00 -0.00000000000E+00  0.11368683772E-12  0.17120000000E+03  0.17120000000E+03 0.  0.
         13    1    1    2    0    0 -0.93684608467E+01  0.34088491377E+02  0.12078800540E+03  0.12585526098E+03  0.10566000000E+00 0. -1.
        994    1    1    2    0    0 -0.35228229874E+01 -0.13440024746E+02  0.59865563675E+01  0.17186716791E+03  0.17120000000E+03 0.  0.
        998    1    1    2    0    0  0.12891283834E+02 -0.20648466631E+02  0.13732254345E+04  0.13734775711E+04  0.10000000000E+02 0. -1.
</event>
<event>
 5    1  0.1369527E-008  0.3826567E+03  0.7957747E-01  0.3439672E+00
         13   -1    0    0    0    0  0.00000000000E+00  0.00000000000E+00  0.14999999963E+04  0.15000000000E+04  0.10566000000E+00 0.  1.
        994   -1    0    0    0    0 -0.00000000000E+00 -0.00000000000E+00  0.11368683772E-12  0.17120000000E+03  0.17120000000E+03 0.  0.
         13    1    1    2    0    0  0.90361033669E+01 -0.85593061863E+01  0.25706767589E+02  0.28561546709E+02  0.10566000000E+00 0.  1.
        994    1    1    2    0    0 -0.13593236050E+02  0.14233238614E+02  0.40827499541E+01  0.17237595539E+03  0.17120000000E+03 0.  0.
        998    1    1    2    0    0  0.45571326829E+01 -0.56739324277E+01  0.14702104787E+04  0.14702624979E+04  0.10000000000E+02 0.  1.
</event>
<event>
 5    1  0.1369527E-008  0.3767724E+03  0.7957747E-01  0.3465334E+00
         13   -1    0    0    0    0  0.00000000000E+00  0.00000000000E+00  0.14999999963E+04  0.15000000000E+04  0.10566000000E+00 0. -1.
        994   -1    0    0    0    0 -0.00000000000E+00 -0.00000000000E+00  0.11368683772E-12  0.17120000000E+03  0.17120000000E+03 0.  0.
         13    1    1    2    0    0  0.26833747460E+02 -0.51184461167E+02  0.34539899953E+03  0.35020048416E+03  0.10566000000E+00 0. -1.
        994    1    1    2    0    0  0.88228806115E+01  0.19581298336E+02  0.73315752672E+01  0.17269760410E+03  0.17120000000E+03 0.  0.
        998    1    1    2    0    0 -0.35656628072E+02  0.31603162831E+02  0.11472694215E+04  0.11483019117E+04  0.10000000000E+02 0. -1.
</event>
<event>
 5    1  0.1369527E-008  0.3862490E+03  0.7957747E-01  0.3424392E+00
         13   -1    0    0    0    0  0.00000000000E+00  0.00000000000E+00  0.14999999963E+04  0.15000000000E+04  0.10566000000E+00 0. -1.
        994   -1    0    0    0    0 -0.00000000000E+00 -0.00000000000E+00  0.11368683772E-12  0.17120000000E+03  0.17120000000E+03 0.  0.
         13    1    1    2    0    0  0.10908900179E+02 -0.19703594909E+01  0.62832657023E+02  0.63803137637E+02  0.10566000000E+00 0. -1.
        994    1    1    2    0    0 -0.64533957741E+01 -0.60137272906E+01  0.12661843042E+01  0.17143177785E+03  0.17120000000E+03 0.  0.
        998    1    1    2    0    0 -0.44555044050E+01  0.79840867815E+01  0.14359011550E+04  0.14359650845E+04  0.10000000000E+02 0. -1.
</event>
<event>
 5    1  0.1369527E-008  0.3806300E+03  0.7957747E-01  0.3448420E+00
         13   -1    0    0    0    0  0.00000000000E+00  0.00000000000E+00  0.14999999963E+04  0.15000000000E+04  0.10566000000E+00 0.  1.
        994   -1    0    0    0    0 -0.00000000000E+00 -0.00000000000E+00  0.11368683772E-12  0.17120000000E+03  0.17120000000E+03 0.  0.
         13    1    1    2    0    0 -0.19312318602E+02 -0.11846935143E+02  0.66796001811E+02  0.70533910597E+02  0.10566000000E+00 0.  1.
        994    1    1    2    0    0  0.10640706695E+02  0.44382334526E+01  0.42590301694E+01  0.17164061842E+03  0.17120000000E+03 0.  0.
        998    1    1    2    0    0  0.86716119065E+01  0.74087016906E+01  0.14289449643E+04  0.14290254710E+04  0.10000000000E+02 0.  1.
</event>
<event>
 5    1  0.1369527E-008  0.3849790E+03  0.7957747E-01  0.3429761E+00
         13   -1    0    0    0    0  0.00000000000E+00  0.00000000000E+00  0.14999999963E+04  0.15000000000E+04  0.10566000000E+00 0.  1.
        994   -1    0    0    0    0 -0.00000000000E+00 -0.00000000000E+00  0.11368683772E-12  0.17120000000E+03  0.17120000000E+03 0.  0.
         13    1    1    2    0    0  0.12801996840E+02 -0.50066821697E+01  0.59534789456E+02  0.61101230013E+02  0.10566000000E+00 0.  1.
        994    1    1    2    0    0 -0.44504497805E+01 -0.14965544541E+01  0.17130662829E+01  0.17127294233E+03  0.17120000000E+03 0.  0.
        998    1    1    2    0    0 -0.83515470593E+01  0.65032366238E+01  0.14387521405E+04  0.14388258277E+04  0.10000000000E+02 0.  1.
</event>
<event>
 5    1  0.1369527E-008  0.2975813E+03  0.7957747E-01  0.3913439E+00
         13   -1    0    0    0    0  0.00000000000E+00  0.00000000000E+00  0.14999999963E+04  0.15000000000E+04  0.10566000000E+00 0. -1.
        994   -1    0    0    0    0 -0.00000000000E+00 -0.00000000000E+00  0.11368683772E-12  0.17120000000E+03  0.17120000000E+03 0.  0.
         13    1    1    2    0    0  0.15937101657E+03 -0.14689564136E+03  0.56026966996E+03  0.60073252335E+03  0.10566000000E+00 0. -1.
        994    1    1    2    0    0 -0.17009384432E+03  0.12062924584E+03  0.21467149032E+03  0.34478488885E+03  0.17120000000E+03 0.  0.
        998    1    1    2    0    0  0.10722827750E+02  0.26266395521E+02  0.72505883600E+03  0.72568258780E+03  0.10000000000E+02 0.  1.
</event>
<event>
 5    1  0.1369527E-008  0.3803217E+03  0.7957747E-01  0.3449759E+00
         13   -1    0    0    0    0  0.00000000000E+00  0.00000000000E+00  0.14999999963E+04  0.15000000000E+04  0.10566000000E+00 0.  1.
        994   -1    0    0    0    0 -0.00000000000E+00 -0.00000000000E+00  0.11368683772E-12  0.17120000000E+03  0.17120000000E+03 0.  0.
         13    1    1    2    0    0  0.25437421781E+02  0.20282846406E+02  0.13376541801E+03  0.13766500828E+03  0.10566000000E+00 0.  1.
        994    1    1    2    0    0 -0.11189353207E+02 -0.13339949787E+02  0.49838466896E+01  0.17215526310E+03  0.17120000000E+03 0.  0.
        998    1    1    2    0    0 -0.14248068574E+02 -0.69428966195E+01  0.13612507316E+04  0.13613797286E+04  0.10000000000E+02 0.  1.
</event>
<event>
 5    1  0.1845651E-008  0.3857638E+03  0.7957747E-01  0.3426439E+00
         13   -1    0    0    0    0  0.00000000000E+00  0.00000000000E+00  0.14999999963E+04  0.15000000000E+04  0.10566000000E+00 0. -1.
        994   -1    0    0    0    0 -0.00000000000E+00 -0.00000000000E+00  0.11368683772E-12  0.17120000000E+03  0.17120000000E+03 0.  0.
         13    1    1    2    0    0 -0.95094740402E+01  0.48021526104E+01  0.44122254356E+02  0.45390255118E+02  0.10566000000E+00 0. -1.
        994    1    1    2    0    0  0.13029955904E+02 -0.32521638197E+01  0.18432979829E+01  0.17173582640E+03  0.17120000000E+03 0.  0.
        998    1    1    2    0    0 -0.35204818636E+01 -0.15499887907E+01  0.14540344439E+04  0.14540739185E+04  0.10000000000E+02 0. -1.
</event>
<event>
 5    1  0.1369527E-008  0.3425449E+03  0.7957747E-01  0.3632440E+00
         13   -1    0    0    0    0  0.00000000000E+00  0.00000000000E+00  0.14999999963E+04  0.15000000000E+04  0.10566000000E+00 0.  1.
        994   -1    0    0    0    0 -0.00000000000E+00 -0.00000000000E+00  0.11368683772E-12  0.17120000000E+03  0.17120000000E+03 0.  0.
         13    1    1    2    0    0  0.22381074692E+03  0.75823564875E+02  0.87812322914E+03  0.90936289794E+03  0.10566000000E+00 0.  1.
        994    1    1    2    0    0 -0.21729027167E+03 -0.90541040920E+02  0.23391969145E+03  0.37341746652E+03  0.17120000000E+03 0.  0.
        998    1    1    2    0    0 -0.65204752564E+01  0.14717476044E+02  0.38795707569E+03  0.38841963554E+03  0.10000000000E+02 0. -1.
</event>
<event>
 5    1  0.1369527E-008  0.3817441E+03  0.7957747E-01  0.3443599E+00
         13   -1    0    0    0    0  0.00000000000E+00  0.00000000000E+00  0.14999999963E+04  0.15000000000E+04  0.10566000000E+00 0. -1.
        994   -1    0    0    0    0 -0.00000000000E+00 -0.00000000000E+00  0.11368683772E-12  0.17120000000E+03  0.17120000000E+03 0.  0.
         13    1    1    2    0    0  0.16333532979E+02  0.20810858339E+02  0.11243840391E+03  0.11550879604E+03  0.10566000000E+00 0. -1.
        994    1    1    2    0    0 -0.29423546771E+01 -0.67392236264E+01  0.34350916901E+01  0.17139228233E+03  0.17120000000E+03 0.  0.
        998    1    1    2    0    0 -0.13391178301E+02 -0.14071634712E+02  0.13841265007E+04  0.13842989216E+04  0.10000000000E+02 0. -1.
</event>
<event>
 5    1  0.1369527E-008  0.3803735E+03  0.7957747E-01  0.3449534E+00
         13   -1    0    0    0    0  0.00000000000E+00  0.00000000000E+00  0.14999999963E+04  0.15000000000E+04  0.10566000000E+00 0. -1.
        994   -1    0    0    0    0 -0.00000000000E+00 -0.00000000000E+00  0.11368683772E-12  0.17120000000E+03  0.17120000000E+03 0.  0.
         13    1    1    2    0    0  0.18493479804E+02  0.12450901627E+01  0.43024535764E+02  0.46847421343E+02  0.10566000000E+00 0. -1.
        994    1    1    2    0    0 -0.55011338164E+01 -0.74705617550E+01  0.42321514794E+01  0.17150341942E+03  0.17120000000E+03 0.  0.
        998    1    1    2    0    0 -0.12992345988E+02  0.62254715923E+01  0.14527433090E+04  0.14528491592E+04  0.10000000000E+02 0. -1.
</event>
<event>
 5    1  0.1369527E-008  0.3843744E+03  0.7957747E-01  0.3432330E+00
         13   -1    0    0    0    0  0.00000000000E+00  0.00000000000E+00  0.14999999963E+04  0.15000000000E+04  0.10566000000E+00 0. -1.
        994   -1    0    0    0    0 -0.00000000000E+00 -0.00000000000E+00  0.11368683772E-12  0.17120000000E+03  0.17120000000E+03 0.  0.
         13    1    1    2    0    0  0.10043471852E+02 -0.13692287422E+02  0.73076158453E+02  0.75023237467E+02  0.10566000000E+00 0. -1.
        994    1    1    2    0    0 -0.13343059765E+02  0.64702728446E+01  0.26660285195E+01  0.17186171587E+03  0.17120000000E+03 0.  0.
        998    1    1    2    0    0  0.32995879133E+01  0.72220145775E+01  0.14242578093E+04  0.14243150467E+04  0.10000000000E+02 0. -1.
</event>
<event>
 5    1  0.1369527E-008  0.3845508E+03  0.7957747E-01  0.3431580E+00
         13   -1    0    0    0    0  0.00000000000E+00  0.00000000000E+00  0.14999999963E+04  0.15000000000E+04  0.10566000000E+00 0.  1.
        994   -1    0    0    0    0 -0.00000000000E+00 -0.00000000000E+00  0.11368683772E-12  0.17120000000E+03  0.17120000000E+03 0.  0.
         13    1    1    2    0    0  0.11055576945E+02 -0.70138353887E+00  0.31911010299E+02  0.33779305244E+02  0.10566000000E+00 0.  1.
        994    1    1    2    0    0 -0.13349867473E+02  0.19733727881E+01  0.24533253037E+01  0.17174857195E+03  0.17120000000E+03 0.  0.
        998    1    1    2    0    0  0.22942905285E+01 -0.12719892492E+01  0.14656356607E+04  0.14656721228E+04  0.10000000000E+02 0.  1.
</event>
<event>
 5    1  0.1369527E-008  0.3857500E+03  0.7957747E-01  0.3426497E+00
         13   -1    0    0    0    0  0.00000000000E+00  0.00000000000E+00  0.14999999963E+04  0.15000000000E+04  0.10566000000E+00 0.  1.
        994   -1    0    0    0    0 -0.00000000000E+00 -0.00000000000E+00  0.11368683772E-12  0.17120000000E+03  0.17120000000E+03 0.  0.
         13    1    1    2    0    0 -0.10818650618E+02  0.51381714167E+01  0.60777181656E+02  0.61946113525E+02  0.10566000000E+00 0.  1.
        994    1    1    2    0    0 -0.15018712556E+01 -0.31986208188E+01  0.12991816118E+01  0.17124139297E+03  0.17120000000E+03 0.  0.
        998    1    1    2    0    0  0.12320521873E+02 -0.19395505979E+01  0.14379236330E+04  0.14380124935E+04  0.10000000000E+02 0.  1.
</event>
<event>
 5    1  0.1369527E-008  0.3855129E+03  0.7957747E-01  0.3427500E+00
         13   -1    0    0    0    0  0.00000000000E+00  0.00000000000E+00  0.14999999963E+04  0.15000000000E+04  0.10566000000E+00 0. -1.
        994   -1    0    0    0    0 -0.00000000000E+00 -0.00000000000E+00  0.11368683772E-12  0.17120000000E+03  0.17120000000E+03 0.  0.
         13    1    1    2    0    0  0.10829543185E+02 -0.12793968072E+00  0.45068498492E+02  0.46351656869E+02  0.10566000000E+00 0. -1.
        994    1    1    2    0    0  0.15993724457E+01 -0.31110949770E+01  0.14158880581E+01  0.17124158853E+03  0.17120000000E+03 0.  0.
        998    1    1    2    0    0 -0.12428915630E+02  0.32390346577E+01  0.14535156097E+04  0.14536067546E+04  0.10000000000E+02 0. -1.
</event>
<event>
 5    1  0.1369527E-008  0.3861515E+03  0.7957747E-01  0.3424803E+00
         13   -1    0    0    0    0  0.00000000000E+00  0.00000000000E+00  0.14999999963E+04  0.15000000000E+04  0.10566000000E+00 0.  1.
        994   -1    0    0    0    0 -0.00000000000E+00 -0.00000000000E+00  0.11368683772E-12  0.17120000000E+03  0.17120000000E+03 0.  0.
         13    1    1    2    0    0  0.35885287073E+01 -0.11889872653E+02  0.71902276487E+02  0.72967082565E+02  0.10566000000E+00 0.  1.
        994    1    1    2    0    0  0.34538142982E+01  0.13088007528E+02  0.16600495176E+01  0.17174230853E+03  0.17120000000E+03 0.  0.
        998    1    1    2    0    0 -0.70423430055E+01 -0.11981348746E+01  0.14264376703E+04  0.14264906089E+04  0.10000000000E+02 0.  1.
</event>
<event>
 5    1  0.1369527E-008  0.3765559E+03  0.7957747E-01  0.3466294E+00
         13   -1    0    0    0    0  0.00000000000E+00  0.00000000000E+00  0.14999999963E+04  0.15000000000E+04  0.10566000000E+00 0.  1.
        994   -1    0    0    0    0 -0.00000000000E+00 -0.00000000000E+00  0.11368683772E-12  0.17120000000E+03  0.17120000000E+03 0.  0.
         13    1    1    2    0    0 -0.97432445919E+01  0.55164016953E+02  0.22321229918E+03  0.23013418097E+03  0.10566000000E+00 0.  1.
        994    1    1    2    0    0  0.10034583613E+02 -0.57335815000E+02  0.17425772196E+02  0.18166228581E+03  0.17120000000E+03 0.  0.
        998    1    1    2    0    0 -0.29133902117E+00  0.21717980470E+01  0.12593619249E+04  0.12594035332E+04  0.10000000000E+02 0.  0.
</event>
<event>
 5    1  0.1369527E-008  0.3815096E+03  0.7957747E-01  0.3444612E+00
         13   -1    0    0    0    0  0.00000000000E+00  0.00000000000E+00  0.14999999963E+04  0.15000000000E+04  0.10566000000E+00 0. -1.
        994   -1    0    0    0    0 -0.00000000000E+00 -0.00000000000E+00  0.11368683772E-12  0.17120000000E+03  0.17120000000E+03 0.  0.
         13    1    1    2    0    0  0.25834265356E+02  0.21377719873E+02  0.15231701106E+03  0.15596441644E+03  0.10566000000E+00 0. -1.
        994    1    1    2    0    0 -0.44881871446E+02  0.23685773785E+01  0.10121517983E+02  0.17729037670E+03  0.17120000000E+03 0.  0.
        998    1    1    2    0    0  0.19047606090E+02 -0.23746297252E+02  0.13375614672E+04  0.13379452069E+04  0.10000000000E+02 0. -1.
</event>
<event>
 5    1  0.1369527E-008  0.3984020E+03  0.7957747E-01  0.3374748E+00
         13   -1    0    0    0    0  0.00000000000E+00  0.00000000000E+00  0.14999999963E+04  0.15000000000E+04  0.10566000000E+00 0.  1.
        994   -1    0    0    0    0 -0.00000000000E+00 -0.00000000000E+00  0.11368683772E-12  0.17120000000E+03  0.17120000000E+03 0.  0.
         13    1    1    2    0    0  0.19122098449E+02 -0.10804195382E+03  0.28048415051E+03  0.30118115526E+03  0.10566000000E+00 0.  1.
        994    1    1    2    0    0  0.93593392845E+02  0.31710149983E+02  0.65918914874E+02  0.20837466289E+03  0.17120000000E+03 0.  0.
        998    1    1    2    0    0 -0.11271549129E+03  0.76331803833E+02  0.11535969309E+04  0.11616441818E+04  0.10000000000E+02 0.  1.
</event>
<event>
 5    1  0.1369527E-008  0.3859219E+03  0.7957747E-01  0.3425772E+00
         13   -1    0    0    0    0  0.00000000000E+00  0.00000000000E+00  0.14999999963E+04  0.15000000000E+04  0.10566000000E+00 0. -1.
        994   -1    0    0    0    0 -0.00000000000E+00 -0.00000000000E+00  0.11368683772E-12  0.17120000000E+03  0.17120000000E+03 0.  0.
         13    1    1    2    0    0 -0.11279088333E+02  0.59633640284E+01  0.67994742044E+02  0.69181469006E+02  0.10566000000E+00 0. -1.
        994    1    1    2    0    0  0.10712291004E+02 -0.65072082425E+01  0.16883969569E+01  0.17166650116E+03  0.17120000000E+03 0.  0.
        998    1    1    2    0    0  0.56679732896E+00  0.54384421407E+00  0.14303168573E+04  0.14303520298E+04  0.10000000000E+02 0. -1.
</event>
<event>
 5    1  0.1369527E-008  0.3771545E+03  0.7957747E-01  0.3463643E+00
         13   -1    0    0    0    0  0.00000000000E+00  0.00000000000E+00  0.14999999963E+04  0.15000000000E+04  0.10566000000E+00 0. -1.
        994   -1    0    0    0    0 -0.00000000000E+00 -0.00000000000E+00  0.11368683772E-12  0.17120000000E+03  0.17120000000E+03 0.  0.
         13    1    1    2    0    0  0.10304832538E+03  0.54066753004E+02  0.58252760901E+03  0.59403753885E+03  0.10566000000E+00 0. -1.
        994    1    1    2    0    0 -0.11048312598E+03 -0.73271187533E+02  0.67391750098E+02  0.22677362287E+03  0.17120000000E+03 0.  0.
        998    1    1    2    0    0  0.74348006005E+01  0.19204434529E+02  0.85008063717E+03  0.85038883827E+03  0.10000000000E+02 0.  1.
</event>
<event>
 5    1  0.1369527E-008  0.3803727E+03  0.7957747E-01  0.3449537E+00
         13   -1    0    0    0    0  0.00000000000E+00  0.00000000000E+00  0.14999999963E+04  0.15000000000E+04  0.10566000000E+00 0.  1.
        994   -1    0    0    0    0 -0.00000000000E+00 -0.00000000000E+00  0.11368683772E-12  0.17120000000E+03  0.17120000000E+03 0.  0.
         13    1    1    2    0    0 -0.48627672042E+01 -0.36856886434E+02  0.20869158996E+03  0.21197704467E+03  0.10566000000E+00 0.  1.
        994    1    1    2    0    0 -0.10919832428E+02  0.28566609473E+00  0.43436478601E+01  0.17160312241E+03  0.17120000000E+03 0.  0.
        998    1    1    2    0    0  0.15782599632E+02  0.36571220339E+02  0.12869647585E+04  0.12876198329E+04  0.10000000000E+02 0.  1.
</event>
<event>
 5    1  0.1369527E-008  0.3857989E+03  0.7957747E-01  0.3426291E+00
         13   -1    0    0    0    0  0.00000000000E+00  0.00000000000E+00  0.14999999963E+04  0.15000000000E+04  0.10566000000E+00 0.  1.
        994   -1    0    0    0    0 -0.00000000000E+00 -0.00000000000E+00  0.11368683772E-12  0.17120000000E+03  0.17120000000E+03 0.  0.
         13    1    1    2    0    0  0.59813146245E+00 -0.10886242831E+02  0.48057968918E+02  0.49279281496E+02  0.10566000000E+00 0.  1.
        994    1    1    2    0    0  0.45067397243E+01  0.93254097367E+01  0.15859525962E+01  0.17152034636E+03  0.17120000000E+03 0.  0.
        998    1    1    2    0    0 -0.51048711867E+01  0.15608330941E+01  0.14503560748E+04  0.14504003721E+04  0.10000000000E+02 0.  1.
</event>
<event>
 5    1  0.1369527E-008  0.3847665E+03  0.7957747E-01  0.3430663E+00
         13   -1    0    0    0    0  0.00000000000E+00  0.00000000000E+00  0.14999999963E+04  0.15000000000E+04  0.10566000000E+00 0. -1.
        994   -1    0    0    0    0 -0.00000000000E+00 -0.00000000000E+00  0.11368683772E-12  0.17120000000E+03  0.17120000000E+03 0.  0.
         13    1    1    2    0    0  0.26816034496E+01  0.14283443532E+02  0.66642342833E+02  0.68208656185E+02  0.10566000000E+00 0. -1.
        994    1    1    2    0    0  0.30511788197E+01  0.56127784537E+01  0.18804508226E+01  0.17132947519E+03  0.17120000000E+03 0.  0.
        998    1    1    2    0    0 -0.57327822693E+01 -0.19896221986E+02  0.14314772026E+04  0.14316618686E+04  0.10000000000E+02 0. -1.
</event>
<event>
 5    1  0.1369527E-008  0.3819348E+03  0.7957747E-01  0.3442777E+00
         13   -1    0    0    0    0  0.00000000000E+00  0.00000000000E+00  0.14999999963E+04  0.15000000000E+04  0.10566000000E+00 0. -1.
        994   -1    0    0    0    0 -0.00000000000E+00 -0.00000000000E+00  0.11368683772E-12  0.17120000000E+03  0.17120000000E+03 0.  0.
         13    1    1    2    0    0 -0.17620323114E+02  0.31162612868E+02  0.18087967373E+03  0.18438831785E+03  0.10566000000E+00 0. -1.
        994    1    1    2    0    0  0.21798356978E+02 -0.27866554920E+02  0.73285796505E+01  0.17497102997E+03  0.17120000000E+03 0.  0.
        998    1    1    2    0    0 -0.41780338636E+01 -0.32960579483E+01  0.13117917429E+04  0.13118406522E+04  0.10000000000E+02 0. -1.
</event>
<event>
 5    1  0.1369527E-008  0.3761254E+03  0.7957747E-01  0.3468205E+00
         13   -1    0    0    0    0  0.00000000000E+00  0.00000000000E+00  0.14999999963E+04  0.15000000000E+04  0.10566000000E+00 0. -1.
        994   -1    0    0    0    0 -0.00000000000E+00 -0.00000000000E+00  0.11368683772E-12  0.17120000000E+03  0.17120000000E+03 0.  0.
         13    1    1    2    0    0 -0.16778242288E+02 -0.11820086280E+02  0.33674217120E+02  0.39435870938E+02  0.10566000000E+00 0. -1.
        994    1    1    2    0    0  0.18525830766E+02 -0.33587249343E+02  0.11100545466E+02  0.17579525544E+03  0.17120000000E+03 0.  0.
        998    1    1    2    0    0 -0.17475884781E+01  0.45407335623E+02  0.14552252337E+04  0.14559688736E+04  0.10000000000E+02 0. -1.
</event>
<event>
 5    1  0.1369527E-008  0.3762199E+03  0.7957747E-01  0.3467785E+00
         13   -1    0    0    0    0  0.00000000000E+00  0.00000000000E+00  0.14999999963E+04  0.15000000000E+04  0.10566000000E+00 0.  1.
        994   -1    0    0    0    0 -0.00000000000E+00 -0.00000000000E+00  0.11368683772E-12  0.17120000000E+03  0.17120000000E+03 0.  0.
         13    1    1    2    0    0 -0.43506599224E+01 -0.17632500520E+02  0.23853004301E+02  0.29980165020E+02  0.10566000000E+00 0.  1.
        994    1    1    2    0    0  0.55637790180E+01  0.25467940327E+02  0.83575482556E+01  0.17337491236E+03  0.17120000000E+03 0.  0.
        998    1    1    2    0    0 -0.12131190956E+01 -0.78354398068E+01  0.14677894437E+04  0.14678449226E+04  0.10000000000E+02 0.  1.
</event>
<event>
 5    1  0.1369527E-008  0.3832879E+03  0.7957747E-01  0.3436966E+00
         13   -1    0    0    0    0  0.00000000000E+00  0.00000000000E+00  0.14999999963E+04  0.15000000000E+04  0.10566000000E+00 0. -1.
        994   -1    0    0    0    0 -0.00000000000E+00 -0.00000000000E+00  0.11368683772E-12  0.17120000000E+03  0.17120000000E+03 0.  0.
         13    1    1    2    0    0  0.35310031417E+01  0.13293572792E+02  0.31381645591E+02  0.34263769565E+02  0.10566000000E+00 0. -1.
        994    1    1    2    0    0 -0.31006649643E+02 -0.49218025952E+02  0.13754472092E+02  0.18133519213E+03  0.17120000000E+03 0.  0.
        998    1    1    2    0    0  0.27475646501E+02  0.35924453161E+02  0.14548638786E+04  0.14556010383E+04  0.10000000000E+02 0. -1.
</event>
<event>
 5    1  0.1369527E-008  0.3687244E+03  0.7957747E-01  0.3501774E+00
         13   -1    0    0    0    0  0.00000000000E+00  0.00000000000E+00  0.14999999963E+04  0.15000000000E+04  0.10566000000E+00 0. -1.
        994   -1    0    0    0    0 -0.00000000000E+00 -0.00000000000E+00  0.11368683772E-12  0.17120000000E+03  0.17120000000E+03 0.  0.
         13    1    1    2    0    0  0.30727639831E+02 -0.34264882754E+01  0.42076024448E+02  0.52214286061E+02  0.10566000000E+00 0. -1.
        994    1    1    2    0    0 -0.26764656253E+02 -0.14445317222E+02  0.13492107667E+02  0.17440324247E+03  0.17120000000E+03 0.  0.
        998    1    1    2    0    0 -0.39629835775E+01  0.17871805498E+02  0.14444318642E+04  0.14445824715E+04  0.10000000000E+02 0. -1.
</event>
<event>
 5    1  0.1369527E-008  0.3840002E+03  0.7957747E-01  0.3433924E+00
         13   -1    0    0    0    0  0.00000000000E+00  0.00000000000E+00  0.14999999963E+04  0.15000000000E+04  0.10566000000E+00 0. -1.
        994   -1    0    0    0    0 -0.00000000000E+00 -0.00000000000E+00  0.11368683772E-12  0.17120000000E+03  0.17120000000E+03 0.  0.
         13    1    1    2    0    0  0.18051706146E+02 -0.32153172361E+01  0.75428484139E+02  0.77625187557E+02  0.10566000000E+00 0. -1.
        994    1    1    2    0    0 -0.19003744043E+02 -0.20449660353E+00  0.33199336491E+01  0.17228362100E+03  0.17120000000E+03 0.  0.
        998    1    1    2    0    0  0.95203789666E+00  0.34198138397E+01  0.14212515785E+04  0.14212911914E+04  0.10000000000E+02 0. -1.
</event>
<event>
 5    1  0.1369527E-008  0.3793089E+03  0.7957747E-01  0.3454173E+00
         13   -1    0    0    0    0  0.00000000000E+00  0.00000000000E+00  0.14999999963E+04  0.15000000000E+04  0.10566000000E+00 0.  1.
        994   -1    0    0    0    0 -0.00000000000E+00 -0.00000000000E+00  0.11368683772E-12  0.17120000000E+03  0.17120000000E+03 0.  0.
         13    1    1    2    0    0  0.11955801824E+03  0.90210807911E+02  0.84465320878E+03  0.85782933259E+03  0.10566000000E+00 0.  1.
        994    1    1    2    0    0 -0.12932229719E+03 -0.88388850930E+02  0.91640201428E+02  0.24948789958E+03  0.17120000000E+03 0.  0.
        998    1    1    2    0    0  0.97642789484E+01 -0.18219569812E+01  0.56370658607E+03  0.56388276783E+03  0.10000000000E+02 0. -1.
</event>
<event>
 5    1  0.1369527E-008  0.3745887E+03  0.7957747E-01  0.3475064E+00
         13   -1    0    0    0    0  0.00000000000E+00  0.00000000000E+00  0.14999999963E+04  0.15000000000E+04  0.10566000000E+00 0.  1.
        994   -1    0    0    0    0 -0.00000000000E+00 -0.00000000000E+00  0.11368683772E-12  0.17120000000E+03  0.17120000000E+03 0.  0.
         13    1    1    2    0    0 -0.21461055368E+02 -0.38029609514E+02  0.15874500243E+03  0.16464147430E+03  0.10566000000E+00 0.  1.
        994    1    1    2    0    0 -0.10278571407E+02  0.22833706448E+01  0.72675514179E+01  0.17167737217E+03  0.17120000000E+03 0.  0.
        998    1    1    2    0    0  0.31739626775E+02  0.35746238869E+02  0.13339874424E+04  0.13348811535E+04  0.10000000000E+02 0.  1.
</event>
<event>
 5    1  0.1369527E-008  0.3754310E+03  0.7957747E-01  0.3471298E+00
         13   -1    0    0    0    0  0.00000000000E+00  0.00000000000E+00  0.14999999963E+04  0.15000000000E+04  0.10566000000E+00 0.  1.
        994   -1    0    0    0    0 -0.00000000000E+00 -0.00000000000E+00  0.11368683772E-12  0.17120000000E+03  0.17120000000E+03 0.  0.
         13    1    1    2    0    0  0.12186262377E+02 -0.16360494724E+02  0.29589906325E+02  0.35940847217E+02  0.10566000000E+00 0.  1.
        994    1    1    2    0    0 -0.17764876825E+02  0.37093624227E+01  0.75762830131E+01  0.17232582593E+03  0.17120000000E+03 0.  0.
        998    1    1    2    0    0  0.55786144483E+01  0.12651132301E+02  0.14628338069E+04  0.14629333269E+04  0.10000000000E+02 0.  1.
</event>
<event>
 5    1  0.1369527E-008  0.3799447E+03  0.7957747E-01  0.3451399E+00
         13   -1    0    0    0    0  0.00000000000E+00  0.00000000000E+00  0.14999999963E+04  0.15000000000E+04  0.10566000000E+00 0. -1.
        994   -1    0    0    0    0 -0.00000000000E+00 -0.00000000000E+00  0.11368683772E-12  0.17120000000E+03  0.17120000000E+03 0.  0.
         13    1    1    2    0    0 -0.90332375202E+01 -0.55755311288E+02  0.32031806947E+03  0.32525978987E+03  0.10566000000E+00 0. -1.
        994    1    1    2    0    0  0.20577574398E+02  0.48431623026E+02  0.13475666302E+02  0.17961094694E+03  0.17120000000E+03 0.  0.
        998    1    1    2    0    0 -0.11544336878E+02  0.73236882612E+01  0.11662062605E+04  0.11663292632E+04  0.10000000000E+02 0. -1.
</event>
<event>
 5    1  0.1369527E-008  0.3803210E+03  0.7957747E-01  0.3449762E+00
         13   -1    0    0    0    0  0.00000000000E+00  0.00000000000E+00  0.14999999963E+04  0.15000000000E+04  0.10566000000E+00 0. -1.
        994   -1    0    0    0    0 -0.00000000000E+00 -0.00000000000E+00  0.11368683772E-12  0.17120000000E+03  0.17120000000E+03 0.  0.
         13    1    1    2    0    0 -0.10505624129E+02 -0.27191809442E+01  0.13142994032E+02  0.17044399066E+02  0.10566000000E+00 0. -1.
        994    1    1    2    0    0  0.60787386015E+01  0.34822264536E+01  0.41350892705E+01  0.17139316185E+03  0.17120000000E+03 0.  0.
        998    1    1    2    0    0  0.44268855274E+01 -0.76304550932E+00  0.14827219130E+04  0.14827624391E+04  0.10000000000E+02 0. -1.
</event>
<event>
 5    1  0.1369527E-008  0.3839263E+03  0.7957747E-01  0.3434239E+00
         13   -1    0    0    0    0  0.00000000000E+00  0.00000000000E+00  0.14999999963E+04  0.15000000000E+04  0.10566000000E+00 0.  1.
        994   -1    0    0    0    0 -0.00000000000E+00 -0.00000000000E+00  0.11368683772E-12  0.17120000000E+03  0.17120000000E+03 0.  0.
         13    1    1    2    0    0 -0.14037127843E+02 -0.10013240602E+02  0.76536312864E+02  0.78454600224E+02  0.10566000000E+00 0.  1.
        994    1    1    2    0    0  0.11448040579E+01 -0.14308891168E+02  0.28444420082E+01  0.17182428755E+03  0.17120000000E+03 0.  0.
        998    1    1    2    0    0  0.12892323785E+02  0.24322131771E+02  0.14206192414E+04  0.14209211122E+04  0.10000000000E+02 0.  1.
</event>
<event>
 5    1  0.1369527E-008  0.4111187E+03  0.7957747E-01  0.3325930E+00
         13   -1    0    0    0    0  0.00000000000E+00  0.00000000000E+00  0.14999999963E+04  0.15000000000E+04  0.10566000000E+00 0.  1.
        994   -1    0    0    0    0 -0.00000000000E+00 -0.00000000000E+00  0.11368683772E-12  0.17120000000E+03  0.17120000000E+03 0.  0.
         13    1    1    2    0    0 -0.40354387396E+02  0.80972653288E+02  0.11186149044E+03  0.14386817358E+03  0.10566000000E+00 0.  1.
        994    1    1    2    0    0  0.51725375740E+02 -0.36279206119E+02  0.51161248940E+02  0.18952205330E+03  0.17120000000E+03 0.  0.
        998    1    1    2    0    0 -0.11370988344E+02 -0.44693447169E+02  0.13369772569E+04  0.13378097731E+04  0.10000000000E+02 0.  1.
</event>
<event>
 5    1  0.1369527E-008  0.3847489E+03  0.7957747E-01  0.3430738E+00
         13   -1    0    0    0    0  0.00000000000E+00  0.00000000000E+00  0.14999999963E+04  0.15000000000E+04  0.10566000000E+00 0. -1.
        994   -1    0    0    0    0 -0.00000000000E+00 -0.00000000000E+00  0.11368683772E-12  0.17120000000E+03  0.17120000000E+03 0.  0.
         13    1    1    2    0    0 -0.87280665552E+01 -0.10108729493E+02  0.49895954982E+02  0.51652522159E+02  0.10566000000E+00 0. -1.
        994    1    1    2    0    0  0.49257342431E+01  0.11220738273E+02  0.22492679058E+01  0.17165275131E+03  0.17120000000E+03 0.  0.
        998    1    1    2    0    0  0.38023323121E+01 -0.11120087805E+01  0.14478547734E+04  0.14478947265E+04  0.10000000000E+02 0. -1.
</event>
<event>
 5    1  0.1369527E-008  0.3765474E+03  0.7957747E-01  0.3466331E+00
         13   -1    0    0    0    0  0.00000000000E+00  0.00000000000E+00  0.14999999963E+04  0.15000000000E+04  0.10566000000E+00 0. -1.
        994   -1    0    0    0    0 -0.00000000000E+00 -0.00000000000E+00  0.11368683772E-12  0.17120000000E+03  0.17120000000E+03 0.  0.
         13    1    1    2    0    0 -0.14303964853E+03  0.21626109835E+02  0.46721718053E+03  0.48910114969E+03  0.10566000000E+00 0. -1.
        994    1    1    2    0    0  0.14299478456E+03 -0.21069400157E+02  0.93531556895E+02  0.24279419303E+03  0.17120000000E+03 0.  0.
        998    1    1    2    0    0  0.44863967778E-01 -0.55670967762E+00  0.93925125885E+03  0.93930465728E+03  0.10000000000E+02 0.  0.
</event>
<event>
 5    1  0.1369527E-008  0.3845322E+03  0.7957747E-01  0.3431658E+00
         13   -1    0    0    0    0  0.00000000000E+00  0.00000000000E+00  0.14999999963E+04  0.15000000000E+04  0.10566000000E+00 0.  1.
        994   -1    0    0    0    0 -0.00000000000E+00 -0.00000000000E+00  0.11368683772E-12  0.17120000000E+03  0.17120000000E+03 0.  0.
         13    1    1    2    0    0  0.34826633333E+02  0.28338580734E+02  0.53484965220E+02  0.69832816183E+02  0.10566000000E+00 0.  1.
        994    1    1    2    0    0 -0.15738134286E+02  0.60195626130E+02  0.33247012305E+02  0.18516480795E+03  0.17120000000E+03 0.  0.
        998    1    1    2    0    0 -0.19088499047E+02 -0.88534206864E+02  0.14132680188E+04  0.14162023759E+04  0.10000000000E+02 0.  1.
</event>
<event>
 5    1  0.1369527E-008  0.3848959E+03  0.7957747E-01  0.3430114E+00
         13   -1    0    0    0    0  0.00000000000E+00  0.00000000000E+00  0.14999999963E+04  0.15000000000E+04  0.10566000000E+00 0.  1.
        994   -1    0    0    0    0 -0.00000000000E+00 -0.00000000000E+00  0.11368683772E-12  0.17120000000E+03  0.17120000000E+03 0.  0.
         13    1    1    2    0    0 -0.12590923775E+02 -0.14706380392E+02  0.11594477795E+03  0.11755003906E+03  0.10566000000E+00 0.  1.
        994    1    1    2    0    0  0.93268114420E+01  0.19471849961E+01  0.19805460246E+01  0.17147636427E+03  0.17120000000E+03 0.  0.
        998    1    1    2    0    0  0.32641123332E+01  0.12759195396E+02  0.13820746723E+04  0.13821735967E+04  0.10000000000E+02 0.  1.
</event>
<event>
 5    1  0.1369527E-008  0.3804887E+03  0.7957747E-01  0.3449033E+00
         13   -1    0    0    0    0  0.00000000000E+00  0.00000000000E+00  0.14999999963E+04  0.15000000000E+04  0.10566000000E+00 0.  1.
        994   -1    0    0    0    0 -0.00000000000E+00 -0.00000000000E+00  0.11368683772E-12  0.17120000000E+03  0.17120000000E+03 0.  0.
         13    1    1    2    0    0  0.22816069812E+02 -0.26447115065E+02  0.14335484324E+03  0.14754878916E+03  0.10566000000E+00 0.  1.
        994    1    1    2    0    0 -0.17109148215E+02  0.29798582865E+02  0.78372385121E+01  0.17478999056E+03  0.17120000000E+03 0.  0.
        998    1    1    2    0    0 -0.57069215974E+01 -0.33514678005E+01  0.13488079145E+04  0.13488612203E+04  0.10000000000E+02 0.  1.
</event>
<event>
 5    1  0.1369527E-008  0.3851669E+03  0.7957747E-01  0.3428965E+00
         13   -1    0    0    0    0  0.00000000000E+00  0.00000000000E+00  0.14999999963E+04  0.15000000000E+04  0.10566000000E+00 0. -1.
        994   -1    0    0    0    0 -0.00000000000E+00 -0.00000000000E+00  0.11368683772E-12  0.17120000000E+03  0.17120000000E+03 0.  0.
         13    1    1    2    0    0  0.19114205745E+02  0.47189709126E+01  0.11759313628E+03  0.11922993924E+03  0.10566000000E+00 0. -1.
        994    1    1    2    0    0 -0.20212502646E+02 -0.10549555340E+01  0.28949314926E+01  0.17241658512E+03  0.17120000000E+03 0.  0.
        998    1    1    2    0    0  0.10982969014E+01 -0.36640153786E+01  0.13795119285E+04  0.13795534756E+04  0.10000000000E+02 0.  0.
</event>
<event>
 5    1  0.1369527E-008  0.3847514E+03  0.7957747E-01  0.3430727E+00
         13   -1    0    0    0    0  0.00000000000E+00  0.00000000000E+00  0.14999999963E+04  0.15000000000E+04  0.10566000000E+00 0. -1.
        994   -1    0    0    0    0 -0.00000000000E+00 -0.00000000000E+00  0.11368683772E-12  0.17120000000E+03  0.17120000000E+03 0.  0.
         13    1    1    2    0    0  0.19871560004E+02  0.17981035278E+01  0.10534150474E+03  0.10721453193E+03  0.10566000000E+00 0. -1.
        994    1    1    2    0    0 -0.21981107738E+02 -0.32973159710E+01  0.33813272950E+01  0.17266995907E+03  0.17120000000E+03 0.  0.
        998    1    1    2    0    0  0.21095477344E+01  0.14992124433E+01  0.13912771642E+04  0.13913155090E+04  0.10000000000E+02 0. -1.
</event>
<event>
 5    1  0.1369527E-008  0.3820828E+03  0.7957747E-01  0.3442140E+00
         13   -1    0    0    0    0  0.00000000000E+00  0.00000000000E+00  0.14999999963E+04  0.15000000000E+04  0.10566000000E+00 0.  1.
        994   -1    0    0    0    0 -0.00000000000E+00 -0.00000000000E+00  0.11368683772E-12  0.17120000000E+03  0.17120000000E+03 0.  0.
         13    1    1    2    0    0  0.33953586123E+02 -0.68373854093E+01  0.17271878943E+03  0.17615727983E+03  0.10566000000E+00 0.  1.
        994    1    1    2    0    0 -0.35063140131E+02  0.34899607757E+01  0.72186406349E+01  0.17493756713E+03  0.17120000000E+03 0.  0.
        998    1    1    2    0    0  0.11095540074E+01  0.33474246336E+01  0.13200625662E+04  0.13201051530E+04  0.10000000000E+02 0.  1.
</event>
<event>
 5    1  0.1369527E-008  0.4103162E+03  0.7957747E-01  0.3328922E+00
         13   -1    0    0    0    0  0.00000000000E+00  0.00000000000E+00  0.14999999963E+04  0.15000000000E+04  0.10566000000E+00 0.  1.
        994   -1    0    0    0    0 -0.00000000000E+00 -0.00000000000E+00  0.11368683772E-12  0.17120000000E+03  0.17120000000E+03 0.  0.
         13    1    1    2    0    0  0.19683493420E+00  0.81913315349E+02  0.12192282742E+03  0.14688436604E+03  0.10566000000E+00 0.  1.
        994    1    1    2    0    0  0.55577543359E+01  0.54913430446E+02  0.46651890763E+02  0.18582844881E+03  0.17120000000E+03 0.  0.
        998    1    1    2    0    0 -0.57545892701E+01 -0.13682674580E+03  0.13314252781E+04  0.13384871852E+04  0.10000000000E+02 0.  1.
</event>
<event>
 5    1  0.1369527E-008  0.3823375E+03  0.7957747E-01  0.3441043E+00
         13   -1    0    0    0    0  0.00000000000E+00  0.00000000000E+00  0.14999999963E+04  0.15000000000E+04  0.10566000000E+00 0. -1.
        994   -1    0    0    0    0 -0.00000000000E+00 -0.00000000000E+00  0.11368683772E-12  0.17120000000E+03  0.17120000000E+03 0.  0.
         13    1    1    2    0    0  0.16626715230E+02 -0.20438893786E+01  0.48226939114E+02  0.51053638102E+02  0.10566000000E+00 0. -1.
        994    1    1    2    0    0 -0.18783845421E+01  0.30468751312E+01  0.30003146407E+01  0.17126369628E+03  0.17120000000E+03 0.  0.
        998    1    1    2    0    0 -0.14748330688E+02 -0.10029857526E+01  0.14487727425E+04  0.14488826656E+04  0.10000000000E+02 0. -1.
</event>
<event>
 5    1  0.1369527E-008  0.3734159E+03  0.7957747E-01  0.3480338E+00
         13   -1    0    0    0    0  0.00000000000E+00  0.00000000000E+00  0.14999999963E+04  0.15000000000E+04  0.10566000000E+00 0. -1.
        994   -1    0    0    0    0 -0.00000000000E+00 -0.00000000000E+00  0.11368683772E-12  0.17120000000E+03  0.17120000000E+03 0.  0.
         13    1    1    2    0    0  0.22575281998E+02  0.12820160265E+02  0.42778684506E+02  0.50040252583E+02  0.10566000000E+00 0. -1.
        994    1    1    2    0    0 -0.12627263725E+02 -0.65862798265E-01  0.80395428926E+01  0.17185321172E+03  0.17120000000E+03 0.  0.
        998    1    1    2    0    0 -0.99480182731E+01 -0.12754297466E+02  0.14491817689E+04  0.14493065357E+04  0.10000000000E+02 0. -1.
</event>
<event>
 5    1  0.1369527E-008  0.3684937E+03  0.7957747E-01  0.3502842E+00
         13   -1    0    0    0    0  0.00000000000E+00  0.00000000000E+00  0.14999999963E+04  0.15000000000E+04  0.10566000000E+00 0. -1.
        994   -1    0    0    0    0 -0.00000000000E+00 -0.00000000000E+00  0.11368683772E-12  0.17120000000E+03  0.17120000000E+03 0.  0.
         13    1    1    2    0    0  0.92159101686E+02  0.12233584079E+02  0.40187526545E+03  0.41248842499E+03  0.10566000000E+00 0. -1.
        994    1    1    2    0    0 -0.63796479146E+02  0.15684123196E+02  0.25308228466E+02  0.18511058560E+03  0.17120000000E+03 0.  0.
        998    1    1    2    0    0 -0.28362622540E+02 -0.27917707274E+02  0.10728165024E+04  0.10736009894E+04  0.10000000000E+02 0. -1.
</event>
<event>
 5    1  0.1369527E-008  0.3865759E+03  0.7957747E-01  0.3423016E+00
         13   -1    0    0    0    0  0.00000000000E+00  0.00000000000E+00  0.14999999963E+04  0.15000000000E+04  0.10566000000E+00 0.  1.
        994   -1    0    0    0    0 -0.00000000000E+00 -0.00000000000E+00  0.11368683772E-12  0.17120000000E+03  0.17120000000E+03 0.  0.
         13    1    1    2    0    0 -0.12944936537E+02 -0.20536163761E+03  0.11301931858E+04  0.11487722237E+04  0.10566000000E+00 0.  1.
        994    1    1    2    0    0  0.12612487583E+02  0.22185176056E+03  0.18366711630E+03  0.33529140776E+03  0.17120000000E+03 0.  0.
        998    1    1    2    0    0  0.33244895411E+00 -0.16490122954E+02  0.18613969418E+03  0.18713636853E+03  0.10000000000E+02 0.  1.
</event>
<event>
 5    1  0.1369527E-008  0.3796528E+03  0.7957747E-01  0.3452672E+00
         13   -1    0    0    0    0  0.00000000000E+00  0.00000000000E+00  0.14999999963E+04  0.15000000000E+04  0.10566000000E+00 0.  1.
        994   -1    0    0    0    0 -0.00000000000E+00 -0.00000000000E+00  0.11368683772E-12  0.17120000000E+03  0.17120000000E+03 0.  0.
         13    1    1    2    0    0 -0.12683961100E+01 -0.12874008666E+02  0.17422824811E+02  0.21700574099E+02  0.10566000000E+00 0.  1.
        994    1    1    2    0    0  0.18501302281E+01  0.12802822742E+02  0.48687347803E+01  0.17175703721E+03  0.17120000000E+03 0.  0.
        998    1    1    2    0    0 -0.58173411807E+00  0.71185924041E-01  0.14777084367E+04  0.14777423887E+04  0.10000000000E+02 0.  1.
</event>
<event>
 5    1  0.1369527E-008  0.3781616E+03  0.7957747E-01  0.3459203E+00
         13   -1    0    0    0    0  0.00000000000E+00  0.00000000000E+00  0.14999999963E+04  0.15000000000E+04  0.10566000000E+00 0. -1.
        994   -1    0    0    0    0 -0.00000000000E+00 -0.00000000000E+00  0.11368683772E-12  0.17120000000E+03  0.17120000000E+03 0.  0.
         13    1    1    2    0    0  0.97266720997E+01 -0.54057175699E+01  0.99027239923E+01  0.14896477405E+02  0.10566000000E+00 0. -1.
        994    1    1    2    0    0 -0.10187292098E+02  0.33826703582E+01  0.54516731883E+01  0.17162279604E+03  0.17120000000E+03 0.  0.
        998    1    1    2    0    0  0.46061999790E+00  0.20230472117E+01  0.14846455991E+04  0.14846807266E+04  0.10000000000E+02 0. -1.
</event>
<event>
 5    1  0.1369527E-008  0.3690333E+03  0.7957747E-01  0.3500345E+00
         13   -1    0    0    0    0  0.00000000000E+00  0.00000000000E+00  0.14999999963E+04  0.15000000000E+04  0.10566000000E+00 0. -1.
        994   -1    0    0    0    0 -0.00000000000E+00 -0.00000000000E+00  0.11368683772E-12  0.17120000000E+03  0.17120000000E+03 0.  0.
         13    1    1    2    0    0 -0.53467539730E+01 -0.73589678883E+02  0.28597206874E+03  0.29533720368E+03  0.10566000000E+00 0. -1.
        994    1    1    2    0    0  0.23361911412E+02  0.35617161887E+02  0.16096061734E+02  0.17715215022E+03  0.17120000000E+03 0.  0.
        998    1    1    2    0    0 -0.18015157439E+02  0.37972516996E+02  0.11979318658E+04  0.11987106461E+04  0.10000000000E+02 0. -1.
</event>
<event>
 5    1  0.1369527E-008  0.3783812E+03  0.7957747E-01  0.3458238E+00
         13   -1    0    0    0    0  0.00000000000E+00  0.00000000000E+00  0.14999999963E+04  0.15000000000E+04  0.10566000000E+00 0. -1.
        994   -1    0    0    0    0 -0.00000000000E+00 -0.00000000000E+00  0.11368683772E-12  0.17120000000E+03  0.17120000000E+03 0.  0.
         13    1    1    2    0    0  0.72491035754E+02 -0.35913732211E+02  0.44783840529E+03  0.45508679924E+03  0.10566000000E+00 0. -1.
        994    1    1    2    0    0 -0.75794073743E+02  0.34402651480E+02  0.28602598895E+02  0.19249891612E+03  0.17120000000E+03 0.  0.
        998    1    1    2    0    0  0.33030379893E+01  0.15110807305E+01  0.10235589921E+04  0.10236142846E+04  0.10000000000E+02 0.  0.
</event>
<event>
 5    1  0.1369527E-008  0.3712282E+03  0.7957747E-01  0.3490265E+00
         13   -1    0    0    0    0  0.00000000000E+00  0.00000000000E+00  0.14999999963E+04  0.15000000000E+04  0.10566000000E+00 0.  1.
        994   -1    0    0    0    0 -0.00000000000E+00 -0.00000000000E+00  0.11368683772E-12  0.17120000000E+03  0.17120000000E+03 0.  0.
         13    1    1    2    0    0 -0.12004448453E+02 -0.21207159688E+02  0.20260889311E+02  0.31691721386E+02  0.10566000000E+00 0.  1.
        994    1    1    2    0    0  0.14631815037E+02  0.23180660219E+02  0.14232527910E+02  0.17396389818E+03  0.17120000000E+03 0.  0.
        998    1    1    2    0    0 -0.26273665839E+01 -0.19735005316E+01  0.14655065791E+04  0.14655443804E+04  0.10000000000E+02 0.  1.
</event>
<event>
 5    1  0.1369527E-008  0.3819593E+03  0.7957747E-01  0.3442671E+00
         13   -1    0    0    0    0  0.00000000000E+00  0.00000000000E+00  0.14999999963E+04  0.15000000000E+04  0.10566000000E+00 0.  1.
        994   -1    0    0    0    0 -0.00000000000E+00 -0.00000000000E+00  0.11368683772E-12  0.17120000000E+03  0.17120000000E+03 0.  0.
         13    1    1    2    0    0 -0.26108293370E+02 -0.89549494286E+01  0.12851725651E+03  0.13144782420E+03  0.10566000000E+00 0.  1.
        994    1    1    2    0    0  0.79024476782E+01 -0.33403582217E+01  0.33918749454E+01  0.17144839308E+03  0.17120000000E+03 0.  0.
        998    1    1    2    0    0  0.18205845692E+02  0.12295307650E+02  0.13680908648E+04  0.13683037827E+04  0.10000000000E+02 0.  1.
</event>
<event>
 5    1  0.1369527E-008  0.3823068E+03  0.7957747E-01  0.3441175E+00
         13   -1    0    0    0    0  0.00000000000E+00  0.00000000000E+00  0.14999999963E+04  0.15000000000E+04  0.10566000000E+00 0.  1.
        994   -1    0    0    0    0 -0.00000000000E+00 -0.00000000000E+00  0.11368683772E-12  0.17120000000E+03  0.17120000000E+03 0.  0.
         13    1    1    2    0    0 -0.13180540661E+02  0.84617711902E+00  0.28185516201E+02  0.31126791601E+02  0.10566000000E+00 0.  1.
        994    1    1    2    0    0  0.92813860331E+01 -0.71531936011E+01  0.34288575855E+01  0.17163481398E+03  0.17120000000E+03 0.  0.
        998    1    1    2    0    0  0.38991546277E+01  0.63070164820E+01  0.14683856225E+04  0.14684383944E+04  0.10000000000E+02 0.  1.
</event>
<event>
 5    1  0.1369527E-008  0.3861787E+03  0.7957747E-01  0.3424689E+00
         13   -1    0    0    0    0  0.00000000000E+00  0.00000000000E+00  0.14999999963E+04  0.15000000000E+04  0.10566000000E+00 0.  1.
        994   -1    0    0    0    0 -0.00000000000E+00 -0.00000000000E+00  0.11368683772E-12  0.17120000000E+03  0.17120000000E+03 0.  0.
         13    1    1    2    0    0 -0.20144020488E+01  0.10596366346E+02  0.48233498708E+02  0.49424916359E+02  0.10566000000E+00 0.  1.
        994    1    1    2    0    0 -0.42464136985E+01 -0.32653230435E+02  0.46063301793E+01  0.17439874932E+03  0.17120000000E+03 0.  0.
        998    1    1    2    0    0  0.62608157473E+01  0.22056864089E+02  0.14471601674E+04  0.14473763343E+04  0.10000000000E+02 0.  1.
</event>
<event>
 5    1  0.1369527E-008  0.3787948E+03  0.7957747E-01  0.3456423E+00
         13   -1    0    0    0    0  0.00000000000E+00  0.00000000000E+00  0.14999999963E+04  0.15000000000E+04  0.10566000000E+00 0. -1.
        994   -1    0    0    0    0 -0.00000000000E+00 -0.00000000000E+00  0.11368683772E-12  0.17120000000E+03  0.17120000000E+03 0.  0.
         13    1    1    2    0    0 -0.16425265519E+02 -0.24504402210E+02  0.21012526375E+02  0.36218676173E+02  0.10566000000E+00 0. -1.
        994    1    1    2    0    0  0.16735883547E+02  0.22443907791E+02  0.18499579156E+02  0.17445771185E+03  0.17120000000E+03 0.  0.
        998    1    1    2    0    0 -0.31061802790E+00  0.20604944190E+01  0.14604878907E+04  0.14605236120E+04  0.10000000000E+02 0. -1.
</event>
<event>
 5    1  0.1369527E-008  0.3732105E+03  0.7957747E-01  0.3481265E+00
         13   -1    0    0    0    0  0.00000000000E+00  0.00000000000E+00  0.14999999963E+04  0.15000000000E+04  0.10566000000E+00 0. -1.
        994   -1    0    0    0    0 -0.00000000000E+00 -0.00000000000E+00  0.11368683772E-12  0.17120000000E+03  0.17120000000E+03 0.  0.
         13    1    1    2    0    0 -0.53565486445E+01 -0.13235016350E+02  0.99854814754E+01  0.17423526495E+02  0.10566000000E+00 0. -1.
        994    1    1    2    0    0  0.53241673455E+00  0.11747528626E+02  0.80736000944E+01  0.17179322139E+03  0.17120000000E+03 0.  0.
        998    1    1    2    0    0  0.48241319100E+01  0.14874877243E+01  0.14819409147E+04  0.14819832521E+04  0.10000000000E+02 0. -1.
</event>
<event>
 5    1  0.1369527E-008  0.3809721E+03  0.7957747E-01  0.3446937E+00
         13   -1    0    0    0    0  0.00000000000E+00  0.00000000000E+00  0.14999999963E+04  0.15000000000E+04  0.10566000000E+00 0.  1.
        994   -1    0    0    0    0 -0.00000000000E+00 -0.00000000000E+00  0.11368683772E-12  0.17120000000E+03  0.17120000000E+03 0.  0.
         13    1    1    2    0    0  0.18061508614E+02 -0.41046396568E+01  0.45570295854E+02  0.49190742913E+02  0.10566000000E+00 0.  1.
        994    1    1    2    0    0 -0.11297988641E+02  0.10164040539E+02  0.44131951816E+01  0.17192983615E+03  0.17120000000E+03 0.  0.
        998    1    1    2    0    0 -0.67635199725E+01 -0.60594008825E+01  0.14500165052E+04  0.14500794209E+04  0.10000000000E+02 0.  1.
</event>
<event>
 5    1  0.1369527E-008  0.3848378E+03  0.7957747E-01  0.3430361E+00
         13   -1    0    0    0    0  0.00000000000E+00  0.00000000000E+00  0.14999999963E+04  0.15000000000E+04  0.10566000000E+00 0. -1.
        994   -1    0    0    0    0 -0.00000000000E+00 -0.00000000000E+00  0.11368683772E-12  0.17120000000E+03  0.17120000000E+03 0.  0.
         13    1    1    2    0    0  0.10223091639E+02  0.13037764071E+02  0.79231650681E+02  0.80945416970E+02  0.10566000000E+00 0. -1.
        994    1    1    2    0    0 -0.71593406191E+01 -0.10270711072E+02  0.22266262705E+01  0.17167160956E+03  0.17120000000E+03 0.  0.
        998    1    1    2    0    0 -0.30637510203E+01 -0.27670529996E+01  0.14185417193E+04  0.14185829735E+04  0.10000000000E+02 0. -1.
</event>
<event>
 5    1  0.1369527E-008  0.3858799E+03  0.7957747E-01  0.3425949E+00
         13   -1    0    0    0    0  0.00000000000E+00  0.00000000000E+00  0.14999999963E+04  0.15000000000E+04  0.10566000000E+00 0. -1.
        994   -1    0    0    0    0 -0.00000000000E+00 -0.00000000000E+00  0.11368683772E-12  0.17120000000E+03  0.17120000000E+03 0.  0.
         13    1    1    2    0    0  0.12760080657E+02  0.41034345181E+01  0.68750549127E+02  0.70045035530E+02  0.10566000000E+00 0. -1.
        994    1    1    2    0    0 -0.20649977258E+02 -0.87299847139E+01  0.28439211465E+01  0.17268515304E+03  0.17120000000E+03 0.  0.
        998    1    1    2    0    0  0.78898966014E+01  0.46265501958E+01  0.14284055260E+04  0.14284698114E+04  0.10000000000E+02 0. -1.
</event>
<event>
 5    1  0.1369527E-008  0.3807891E+03  0.7957747E-01  0.3447730E+00
         13   -1    0    0    0    0  0.00000000000E+00  0.00000000000E+00  0.14999999963E+04  0.15000000000E+04  0.10566000000E+00 0. -1.
        994   -1    0    0    0    0 -0.00000000000E+00 -0.00000000000E+00  0.11368683772E-12  0.17120000000E+03  0.17120000000E+03 0.  0.
         13    1    1    2    0    0 -0.18241394654E+02  0.24446301959E+00  0.43985745500E+02  0.47618958539E+02  0.10566000000E+00 0. -1.
        994    1    1    2    0    0  0.69869149958E+01  0.27472064370E-01  0.38981309000E+01  0.17138685236E+03  0.17120000000E+03 0.  0.
        998    1    1    2    0    0  0.11254479658E+02 -0.27193508396E+00  0.14521161199E+04  0.14521941891E+04  0.10000000000E+02 0. -1.
</event>
<event>
 5    1  0.2221714E-008  0.3848903E+03  0.7957747E-01  0.3430138E+00
         13   -1    0    0    0    0  0.00000000000E+00  0.00000000000E+00  0.14999999963E+04  0.15000000000E+04  0.10566000000E+00 0.  1.
        994   -1    0    0    0    0 -0.00000000000E+00 -0.00000000000E+00  0.11368683772E-12  0.17120000000E+03  0.17120000000E+03 0.  0.
         13    1    1    2    0    0  0.13060006518E+02 -0.17400587667E+01  0.50037035994E+02  0.51742706828E+02  0.10566000000E+00 0.  1.
        994    1    1    2    0    0 -0.13981553935E+02 -0.58976551207E+00  0.23291505070E+01  0.17178677660E+03  0.17120000000E+03 0.  0.
        998    1    1    2    0    0  0.92154741772E+00  0.23298242787E+01  0.14476338098E+04  0.14476705166E+04  0.10000000000E+02 0.  1.
</event>
<event>
 5    1  0.1369527E-008  0.3828148E+03  0.7957747E-01  0.3438993E+00
         13   -1    0    0    0    0  0.00000000000E+00  0.00000000000E+00  0.14999999963E+04  0.15000000000E+04  0.10566000000E+00 0.  1.
        994   -1    0    0    0    0 -0.00000000000E+00 -0.00000000000E+00  0.11368683772E-12  0.17120000000E+03  0.17120000000E+03 0.  0.
         13    1    1    2    0    0 -0.18179675626E+02 -0.18225152115E+01  0.64088420610E+02  0.66642021187E+02  0.10566000000E+00 0.  1.
        994    1    1    2    0    0  0.91778011703E+00 -0.31035404058E+01  0.27536277190E+01  0.17125272771E+03  0.17120000000E+03 0.  0.
        998    1    1    2    0    0  0.17261895509E+02  0.49260556173E+01  0.14331579479E+04  0.14333052511E+04  0.10000000000E+02 0.  1.
</event>
<event>
 5    1  0.1369527E-008  0.3833165E+03  0.7957747E-01  0.3436844E+00
         13   -1    0    0    0    0  0.00000000000E+00  0.00000000000E+00  0.14999999963E+04  0.15000000000E+04  0.10566000000E+00 0.  1.
        994   -1    0    0    0    0 -0.00000000000E+00 -0.00000000000E+00  0.11368683772E-12  0.17120000000E+03  0.17120000000E+03 0.  0.
         13    1    1    2    0    0 -0.18520350218E+02  0.15045994048E+00  0.72994307597E+02  0.75307410764E+02  0.10566000000E+00 0.  1.
        994    1    1    2    0    0  0.14133785314E+01  0.20329649677E+01  0.24885720047E+01  0.17123598797E+03  0.17120000000E+03 0.  0.
        998    1    1    2    0    0  0.17106971687E+02 -0.21834249082E+01  0.14245171167E+04  0.14246566013E+04  0.10000000000E+02 0.  1.
</event>
<event>
 5    1  0.1369527E-008  0.3762084E+03  0.7957747E-01  0.3467836E+00
         13   -1    0    0    0    0  0.00000000000E+00  0.00000000000E+00  0.14999999963E+04  0.15000000000E+04  0.10566000000E+00 0. -1.
        994   -1    0    0    0    0 -0.00000000000E+00 -0.00000000000E+00  0.11368683772E-12  0.17120000000E+03  0.17120000000E+03 0.  0.
         13    1    1    2    0    0 -0.48538643327E+02  0.39603922814E+02  0.25357688869E+03  0.26120053645E+03  0.10566000000E+00 0. -1.
        994    1    1    2    0    0  0.56944120905E+02 -0.41546364706E+02  0.23070434654E+02  0.18657550290E+03  0.17120000000E+03 0.  0.
        998    1    1    2    0    0 -0.84054775788E+01  0.19424418915E+01  0.12233526729E+04  0.12234239607E+04  0.10000000000E+02 0. -1.
</event>
<event>
 5    1  0.1369527E-008  0.3764753E+03  0.7957747E-01  0.3466651E+00
         13   -1    0    0    0    0  0.00000000000E+00  0.00000000000E+00  0.14999999963E+04  0.15000000000E+04  0.10566000000E+00 0. -1.
        994   -1    0    0    0    0 -0.00000000000E+00 -0.00000000000E+00  0.11368683772E-12  0.17120000000E+03  0.17120000000E+03 0.  0.
         13    1    1    2    0    0  0.53348358272E+01 -0.16809550402E+02  0.23520870342E+02  0.29398366684E+02  0.10566000000E+00 0. -1.
        994    1    1    2    0    0 -0.48664458604E+01  0.15502500201E+02  0.68165420375E+01  0.17210437256E+03  0.17120000000E+03 0.  0.
        998    1    1    2    0    0 -0.46838996681E+00  0.13070502007E+01  0.14696625839E+04  0.14696972608E+04  0.10000000000E+02 0. -1.
</event>
<event>
 5    1  0.1369527E-008  0.3150570E+03  0.7957747E-01  0.3794063E+00
         13   -1    0    0    0    0  0.00000000000E+00  0.00000000000E+00  0.14999999963E+04  0.15000000000E+04  0.10566000000E+00 0.  1.
        994   -1    0    0    0    0 -0.00000000000E+00 -0.00000000000E+00  0.11368683772E-12  0.17120000000E+03  0.17120000000E+03 0.  0.
         13    1    1    2    0    0 -0.39089436601E+02  0.27746488091E+03  0.95056284562E+03  0.99100175521E+03  0.10566000000E+00 0.  1.
        994    1    1    2    0    0  0.39972030986E+02 -0.14131883838E+03  0.18731441136E+03  0.29319772517E+03  0.17120000000E+03 0.  0.
        998    1    1    2    0    0 -0.88259438485E+00 -0.13614604253E+03  0.36212273931E+03  0.38700051963E+03  0.10000000000E+02 0.  1.
</event>
<event>
 5    1  0.1369527E-008  0.3978187E+03  0.7957747E-01  0.3377062E+00
         13   -1    0    0    0    0  0.00000000000E+00  0.00000000000E+00  0.14999999963E+04  0.15000000000E+04  0.10566000000E+00 0. -1.
        994   -1    0    0    0    0 -0.00000000000E+00 -0.00000000000E+00  0.11368683772E-12  0.17120000000E+03  0.17120000000E+03 0.  0.
         13    1    1    2    0    0 -0.95657904960E+02  0.93695463851E+02  0.27703498116E+03  0.30769736216E+03  0.10566000000E+00 0. -1.
        994    1    1    2    0    0  0.23861710654E+02 -0.15191806501E+03  0.12553128326E+03  0.26213741203E+03  0.17120000000E+03 0.  0.
        998    1    1    2    0    0  0.71796194306E+02  0.58222601156E+02  0.10974337319E+04  0.11013652258E+04  0.10000000000E+02 0. -1.
</event>
<event>
 5    1  0.1369527E-008  0.3763539E+03  0.7957747E-01  0.3467190E+00
         13   -1    0    0    0    0  0.00000000000E+00  0.00000000000E+00  0.14999999963E+04  0.15000000000E+04  0.10566000000E+00 0.  1.
        994   -1    0    0    0    0 -0.00000000000E+00 -0.00000000000E+00  0.11368683772E-12  0.17120000000E+03  0.17120000000E+03 0.  0.
         13    1    1    2    0    0  0.87920512725E+01 -0.25303062040E+02  0.55362965877E+02  0.61502961464E+02  0.10566000000E+00 0.  1.
        994    1    1    2    0    0 -0.51665164043E+01  0.29127958690E+02  0.89520449953E+01  0.17396755439E+03  0.17120000000E+03 0.  0.
        998    1    1    2    0    0 -0.36255348681E+01 -0.38248966504E+01  0.14356849854E+04  0.14357294842E+04  0.10000000000E+02 0.  1.
</event>
<event>
 5    1  0.1369527E-008  0.3720081E+03  0.7957747E-01  0.3486713E+00
         13   -1    0    0    0    0  0.00000000000E+00  0.00000000000E+00  0.14999999963E+04  0.15000000000E+04  0.10566000000E+00 0. -1.
        994   -1    0    0    0    0 -0.00000000000E+00 -0.00000000000E+00  0.11368683772E-12  0.17120000000E+03  0.17120000000E+03 0.  0.
         13    1    1    2    0    0 -0.14997418666E+02  0.14117915105E+03  0.51463538913E+03  0.53385959780E+03  0.10566000000E+00 0. -1.
        994    1    1    2    0    0  0.48215263860E+01 -0.14271096537E+03  0.87702855946E+02  0.23956397412E+03  0.17120000000E+03 0.  0.
        998    1    1    2    0    0  0.10175892280E+02  0.15318143261E+01  0.89766175121E+03  0.89777642808E+03  0.10000000000E+02 0.  1.
</event>
<event>
 5    1  0.1369527E-008  0.3847655E+03  0.7957747E-01  0.3430667E+00
         13   -1    0    0    0    0  0.00000000000E+00  0.00000000000E+00  0.14999999963E+04  0.15000000000E+04  0.10566000000E+00 0. -1.
        994   -1    0    0    0    0 -0.00000000000E+00 -0.00000000000E+00  0.11368683772E-12  0.17120000000E+03  0.17120000000E+03 0.  0.
         13    1    1    2    0    0  0.42118909103E+01 -0.16065642036E+02  0.74099179038E+02  0.75937766475E+02  0.10566000000E+00 0. -1.
        994    1    1    2    0    0 -0.16874134165E+02  0.16912927770E+02  0.36273783779E+01  0.17289702543E+03  0.17120000000E+03 0.  0.
        998    1    1    2    0    0  0.12662243255E+02 -0.84728573403E+00  0.14222734389E+04  0.14223652081E+04  0.10000000000E+02 0. -1.
</event>
<event>
 5    1  0.1369527E-008  0.4081445E+03  0.7957747E-01  0.3337077E+00
         13   -1    0    0    0    0  0.00000000000E+00  0.00000000000E+00  0.14999999963E+04  0.15000000000E+04  0.10566000000E+00 0. -1.
        994   -1    0    0    0    0 -0.00000000000E+00 -0.00000000000E+00  0.11368683772E-12  0.17120000000E+03  0.17120000000E+03 0.  0.
         13    1    1    2    0    0 -0.15488594624E+01 -0.14620146369E+02 -0.11309218356E+02  0.18548779726E+02  0.10566000000E+00 0. -1.
        994    1    1    2    0    0 -0.85614045974E+01  0.27292865018E+02  0.36060363048E+02  0.17727940634E+03  0.17120000000E+03 0.  0.
        998    1    1    2    0    0  0.10110264060E+02 -0.12672718649E+02  0.14752488516E+04  0.14753718139E+04  0.10000000000E+02 0. -1.
</event>
<event>
 5    1  0.1369527E-008  0.3842424E+03  0.7957747E-01  0.3432892E+00
         13   -1    0    0    0    0  0.00000000000E+00  0.00000000000E+00  0.14999999963E+04  0.15000000000E+04  0.10566000000E+00 0. -1.
        994   -1    0    0    0    0 -0.00000000000E+00 -0.00000000000E+00  0.11368683772E-12  0.17120000000E+03  0.17120000000E+03 0.  0.
         13    1    1    2    0    0  0.15894984062E+01 -0.20838503789E+02  0.10952481244E+03  0.11150096614E+03  0.10566000000E+00 0. -1.
        994    1    1    2    0    0  0.18505736148E+01  0.11984308344E+02  0.24916882178E+01  0.17164701215E+03  0.17120000000E+03 0.  0.
        998    1    1    2    0    0 -0.34400720210E+01  0.88541954444E+01  0.13879834956E+04  0.13880520217E+04  0.10000000000E+02 0.  0.
</event>
<event>
 5    1  0.1369527E-008  0.3743890E+03  0.7957747E-01  0.3475960E+00
         13   -1    0    0    0    0  0.00000000000E+00  0.00000000000E+00  0.14999999963E+04  0.15000000000E+04  0.10566000000E+00 0. -1.
        994   -1    0    0    0    0 -0.00000000000E+00 -0.00000000000E+00  0.11368683772E-12  0.17120000000E+03  0.17120000000E+03 0.  0.
         13    1    1    2    0    0 -0.34541594863E+02  0.26563998946E+02  0.14974267665E+03  0.15595399382E+03  0.10566000000E+00 0. -1.
        994    1    1    2    0    0  0.26252661517E+02  0.27039963829E+02  0.11846280968E+02  0.17569899332E+03  0.17120000000E+03 0.  0.
        998    1    1    2    0    0  0.82889333462E+01 -0.53603962776E+02  0.13384110387E+04  0.13395470129E+04  0.10000000000E+02 0. -1.
</event>
<event>
 5    1  0.1369527E-008  0.3831364E+03  0.7957747E-01  0.3437615E+00
         13   -1    0    0    0    0  0.00000000000E+00  0.00000000000E+00  0.14999999963E+04  0.15000000000E+04  0.10566000000E+00 0. -1.
        994   -1    0    0    0    0 -0.00000000000E+00 -0.00000000000E+00  0.11368683772E-12  0.17120000000E+03  0.17120000000E+03 0.  0.
         13    1    1    2    0    0  0.84569363627E+01  0.26403939258E+02  0.14107434154E+03  0.14377297655E+03  0.10566000000E+00 0. -1.
        994    1    1    2    0    0 -0.39128616660E+02 -0.14756952950E+02  0.83660771287E+01  0.17643199128E+03  0.17120000000E+03 0.  0.
        998    1    1    2    0    0  0.30671680298E+02 -0.11646986308E+02  0.13505595776E+04  0.13509950322E+04  0.10000000000E+02 0. -1.
</event>
<event>
 5    1  0.1369527E-008  0.3777384E+03  0.7957747E-01  0.3461066E+00
         13   -1    0    0    0    0  0.00000000000E+00  0.00000000000E+00  0.14999999963E+04  0.15000000000E+04  0.10566000000E+00 0. -1.
        994   -1    0    0    0    0 -0.00000000000E+00 -0.00000000000E+00  0.11368683772E-12  0.17120000000E+03  0.17120000000E+03 0.  0.
         13    1    1    2    0    0 -0.26873536904E+02 -0.23326899660E+02  0.11902396594E+03  0.12422981472E+03  0.10566000000E+00 0. -1.
        994    1    1    2    0    0  0.96104900411E+01  0.19189294515E+02  0.68320376685E+01  0.17267514958E+03  0.17120000000E+03 0.  0.
        998    1    1    2    0    0  0.17263046863E+02  0.41376051446E+01  0.13741439927E+04  0.13742950357E+04  0.10000000000E+02 0. -1.
</event>
<event>
 5    1  0.1369527E-008  0.3804926E+03  0.7957747E-01  0.3449016E+00
         13   -1    0    0    0    0  0.00000000000E+00  0.00000000000E+00  0.14999999963E+04  0.15000000000E+04  0.10566000000E+00 0. -1.
        994   -1    0    0    0    0 -0.00000000000E+00 -0.00000000000E+00  0.11368683772E-12  0.17120000000E+03  0.17120000000E+03 0.  0.
         13    1    1    2    0    0 -0.10641358819E+02 -0.23305532819E+02  0.88788812479E+02  0.92411312960E+02  0.10566000000E+00 0. -1.
        994    1    1    2    0    0 -0.57613641399E+01  0.57398051246E+01  0.41054719984E+01  0.17144221645E+03  0.17120000000E+03 0.  0.
        998    1    1    2    0    0  0.16402722959E+02  0.17565727694E+02  0.14071057118E+04  0.14073464706E+04  0.10000000000E+02 0. -1.
</event>
<event>
 5    1  0.1369527E-008  0.3692891E+03  0.7957747E-01  0.3499164E+00
         13   -1    0    0    0    0  0.00000000000E+00  0.00000000000E+00  0.14999999963E+04  0.15000000000E+04  0.10566000000E+00 0.  1.
        994   -1    0    0    0    0 -0.00000000000E+00 -0.00000000000E+00  0.11368683772E-12  0.17120000000E+03  0.17120000000E+03 0.  0.
         13    1    1    2    0    0  0.10109734787E+02 -0.10042776667E+03  0.44106480539E+03  0.45246670239E+03  0.10566000000E+00 0.  1.
        994    1    1    2    0    0 -0.20395160921E+01  0.69011098793E+02  0.27376360330E+02  0.18661617424E+03  0.17120000000E+03 0.  0.
        998    1    1    2    0    0 -0.80702186948E+01  0.31416667875E+02  0.10315588306E+04  0.10321171234E+04  0.10000000000E+02 0.  1.
</event>
<event>
 5    1  0.1369527E-008  0.3735819E+03  0.7957747E-01  0.3479589E+00
         13   -1    0    0    0    0  0.00000000000E+00  0.00000000000E+00  0.14999999963E+04  0.15000000000E+04  0.10566000000E+00 0. -1.
        994   -1    0    0    0    0 -0.00000000000E+00 -0.00000000000E+00  0.11368683772E-12  0.17120000000E+03  0.17120000000E+03 0.  0.
         13    1    1    2    0    0  0.46726440951E+02  0.22485495561E+02  0.19873495767E+03  0.20538878343E+03  0.10566000000E+00 0. -1.
        994    1    1    2    0    0 -0.11500906062E+02 -0.42167894534E+01  0.79214200106E+01  0.17182037437E+03  0.17120000000E+03 0.  0.
        998    1    1    2    0    0 -0.35225534889E+02 -0.18268706108E+02  0.12933436186E+04  0.12939908422E+04  0.10000000000E+02 0. -1.
</event>
<event>
 5    1  0.1369527E-008  0.3810155E+03  0.7957747E-01  0.3446748E+00
         13   -1    0    0    0    0  0.00000000000E+00  0.00000000000E+00  0.14999999963E+04  0.15000000000E+04  0.10566000000E+00 0.  1.
        994   -1    0    0    0    0 -0.00000000000E+00 -0.00000000000E+00  0.11368683772E-12  0.17120000000E+03  0.17120000000E+03 0.  0.
         13    1    1    2    0    0 -0.16821175620E+02 -0.19317866054E+02  0.83322572935E+02  0.87171062989E+02  0.10566000000E+00 0.  1.
        994    1    1    2    0    0  0.58998768734E+01  0.34948368156E+02  0.78180267904E+01  0.17500502429E+03  0.17120000000E+03 0.  0.
        998    1    1    2    0    0  0.10921298746E+02 -0.15630502102E+02  0.14088593966E+04  0.14090239127E+04  0.10000000000E+02 0.  1.
</event>
<event>
 5    1  0.1369527E-008  0.3847982E+03  0.7957747E-01  0.3430529E+00
         13   -1    0    0    0    0  0.00000000000E+00  0.00000000000E+00  0.14999999963E+04  0.15000000000E+04  0.10566000000E+00 0.  1.
        994   -1    0    0    0    0 -0.00000000000E+00 -0.00000000000E+00  0.11368683772E-12  0.17120000000E+03  0.17120000000E+03 0.  0.
         13    1    1    2    0    0 -0.27621617858E+01 -0.11303027972E+02  0.39551282204E+02  0.41227455259E+02  0.10566000000E+00 0.  1.
        994    1    1    2    0    0  0.35212871166E+01  0.37042504891E+01  0.18163389564E+01  0.17128590141E+03  0.17120000000E+03 0.  0.
        998    1    1    2    0    0 -0.75912533074E+00  0.75987774831E+01  0.14586323751E+04  0.14586866433E+04  0.10000000000E+02 0.  1.
</event>
<event>
 5    1  0.1369527E-008  0.3850559E+03  0.7957747E-01  0.3429435E+00
         13   -1    0    0    0    0  0.00000000000E+00  0.00000000000E+00  0.14999999963E+04  0.15000000000E+04  0.10566000000E+00 0.  1.
        994   -1    0    0    0    0 -0.00000000000E+00 -0.00000000000E+00  0.11368683772E-12  0.17120000000E+03  0.17120000000E+03 0.  0.
         13    1    1    2    0    0  0.12103995264E+02 -0.97942039835E+01  0.80779523969E+02  0.82266492509E+02  0.10566000000E+00 0.  1.
        994    1    1    2    0    0  0.60153793797E+00  0.26192403052E+01  0.16261409001E+01  0.17122881359E+03  0.17120000000E+03 0.  0.
        998    1    1    2    0    0 -0.12705533202E+02  0.71749636782E+01  0.14175943314E+04  0.14177046939E+04  0.10000000000E+02 0.  1.
</event>
<event>
 5    1  0.1369527E-008  0.3842596E+03  0.7957747E-01  0.3432819E+00
         13   -1    0    0    0    0  0.00000000000E+00  0.00000000000E+00  0.14999999963E+04  0.15000000000E+04  0.10566000000E+00 0. -1.
        994   -1    0    0    0    0 -0.00000000000E+00 -0.00000000000E+00  0.11368683772E-12  0.17120000000E+03  0.17120000000E+03 0.  0.
         13    1    1    2    0    0 -0.15816991549E+02 -0.87325307459E+01  0.92087052002E+02  0.93842797408E+02  0.10566000000E+00 0. -1.
        994    1    1    2    0    0  0.12080790076E+02 -0.31282703664E+02  0.57141819540E+01  0.17454697051E+03  0.17120000000E+03 0.  0.
        998    1    1    2    0    0  0.37362014731E+01  0.40015234410E+02  0.14021987623E+04  0.14028102321E+04  0.10000000000E+02 0. -1.
</event>
<event>
 5    1  0.1369527E-008  0.3869931E+03  0.7957747E-01  0.3421263E+00
         13   -1    0    0    0    0  0.00000000000E+00  0.00000000000E+00  0.14999999963E+04  0.15000000000E+04  0.10566000000E+00 0.  1.
        994   -1    0    0    0    0 -0.00000000000E+00 -0.00000000000E+00  0.11368683772E-12  0.17120000000E+03  0.17120000000E+03 0.  0.
         13    1    1    2    0    0  0.93707751976E+02  0.49816505690E+02  0.24470564091E+03  0.26672774298E+03  0.10566000000E+00 0.  1.
        994    1    1    2    0    0 -0.75601538427E+02 -0.49143117749E+02  0.51137743977E+02  0.20013782125E+03  0.17120000000E+03 0.  0.
        998    1    1    2    0    0 -0.18106213548E+02 -0.67338794089E+00  0.12041566114E+04  0.12043344358E+04  0.10000000000E+02 0.  1.
</event>
<event>
 5    1  0.1369527E-008  0.3840127E+03  0.7957747E-01  0.3433870E+00
         13   -1    0    0    0    0  0.00000000000E+00  0.00000000000E+00  0.14999999963E+04  0.15000000000E+04  0.10566000000E+00 0.  1.
        994   -1    0    0    0    0 -0.00000000000E+00 -0.00000000000E+00  0.11368683772E-12  0.17120000000E+03  0.17120000000E+03 0.  0.
         13    1    1    2    0    0  0.19459358989E+01  0.17444948959E+02  0.81813507027E+02  0.83675408614E+02  0.10566000000E+00 0.  1.
        994    1    1    2    0    0  0.23896022169E+01  0.79267875393E+01  0.23472975918E+01  0.17141614266E+03  0.17120000000E+03 0.  0.
        998    1    1    2    0    0 -0.43355381158E+01 -0.25371736498E+02  0.14158391917E+04  0.14161084487E+04  0.10000000000E+02 0.  1.
</event>
<event>
 5    1  0.1369527E-008  0.3709276E+03  0.7957747E-01  0.3491639E+00
         13   -1    0    0    0    0  0.00000000000E+00  0.00000000000E+00  0.14999999963E+04  0.15000000000E+04  0.10566000000E+00 0.  1.
        994   -1    0    0    0    0 -0.00000000000E+00 -0.00000000000E+00  0.11368683772E-12  0.17120000000E+03  0.17120000000E+03 0.  0.
         13    1    1    2    0    0 -0.27845973667E+02 -0.33250254565E+02  0.99820438947E+02  0.10883523728E+03  0.10566000000E+00 0.  1.
        994    1    1    2    0    0  0.22074819210E+02  0.30655642530E+02  0.13719591279E+02  0.17585429550E+03  0.17120000000E+03 0.  0.
        998    1    1    2    0    0  0.57711544571E+01  0.25946120348E+01  0.13864599661E+04  0.13865104672E+04  0.10000000000E+02 0.  1.
</event>
<event>
 5    1  0.1369527E-008  0.3777126E+03  0.7957747E-01  0.3461179E+00
         13   -1    0    0    0    0  0.00000000000E+00  0.00000000000E+00  0.14999999963E+04  0.15000000000E+04  0.10566000000E+00 0.  1.
        994   -1    0    0    0    0 -0.00000000000E+00 -0.00000000000E+00  0.11368683772E-12  0.17120000000E+03  0.17120000000E+03 0.  0.
         13    1    1    2    0    0 -0.15892107231E+02  0.48067571468E+02  0.25205995281E+03  0.25709391567E+03  0.10566000000E+00 0.  1.
        994    1    1    2    0    0  0.19959601591E+02 -0.17596388564E+02  0.76808288198E+01  0.17342564319E+03  0.17120000000E+03 0.  0.
        998    1    1    2    0    0 -0.40674943602E+01 -0.30471182904E+02  0.12402592146E+04  0.12406804411E+04  0.10000000000E+02 0.  1.
</event>
<event>
 5    1  0.1369527E-008  0.3710867E+03  0.7957747E-01  0.3490911E+00
         13   -1    0    0    0    0  0.00000000000E+00  0.00000000000E+00  0.14999999963E+04  0.15000000000E+04  0.10566000000E+00 0. -1.
        994   -1    0    0    0    0 -0.00000000000E+00 -0.00000000000E+00  0.11368683772E-12  0.17120000000E+03  0.17120000000E+03 0.  0.
         13    1    1    2    0    0  0.71132878535E+02 -0.68040142232E+02  0.46285153253E+03  0.47320281032E+03  0.10566000000E+00 0. -1.
        994    1    1    2    0    0 -0.42126222883E+02  0.68929617068E+02  0.31529682866E+02  0.19191006140E+03  0.17120000000E+03 0.  0.
        998    1    1    2    0    0 -0.29006655652E+02 -0.88947483623E+00  0.10056187809E+04  0.10060871283E+04  0.10000000000E+02 0. -1.
</event>
<event>
 5    1  0.1369527E-008  0.3854280E+03  0.7957747E-01  0.3427859E+00
         13   -1    0    0    0    0  0.00000000000E+00  0.00000000000E+00  0.14999999963E+04  0.15000000000E+04  0.10566000000E+00 0. -1.
        994   -1    0    0    0    0 -0.00000000000E+00 -0.00000000000E+00  0.11368683772E-12  0.17120000000E+03  0.17120000000E+03 0.  0.
         13    1    1    2    0    0  0.10841037700E+02 -0.98887671079E+01  0.77135271102E+02  0.78518641260E+02  0.10566000000E+00 0. -1.
        994    1    1    2    0    0 -0.17159392954E+01  0.10194104899E+02  0.17688190398E+01  0.17152094025E+03  0.17120000000E+03 0.  0.
        998    1    1    2    0    0 -0.91250984051E+01 -0.30533779087E+00  0.14210959061E+04  0.14211604185E+04  0.10000000000E+02 0. -1.
</event>
<event>
 5    1  0.1369527E-008  0.3864228E+03  0.7957747E-01  0.3423660E+00
         13   -1    0    0    0    0  0.00000000000E+00  0.00000000000E+00  0.14999999963E+04  0.15000000000E+04  0.10566000000E+00 0. -1.
        994   -1    0    0    0    0 -0.00000000000E+00 -0.00000000000E+00  0.11368683772E-12  0.17120000000E+03  0.17120000000E+03 0.  0.
         13    1    1    2    0    0 -0.41826778339E+02 -0.67968567406E+02  0.14877369681E+03  0.16882781041E+03  0.10566000000E+00 0. -1.
        994    1    1    2    0    0  0.45017890595E+02  0.44831111004E+02  0.35039142823E+02  0.18593983037E+03  0.17120000000E+03 0.  0.
        998    1    1    2    0    0 -0.31911122563E+01  0.23137456402E+02  0.13161871566E+04  0.13164323592E+04  0.10000000000E+02 0.  1.
</event>
<event>
 5    1  0.1369527E-008  0.3846029E+03  0.7957747E-01  0.3431358E+00
         13   -1    0    0    0    0  0.00000000000E+00  0.00000000000E+00  0.14999999963E+04  0.15000000000E+04  0.10566000000E+00 0. -1.
        994   -1    0    0    0    0 -0.00000000000E+00 -0.00000000000E+00  0.11368683772E-12  0.17120000000E+03  0.17120000000E+03 0.  0.
         13    1    1    2    0    0 -0.49858491820E+01  0.10285939759E+02  0.36533167453E+02  0.38279795415E+02  0.10566000000E+00 0. -1.
        994    1    1    2    0    0 -0.23143118723E+01 -0.22472522600E+01  0.18616773684E+01  0.17124050930E+03  0.17120000000E+03 0.  0.
        998    1    1    2    0    0  0.73001610543E+01 -0.80386874989E+01  0.14616051515E+04  0.14616796953E+04  0.10000000000E+02 0. -1.
</event>
<event>
 5    1  0.1369527E-008  0.3827811E+03  0.7957747E-01  0.3439138E+00
         13   -1    0    0    0    0  0.00000000000E+00  0.00000000000E+00  0.14999999963E+04  0.15000000000E+04  0.10566000000E+00 0. -1.
        994   -1    0    0    0    0 -0.00000000000E+00 -0.00000000000E+00  0.11368683772E-12  0.17120000000E+03  0.17120000000E+03 0.  0.
         13    1    1    2    0    0  0.95363630992E+01  0.40987997316E+01  0.19659354376E+02  0.22231593710E+02  0.10566000000E+00 0. -1.
        994    1    1    2    0    0  0.63306576476E+01  0.11064520402E+02  0.32742887419E+01  0.17170515952E+03  0.17120000000E+03 0.  0.
        998    1    1    2    0    0 -0.15867020747E+02 -0.15163320133E+02  0.14770663532E+04  0.14772632468E+04  0.10000000000E+02 0. -1.
</event>
<event>
 5    1  0.1369527E-008  0.3853580E+03  0.7957747E-01  0.3428155E+00
         13   -1    0    0    0    0  0.00000000000E+00  0.00000000000E+00  0.14999999963E+04  0.15000000000E+04  0.10566000000E+00 0.  1.
        994   -1    0    0    0    0 -0.00000000000E+00 -0.00000000000E+00  0.11368683772E-12  0.17120000000E+03  0.17120000000E+03 0.  0.
         13    1    1    2    0    0 -0.47521946046E+01  0.12919611115E+02  0.65889309041E+02  0.67312048809E+02  0.10566000000E+00 0.  1.
        994    1    1    2    0    0  0.95943804339E+00 -0.83305191780E+01  0.16835260157E+01  0.17141351268E+03  0.17120000000E+03 0.  0.
        998    1    1    2    0    0  0.37927565613E+01 -0.45890919371E+01  0.14324271612E+04  0.14324744385E+04  0.10000000000E+02 0.  1.
</event>
<event>
 5    1  0.1369527E-008  0.3799419E+03  0.7957747E-01  0.3451412E+00
         13   -1    0    0    0    0  0.00000000000E+00  0.00000000000E+00  0.14999999963E+04  0.15000000000E+04  0.10566000000E+00 0. -1.
        994   -1    0    0    0    0 -0.00000000000E+00 -0.00000000000E+00  0.11368683772E-12  0.17120000000E+03  0.17120000000E+03 0.  0.
         13    1    1    2    0    0  0.19537831186E+02  0.19365674747E+02  0.87453516793E+02  0.91678159718E+02  0.10566000000E+00 0. -1.
        994    1    1    2    0    0 -0.15410618688E+02 -0.15189875241E+02  0.57295695152E+01  0.17265713841E+03  0.17120000000E+03 0.  0.
        998    1    1    2    0    0 -0.41272124977E+01 -0.41757995061E+01  0.14068169100E+04  0.14068647019E+04  0.10000000000E+02 0.  0.
</event>
<event>
 5    1  0.1369527E-008  0.3850470E+03  0.7957747E-01  0.3429473E+00
         13   -1    0    0    0    0  0.00000000000E+00  0.00000000000E+00  0.14999999963E+04  0.15000000000E+04  0.10566000000E+00 0. -1.
        994   -1    0    0    0    0 -0.00000000000E+00 -0.00000000000E+00  0.11368683772E-12  0.17120000000E+03  0.17120000000E+03 0.  0.
         13    1    1    2    0    0  0.14029889682E+02  0.61325758852E+01  0.75240205396E+02  0.76782458697E+02  0.10566000000E+00 0. -1.
        994    1    1    2    0    0 -0.33045719731E+01 -0.66672673587E+01  0.17888855204E+01  0.17137097993E+03  0.17120000000E+03 0.  0.
        998    1    1    2    0    0 -0.10725317709E+02  0.53469147352E+00  0.14229709054E+04  0.14230465614E+04  0.10000000000E+02 0. -1.
</event>
<event>
 5    1  0.1369527E-008  0.3831657E+03  0.7957747E-01  0.3437489E+00
         13   -1    0    0    0    0  0.00000000000E+00  0.00000000000E+00  0.14999999963E+04  0.15000000000E+04  0.10566000000E+00 0.  1.
        994   -1    0    0    0    0 -0.00000000000E+00 -0.00000000000E+00  0.11368683772E-12  0.17120000000E+03  0.17120000000E+03 0.  0.
         13    1    1    2    0    0  0.16221096820E+01  0.23386808448E+02  0.11242840506E+03  0.11484655623E+03  0.10566000000E+00 0.  1.
        994    1    1    2    0    0  0.33661148561E+02 -0.11593203793E+02  0.67481236954E+01  0.17499272119E+03  0.17120000000E+03 0.  0.
        998    1    1    2    0    0 -0.35283258243E+02 -0.11793604656E+02  0.13808234675E+04  0.13813607226E+04  0.10000000000E+02 0.  1.
</event>
<event>
 5    1  0.1369527E-008  0.3805176E+03  0.7957747E-01  0.3448908E+00
         13   -1    0    0    0    0  0.00000000000E+00  0.00000000000E+00  0.14999999963E+04  0.15000000000E+04  0.10566000000E+00 0.  1.
        994   -1    0    0    0    0 -0.00000000000E+00 -0.00000000000E+00  0.11368683772E-12  0.17120000000E+03  0.17120000000E+03 0.  0.
         13    1    1    2    0    0 -0.10357810728E+02  0.99494572262E+01  0.24363613401E+02  0.28282021925E+02  0.10566000000E+00 0.  1.
        994    1    1    2    0    0  0.82603190546E+01 -0.19959471248E+02  0.54308163090E+01  0.17264283110E+03  0.17120000000E+03 0.  0.
        998    1    1    2    0    0  0.20974916733E+01  0.10010014021E+02  0.14702055666E+04  0.14702751470E+04  0.10000000000E+02 0.  1.
</event>
<event>
 5    1  0.3380751E-008  0.3863430E+03  0.7957747E-01  0.3423996E+00
         13   -1    0    0    0    0  0.00000000000E+00  0.00000000000E+00  0.14999999963E+04  0.15000000000E+04  0.10566000000E+00 0. -1.
        994   -1    0    0    0    0 -0.00000000000E+00 -0.00000000000E+00  0.11368683772E-12  0.17120000000E+03  0.17120000000E+03 0.  0.
         13    1    1    2    0    0  0.10358478422E+02 -0.82308503966E+00  0.57927439440E+02  0.58852144806E+02  0.10566000000E+00 0. -1.
        994    1    1    2    0    0 -0.49692028381E+01 -0.11805282747E+01  0.10502597601E+01  0.17127939067E+03  0.17120000000E+03 0.  0.
        998    1    1    2    0    0 -0.53892755836E+01  0.20036133144E+01  0.14410222971E+04  0.14410684645E+04  0.10000000000E+02 0. -1.
</event>
<event>
 5    1  0.1369527E-008  0.3811030E+03  0.7957747E-01  0.3446370E+00
         13   -1    0    0    0    0  0.00000000000E+00  0.00000000000E+00  0.14999999963E+04  0.15000000000E+04  0.10566000000E+00 0. -1.
        994   -1    0    0    0    0 -0.00000000000E+00 -0.00000000000E+00  0.11368683772E-12  0.17120000000E+03  0.17120000000E+03 0.  0.
         13    1    1    2    0    0  0.57119060795E+02  0.11597397024E+02  0.32372728037E+03  0.32893228778E+03  0.10566000000E+00 0. -1.
        994    1    1    2    0    0 -0.68875636215E+02 -0.23711282135E+02  0.21457379415E+02  0.18728571034E+03  0.17120000000E+03 0.  0.
        998    1    1    2    0    0  0.11756575421E+02  0.12113885110E+02  0.11548153365E+04  0.11549820019E+04  0.10000000000E+02 0.  1.
</event>
<event>
 5    1  0.1369527E-008  0.3847598E+03  0.7957747E-01  0.3430692E+00
         13   -1    0    0    0    0  0.00000000000E+00  0.00000000000E+00  0.14999999963E+04  0.15000000000E+04  0.10566000000E+00 0. -1.
        994   -1    0    0    0    0 -0.00000000000E+00 -0.00000000000E+00  0.11368683772E-12  0.17120000000E+03  0.17120000000E+03 0.  0.
         13    1    1    2    0    0  0.14105906656E+02  0.91779715590E+01 -0.10786294320E+01  0.16863759071E+02  0.10566000000E+00 0. -1.
        994    1    1    2    0    0 -0.11040060181E+02 -0.65043962152E+01  0.19572691351E+02  0.17279097299E+03  0.17120000000E+03 0.  0.
        998    1    1    2    0    0 -0.30658464753E+01 -0.26735753438E+01  0.14815059344E+04  0.14815452679E+04  0.10000000000E+02 0. -1.
</event>
<event>
 5    1  0.1369527E-008  0.3878415E+03  0.7957747E-01  0.3417710E+00
         13   -1    0    0    0    0  0.00000000000E+00  0.00000000000E+00  0.14999999963E+04  0.15000000000E+04  0.10566000000E+00 0.  1.
        994   -1    0    0    0    0 -0.00000000000E+00 -0.00000000000E+00  0.11368683772E-12  0.17120000000E+03  0.17120000000E+03 0.  0.
         13    1    1    2    0    0 -0.37013681578E+02  0.29339605471E+02  0.44586493610E+02  0.64952225902E+02  0.10566000000E+00 0.  1.
        994    1    1    2    0    0  0.54076916664E+02 -0.10620393912E+02  0.32124054443E+02  0.18269783950E+03  0.17120000000E+03 0.  0.
        998    1    1    2    0    0 -0.17063235087E+02 -0.18719211559E+02  0.14232894482E+04  0.14235499346E+04  0.10000000000E+02 0.  1.
</event>
<event>
 5    1  0.1369527E-008  0.3847124E+03  0.7957747E-01  0.3430893E+00
         13   -1    0    0    0    0  0.00000000000E+00  0.00000000000E+00  0.14999999963E+04  0.15000000000E+04  0.10566000000E+00 0.  1.
        994   -1    0    0    0    0 -0.00000000000E+00 -0.00000000000E+00  0.11368683772E-12  0.17120000000E+03  0.17120000000E+03 0.  0.
         13    1    1    2    0    0  0.10184815370E+02 -0.17692103466E+02  0.10307114106E+03  0.10507336615E+03  0.10566000000E+00 0.  1.
        994    1    1    2    0    0 -0.74015622175E+01  0.30778015108E+02  0.50785014123E+01  0.17417606183E+03  0.17120000000E+03 0.  0.
        998    1    1    2    0    0 -0.27832531529E+01 -0.13085911642E+02  0.13918503538E+04  0.13919505720E+04  0.10000000000E+02 0.  1.
</event>
<event>
 5    1  0.1369527E-008  0.3846028E+03  0.7957747E-01  0.3431358E+00
         13   -1    0    0    0    0  0.00000000000E+00  0.00000000000E+00  0.14999999963E+04  0.15000000000E+04  0.10566000000E+00 0. -1.
        994   -1    0    0    0    0 -0.00000000000E+00 -0.00000000000E+00  0.11368683772E-12  0.17120000000E+03  0.17120000000E+03 0.  0.
         13    1    1    2    0    0 -0.19233629345E+02 -0.60928379708E+01  0.12016508862E+03  0.12184709623E+03  0.10566000000E+00 0. -1.
        994    1    1    2    0    0  0.28964966734E+01  0.18445311967E+01  0.18662828167E+01  0.17124460575E+03  0.17120000000E+03 0.  0.
        998    1    1    2    0    0  0.16337132672E+02  0.42483067741E+01  0.13779686248E+04  0.13781082980E+04  0.10000000000E+02 0. -1.
</event>
<event>
 5    1  0.1369527E-008  0.3852476E+03  0.7957747E-01  0.3428623E+00
         13   -1    0    0    0    0  0.00000000000E+00  0.00000000000E+00  0.14999999963E+04  0.15000000000E+04  0.10566000000E+00 0. -1.
        994   -1    0    0    0    0 -0.00000000000E+00 -0.00000000000E+00  0.11368683772E-12  0.17120000000E+03  0.17120000000E+03 0.  0.
         13    1    1    2    0    0  0.10141426103E+02  0.27061090813E+01  0.36246303952E+02  0.37735623276E+02  0.10566000000E+00 0. -1.
        994    1    1    2    0    0 -0.68171842241E+01 -0.74694726951E+01  0.18433801078E+01  0.17150832363E+03  0.17120000000E+03 0.  0.
        998    1    1    2    0    0 -0.33242418793E+01  0.47633636138E+01  0.14619103122E+04  0.14619560531E+04  0.10000000000E+02 0. -1.
</event>
<event>
 5    1  0.1369527E-008  0.3820054E+03  0.7957747E-01  0.3442473E+00
         13   -1    0    0    0    0  0.00000000000E+00  0.00000000000E+00  0.14999999963E+04  0.15000000000E+04  0.10566000000E+00 0.  1.
        994   -1    0    0    0    0 -0.00000000000E+00 -0.00000000000E+00  0.11368683772E-12  0.17120000000E+03  0.17120000000E+03 0.  0.
         13    1    1    2    0    0  0.16586515044E+02 -0.45692385828E+01  0.44806553336E+02  0.47996133265E+02  0.10566000000E+00 0.  1.
        994    1    1    2    0    0 -0.19278677291E+02  0.36555797879E+01  0.44039271096E+01  0.17237710183E+03  0.17120000000E+03 0.  0.
        998    1    1    2    0    0  0.26921622470E+01  0.91365879482E+00  0.14507895158E+04  0.14508267649E+04  0.10000000000E+02 0.  1.
</event>
<event>
 5    1  0.1369527E-008  0.3724575E+03  0.7957747E-01  0.3484672E+00
         13   -1    0    0    0    0  0.00000000000E+00  0.00000000000E+00  0.14999999963E+04  0.15000000000E+04  0.10566000000E+00 0.  1.
        994   -1    0    0    0    0 -0.00000000000E+00 -0.00000000000E+00  0.11368683772E-12  0.17120000000E+03  0.17120000000E+03 0.  0.
         13    1    1    2    0    0  0.52184911097E+02 -0.59831279617E+02  0.38025742664E+03  0.38845690707E+03  0.10566000000E+00 0.  1.
        994    1    1    2    0    0  0.34090239747E+02  0.19220341272E+02  0.17664447338E+02  0.17650223416E+03  0.17120000000E+03 0.  0.
        998    1    1    2    0    0 -0.86275150844E+02  0.40610938345E+02  0.11020781223E+04  0.11062408588E+04  0.10000000000E+02 0.  1.
</event>
<event>
 5    1  0.1369527E-008  0.3729033E+03  0.7957747E-01  0.3482653E+00
         13   -1    0    0    0    0  0.00000000000E+00  0.00000000000E+00  0.14999999963E+04  0.15000000000E+04  0.10566000000E+00 0.  1.
        994   -1    0    0    0    0 -0.00000000000E+00 -0.00000000000E+00  0.11368683772E-12  0.17120000000E+03  0.17120000000E+03 0.  0.
         13    1    1    2    0    0 -0.23429628513E+02  0.70392247297E+01  0.36269762015E+02  0.43749342597E+02  0.10566000000E+00 0.  1.
        994    1    1    2    0    0  0.56893888390E+01 -0.89855181609E+01  0.81467027571E+01  0.17172337479E+03  0.17120000000E+03 0.  0.
        998    1    1    2    0    0  0.17740239674E+02  0.19462934312E+01  0.14555835315E+04  0.14557272826E+04  0.10000000000E+02 0.  1.
</event>
<event>
 5    1  0.1369527E-008  0.3799321E+03  0.7957747E-01  0.3451454E+00
         13   -1    0    0    0    0  0.00000000000E+00  0.00000000000E+00  0.14999999963E+04  0.15000000000E+04  0.10566000000E+00 0.  1.
        994   -1    0    0    0    0 -0.00000000000E+00 -0.00000000000E+00  0.11368683772E-12  0.17120000000E+03  0.17120000000E+03 0.  0.
         13    1    1    2    0    0  0.22708687379E+02 -0.10211174306E+02  0.72069238910E+02  0.76249189663E+02  0.10566000000E+00 0.  1.
        994    1    1    2    0    0 -0.24648425844E+02 -0.99081345880E+01  0.65306981389E+01  0.17337187213E+03  0.17120000000E+03 0.  0.
        998    1    1    2    0    0  0.19397384651E+01  0.20119308894E+02  0.14214000592E+04  0.14215789382E+04  0.10000000000E+02 0.  1.
</event>
<event>
 5    1  0.1369527E-008  0.3837184E+03  0.7957747E-01  0.3435126E+00
         13   -1    0    0    0    0  0.00000000000E+00  0.00000000000E+00  0.14999999963E+04  0.15000000000E+04  0.10566000000E+00 0.  1.
        994   -1    0    0    0    0 -0.00000000000E+00 -0.00000000000E+00  0.11368683772E-12  0.17120000000E+03  0.17120000000E+03 0.  0.
         13    1    1    2    0    0 -0.13759902249E+02  0.18910542293E+02  0.86796606132E+02  0.89892188313E+02  0.10566000000E+00 0.  1.
        994    1    1    2    0    0  0.56827776675E+02 -0.44219914352E+02  0.19582158327E+02  0.18675571732E+03  0.17120000000E+03 0.  0.
        998    1    1    2    0    0 -0.43067874426E+02  0.25309372059E+02  0.13936212318E+04  0.13945520944E+04  0.10000000000E+02 0.  1.
</event>
<event>
 5    1  0.1369527E-008  0.3809672E+03  0.7957747E-01  0.3446958E+00
         13   -1    0    0    0    0  0.00000000000E+00  0.00000000000E+00  0.14999999963E+04  0.15000000000E+04  0.10566000000E+00 0. -1.
        994   -1    0    0    0    0 -0.00000000000E+00 -0.00000000000E+00  0.11368683772E-12  0.17120000000E+03  0.17120000000E+03 0.  0.
         13    1    1    2    0    0 -0.78644311365E+01 -0.15456565486E+02  0.41503434210E+02  0.44981117249E+02  0.10566000000E+00 0. -1.
        994    1    1    2    0    0  0.90750663274E+01 -0.37927037122E+01  0.39681341905E+01  0.17152821202E+03  0.17120000000E+03 0.  0.
        998    1    1    2    0    0 -0.12106351909E+01  0.19249269198E+02  0.14545284279E+04  0.14546906707E+04  0.10000000000E+02 0. -1.
</event>
<event>
 5    1  0.1376087E-008  0.3854834E+03  0.7957747E-01  0.3427624E+00
         13   -1    0    0    0    0  0.00000000000E+00  0.00000000000E+00  0.14999999963E+04  0.15000000000E+04  0.10566000000E+00 0. -1.
        994   -1    0    0    0    0 -0.00000000000E+00 -0.00000000000E+00  0.11368683772E-12  0.17120000000E+03  0.17120000000E+03 0.  0.
         13    1    1    2    0    0 -0.34684042666E+01 -0.12920840569E+02  0.68625311642E+02  0.69917254746E+02  0.10566000000E+00 0. -1.
        994    1    1    2    0    0  0.38432311315E+01 -0.47596700212E+00  0.14395525575E+01  0.17124984462E+03  0.17120000000E+03 0.  0.
        998    1    1    2    0    0 -0.37482686487E+00  0.13396807571E+02  0.14299351321E+04  0.14300329006E+04  0.10000000000E+02 0. -1.
</event>
<event>
 5    1  0.1369527E-008  0.3731797E+03  0.7957747E-01  0.3481404E+00
         13   -1    0    0    0    0  0.00000000000E+00  0.00000000000E+00  0.14999999963E+04  0.15000000000E+04  0.10566000000E+00 0.  1.
        994   -1    0    0    0    0 -0.00000000000E+00 -0.00000000000E+00  0.11368683772E-12  0.17120000000E+03  0.17120000000E+03 0.  0.
         13    1    1    2    0    0  0.27094590307E+02 -0.28593332486E+02  0.11032217374E+03  0.11714388020E+03  0.10566000000E+00 0.  1.
        994    1    1    2    0    0  0.65399812233E+01  0.48845483814E+01  0.78443709819E+01  0.17157390339E+03  0.17120000000E+03 0.  0.
        998    1    1    2    0    0 -0.33634571530E+02  0.23708784104E+02  0.13818334516E+04  0.13824822164E+04  0.10000000000E+02 0.  1.
</event>
<event>
 5    1  0.1369527E-008  0.4060603E+03  0.7957747E-01  0.3344986E+00
         13   -1    0    0    0    0  0.00000000000E+00  0.00000000000E+00  0.14999999963E+04  0.15000000000E+04  0.10566000000E+00 0. -1.
        994   -1    0    0    0    0 -0.00000000000E+00 -0.00000000000E+00  0.11368683772E-12  0.17120000000E+03  0.17120000000E+03 0.  0.
         13    1    1    2    0    0  0.32533936388E+02 -0.29817412029E+02  0.19302831798E+02  0.48167889267E+02  0.10566000000E+00 0. -1.
        994    1    1    2    0    0 -0.15123759398E+02  0.27927928498E+02  0.35511044099E+02  0.17770529407E+03  0.17120000000E+03 0.  0.
        998    1    1    2    0    0 -0.17410176990E+02  0.18894835307E+01  0.14451861204E+04  0.14453268167E+04  0.10000000000E+02 0. -1.
</event>
<event>
 5    1  0.1369527E-008  0.3775022E+03  0.7957747E-01  0.3462107E+00
         13   -1    0    0    0    0  0.00000000000E+00  0.00000000000E+00  0.14999999963E+04  0.15000000000E+04  0.10566000000E+00 0. -1.
        994   -1    0    0    0    0 -0.00000000000E+00 -0.00000000000E+00  0.11368683772E-12  0.17120000000E+03  0.17120000000E+03 0.  0.
         13    1    1    2    0    0  0.89627860176E+01  0.94090066152E+01  0.13094635798E+02  0.18448349232E+02  0.10566000000E+00 0. -1.
        994    1    1    2    0    0 -0.11810663891E+02 -0.89744195374E+01  0.61414012570E+01  0.17195112328E+03  0.17120000000E+03 0.  0.
        998    1    1    2    0    0  0.28478778737E+01 -0.43458707779E+00  0.14807639592E+04  0.14808005275E+04  0.10000000000E+02 0. -1.
</event>
<event>
 5    1  0.1369527E-008  0.3707398E+03  0.7957747E-01  0.3492498E+00
         13   -1    0    0    0    0  0.00000000000E+00  0.00000000000E+00  0.14999999963E+04  0.15000000000E+04  0.10566000000E+00 0. -1.
        994   -1    0    0    0    0 -0.00000000000E+00 -0.00000000000E+00  0.11368683772E-12  0.17120000000E+03  0.17120000000E+03 0.  0.
         13    1    1    2    0    0 -0.12796297695E+03 -0.13125804945E+03  0.77206783298E+03  0.79353131564E+03  0.10566000000E+00 0. -1.
        994    1    1    2    0    0  0.12508868393E+03  0.13341486950E+03  0.13486787529E+03  0.28450920906E+03  0.17120000000E+03 0.  0.
        998    1    1    2    0    0  0.28742930187E+01 -0.21568200519E+01  0.59306428801E+03  0.59315947530E+03  0.10000000000E+02 0.  0.
</event>
<event>
 5    1  0.1369527E-008  0.3839611E+03  0.7957747E-01  0.3434090E+00
         13   -1    0    0    0    0  0.00000000000E+00  0.00000000000E+00  0.14999999963E+04  0.15000000000E+04  0.10566000000E+00 0.  1.
        994   -1    0    0    0    0 -0.00000000000E+00 -0.00000000000E+00  0.11368683772E-12  0.17120000000E+03  0.17120000000E+03 0.  0.
         13    1    1    2    0    0 -0.20157727169E+02 -0.45121454211E+01  0.96232353302E+02  0.98424440090E+02  0.10566000000E+00 0.  1.
        994    1    1    2    0    0  0.20210045504E+02 -0.10665470388E+02  0.38718441593E+01  0.17276177058E+03  0.17120000000E+03 0.  0.
        998    1    1    2    0    0 -0.52318334556E-01  0.15177615809E+02  0.13998957988E+04  0.14000137893E+04  0.10000000000E+02 0.  1.
</event>
<event>
 5    1  0.1369527E-008  0.3811905E+03  0.7957747E-01  0.3445991E+00
         13   -1    0    0    0    0  0.00000000000E+00  0.00000000000E+00  0.14999999963E+04  0.15000000000E+04  0.10566000000E+00 0. -1.
        994   -1    0    0    0    0 -0.00000000000E+00 -0.00000000000E+00  0.11368683772E-12  0.17120000000E+03  0.17120000000E+03 0.  0.
         13    1    1    2    0    0  0.30987263521E+02  0.18392847961E+02  0.16687641495E+03  0.17072274713E+03  0.10566000000E+00 0. -1.
        994    1    1    2    0    0 -0.29950020544E+02 -0.15640488595E+02  0.73441242374E+01  0.17465682001E+03  0.17120000000E+03 0.  0.
        998    1    1    2    0    0 -0.10372429768E+01 -0.27523593664E+01  0.13257794571E+04  0.13258204329E+04  0.10000000000E+02 0. -1.
</event>
<event>
 5    1  0.1369527E-008  0.3780321E+03  0.7957747E-01  0.3459772E+00
         13   -1    0    0    0    0  0.00000000000E+00  0.00000000000E+00  0.14999999963E+04  0.15000000000E+04  0.10566000000E+00 0. -1.
        994   -1    0    0    0    0 -0.00000000000E+00 -0.00000000000E+00  0.11368683772E-12  0.17120000000E+03  0.17120000000E+03 0.  0.
         13    1    1    2    0    0  0.17713826905E+02  0.25723567388E+02  0.84384125388E+02  0.89978738402E+02  0.10566000000E+00 0. -1.
        994    1    1    2    0    0 -0.36182456326E+02 -0.26642312290E+02  0.11953575083E+02  0.17740155272E+03  0.17120000000E+03 0.  0.
        998    1    1    2    0    0  0.18468629421E+02  0.91874490213E+00  0.14036622958E+04  0.14038197089E+04  0.10000000000E+02 0. -1.
</event>
<event>
 5    1  0.1369527E-008  0.3717049E+03  0.7957747E-01  0.3488092E+00
         13   -1    0    0    0    0  0.00000000000E+00  0.00000000000E+00  0.14999999963E+04  0.15000000000E+04  0.10566000000E+00 0.  1.
        994   -1    0    0    0    0 -0.00000000000E+00 -0.00000000000E+00  0.11368683772E-12  0.17120000000E+03  0.17120000000E+03 0.  0.
         13    1    1    2    0    0 -0.29304377090E+02  0.24332199885E+02  0.99157908779E+02  0.10622195868E+03  0.10566000000E+00 0.  1.
        994    1    1    2    0    0 -0.23023854850E+02  0.37509373460E+01  0.10253460575E+02  0.17308593495E+03  0.17120000000E+03 0.  0.
        998    1    1    2    0    0  0.52328231940E+02 -0.28083137231E+02  0.13905886269E+04  0.13918921064E+04  0.10000000000E+02 0.  1.
</event>
<event>
 5    1  0.1369527E-008  0.3854949E+03  0.7957747E-01  0.3427576E+00
         13   -1    0    0    0    0  0.00000000000E+00  0.00000000000E+00  0.14999999963E+04  0.15000000000E+04  0.10566000000E+00 0. -1.
        994   -1    0    0    0    0 -0.00000000000E+00 -0.00000000000E+00  0.11368683772E-12  0.17120000000E+03  0.17120000000E+03 0.  0.
         13    1    1    2    0    0 -0.46274898997E+01 -0.15722498692E+02  0.94411347809E+02  0.95823402084E+02  0.10566000000E+00 0. -1.
        994    1    1    2    0    0  0.16121738881E+01  0.14572630219E+02  0.20907637552E+01  0.17183937834E+03  0.17120000000E+03 0.  0.
        998    1    1    2    0    0  0.30153160116E+01  0.11498684738E+01  0.14034978847E+04  0.14035372196E+04  0.10000000000E+02 0. -1.
</event>
<event>
 5    1  0.1369527E-008  0.3820818E+03  0.7957747E-01  0.3442144E+00
         13   -1    0    0    0    0  0.00000000000E+00  0.00000000000E+00  0.14999999963E+04  0.15000000000E+04  0.10566000000E+00 0.  1.
        994   -1    0    0    0    0 -0.00000000000E+00 -0.00000000000E+00  0.11368683772E-12  0.17120000000E+03  0.17120000000E+03 0.  0.
         13    1    1    2    0    0  0.72247764438E+01 -0.30645534691E+02  0.14802530586E+03  0.15133687102E+03  0.10566000000E+00 0.  1.
        994    1    1    2    0    0  0.83182718981E+01  0.32402171265E+02  0.68103294507E+01  0.17457065887E+03  0.17120000000E+03 0.  0.
        998    1    1    2    0    0 -0.15543048342E+02 -0.17566365746E+01  0.13451643610E+04  0.13452924701E+04  0.10000000000E+02 0.  1.
</event>
<event>
 5    1  0.1369527E-008  0.3773924E+03  0.7957747E-01  0.3462592E+00
         13   -1    0    0    0    0  0.00000000000E+00  0.00000000000E+00  0.14999999963E+04  0.15000000000E+04  0.10566000000E+00 0.  1.
        994   -1    0    0    0    0 -0.00000000000E+00 -0.00000000000E+00  0.11368683772E-12  0.17120000000E+03  0.17120000000E+03 0.  0.
         13    1    1    2    0    0 -0.95317523093E+01 -0.17078882831E+02  0.34234100753E+02  0.39427494965E+02  0.10566000000E+00 0.  1.
        994    1    1    2    0    0 -0.64912882234E+01  0.27754734014E+01  0.56233436180E+01  0.17143774984E+03  0.17120000000E+03 0.  0.
        998    1    1    2    0    0  0.16023040533E+02  0.14303409430E+02  0.14601425519E+04  0.14603347552E+04  0.10000000000E+02 0.  1.
</event>
<event>
 5    1  0.1369527E-008  0.3773111E+03  0.7957747E-01  0.3462951E+00
         13   -1    0    0    0    0  0.00000000000E+00  0.00000000000E+00  0.14999999963E+04  0.15000000000E+04  0.10566000000E+00 0. -1.
        994   -1    0    0    0    0 -0.00000000000E+00 -0.00000000000E+00  0.11368683772E-12  0.17120000000E+03  0.17120000000E+03 0.  0.
         13    1    1    2    0    0  0.17776511926E+02 -0.85575775305E+01  0.33933565984E+02  0.39252191962E+02  0.10566000000E+00 0. -1.
        994    1    1    2    0    0 -0.17168754301E+02 -0.22831212427E+02  0.82539748769E+01  0.17376305271E+03  0.17120000000E+03 0.  0.
        998    1    1    2    0    0 -0.60775762517E+00  0.31388789957E+02  0.14578124554E+04  0.14581847553E+04  0.10000000000E+02 0. -1.
</event>
<event>
 5    1  0.1369527E-008  0.3847650E+03  0.7957747E-01  0.3430669E+00
         13   -1    0    0    0    0  0.00000000000E+00  0.00000000000E+00  0.14999999963E+04  0.15000000000E+04  0.10566000000E+00 0. -1.
        994   -1    0    0    0    0 -0.00000000000E+00 -0.00000000000E+00  0.11368683772E-12  0.17120000000E+03  0.17120000000E+03 0.  0.
         13    1    1    2    0    0  0.75446425308E+01  0.81627372034E+01  0.36015076377E+02  0.37691495063E+02  0.10566000000E+00 0. -1.
        994    1    1    2    0    0  0.10112331975E+01 -0.36196569133E+01  0.17933350791E+01  0.17125063667E+03  0.17120000000E+03 0.  0.
        998    1    1    2    0    0 -0.85558757283E+01 -0.45430802901E+01  0.14621915848E+04  0.14622578683E+04  0.10000000000E+02 0. -1.
</event>
<event>
 5    1  0.1583441E-008  0.3860077E+03  0.7957747E-01  0.3425410E+00
         13   -1    0    0    0    0  0.00000000000E+00  0.00000000000E+00  0.14999999963E+04  0.15000000000E+04  0.10566000000E+00 0.  1.
        994   -1    0    0    0    0 -0.00000000000E+00 -0.00000000000E+00  0.11368683772E-12  0.17120000000E+03  0.17120000000E+03 0.  0.
         13    1    1    2    0    0 -0.10763828527E+02 -0.20756009042E+01  0.55908473612E+02  0.56973122692E+02  0.10566000000E+00 0.  1.
        994    1    1    2    0    0  0.89343217713E+00  0.53104118811E+01  0.12257410357E+01  0.17128905726E+03  0.17120000000E+03 0.  0.
        998    1    1    2    0    0  0.98703963502E+01 -0.32348109769E+01  0.14428657816E+04  0.14429378200E+04  0.10000000000E+02 0.  1.
</event>
<event>
 5    1  0.1369527E-008  0.3815431E+03  0.7957747E-01  0.3444467E+00
         13   -1    0    0    0    0  0.00000000000E+00  0.00000000000E+00  0.14999999963E+04  0.15000000000E+04  0.10566000000E+00 0. -1.
        994   -1    0    0    0    0 -0.00000000000E+00 -0.00000000000E+00  0.11368683772E-12  0.17120000000E+03  0.17120000000E+03 0.  0.
         13    1    1    2    0    0 -0.16786027574E+02 -0.78777194322E+01  0.62576224362E+02  0.65265796591E+02  0.10566000000E+00 0. -1.
        994    1    1    2    0    0 -0.30789682706E+02 -0.19381169987E+02  0.77711106194E+01  0.17519550357E+03  0.17120000000E+03 0.  0.
        998    1    1    2    0    0  0.47575710280E+02  0.27258889419E+02  0.14296526613E+04  0.14307386998E+04  0.10000000000E+02 0. -1.
</event>
<event>
 5    1  0.1369527E-008  0.3804661E+03  0.7957747E-01  0.3449132E+00
         13   -1    0    0    0    0  0.00000000000E+00  0.00000000000E+00  0.14999999963E+04  0.15000000000E+04  0.10566000000E+00 0. -1.
        994   -1    0    0    0    0 -0.00000000000E+00 -0.00000000000E+00  0.11368683772E-12  0.17120000000E+03  0.17120000000E+03 0.  0.
         13    1    1    2    0    0  0.37763165876E+02  0.25631635131E+02  0.20931710314E+03  0.21423514709E+03  0.10566000000E+00 0. -1.
        994    1    1    2    0    0 -0.49630986605E+02 -0.30448321884E+02  0.15298309314E+02  0.18147675720E+03  0.17120000000E+03 0.  0.
        998    1    1    2    0    0  0.11867820729E+02  0.48166867534E+01  0.12753845838E+04  0.12754880957E+04  0.10000000000E+02 0. -1.
</event>
<event>
 5    1  0.1369527E-008  0.3801292E+03  0.7957747E-01  0.3450596E+00
         13   -1    0    0    0    0  0.00000000000E+00  0.00000000000E+00  0.14999999963E+04  0.15000000000E+04  0.10566000000E+00 0.  1.
        994   -1    0    0    0    0 -0.00000000000E+00 -0.00000000000E+00  0.11368683772E-12  0.17120000000E+03  0.17120000000E+03 0.  0.
         13    1    1    2    0    0  0.31656255779E+02  0.22713197479E+02  0.16531657234E+03  0.16984577747E+03  0.10566000000E+00 0.  1.
        994    1    1    2    0    0 -0.20736520399E+02 -0.40501381928E+02  0.11017257879E+02  0.17748573235E+03  0.17120000000E+03 0.  0.
        998    1    1    2    0    0 -0.10919735380E+02  0.17788184449E+02  0.13236661661E+04  0.13238684902E+04  0.10000000000E+02 0.  1.
</event>
<event>
 5    1  0.1369527E-008  0.3849419E+03  0.7957747E-01  0.3429919E+00
         13   -1    0    0    0    0  0.00000000000E+00  0.00000000000E+00  0.14999999963E+04  0.15000000000E+04  0.10566000000E+00 0.  1.
        994   -1    0    0    0    0 -0.00000000000E+00 -0.00000000000E+00  0.11368683772E-12  0.17120000000E+03  0.17120000000E+03 0.  0.
         13    1    1    2    0    0 -0.51386985639E+01 -0.16606830040E+02  0.10212932898E+03  0.10359828198E+03  0.10566000000E+00 0.  1.
        994    1    1    2    0    0  0.13543154736E+02 -0.69642313767E+01  0.24222003552E+01  0.17189306156E+03  0.17120000000E+03 0.  0.
        998    1    1    2    0    0 -0.84044561720E+01  0.23571061417E+02  0.13954484669E+04  0.13957086565E+04  0.10000000000E+02 0.  1.
</event>
<event>
 5    1  0.1369527E-008  0.3835518E+03  0.7957747E-01  0.3435838E+00
         13   -1    0    0    0    0  0.00000000000E+00  0.00000000000E+00  0.14999999963E+04  0.15000000000E+04  0.10566000000E+00 0. -1.
        994   -1    0    0    0    0 -0.00000000000E+00 -0.00000000000E+00  0.11368683772E-12  0.17120000000E+03  0.17120000000E+03 0.  0.
         13    1    1    2    0    0  0.86589464714E+01 -0.13525604617E+02  0.52821906532E+02  0.55209458501E+02  0.10566000000E+00 0. -1.
        994    1    1    2    0    0 -0.16245885911E+02  0.87455825563E+01  0.34764486527E+01  0.17222641992E+03  0.17120000000E+03 0.  0.
        998    1    1    2    0    0  0.75869394393E+01  0.47800220611E+01  0.14437016411E+04  0.14437641216E+04  0.10000000000E+02 0. -1.
</event>
<event>
 5    1  0.1369527E-008  0.3706521E+03  0.7957747E-01  0.3492900E+00
         13   -1    0    0    0    0  0.00000000000E+00  0.00000000000E+00  0.14999999963E+04  0.15000000000E+04  0.10566000000E+00 0. -1.
        994   -1    0    0    0    0 -0.00000000000E+00 -0.00000000000E+00  0.11368683772E-12  0.17120000000E+03  0.17120000000E+03 0.  0.
         13    1    1    2    0    0  0.19012070608E+02 -0.35374176093E+02  0.94837785590E+02  0.10299032917E+03  0.10566000000E+00 0. -1.
        994    1    1    2    0    0 -0.29555493550E+02 -0.12885809158E+02  0.12523484102E+02  0.17465923660E+03  0.17120000000E+03 0.  0.
        998    1    1    2    0    0  0.10543422942E+02  0.48259985251E+02  0.13926387266E+04  0.13935504342E+04  0.10000000000E+02 0. -1.
</event>
<event>
 5    1  0.1369527E-008  0.3799272E+03  0.7957747E-01  0.3451476E+00
         13   -1    0    0    0    0  0.00000000000E+00  0.00000000000E+00  0.14999999963E+04  0.15000000000E+04  0.10566000000E+00 0.  1.
        994   -1    0    0    0    0 -0.00000000000E+00 -0.00000000000E+00  0.11368683772E-12  0.17120000000E+03  0.17120000000E+03 0.  0.
         13    1    1    2    0    0  0.29366746779E+01 -0.10996616746E+02  0.13540827507E+02  0.17689398284E+02  0.10566000000E+00 0.  1.
        994    1    1    2    0    0  0.98152811716E+01  0.16757265315E+02  0.54319871442E+01  0.17238356119E+03  0.17120000000E+03 0.  0.
        998    1    1    2    0    0 -0.12751955850E+02 -0.57606485688E+01  0.14810271816E+04  0.14811270405E+04  0.10000000000E+02 0.  1.
</event>
<event>
 5    1  0.1369527E-008  0.3831779E+03  0.7957747E-01  0.3437437E+00
         13   -1    0    0    0    0  0.00000000000E+00  0.00000000000E+00  0.14999999963E+04  0.15000000000E+04  0.10566000000E+00 0. -1.
        994   -1    0    0    0    0 -0.00000000000E+00 -0.00000000000E+00  0.11368683772E-12  0.17120000000E+03  0.17120000000E+03 0.  0.
         13    1    1    2    0    0 -0.15028040521E+02  0.10686805324E+01  0.46594919804E+02  0.48970213350E+02  0.10566000000E+00 0. -1.
        994    1    1    2    0    0 -0.28000976852E+01  0.22129288662E+01  0.25796215666E+01  0.17125662629E+03  0.17120000000E+03 0.  0.
        998    1    1    2    0    0  0.17828138206E+02 -0.32816093986E+01  0.14508254549E+04  0.14509731604E+04  0.10000000000E+02 0. -1.
</event>
<event>
 5    1  0.1369527E-008  0.3851831E+03  0.7957747E-01  0.3428896E+00
         13   -1    0    0    0    0  0.00000000000E+00  0.00000000000E+00  0.14999999963E+04  0.15000000000E+04  0.10566000000E+00 0. -1.
        994   -1    0    0    0    0 -0.00000000000E+00 -0.00000000000E+00  0.11368683772E-12  0.17120000000E+03  0.17120000000E+03 0.  0.
         13    1    1    2    0    0  0.95164311907E+01 -0.11335621815E+02  0.79511529554E+02  0.80877396599E+02  0.10566000000E+00 0. -1.
        994    1    1    2    0    0  0.26672198234E+01 -0.44746045877E+01  0.16284637309E+01  0.17128697569E+03  0.17120000000E+03 0.  0.
        998    1    1    2    0    0 -0.12183651014E+02  0.15810226403E+02  0.14188600030E+04  0.14190356277E+04  0.10000000000E+02 0. -1.
</event>
<event>
 5    1  0.1369527E-008  0.3805458E+03  0.7957747E-01  0.3448786E+00
         13   -1    0    0    0    0  0.00000000000E+00  0.00000000000E+00  0.14999999963E+04  0.15000000000E+04  0.10566000000E+00 0. -1.
        994   -1    0    0    0    0 -0.00000000000E+00 -0.00000000000E+00  0.11368683772E-12  0.17120000000E+03  0.17120000000E+03 0.  0.
         13    1    1    2    0    0 -0.31698322752E+02 -0.50632306019E+02  0.33628817933E+03  0.34155257984E+03  0.10566000000E+00 0. -1.
        994    1    1    2    0    0  0.35222688852E+02  0.56032330952E+02  0.18615321556E+02  0.18448910569E+03  0.17120000000E+03 0.  0.
        998    1    1    2    0    0 -0.35243661002E+01 -0.54000249321E+01  0.11450964954E+04  0.11451583145E+04  0.10000000000E+02 0. -1.
</event>
<event>
 5    1  0.1369527E-008  0.3692155E+03  0.7957747E-01  0.3499504E+00
         13   -1    0    0    0    0  0.00000000000E+00  0.00000000000E+00  0.14999999963E+04  0.15000000000E+04  0.10566000000E+00 0.  1.
        994   -1    0    0    0    0 -0.00000000000E+00 -0.00000000000E+00  0.11368683772E-12  0.17120000000E+03  0.17120000000E+03 0.  0.
         13    1    1    2    0    0 -0.75553912957E+00 -0.17006024875E+02  0.10761654340E+02  0.20139515625E+02  0.10566000000E+00 0.  1.
        994    1    1    2    0    0  0.17754848889E+01  0.87882937859E+01  0.99584403658E+01  0.17172360638E+03  0.17120000000E+03 0.  0.
        998    1    1    2    0    0 -0.10199457593E+01  0.82177310894E+01  0.14792799016E+04  0.14793368780E+04  0.10000000000E+02 0.  1.
</event>
<event>
 5    1  0.1369527E-008  0.3796985E+03  0.7957747E-01  0.3452472E+00
         13   -1    0    0    0    0  0.00000000000E+00  0.00000000000E+00  0.14999999963E+04  0.15000000000E+04  0.10566000000E+00 0. -1.
        994   -1    0    0    0    0 -0.00000000000E+00 -0.00000000000E+00  0.11368683772E-12  0.17120000000E+03  0.17120000000E+03 0.  0.
         13    1    1    2    0    0  0.11626493535E+02 -0.62786153994E+00  0.13971922512E+02  0.18187780094E+02  0.10566000000E+00 0. -1.
        994    1    1    2    0    0 -0.79282232545E+01  0.23343909332E+01  0.45140080484E+01  0.17145880664E+03  0.17120000000E+03 0.  0.
        998    1    1    2    0    0 -0.36982702802E+01 -0.17065293933E+01  0.14815140657E+04  0.14815534133E+04  0.10000000000E+02 0. -1.
</event>
<event>
 5    1  0.1369527E-008  0.3854160E+03  0.7957747E-01  0.3427910E+00
         13   -1    0    0    0    0  0.00000000000E+00  0.00000000000E+00  0.14999999963E+04  0.15000000000E+04  0.10566000000E+00 0. -1.
        994   -1    0    0    0    0 -0.00000000000E+00 -0.00000000000E+00  0.11368683772E-12  0.17120000000E+03  0.17120000000E+03 0.  0.
         13    1    1    2    0    0 -0.11196861173E+02 -0.69420137119E+01  0.63216846097E+02  0.64575088455E+02  0.10566000000E+00 0. -1.
        994    1    1    2    0    0  0.41891838286E+01  0.66717827434E+00  0.14828617613E+01  0.17125896551E+03  0.17120000000E+03 0.  0.
        998    1    1    2    0    0  0.70076773445E+01  0.62748354376E+01  0.14353002884E+04  0.14353659460E+04  0.10000000000E+02 0. -1.
</event>
<event>
 5    1  0.1369527E-008  0.3804338E+03  0.7957747E-01  0.3449272E+00
         13   -1    0    0    0    0  0.00000000000E+00  0.00000000000E+00  0.14999999963E+04  0.15000000000E+04  0.10566000000E+00 0. -1.
        994   -1    0    0    0    0 -0.00000000000E+00 -0.00000000000E+00  0.11368683772E-12  0.17120000000E+03  0.17120000000E+03 0.  0.
         13    1    1    2    0    0  0.21161795024E+02  0.20477889106E+02  0.10135391298E+03  0.10554521472E+03  0.10566000000E+00 0. -1.
        994    1    1    2    0    0 -0.28223730498E+02 -0.17553437819E+02  0.76107386193E+01  0.17456249736E+03  0.17120000000E+03 0.  0.
        998    1    1    2    0    0  0.70619354742E+01 -0.29244512864E+01  0.13910353447E+04  0.13910922879E+04  0.10000000000E+02 0. -1.
</event>
<event>
 5    1  0.1369527E-008  0.3830225E+03  0.7957747E-01  0.3438103E+00
         13   -1    0    0    0    0  0.00000000000E+00  0.00000000000E+00  0.14999999963E+04  0.15000000000E+04  0.10566000000E+00 0.  1.
        994   -1    0    0    0    0 -0.00000000000E+00 -0.00000000000E+00  0.11368683772E-12  0.17120000000E+03  0.17120000000E+03 0.  0.
         13    1    1    2    0    0  0.75012853175E+02  0.12852226465E+03  0.44673028875E+03  0.47086395350E+03  0.10566000000E+00 0.  1.
        994    1    1    2    0    0 -0.76823565213E+02 -0.11185348059E+03  0.89032152789E+02  0.23590088071E+03  0.17120000000E+03 0.  0.
        998    1    1    2    0    0  0.18107120383E+01 -0.16668784064E+02  0.96423755474E+03  0.96443516579E+03  0.10000000000E+02 0. -1.
</event>
<event>
 5    1  0.1369527E-008  0.3744997E+03  0.7957747E-01  0.3475463E+00
         13   -1    0    0    0    0  0.00000000000E+00  0.00000000000E+00  0.14999999963E+04  0.15000000000E+04  0.10566000000E+00 0. -1.
        994   -1    0    0    0    0 -0.00000000000E+00 -0.00000000000E+00  0.11368683772E-12  0.17120000000E+03  0.17120000000E+03 0.  0.
         13    1    1    2    0    0 -0.33297440274E+02 -0.23543693475E+02  0.12216879759E+03  0.12879538540E+03  0.10566000000E+00 0. -1.
        994    1    1    2    0    0  0.11722157010E+02  0.11282599206E+02  0.78376736906E+01  0.17214986244E+03  0.17120000000E+03 0.  0.
        998    1    1    2    0    0  0.21575283264E+02  0.12261094269E+02  0.13699935250E+04  0.13702547522E+04  0.10000000000E+02 0. -1.
</event>
<event>
 5    1  0.1369527E-008  0.3699209E+03  0.7957747E-01  0.3496255E+00
         13   -1    0    0    0    0  0.00000000000E+00  0.00000000000E+00  0.14999999963E+04  0.15000000000E+04  0.10566000000E+00 0.  1.
        994   -1    0    0    0    0 -0.00000000000E+00 -0.00000000000E+00  0.11368683772E-12  0.17120000000E+03  0.17120000000E+03 0.  0.
         13    1    1    2    0    0  0.59176874912E+01 -0.11203904196E+02  0.42910075674E+01  0.13377982077E+02  0.10566000000E+00 0.  1.
        994    1    1    2    0    0 -0.27991800806E+01  0.13601245243E+02  0.99776322961E+01  0.17205180158E+03  0.17120000000E+03 0.  0.
        998    1    1    2    0    0 -0.31185074107E+01 -0.23973410471E+01  0.14857313564E+04  0.14857702163E+04  0.10000000000E+02 0.  1.
</event>
<event>
 5    1  0.1369527E-008  0.3728212E+03  0.7957747E-01  0.3483025E+00
         13   -1    0    0    0    0  0.00000000000E+00  0.00000000000E+00  0.14999999963E+04  0.15000000000E+04  0.10566000000E+00 0. -1.
        994   -1    0    0    0    0 -0.00000000000E+00 -0.00000000000E+00  0.11368683772E-12  0.17120000000E+03  0.17120000000E+03 0.  0.
         13    1    1    2    0    0  0.35568791578E+02  0.43642729743E+02  0.18016556394E+03  0.18875769756E+03  0.10566000000E+00 0. -1.
        994    1    1    2    0    0 -0.30241228159E+02 -0.44348681458E+02  0.17733782956E+02  0.18029216424E+03  0.17120000000E+03 0.  0.
        998    1    1    2    0    0 -0.53275634184E+01  0.70595171459E+00  0.13021006494E+04  0.13021501382E+04  0.10000000000E+02 0. -1.
</event>
<event>
 5    1  0.1369527E-008  0.3827785E+03  0.7957747E-01  0.3439149E+00
         13   -1    0    0    0    0  0.00000000000E+00  0.00000000000E+00  0.14999999963E+04  0.15000000000E+04  0.10566000000E+00 0. -1.
        994   -1    0    0    0    0 -0.00000000000E+00 -0.00000000000E+00  0.11368683772E-12  0.17120000000E+03  0.17120000000E+03 0.  0.
         13    1    1    2    0    0 -0.23858546285E+02 -0.17982190902E+02  0.15825444581E+03  0.16104989973E+03  0.10566000000E+00 0. -1.
        994    1    1    2    0    0  0.99611189872E+01  0.21807849847E+02  0.46434940586E+01  0.17293295881E+03  0.17120000000E+03 0.  0.
        998    1    1    2    0    0  0.13897427298E+02 -0.38256589454E+01  0.13371020564E+04  0.13372171415E+04  0.10000000000E+02 0. -1.
</event>
<event>
 5    1  0.1369527E-008  0.3832525E+03  0.7957747E-01  0.3437118E+00
         13   -1    0    0    0    0  0.00000000000E+00  0.00000000000E+00  0.14999999963E+04  0.15000000000E+04  0.10566000000E+00 0.  1.
        994   -1    0    0    0    0 -0.00000000000E+00 -0.00000000000E+00  0.11368683772E-12  0.17120000000E+03  0.17120000000E+03 0.  0.
         13    1    1    2    0    0  0.69650310759E+01  0.17491304601E+02  0.70117561105E+02  0.72601246091E+02  0.10566000000E+00 0.  1.
        994    1    1    2    0    0 -0.62611523778E+01 -0.10780944944E+02  0.30144869415E+01  0.17167981225E+03  0.17120000000E+03 0.  0.
        998    1    1    2    0    0 -0.70387869802E+00 -0.67103596569E+01  0.14268679482E+04  0.14269189417E+04  0.10000000000E+02 0.  1.
</event>
<event>
 5    1  0.1369527E-008  0.3836719E+03  0.7957747E-01  0.3435324E+00
         13   -1    0    0    0    0  0.00000000000E+00  0.00000000000E+00  0.14999999963E+04  0.15000000000E+04  0.10566000000E+00 0. -1.
        994   -1    0    0    0    0 -0.00000000000E+00 -0.00000000000E+00  0.11368683772E-12  0.17120000000E+03  0.17120000000E+03 0.  0.
         13    1    1    2    0    0 -0.23981260851E+02  0.90710002423E+00  0.12813914746E+03  0.13036708165E+03  0.10566000000E+00 0. -1.
        994    1    1    2    0    0  0.13819236191E+02  0.27139343221E+02  0.53604438909E+01  0.17397036989E+03  0.17120000000E+03 0.  0.
        998    1    1    2    0    0  0.10162024660E+02 -0.28046443245E+02  0.13665004049E+04  0.13668625485E+04  0.10000000000E+02 0. -1.
</event>
<event>
 5    1  0.1369527E-008  0.3843165E+03  0.7957747E-01  0.3432576E+00
         13   -1    0    0    0    0  0.00000000000E+00  0.00000000000E+00  0.14999999963E+04  0.15000000000E+04  0.10566000000E+00 0. -1.
        994   -1    0    0    0    0 -0.00000000000E+00 -0.00000000000E+00  0.11368683772E-12  0.17120000000E+03  0.17120000000E+03 0.  0.
         13    1    1    2    0    0 -0.12315590507E+02  0.14040395606E+02  0.90823618079E+02  0.92724038109E+02  0.10566000000E+00 0. -1.
        994    1    1    2    0    0  0.11218106017E+02 -0.54436469707E+00  0.23857165588E+01  0.17158459686E+03  0.17120000000E+03 0.  0.
        998    1    1    2    0    0  0.10974844904E+01 -0.13496030909E+02  0.14067906616E+04  0.14068913650E+04  0.10000000000E+02 0. -1.
</event>
<event>
 5    1  0.1369527E-008  0.3821161E+03  0.7957747E-01  0.3441996E+00
         13   -1    0    0    0    0  0.00000000000E+00  0.00000000000E+00  0.14999999963E+04  0.15000000000E+04  0.10566000000E+00 0.  1.
        994   -1    0    0    0    0 -0.00000000000E+00 -0.00000000000E+00  0.11368683772E-12  0.17120000000E+03  0.17120000000E+03 0.  0.
         13    1    1    2    0    0  0.10909469308E+02  0.33397860619E+02  0.17096548852E+03  0.17453837127E+03  0.10566000000E+00 0.  1.
        994    1    1    2    0    0 -0.11770751564E+02 -0.39680880863E+02  0.87767510240E+01  0.17635077050E+03  0.17120000000E+03 0.  0.
        998    1    1    2    0    0  0.86128225583E+00  0.62830202437E+01  0.13202577567E+04  0.13203108582E+04  0.10000000000E+02 0.  1.
</event>
<event>
 5    1  0.1369527E-008  0.3842782E+03  0.7957747E-01  0.3432739E+00
         13   -1    0    0    0    0  0.00000000000E+00  0.00000000000E+00  0.14999999963E+04  0.15000000000E+04  0.10566000000E+00 0.  1.
        994   -1    0    0    0    0 -0.00000000000E+00 -0.00000000000E+00  0.11368683772E-12  0.17120000000E+03  0.17120000000E+03 0.  0.
         13    1    1    2    0    0  0.14600947115E+02  0.12104773351E+01  0.49945400745E+02  0.52050044492E+02  0.10566000000E+00 0.  1.
        994    1    1    2    0    0 -0.24003502708E+02  0.22210577582E+01  0.39067984856E+01  0.17293294745E+03  0.17120000000E+03 0.  0.
        998    1    1    2    0    0  0.94025555926E+01 -0.34315350933E+01  0.14461477970E+04  0.14462170081E+04  0.10000000000E+02 0.  1.
</event>
<event>
 5    1  0.1369527E-008  0.3856542E+03  0.7957747E-01  0.3426902E+00
         13   -1    0    0    0    0  0.00000000000E+00  0.00000000000E+00  0.14999999963E+04  0.15000000000E+04  0.10566000000E+00 0. -1.
        994   -1    0    0    0    0 -0.00000000000E+00 -0.00000000000E+00  0.11368683772E-12  0.17120000000E+03  0.17120000000E+03 0.  0.
         13    1    1    2    0    0 -0.14318116841E+01  0.11873872459E+02  0.54389528186E+02  0.55689055228E+02  0.10566000000E+00 0. -1.
        994    1    1    2    0    0 -0.43266473187E+01 -0.10777040103E+02  0.17483864104E+01  0.17160233485E+03  0.17120000000E+03 0.  0.
        998    1    1    2    0    0  0.57584590029E+01 -0.10968323563E+01  0.14438620817E+04  0.14439086099E+04  0.10000000000E+02 0. -1.
</event>
<event>
 5    1  0.1369527E-008  0.3842521E+03  0.7957747E-01  0.3432850E+00
         13   -1    0    0    0    0  0.00000000000E+00  0.00000000000E+00  0.14999999963E+04  0.15000000000E+04  0.10566000000E+00 0.  1.
        994   -1    0    0    0    0 -0.00000000000E+00 -0.00000000000E+00  0.11368683772E-12  0.17120000000E+03  0.17120000000E+03 0.  0.
         13    1    1    2    0    0  0.80640663678E+01  0.16881870200E+02  0.10490853930E+03  0.10656378133E+03  0.10566000000E+00 0.  1.
        994    1    1    2    0    0  0.59573213407E+01  0.11178584793E+02  0.25310137438E+01  0.17168662285E+03  0.17120000000E+03 0.  0.
        998    1    1    2    0    0 -0.14021387709E+02 -0.28060454993E+02  0.13925604432E+04  0.13929495958E+04  0.10000000000E+02 0.  1.
</event>
<event>
 5    1  0.1369527E-008  0.3848844E+03  0.7957747E-01  0.3430162E+00
         13   -1    0    0    0    0  0.00000000000E+00  0.00000000000E+00  0.14999999963E+04  0.15000000000E+04  0.10566000000E+00 0. -1.
        994   -1    0    0    0    0 -0.00000000000E+00 -0.00000000000E+00  0.11368683772E-12  0.17120000000E+03  0.17120000000E+03 0.  0.
         13    1    1    2    0    0  0.11282673517E+02  0.24885837674E+01  0.39030510544E+02  0.40704836178E+02  0.10566000000E+00 0. -1.
        994    1    1    2    0    0 -0.81228631704E+01 -0.76317301220E+01  0.20963096284E+01  0.17157522760E+03  0.17120000000E+03 0.  0.
        998    1    1    2    0    0 -0.31598103466E+01  0.51431463546E+01  0.14588731761E+04  0.14589199362E+04  0.10000000000E+02 0. -1.
</event>
<event>
 5    1  0.1369527E-008  0.2877167E+03  0.7957747E-01  0.3987811E+00
         13   -1    0    0    0    0  0.00000000000E+00  0.00000000000E+00  0.14999999963E+04  0.15000000000E+04  0.10566000000E+00 0. -1.
        994   -1    0    0    0    0 -0.00000000000E+00 -0.00000000000E+00  0.11368683772E-12  0.17120000000E+03  0.17120000000E+03 0.  0.
         13    1    1    2    0    0 -0.15756698959E+03  0.96037673907E+02  0.51335811697E+03  0.54551549789E+03  0.10566000000E+00 0. -1.
        994    1    1    2    0    0  0.18964798307E+03 -0.87702144404E+02  0.19468459715E+03  0.33297080350E+03  0.17120000000E+03 0.  0.
        998    1    1    2    0    0 -0.32080993477E+02 -0.83355295035E+01  0.79195728217E+03  0.79271369862E+03  0.10000000000E+02 0. -1.
</event>
<event>
 5    1  0.1369527E-008  0.3806195E+03  0.7957747E-01  0.3448466E+00
         13   -1    0    0    0    0  0.00000000000E+00  0.00000000000E+00  0.14999999963E+04  0.15000000000E+04  0.10566000000E+00 0.  1.
        994   -1    0    0    0    0 -0.00000000000E+00 -0.00000000000E+00  0.11368683772E-12  0.17120000000E+03  0.17120000000E+03 0.  0.
         13    1    1    2    0    0 -0.48905591481E+01 -0.19071748928E+02  0.48921751497E+02  0.52735169570E+02  0.10566000000E+00 0.  1.
        994    1    1    2    0    0 -0.12302432456E+00  0.15559325206E+02  0.46288799248E+01  0.17196794546E+03  0.17120000000E+03 0.  0.
        998    1    1    2    0    0  0.50135834726E+01  0.35124237220E+01  0.14464493649E+04  0.14464968850E+04  0.10000000000E+02 0.  1.
</event>
<event>
 5    1  0.1369527E-008  0.3802617E+03  0.7957747E-01  0.3450020E+00
         13   -1    0    0    0    0  0.00000000000E+00  0.00000000000E+00  0.14999999963E+04  0.15000000000E+04  0.10566000000E+00 0. -1.
        994   -1    0    0    0    0 -0.00000000000E+00 -0.00000000000E+00  0.11368683772E-12  0.17120000000E+03  0.17120000000E+03 0.  0.
         13    1    1    2    0    0  0.15976741368E+02 -0.41276098829E+01  0.32139783042E+02  0.36128523995E+02  0.10566000000E+00 0. -1.
        994    1    1    2    0    0 -0.15505048526E+02 -0.27783957426E+01  0.48302682929E+01  0.17199098088E+03  0.17120000000E+03 0.  0.
        998    1    1    2    0    0 -0.47169284121E+00  0.69060056256E+01  0.14630299449E+04  0.14630804951E+04  0.10000000000E+02 0. -1.
</event>
<event>
 5    1  0.1369527E-008  0.3822395E+03  0.7957747E-01  0.3441465E+00
         13   -1    0    0    0    0  0.00000000000E+00  0.00000000000E+00  0.14999999963E+04  0.15000000000E+04  0.10566000000E+00 0.  1.
        994   -1    0    0    0    0 -0.00000000000E+00 -0.00000000000E+00  0.11368683772E-12  0.17120000000E+03  0.17120000000E+03 0.  0.
         13    1    1    2    0    0 -0.73492509260E+01  0.22790053213E+02  0.88873342491E+02  0.92042817124E+02  0.10566000000E+00 0.  1.
        994    1    1    2    0    0  0.79202280057E+01 -0.24500422914E+02  0.52100752783E+01  0.17320388454E+03  0.17120000000E+03 0.  0.
        998    1    1    2    0    0 -0.57097707968E+00  0.17103697007E+01  0.14059165785E+04  0.14059532983E+04  0.10000000000E+02 0.  1.
</event>
<event>
 5    1  0.1369527E-008  0.3730658E+03  0.7957747E-01  0.3481919E+00
         13   -1    0    0    0    0  0.00000000000E+00  0.00000000000E+00  0.14999999963E+04  0.15000000000E+04  0.10566000000E+00 0.  1.
        994   -1    0    0    0    0 -0.00000000000E+00 -0.00000000000E+00  0.11368683772E-12  0.17120000000E+03  0.17120000000E+03 0.  0.
         13    1    1    2    0    0 -0.85240728613E+02  0.45155937885E+02  0.42690999892E+03  0.43767247901E+03  0.10566000000E+00 0.  1.
        994    1    1    2    0    0  0.89512039765E+02 -0.36632152650E+02  0.40391657070E+02  0.20073675755E+03  0.17120000000E+03 0.  0.
        998    1    1    2    0    0 -0.42713111524E+01 -0.85237852346E+01  0.10326983403E+04  0.10327907634E+04  0.10000000000E+02 0.  1.
</event>
<event>
 5    1  0.1369527E-008  0.3821691E+03  0.7957747E-01  0.3441768E+00
         13   -1    0    0    0    0  0.00000000000E+00  0.00000000000E+00  0.14999999963E+04  0.15000000000E+04  0.10566000000E+00 0.  1.
        994   -1    0    0    0    0 -0.00000000000E+00 -0.00000000000E+00  0.11368683772E-12  0.17120000000E+03  0.17120000000E+03 0.  0.
         13    1    1    2    0    0  0.53687147202E+01  0.93891435093E+01  0.18245906558E+02  0.21210926046E+02  0.10566000000E+00 0.  1.
        994    1    1    2    0    0  0.76384866904E+00 -0.40887691737E+01  0.30996178693E+01  0.17127857172E+03  0.17120000000E+03 0.  0.
        998    1    1    2    0    0 -0.61325633893E+01 -0.53003743356E+01  0.14786544719E+04  0.14787105022E+04  0.10000000000E+02 0.  1.
</event>
<event>
 5    1  0.1369527E-008  0.3854762E+03  0.7957747E-01  0.3427655E+00
         13   -1    0    0    0    0  0.00000000000E+00  0.00000000000E+00  0.14999999963E+04  0.15000000000E+04  0.10566000000E+00 0.  1.
        994   -1    0    0    0    0 -0.00000000000E+00 -0.00000000000E+00  0.11368683772E-12  0.17120000000E+03  0.17120000000E+03 0.  0.
         13    1    1    2    0    0  0.87674696425E+01 -0.80408531439E+01  0.53519469836E+02  0.54825802856E+02  0.10566000000E+00 0.  1.
        994    1    1    2    0    0  0.18387346733E+01  0.23236224950E+01  0.14227118309E+01  0.17123155164E+03  0.17120000000E+03 0.  0.
        998    1    1    2    0    0 -0.10606204316E+02  0.57172306489E+01  0.14450578146E+04  0.14451426455E+04  0.10000000000E+02 0.  1.
</event>
<event>
 5    1  0.1369527E-008  0.3816945E+03  0.7957747E-01  0.3443813E+00
         13   -1    0    0    0    0  0.00000000000E+00  0.00000000000E+00  0.14999999963E+04  0.15000000000E+04  0.10566000000E+00 0.  1.
        994   -1    0    0    0    0 -0.00000000000E+00 -0.00000000000E+00  0.11368683772E-12  0.17120000000E+03  0.17120000000E+03 0.  0.
         13    1    1    2    0    0  0.20186485210E+02  0.23941415870E+02  0.16801909959E+03  0.17091259336E+03  0.10566000000E+00 0.  1.
        994    1    1    2    0    0  0.58172671335E+01 -0.79487141675E+01  0.36028321929E+01  0.17152096972E+03  0.17120000000E+03 0.  0.
        998    1    1    2    0    0 -0.26003752343E+02 -0.15992701703E+02  0.13283780645E+04  0.13287664369E+04  0.10000000000E+02 0.  1.
</event>
<event>
 5    1  0.1369527E-008  0.4134248E+03  0.7957747E-01  0.3317395E+00
         13   -1    0    0    0    0  0.00000000000E+00  0.00000000000E+00  0.14999999963E+04  0.15000000000E+04  0.10566000000E+00 0. -1.
        994   -1    0    0    0    0 -0.00000000000E+00 -0.00000000000E+00  0.11368683772E-12  0.17120000000E+03  0.17120000000E+03 0.  0.
         13    1    1    2    0    0  0.12642704677E+03 -0.53597579380E+02  0.17381172359E+03  0.22151077872E+03  0.10566000000E+00 0. -1.
        994    1    1    2    0    0 -0.15156612268E+03  0.10961125729E+03  0.20309686101E+03  0.32487642608E+03  0.17120000000E+03 0.  0.
        998    1    1    2    0    0  0.25139075915E+02 -0.56013677908E+02  0.11230914117E+04  0.11248127952E+04  0.10000000000E+02 0. -1.
</event>
<event>
 5    1  0.1369527E-008  0.2963092E+03  0.7957747E-01  0.3922726E+00
         13   -1    0    0    0    0  0.00000000000E+00  0.00000000000E+00  0.14999999963E+04  0.15000000000E+04  0.10566000000E+00 0. -1.
        994   -1    0    0    0    0 -0.00000000000E+00 -0.00000000000E+00  0.11368683772E-12  0.17120000000E+03  0.17120000000E+03 0.  0.
         13    1    1    2    0    0 -0.21745482006E+03  0.24935873026E+02  0.37748845167E+03  0.43635528969E+03  0.10566000000E+00 0. -1.
        994    1    1    2    0    0  0.26719928499E+03 -0.99708581620E+01  0.40136219753E+03  0.51175768633E+03  0.17120000000E+03 0.  0.
        998    1    1    2    0    0 -0.49744464930E+02 -0.14965014864E+02  0.72114934707E+03  0.72308702398E+03  0.10000000000E+02 0. -1.
</event>
<event>
 5    1  0.1369527E-008  0.3721673E+03  0.7957747E-01  0.3485989E+00
         13   -1    0    0    0    0  0.00000000000E+00  0.00000000000E+00  0.14999999963E+04  0.15000000000E+04  0.10566000000E+00 0.  1.
        994   -1    0    0    0    0 -0.00000000000E+00 -0.00000000000E+00  0.11368683772E-12  0.17120000000E+03  0.17120000000E+03 0.  0.
         13    1    1    2    0    0  0.19648149933E+02 -0.37408776540E+01  0.20737076510E+02  0.28811134439E+02  0.10566000000E+00 0.  1.
        994    1    1    2    0    0 -0.22038374108E+02 -0.13315025230E+01  0.98154098360E+01  0.17289663126E+03  0.17120000000E+03 0.  0.
        998    1    1    2    0    0  0.23902241744E+01  0.50723801770E+01  0.14694475099E+04  0.14694922343E+04  0.10000000000E+02 0.  1.
</event>
<event>
 5    1  0.1369527E-008  0.3784243E+03  0.7957747E-01  0.3458048E+00
         13   -1    0    0    0    0  0.00000000000E+00  0.00000000000E+00  0.14999999963E+04  0.15000000000E+04  0.10566000000E+00 0. -1.
        994   -1    0    0    0    0 -0.00000000000E+00 -0.00000000000E+00  0.11368683772E-12  0.17120000000E+03  0.17120000000E+03 0.  0.
         13    1    1    2    0    0 -0.31357609085E+02  0.19383451897E+02  0.12993650879E+03  0.13506489305E+03  0.10566000000E+00 0. -1.
        994    1    1    2    0    0  0.27123032329E+02 -0.14093423327E+02  0.80766200898E+01  0.17409467326E+03  0.17120000000E+03 0.  0.
        998    1    1    2    0    0  0.42345767557E+01 -0.52900285699E+01  0.13619868674E+04  0.13620404337E+04  0.10000000000E+02 0. -1.
</event>
<event>
 5    1  0.1369527E-008  0.3780930E+03  0.7957747E-01  0.3459504E+00
         13   -1    0    0    0    0  0.00000000000E+00  0.00000000000E+00  0.14999999963E+04  0.15000000000E+04  0.10566000000E+00 0.  1.
        994   -1    0    0    0    0 -0.00000000000E+00 -0.00000000000E+00  0.11368683772E-12  0.17120000000E+03  0.17120000000E+03 0.  0.
         13    1    1    2    0    0  0.21236587790E+02 -0.37513157089E+01  0.46695135524E+02  0.51434539720E+02  0.10566000000E+00 0.  1.
        994    1    1    2    0    0  0.64305944878E+01  0.22595861460E+01  0.52551834450E+01  0.17141620468E+03  0.17120000000E+03 0.  0.
        998    1    1    2    0    0 -0.27667182278E+02  0.14917295629E+01  0.14480496773E+04  0.14483492556E+04  0.10000000000E+02 0.  1.
</event>
<event>
 5    1  0.1369527E-008  0.3759312E+03  0.7957747E-01  0.3469069E+00
         13   -1    0    0    0    0  0.00000000000E+00  0.00000000000E+00  0.14999999963E+04  0.15000000000E+04  0.10566000000E+00 0.  1.
        994   -1    0    0    0    0 -0.00000000000E+00 -0.00000000000E+00  0.11368683772E-12  0.17120000000E+03  0.17120000000E+03 0.  0.
         13    1    1    2    0    0 -0.17596852595E+02 -0.29492474487E+02  0.87560480753E+02  0.94054793745E+02  0.10566000000E+00 0.  1.
        994    1    1    2    0    0  0.21652330537E+02  0.28557453212E+02  0.10565795488E+02  0.17522964243E+03  0.17120000000E+03 0.  0.
        998    1    1    2    0    0 -0.40554779419E+01  0.93502127478E+00  0.14018737200E+04  0.14019155638E+04  0.10000000000E+02 0.  0.
</event>
<event>
 5    1  0.1369527E-008  0.3831408E+03  0.7957747E-01  0.3437596E+00
         13   -1    0    0    0    0  0.00000000000E+00  0.00000000000E+00  0.14999999963E+04  0.15000000000E+04  0.10566000000E+00 0. -1.
        994   -1    0    0    0    0 -0.00000000000E+00 -0.00000000000E+00  0.11368683772E-12  0.17120000000E+03  0.17120000000E+03 0.  0.
         13    1    1    2    0    0  0.10349097232E+02 -0.40369737142E+01  0.24253132622E+02  0.26676329888E+02  0.10566000000E+00 0. -1.
        994    1    1    2    0    0  0.65218836280E+01  0.28956370044E+01  0.27244962653E+01  0.17137030828E+03  0.17120000000E+03 0.  0.
        998    1    1    2    0    0 -0.16870980860E+02  0.11413367097E+01  0.14730223674E+04  0.14731533618E+04  0.10000000000E+02 0. -1.
</event>
<event>
 5    1  0.1369527E-008  0.3767036E+03  0.7957747E-01  0.3465639E+00
         13   -1    0    0    0    0  0.00000000000E+00  0.00000000000E+00  0.14999999963E+04  0.15000000000E+04  0.10566000000E+00 0. -1.
        994   -1    0    0    0    0 -0.00000000000E+00 -0.00000000000E+00  0.11368683772E-12  0.17120000000E+03  0.17120000000E+03 0.  0.
         13    1    1    2    0    0  0.66386985858E+01  0.12097886537E+02  0.13785346378E+02  0.19505848260E+02  0.10566000000E+00 0. -1.
        994    1    1    2    0    0  0.15336053752E+01 -0.14155207568E+02  0.64919466963E+01  0.17191366211E+03  0.17120000000E+03 0.  0.
        998    1    1    2    0    0 -0.81723039609E+01  0.20573210310E+01  0.14797227032E+04  0.14797804896E+04  0.10000000000E+02 0. -1.
</event>
<event>
 5    1  0.1369527E-008  0.3763796E+03  0.7957747E-01  0.3467076E+00
         13   -1    0    0    0    0  0.00000000000E+00  0.00000000000E+00  0.14999999963E+04  0.15000000000E+04  0.10566000000E+00 0. -1.
        994   -1    0    0    0    0 -0.00000000000E+00 -0.00000000000E+00  0.11368683772E-12  0.17120000000E+03  0.17120000000E+03 0.  0.
         13    1    1    2    0    0  0.13023325118E+02 -0.81806270745E+01  0.17029182339E+02  0.22946325886E+02  0.10566000000E+00 0. -1.
        994    1    1    2    0    0 -0.12635297986E+02  0.89928983127E+01  0.67862106175E+01  0.17203492561E+03  0.17120000000E+03 0.  0.
        998    1    1    2    0    0 -0.38802713200E+00 -0.81227123818E+00  0.14761846033E+04  0.14762187485E+04  0.10000000000E+02 0. -1.
</event>
<event>
 5    1  0.1369527E-008  0.3830472E+03  0.7957747E-01  0.3437997E+00
         13   -1    0    0    0    0  0.00000000000E+00  0.00000000000E+00  0.14999999963E+04  0.15000000000E+04  0.10566000000E+00 0.  1.
        994   -1    0    0    0    0 -0.00000000000E+00 -0.00000000000E+00  0.11368683772E-12  0.17120000000E+03  0.17120000000E+03 0.  0.
         13    1    1    2    0    0 -0.25226365086E+02  0.25763805241E+02  0.18826860534E+03  0.19169043293E+03  0.10566000000E+00 0.  1.
        994    1    1    2    0    0  0.59646621792E+02 -0.19665026811E+02  0.15768698254E+02  0.18303694877E+03  0.17120000000E+03 0.  0.
        998    1    1    2    0    0 -0.34420256706E+02 -0.60987784299E+01  0.12959626927E+04  0.12964726183E+04  0.10000000000E+02 0.  1.
</event>
<event>
 5    1  0.1369527E-008  0.3932863E+03  0.7957747E-01  0.3395272E+00
         13   -1    0    0    0    0  0.00000000000E+00  0.00000000000E+00  0.14999999963E+04  0.15000000000E+04  0.10566000000E+00 0.  1.
        994   -1    0    0    0    0 -0.00000000000E+00 -0.00000000000E+00  0.11368683772E-12  0.17120000000E+03  0.17120000000E+03 0.  0.
         13    1    1    2    0    0 -0.44518860043E+02 -0.16555859924E+02  0.38288843632E+02  0.61008787138E+02  0.10566000000E+00 0.  1.
        994    1    1    2    0    0  0.36084483850E+02  0.15425305776E+02  0.29716424899E+02  0.17813628474E+03  0.17120000000E+03 0.  0.
        998    1    1    2    0    0  0.84343761935E+01  0.11305541480E+01  0.14319947277E+04  0.14320549281E+04  0.10000000000E+02 0.  1.
</event>
<event>
 5    1  0.1369527E-008  0.3789478E+03  0.7957747E-01  0.3455753E+00
         13   -1    0    0    0    0  0.00000000000E+00  0.00000000000E+00  0.14999999963E+04  0.15000000000E+04  0.10566000000E+00 0. -1.
        994   -1    0    0    0    0 -0.00000000000E+00 -0.00000000000E+00  0.11368683772E-12  0.17120000000E+03  0.17120000000E+03 0.  0.
         13    1    1    2    0    0  0.18627464164E+02 -0.84429301324E+02  0.49519406139E+03  0.50268524839E+03  0.10566000000E+00 0. -1.
        994    1    1    2    0    0 -0.32281874765E+02  0.87393539171E+02  0.34356246230E+02  0.19791296517E+03  0.17120000000E+03 0.  0.
        998    1    1    2    0    0  0.13654410602E+02 -0.29642378469E+01  0.97044968866E+03  0.97060178645E+03  0.10000000000E+02 0. -1.
</event>
<event>
 5    1  0.1369527E-008  0.3793925E+03  0.7957747E-01  0.3453808E+00
         13   -1    0    0    0    0  0.00000000000E+00  0.00000000000E+00  0.14999999963E+04  0.15000000000E+04  0.10566000000E+00 0. -1.
        994   -1    0    0    0    0 -0.00000000000E+00 -0.00000000000E+00  0.11368683772E-12  0.17120000000E+03  0.17120000000E+03 0.  0.
         13    1    1    2    0    0 -0.11307741622E+02  0.10228864602E+01  0.12484086194E+02  0.16875274500E+02  0.10566000000E+00 0. -1.
        994    1    1    2    0    0  0.10999179614E+02 -0.17524471248E+01  0.48557434724E+01  0.17163062450E+03  0.17120000000E+03 0.  0.
        998    1    1    2    0    0  0.30856200803E+00  0.72956066459E+00  0.14826601666E+04  0.14826941010E+04  0.10000000000E+02 0. -1.
</event>
<event>
 5    1  0.1369527E-008  0.3852949E+03  0.7957747E-01  0.3428422E+00
         13   -1    0    0    0    0  0.00000000000E+00  0.00000000000E+00  0.14999999963E+04  0.15000000000E+04  0.10566000000E+00 0.  1.
        994   -1    0    0    0    0 -0.00000000000E+00 -0.00000000000E+00  0.11368683772E-12  0.17120000000E+03  0.17120000000E+03 0.  0.
         13    1    1    2    0    0  0.95822703532E+01  0.53077505213E+01  0.42658253318E+02  0.44042364388E+02  0.10566000000E+00 0.  1.
        994    1    1    2    0    0  0.46463986093E+01 -0.36036533576E+01  0.15973815092E+01  0.17130839724E+03  0.17120000000E+03 0.  0.
        998    1    1    2    0    0 -0.14228668963E+02 -0.17040971637E+01  0.14557443615E+04  0.14558492384E+04  0.10000000000E+02 0.  1.
</event>
<event>
 5    1  0.1369527E-008  0.3849429E+03  0.7957747E-01  0.3429914E+00
         13   -1    0    0    0    0  0.00000000000E+00  0.00000000000E+00  0.14999999963E+04  0.15000000000E+04  0.10566000000E+00 0.  1.
        994   -1    0    0    0    0 -0.00000000000E+00 -0.00000000000E+00  0.11368683772E-12  0.17120000000E+03  0.17120000000E+03 0.  0.
         13    1    1    2    0    0  0.82378898510E+01 -0.15212793554E+02  0.10115462949E+03  0.10262339961E+03  0.10566000000E+00 0.  1.
        994    1    1    2    0    0 -0.23268989083E+01 -0.47687145031E+01  0.17510958335E+01  0.17129115982E+03  0.17120000000E+03 0.  0.
        998    1    1    2    0    0 -0.59109909427E+01  0.19981508057E+02  0.13970942710E+04  0.13972854406E+04  0.10000000000E+02 0.  1.
</event>
<event>
 5    1  0.1369527E-008  0.3885789E+03  0.7957747E-01  0.3414634E+00
         13   -1    0    0    0    0  0.00000000000E+00  0.00000000000E+00  0.14999999963E+04  0.15000000000E+04  0.10566000000E+00 0.  1.
        994   -1    0    0    0    0 -0.00000000000E+00 -0.00000000000E+00  0.11368683772E-12  0.17120000000E+03  0.17120000000E+03 0.  0.
         13    1    1    2    0    0 -0.91694601096E+02 -0.20401006572E+02  0.29012985413E+03  0.30495810263E+03  0.10566000000E+00 0.  1.
        994    1    1    2    0    0 -0.24879789830E+02  0.47548169311E+02  0.31977416705E+02  0.18224112468E+03  0.17120000000E+03 0.  0.
        998    1    1    2    0    0  0.11657439093E+03 -0.27147162739E+02  0.11778927254E+04  0.11840007727E+04  0.10000000000E+02 0.  1.
</event>
<event>
 5    1  0.1369527E-008  0.3832556E+03  0.7957747E-01  0.3437104E+00
         13   -1    0    0    0    0  0.00000000000E+00  0.00000000000E+00  0.14999999963E+04  0.15000000000E+04  0.10566000000E+00 0.  1.
        994   -1    0    0    0    0 -0.00000000000E+00 -0.00000000000E+00  0.11368683772E-12  0.17120000000E+03  0.17120000000E+03 0.  0.
         13    1    1    2    0    0 -0.35267649315E+02 -0.20893277700E+02  0.22081269210E+03  0.22458537864E+03  0.10566000000E+00 0.  1.
        994    1    1    2    0    0  0.45425830931E+02  0.63758117030E+02  0.23039209861E+02  0.18965455121E+03  0.17120000000E+03 0.  0.
        998    1    1    2    0    0 -0.10158181616E+02 -0.42864839329E+02  0.12561480943E+04  0.12569600702E+04  0.10000000000E+02 0.  1.
</event>
<event>
 5    1  0.1369527E-008  0.3832651E+03  0.7957747E-01  0.3437064E+00
         13   -1    0    0    0    0  0.00000000000E+00  0.00000000000E+00  0.14999999963E+04  0.15000000000E+04  0.10566000000E+00 0. -1.
        994   -1    0    0    0    0 -0.00000000000E+00 -0.00000000000E+00  0.11368683772E-12  0.17120000000E+03  0.17120000000E+03 0.  0.
         13    1    1    2    0    0 -0.65360565586E+01 -0.17352412105E+02  0.73053931515E+02  0.75370513565E+02  0.10566000000E+00 0. -1.
        994    1    1    2    0    0  0.20459746218E+01 -0.10465126638E+01  0.25114152055E+01  0.17123384130E+03  0.17120000000E+03 0.  0.
        998    1    1    2    0    0  0.44900819369E+01  0.18398924769E+02  0.14244346496E+04  0.14245956451E+04  0.10000000000E+02 0. -1.
</event>
<event>
 5    1  0.1369527E-008  0.3773816E+03  0.7957747E-01  0.3462640E+00
         13   -1    0    0    0    0  0.00000000000E+00  0.00000000000E+00  0.14999999963E+04  0.15000000000E+04  0.10566000000E+00 0.  1.
        994   -1    0    0    0    0 -0.00000000000E+00 -0.00000000000E+00  0.11368683772E-12  0.17120000000E+03  0.17120000000E+03 0.  0.
         13    1    1    2    0    0 -0.12664382739E+02  0.30910635593E+02  0.30997035792E+02  0.45570619645E+02  0.10566000000E+00 0.  1.
        994    1    1    2    0    0  0.31005752204E+02 -0.20600932056E+02  0.19886250796E+02  0.17632543220E+03  0.17120000000E+03 0.  0.
        998    1    1    2    0    0 -0.18341369464E+02 -0.10309703537E+02  0.14491167097E+04  0.14493039482E+04  0.10000000000E+02 0.  1.
</event>
<event>
 5    1  0.1369527E-008  0.3832811E+03  0.7957747E-01  0.3436995E+00
         13   -1    0    0    0    0  0.00000000000E+00  0.00000000000E+00  0.14999999963E+04  0.15000000000E+04  0.10566000000E+00 0.  1.
        994   -1    0    0    0    0 -0.00000000000E+00 -0.00000000000E+00  0.11368683772E-12  0.17120000000E+03  0.17120000000E+03 0.  0.
         13    1    1    2    0    0 -0.13515633637E+02 -0.26384045911E+02  0.17698559586E+03  0.17945111461E+03  0.10566000000E+00 0.  1.
        994    1    1    2    0    0  0.14328361527E+02  0.11777062324E+02  0.36243966144E+01  0.17223988328E+03  0.17120000000E+03 0.  0.
        998    1    1    2    0    0 -0.81272789086E+00  0.14606983587E+02  0.13193900038E+04  0.13195090021E+04  0.10000000000E+02 0.  1.
</event>
<event>
 5    1  0.1369527E-008  0.3753624E+03  0.7957747E-01  0.3471604E+00
         13   -1    0    0    0    0  0.00000000000E+00  0.00000000000E+00  0.14999999963E+04  0.15000000000E+04  0.10566000000E+00 0.  1.
        994   -1    0    0    0    0 -0.00000000000E+00 -0.00000000000E+00  0.11368683772E-12  0.17120000000E+03  0.17120000000E+03 0.  0.
         13    1    1    2    0    0 -0.17965233689E+03 -0.18234622585E+03  0.86826224337E+03  0.90520961255E+03  0.10566000000E+00 0.  1.
        994    1    1    2    0    0  0.20654362669E+03  0.17428054645E+03  0.31880435696E+03  0.45164104841E+03  0.17120000000E+03 0.  0.
        998    1    1    2    0    0 -0.26891289802E+02  0.80656793988E+01  0.31293339595E+03  0.31434933903E+03  0.10000000000E+02 0.  1.
</event>
<event>
 5    1  0.1369527E-008  0.3862063E+03  0.7957747E-01  0.3424572E+00
         13   -1    0    0    0    0  0.00000000000E+00  0.00000000000E+00  0.14999999963E+04  0.15000000000E+04  0.10566000000E+00 0. -1.
        994   -1    0    0    0    0 -0.00000000000E+00 -0.00000000000E+00  0.11368683772E-12  0.17120000000E+03  0.17120000000E+03 0.  0.
         13    1    1    2    0    0 -0.11398808609E+02  0.24071422378E+01  0.67573606123E+02  0.68570624760E+02  0.10566000000E+00 0. -1.
        994    1    1    2    0    0  0.72181010950E+01  0.38691982120E+01  0.12521676790E+01  0.17140034890E+03  0.17120000000E+03 0.  0.
        998    1    1    2    0    0  0.41807075139E+01 -0.62763404498E+01  0.14311742225E+04  0.14312290263E+04  0.10000000000E+02 0. -1.
</event>
<event>
 5    1  0.1369527E-008  0.3772407E+03  0.7957747E-01  0.3463262E+00
         13   -1    0    0    0    0  0.00000000000E+00  0.00000000000E+00  0.14999999963E+04  0.15000000000E+04  0.10566000000E+00 0. -1.
        994   -1    0    0    0    0 -0.00000000000E+00 -0.00000000000E+00  0.11368683772E-12  0.17120000000E+03  0.17120000000E+03 0.  0.
         13    1    1    2    0    0 -0.41822433763E+01  0.14525688265E+02  0.18606289271E+02  0.23972733338E+02  0.10566000000E+00 0. -1.
        994    1    1    2    0    0 -0.29473263469E+02 -0.11319843666E+02  0.89028519767E+01  0.17431440816E+03  0.17120000000E+03 0.  0.
        998    1    1    2    0    0  0.33655506845E+02 -0.32058445991E+01  0.14724908550E+04  0.14729128585E+04  0.10000000000E+02 0. -1.
</event>
<event>
 5    1  0.1369527E-008  0.3821162E+03  0.7957747E-01  0.3441996E+00
         13   -1    0    0    0    0  0.00000000000E+00  0.00000000000E+00  0.14999999963E+04  0.15000000000E+04  0.10566000000E+00 0. -1.
        994   -1    0    0    0    0 -0.00000000000E+00 -0.00000000000E+00  0.11368683772E-12  0.17120000000E+03  0.17120000000E+03 0.  0.
         13    1    1    2    0    0 -0.21795533385E+02  0.76768343296E+01  0.83168321757E+02  0.86318943279E+02  0.10566000000E+00 0. -1.
        994    1    1    2    0    0  0.24702084890E+02  0.70676756811E+01  0.52632832158E+01  0.17319724937E+03  0.17120000000E+03 0.  0.
        998    1    1    2    0    0 -0.29065515045E+01 -0.14744510011E+02  0.14115683913E+04  0.14116838074E+04  0.10000000000E+02 0. -1.
</event>
<event>
 5    1  0.1369527E-008  0.3790902E+03  0.7957747E-01  0.3455129E+00
         13   -1    0    0    0    0  0.00000000000E+00  0.00000000000E+00  0.14999999963E+04  0.15000000000E+04  0.10566000000E+00 0. -1.
        994   -1    0    0    0    0 -0.00000000000E+00 -0.00000000000E+00  0.11368683772E-12  0.17120000000E+03  0.17120000000E+03 0.  0.
         13    1    1    2    0    0  0.11859805548E+02 -0.30994512336E+01  0.14525632856E+02  0.19007018690E+02  0.10566000000E+00 0. -1.
        994    1    1    2    0    0 -0.30829713920E+01  0.45475446884E+01  0.46943138858E+01  0.17135244807E+03  0.17120000000E+03 0.  0.
        998    1    1    2    0    0 -0.87768341559E+01 -0.14480934548E+01  0.14807800495E+04  0.14808405332E+04  0.10000000000E+02 0. -1.
</event>
<event>
 5    1  0.1369527E-008  0.3853442E+03  0.7957747E-01  0.3428214E+00
         13   -1    0    0    0    0  0.00000000000E+00  0.00000000000E+00  0.14999999963E+04  0.15000000000E+04  0.10566000000E+00 0.  1.
        994   -1    0    0    0    0 -0.00000000000E+00 -0.00000000000E+00  0.11368683772E-12  0.17120000000E+03  0.17120000000E+03 0.  0.
         13    1    1    2    0    0 -0.29689345557E+01  0.12004661610E+02  0.54816027880E+02  0.56193723398E+02  0.10566000000E+00 0.  1.
        994    1    1    2    0    0 -0.70005730237E+01 -0.32655106665E+01  0.16553866908E+01  0.17138218078E+03  0.17120000000E+03 0.  0.
        998    1    1    2    0    0  0.99695075794E+01 -0.87391509436E+01  0.14435285817E+04  0.14436240958E+04  0.10000000000E+02 0.  1.
</event>
<event>
 5    1  0.1369527E-008  0.3711115E+03  0.7957747E-01  0.3490798E+00
         13   -1    0    0    0    0  0.00000000000E+00  0.00000000000E+00  0.14999999963E+04  0.15000000000E+04  0.10566000000E+00 0.  1.
        994   -1    0    0    0    0 -0.00000000000E+00 -0.00000000000E+00  0.11368683772E-12  0.17120000000E+03  0.17120000000E+03 0.  0.
         13    1    1    2    0    0  0.27817256204E+02  0.29196011758E+02  0.71395238467E+02  0.81996939486E+02  0.10566000000E+00 0.  1.
        994    1    1    2    0    0  0.28586946213E+02 -0.30200965436E+02  0.17621658215E+02  0.17705726375E+03  0.17120000000E+03 0.  0.
        998    1    1    2    0    0 -0.56404202417E+02  0.10049536785E+01  0.14109830996E+04  0.14121457968E+04  0.10000000000E+02 0.  1.
</event>
<event>
 5    1  0.1369527E-008  0.3828942E+03  0.7957747E-01  0.3438653E+00
         13   -1    0    0    0    0  0.00000000000E+00  0.00000000000E+00  0.14999999963E+04  0.15000000000E+04  0.10566000000E+00 0. -1.
        994   -1    0    0    0    0 -0.00000000000E+00 -0.00000000000E+00  0.11368683772E-12  0.17120000000E+03  0.17120000000E+03 0.  0.
         13    1    1    2    0    0 -0.17468552306E+02  0.99436997378E+01  0.75498520816E+02  0.78128517800E+02  0.10566000000E+00 0. -1.
        994    1    1    2    0    0  0.13922805569E+02  0.28028853540E+01  0.33474389874E+01  0.17182067986E+03  0.17120000000E+03 0.  0.
        998    1    1    2    0    0  0.35457467371E+01 -0.12746585092E+02  0.14211540365E+04  0.14212508023E+04  0.10000000000E+02 0. -1.
</event>
<event>
 5    1  0.2509356E-008  0.3860263E+03  0.7957747E-01  0.3425331E+00
         13   -1    0    0    0    0  0.00000000000E+00  0.00000000000E+00  0.14999999963E+04  0.15000000000E+04  0.10566000000E+00 0. -1.
        994   -1    0    0    0    0 -0.00000000000E+00 -0.00000000000E+00  0.11368683772E-12  0.17120000000E+03  0.17120000000E+03 0.  0.
         13    1    1    2    0    0 -0.92598741563E+01 -0.69276972031E+01  0.59303018199E+02  0.60420173696E+02  0.10566000000E+00 0. -1.
        994    1    1    2    0    0  0.96281507715E+01  0.41322257383E+01  0.14813608498E+01  0.17152670640E+03  0.17120000000E+03 0.  0.
        998    1    1    2    0    0 -0.36827661520E+00  0.27954714648E+01  0.14392156172E+04  0.14392531199E+04  0.10000000000E+02 0. -1.
</event>
<event>
 5    1  0.1369527E-008  0.3846703E+03  0.7957747E-01  0.3431072E+00
         13   -1    0    0    0    0  0.00000000000E+00  0.00000000000E+00  0.14999999963E+04  0.15000000000E+04  0.10566000000E+00 0. -1.
        994   -1    0    0    0    0 -0.00000000000E+00 -0.00000000000E+00  0.11368683772E-12  0.17120000000E+03  0.17120000000E+03 0.  0.
         13    1    1    2    0    0  0.11343358955E+02 -0.18205752567E+01  0.37363390894E+02  0.39089901890E+02  0.10566000000E+00 0. -1.
        994    1    1    2    0    0 -0.31175424146E+01 -0.22084440876E+01  0.18419805622E+01  0.17125253046E+03  0.17120000000E+03 0.  0.
        998    1    1    2    0    0 -0.82258165402E+01  0.40290193443E+01  0.14607946248E+04  0.14608575677E+04  0.10000000000E+02 0. -1.
</event>
<event>
 5    1  0.1369527E-008  0.3852762E+03  0.7957747E-01  0.3428501E+00
         13   -1    0    0    0    0  0.00000000000E+00  0.00000000000E+00  0.14999999963E+04  0.15000000000E+04  0.10566000000E+00 0.  1.
        994   -1    0    0    0    0 -0.00000000000E+00 -0.00000000000E+00  0.11368683772E-12  0.17120000000E+03  0.17120000000E+03 0.  0.
         13    1    1    2    0    0  0.16206362378E+02 -0.64209399563E+01  0.10197405979E+03  0.10345334545E+03  0.10566000000E+00 0.  1.
        994    1    1    2    0    0 -0.63680124341E+01  0.15043830287E+02  0.23703925846E+01  0.17199397423E+03  0.17120000000E+03 0.  0.
        998    1    1    2    0    0 -0.98383499438E+01 -0.86228903304E+01  0.13956555439E+04  0.13957526803E+04  0.10000000000E+02 0.  1.
</event>
<event>
 5    1  0.1369527E-008  0.3704826E+03  0.7957747E-01  0.3493676E+00
         13   -1    0    0    0    0  0.00000000000E+00  0.00000000000E+00  0.14999999963E+04  0.15000000000E+04  0.10566000000E+00 0.  1.
        994   -1    0    0    0    0 -0.00000000000E+00 -0.00000000000E+00  0.11368683772E-12  0.17120000000E+03  0.17120000000E+03 0.  0.
         13    1    1    2    0    0 -0.76237447636E+02  0.46581285739E+02  0.27925079851E+03  0.29319444783E+03  0.10566000000E+00 0.  1.
        994    1    1    2    0    0  0.72101603312E+02 -0.60474615256E+02  0.42886586245E+02  0.20001129861E+03  0.17120000000E+03 0.  0.
        998    1    1    2    0    0  0.41358443233E+01  0.13893329518E+02  0.11778626115E+04  0.11779942536E+04  0.10000000000E+02 0.  1.
</event>
<event>
 5    1  0.1369527E-008  0.3835126E+03  0.7957747E-01  0.3436005E+00
         13   -1    0    0    0    0  0.00000000000E+00  0.00000000000E+00  0.14999999963E+04  0.15000000000E+04  0.10566000000E+00 0.  1.
        994   -1    0    0    0    0 -0.00000000000E+00 -0.00000000000E+00  0.11368683772E-12  0.17120000000E+03  0.17120000000E+03 0.  0.
         13    1    1    2    0    0 -0.11298896738E+02 -0.72253885653E+01  0.38282311974E+02  0.40563750831E+02  0.10566000000E+00 0.  1.
        994    1    1    2    0    0 -0.50314765649E+01  0.12741187439E+02  0.29907599047E+01  0.17177321752E+03  0.17120000000E+03 0.  0.
        998    1    1    2    0    0  0.16330373303E+02 -0.55157988740E+01  0.14587269244E+04  0.14588630316E+04  0.10000000000E+02 0.  1.
</event>
<event>
 5    1  0.1369527E-008  0.3734533E+03  0.7957747E-01  0.3480169E+00
         13   -1    0    0    0    0  0.00000000000E+00  0.00000000000E+00  0.14999999963E+04  0.15000000000E+04  0.10566000000E+00 0.  1.
        994   -1    0    0    0    0 -0.00000000000E+00 -0.00000000000E+00  0.11368683772E-12  0.17120000000E+03  0.17120000000E+03 0.  0.
         13    1    1    2    0    0  0.81472776588E+01 -0.83428762471E+01  0.55886325633E+01  0.12931577448E+02  0.10566000000E+00 0.  1.
        994    1    1    2    0    0 -0.94833296771E+01  0.99271464114E+01  0.81194319487E+01  0.17194140558E+03  0.17120000000E+03 0.  0.
        998    1    1    2    0    0  0.13360520183E+01 -0.15842701643E+01  0.14862919318E+04  0.14863270170E+04  0.10000000000E+02 0.  1.
</event>
<event>
 5    1  0.1369527E-008  0.3813010E+03  0.7957747E-01  0.3445513E+00
         13   -1    0    0    0    0  0.00000000000E+00  0.00000000000E+00  0.14999999963E+04  0.15000000000E+04  0.10566000000E+00 0.  1.
        994   -1    0    0    0    0 -0.00000000000E+00 -0.00000000000E+00  0.11368683772E-12  0.17120000000E+03  0.17120000000E+03 0.  0.
         13    1    1    2    0    0 -0.12508704940E+02 -0.29966827776E+02  0.16367302732E+03  0.16686326588E+03  0.10566000000E+00 0.  1.
        994    1    1    2    0    0 -0.26985064577E+01  0.93109469447E+01  0.37907335106E+01  0.17151613723E+03  0.17120000000E+03 0.  0.
        998    1    1    2    0    0  0.15207211398E+02  0.20655880831E+02  0.13325362355E+04  0.13328205969E+04  0.10000000000E+02 0.  1.
</event>
<event>
 5    1  0.1369527E-008  0.3853474E+03  0.7957747E-01  0.3428200E+00
         13   -1    0    0    0    0  0.00000000000E+00  0.00000000000E+00  0.14999999963E+04  0.15000000000E+04  0.10566000000E+00 0. -1.
        994   -1    0    0    0    0 -0.00000000000E+00 -0.00000000000E+00  0.11368683772E-12  0.17120000000E+03  0.17120000000E+03 0.  0.
         13    1    1    2    0    0  0.59838268945E+01  0.89844496201E+01  0.37295232842E+02  0.38826177716E+02  0.10566000000E+00 0. -1.
        994    1    1    2    0    0 -0.97210948855E+01 -0.18892280811E+02  0.29420400148E+01  0.17253844082E+03  0.17120000000E+03 0.  0.
        998    1    1    2    0    0  0.37372679910E+01  0.99078311914E+01  0.14597627234E+04  0.14598353815E+04  0.10000000000E+02 0. -1.
</event>
<event>
 5    1  0.1369527E-008  0.3872667E+03  0.7957747E-01  0.3420116E+00
         13   -1    0    0    0    0  0.00000000000E+00  0.00000000000E+00  0.14999999963E+04  0.15000000000E+04  0.10566000000E+00 0.  1.
        994   -1    0    0    0    0 -0.00000000000E+00 -0.00000000000E+00  0.11368683772E-12  0.17120000000E+03  0.17120000000E+03 0.  0.
         13    1    1    2    0    0  0.17168125662E+02 -0.63927196275E+02  0.96687359777E+02  0.11717460334E+03  0.10566000000E+00 0.  1.
        994    1    1    2    0    0 -0.15877341404E+02  0.57505730945E+02  0.33750781891E+02  0.18441137259E+03  0.17120000000E+03 0.  0.
        998    1    1    2    0    0 -0.12907842585E+01  0.64214653298E+01  0.13695618546E+04  0.13696140241E+04  0.10000000000E+02 0.  1.
</event>
<event>
 5    1  0.1369527E-008  0.3862523E+03  0.7957747E-01  0.3424378E+00
         13   -1    0    0    0    0  0.00000000000E+00  0.00000000000E+00  0.14999999963E+04  0.15000000000E+04  0.10566000000E+00 0. -1.
        994   -1    0    0    0    0 -0.00000000000E+00 -0.00000000000E+00  0.11368683772E-12  0.17120000000E+03  0.17120000000E+03 0.  0.
         13    1    1    2    0    0  0.23674336532E+01 -0.11432718146E+02  0.64615099219E+02  0.65661510776E+02  0.10566000000E+00 0. -1.
        994    1    1    2    0    0 -0.18183357903E+02  0.12343180789E+02  0.25931936279E+01  0.17262431251E+03  0.17120000000E+03 0.  0.
        998    1    1    2    0    0  0.15815924249E+02 -0.91046264237E+00  0.14327917034E+04  0.14329141767E+04  0.10000000000E+02 0. -1.
</event>
<event>
 5    1  0.1369527E-008  0.3977489E+03  0.7957747E-01  0.3377339E+00
         13   -1    0    0    0    0  0.00000000000E+00  0.00000000000E+00  0.14999999963E+04  0.15000000000E+04  0.10566000000E+00 0.  1.
        994   -1    0    0    0    0 -0.00000000000E+00 -0.00000000000E+00  0.11368683772E-12  0.17120000000E+03  0.17120000000E+03 0.  0.
         13    1    1    2    0    0 -0.17291743869E+02 -0.44345681927E+02  0.32444136257E+02  0.57603620139E+02  0.10566000000E+00 0.  1.
        994    1    1    2    0    0  0.96368454912E+01  0.43786772932E+02  0.34277286571E+02  0.18026237170E+03  0.17120000000E+03 0.  0.
        998    1    1    2    0    0  0.76548983775E+01  0.55890899527E+00  0.14332785735E+04  0.14333340082E+04  0.10000000000E+02 0.  1.
</event>
<event>
 5    1  0.1369527E-008  0.3825928E+03  0.7957747E-01  0.3439946E+00
         13   -1    0    0    0    0  0.00000000000E+00  0.00000000000E+00  0.14999999963E+04  0.15000000000E+04  0.10566000000E+00 0. -1.
        994   -1    0    0    0    0 -0.00000000000E+00 -0.00000000000E+00  0.11368683772E-12  0.17120000000E+03  0.17120000000E+03 0.  0.
         13    1    1    2    0    0  0.13691110545E+02 -0.10160485985E+02  0.49661812383E+02  0.52507035305E+02  0.10566000000E+00 0. -1.
        994    1    1    2    0    0 -0.92937705774E+01  0.12399196949E+02  0.36262770768E+01  0.17193808229E+03  0.17120000000E+03 0.  0.
        998    1    1    2    0    0 -0.43973399673E+01 -0.22387109643E+01  0.14467119068E+04  0.14467548824E+04  0.10000000000E+02 0. -1.
</event>
<event>
 5    1  0.1369527E-008  0.3771772E+03  0.7957747E-01  0.3463543E+00
         13   -1    0    0    0    0  0.00000000000E+00  0.00000000000E+00  0.14999999963E+04  0.15000000000E+04  0.10566000000E+00 0. -1.
        994   -1    0    0    0    0 -0.00000000000E+00 -0.00000000000E+00  0.11368683772E-12  0.17120000000E+03  0.17120000000E+03 0.  0.
         13    1    1    2    0    0 -0.29115175327E+02  0.41505309569E+01  0.75265622126E+02  0.80807458687E+02  0.10566000000E+00 0. -1.
        994    1    1    2    0    0  0.22595209931E+02  0.17427097193E+02  0.83174266755E+01  0.17376094732E+03  0.17120000000E+03 0.  0.
        998    1    1    2    0    0  0.65199653958E+01 -0.21577628150E+02  0.14164169475E+04  0.14166315940E+04  0.10000000000E+02 0. -1.
</event>
<event>
 5    1  0.1369527E-008  0.3848635E+03  0.7957747E-01  0.3430251E+00
         13   -1    0    0    0    0  0.00000000000E+00  0.00000000000E+00  0.14999999963E+04  0.15000000000E+04  0.10566000000E+00 0. -1.
        994   -1    0    0    0    0 -0.00000000000E+00 -0.00000000000E+00  0.11368683772E-12  0.17120000000E+03  0.17120000000E+03 0.  0.
         13    1    1    2    0    0 -0.22534081829E+01 -0.12529175696E+02  0.47301430040E+02  0.48984635754E+02  0.10566000000E+00 0. -1.
        994    1    1    2    0    0  0.94969626398E+01  0.81588727798E+01  0.22138328491E+01  0.17167149024E+03  0.17120000000E+03 0.  0.
        998    1    1    2    0    0 -0.72435544569E+01  0.43703029164E+01  0.14504847334E+04  0.14505438740E+04  0.10000000000E+02 0. -1.
</event>
<event>
 5    1  0.1369527E-008  0.3829769E+03  0.7957747E-01  0.3438298E+00
         13   -1    0    0    0    0  0.00000000000E+00  0.00000000000E+00  0.14999999963E+04  0.15000000000E+04  0.10566000000E+00 0. -1.
        994   -1    0    0    0    0 -0.00000000000E+00 -0.00000000000E+00  0.11368683772E-12  0.17120000000E+03  0.17120000000E+03 0.  0.
         13    1    1    2    0    0  0.20600530563E+02 -0.53110953110E+01  0.85488373164E+02  0.88095758713E+02  0.10566000000E+00 0. -1.
        994    1    1    2    0    0 -0.20466988015E+02 -0.25746344612E+02  0.62272424413E+01  0.17444193993E+03  0.17120000000E+03 0.  0.
        998    1    1    2    0    0 -0.13354254806E+00  0.31057439923E+02  0.14082843807E+04  0.14086623014E+04  0.10000000000E+02 0. -1.
</event>
<event>
 5    1  0.1369527E-008  0.3834111E+03  0.7957747E-01  0.3436439E+00
         13   -1    0    0    0    0  0.00000000000E+00  0.00000000000E+00  0.14999999963E+04  0.15000000000E+04  0.10566000000E+00 0. -1.
        994   -1    0    0    0    0 -0.00000000000E+00 -0.00000000000E+00  0.11368683772E-12  0.17120000000E+03  0.17120000000E+03 0.  0.
         13    1    1    2    0    0 -0.68852639218E+01  0.11824046679E+02  0.37310073917E+02  0.39740001495E+02  0.10566000000E+00 0. -1.
        994    1    1    2    0    0  0.88840901325E+01 -0.10268570043E+02  0.30307370553E+01  0.17176436171E+03  0.17120000000E+03 0.  0.
        998    1    1    2    0    0 -0.19988262107E+01 -0.15554766352E+01  0.14596591853E+04  0.14596956368E+04  0.10000000000E+02 0. -1.
</event>
<event>
 5    1  0.1369527E-008  0.3841491E+03  0.7957747E-01  0.3433289E+00
         13   -1    0    0    0    0  0.00000000000E+00  0.00000000000E+00  0.14999999963E+04  0.15000000000E+04  0.10566000000E+00 0. -1.
        994   -1    0    0    0    0 -0.00000000000E+00 -0.00000000000E+00  0.11368683772E-12  0.17120000000E+03  0.17120000000E+03 0.  0.
         13    1    1    2    0    0 -0.99149157153E+01 -0.12235730310E+02  0.61801420166E+02  0.63776526626E+02  0.10566000000E+00 0. -1.
        994    1    1    2    0    0  0.41831284721E+01  0.31454859935E+01  0.21435233098E+01  0.17129339549E+03  0.17120000000E+03 0.  0.
        998    1    1    2    0    0  0.57317872432E+01  0.90902443164E+01  0.14360550528E+04  0.14361300779E+04  0.10000000000E+02 0. -1.
</event>
<event>
 5    1  0.1369527E-008  0.3791382E+03  0.7957747E-01  0.3454920E+00
         13   -1    0    0    0    0  0.00000000000E+00  0.00000000000E+00  0.14999999963E+04  0.15000000000E+04  0.10566000000E+00 0. -1.
        994   -1    0    0    0    0 -0.00000000000E+00 -0.00000000000E+00  0.11368683772E-12  0.17120000000E+03  0.17120000000E+03 0.  0.
         13    1    1    2    0    0  0.28073131366E+02  0.58777299339E+02  0.34568127699E+03  0.35176473395E+03  0.10566000000E+00 0. -1.
        994    1    1    2    0    0 -0.35411668874E+02 -0.59004082105E+02  0.20611629009E+02  0.18566030068E+03  0.17120000000E+03 0.  0.
        998    1    1    2    0    0  0.73385375086E+01  0.22678276579E+00  0.11337070903E+04  0.11337749654E+04  0.10000000000E+02 0. -1.
</event>
<event>
 5    1  0.1369527E-008  0.3722986E+03  0.7957747E-01  0.3485393E+00
         13   -1    0    0    0    0  0.00000000000E+00  0.00000000000E+00  0.14999999963E+04  0.15000000000E+04  0.10566000000E+00 0. -1.
        994   -1    0    0    0    0 -0.00000000000E+00 -0.00000000000E+00  0.11368683772E-12  0.17120000000E+03  0.17120000000E+03 0.  0.
         13    1    1    2    0    0 -0.13800857799E+02  0.33836174298E+02  0.80511626405E+02  0.88416534187E+02  0.10566000000E+00 0. -1.
        994    1    1    2    0    0 -0.11208025281E+02 -0.26821545771E+02  0.10976837373E+02  0.17399697155E+03  0.17120000000E+03 0.  0.
        998    1    1    2    0    0  0.25008883080E+02 -0.70146285271E+01  0.14085115325E+04  0.14087864943E+04  0.10000000000E+02 0. -1.
</event>
<event>
 5    1  0.1369527E-008  0.3818012E+03  0.7957747E-01  0.3443353E+00
         13   -1    0    0    0    0  0.00000000000E+00  0.00000000000E+00  0.14999999963E+04  0.15000000000E+04  0.10566000000E+00 0. -1.
        994   -1    0    0    0    0 -0.00000000000E+00 -0.00000000000E+00  0.11368683772E-12  0.17120000000E+03  0.17120000000E+03 0.  0.
         13    1    1    2    0    0 -0.15938270630E+02 -0.25589660409E+02  0.13237752104E+03  0.13576700052E+03  0.10566000000E+00 0. -1.
        994    1    1    2    0    0  0.20156534317E+02  0.18482654524E+02  0.57159773363E+01  0.17346471339E+03  0.17120000000E+03 0.  0.
        998    1    1    2    0    0 -0.42182636868E+01  0.71070058849E+01  0.13619064979E+04  0.13619682861E+04  0.10000000000E+02 0. -1.
</event>
<event>
 5    1  0.1369527E-008  0.3792236E+03  0.7957747E-01  0.3454546E+00
         13   -1    0    0    0    0  0.00000000000E+00  0.00000000000E+00  0.14999999963E+04  0.15000000000E+04  0.10566000000E+00 0.  1.
        994   -1    0    0    0    0 -0.00000000000E+00 -0.00000000000E+00  0.11368683772E-12  0.17120000000E+03  0.17120000000E+03 0.  0.
         13    1    1    2    0    0  0.31837982147E+02 -0.22447565273E+02  0.20054091135E+03  0.20428954595E+03  0.10566000000E+00 0.  1.
        994    1    1    2    0    0 -0.68326681303E+01 -0.14392299677E+02  0.53767394661E+01  0.17202375700E+03  0.17120000000E+03 0.  0.
        998    1    1    2    0    0 -0.25005314017E+02  0.36839864950E+02  0.12940823455E+04  0.12948866971E+04  0.10000000000E+02 0.  1.
</event>
<event>
 5    1  0.1369527E-008  0.3846994E+03  0.7957747E-01  0.3430948E+00
         13   -1    0    0    0    0  0.00000000000E+00  0.00000000000E+00  0.14999999963E+04  0.15000000000E+04  0.10566000000E+00 0.  1.
        994   -1    0    0    0    0 -0.00000000000E+00 -0.00000000000E+00  0.11368683772E-12  0.17120000000E+03  0.17120000000E+03 0.  0.
         13    1    1    2    0    0 -0.16923056719E+02  0.18113817070E+01  0.92961297451E+02  0.94506533850E+02  0.10566000000E+00 0.  1.
        994    1    1    2    0    0 -0.85494302419E+01 -0.47473636754E+02  0.94769284238E+01  0.17811819423E+03  0.17120000000E+03 0.  0.
        998    1    1    2    0    0  0.25472486961E+02  0.45662255047E+02  0.13975617704E+04  0.13985752719E+04  0.10000000000E+02 0.  1.
</event>
<event>
 5    1  0.1369527E-008  0.3699456E+03  0.7957747E-01  0.3496141E+00
         13   -1    0    0    0    0  0.00000000000E+00  0.00000000000E+00  0.14999999963E+04  0.15000000000E+04  0.10566000000E+00 0.  1.
        994   -1    0    0    0    0 -0.00000000000E+00 -0.00000000000E+00  0.11368683772E-12  0.17120000000E+03  0.17120000000E+03 0.  0.
         13    1    1    2    0    0  0.68954116561E+02  0.30698161635E+02  0.35751524102E+03  0.36539595789E+03  0.10566000000E+00 0.  1.
        994    1    1    2    0    0 -0.29963875598E+02  0.12387051776E+02  0.12941815647E+02  0.17472321965E+03  0.17120000000E+03 0.  0.
        998    1    1    2    0    0 -0.38990240963E+02 -0.43085213410E+02  0.11295429396E+04  0.11310808225E+04  0.10000000000E+02 0.  1.
</event>
<event>
 5    1  0.1369527E-008  0.3746112E+03  0.7957747E-01  0.3474964E+00
         13   -1    0    0    0    0  0.00000000000E+00  0.00000000000E+00  0.14999999963E+04  0.15000000000E+04  0.10566000000E+00 0.  1.
        994   -1    0    0    0    0 -0.00000000000E+00 -0.00000000000E+00  0.11368683772E-12  0.17120000000E+03  0.17120000000E+03 0.  0.
         13    1    1    2    0    0 -0.27768864197E+02  0.39571080565E+02  0.15986267354E+03  0.16701217259E+03  0.10566000000E+00 0.  1.
        994    1    1    2    0    0  0.35031338868E+02 -0.21440647939E+02  0.12641879885E+02  0.17651105692E+03  0.17120000000E+03 0.  0.
        998    1    1    2    0    0 -0.72624746712E+01 -0.18130432626E+02  0.13274954429E+04  0.13276767705E+04  0.10000000000E+02 0.  1.
</event>
<event>
 5    1  0.1369527E-008  0.3855523E+03  0.7957747E-01  0.3427333E+00
         13   -1    0    0    0    0  0.00000000000E+00  0.00000000000E+00  0.14999999963E+04  0.15000000000E+04  0.10566000000E+00 0.  1.
        994   -1    0    0    0    0 -0.00000000000E+00 -0.00000000000E+00  0.11368683772E-12  0.17120000000E+03  0.17120000000E+03 0.  0.
         13    1    1    2    0    0 -0.21190097436E+01 -0.14705006394E+02  0.83968653727E+02  0.85272934675E+02  0.10566000000E+00 0.  1.
        994    1    1    2    0    0  0.64609831103E+00  0.64020797738E+01  0.14921360927E+01  0.17132737825E+03  0.17120000000E+03 0.  0.
        998    1    1    2    0    0  0.14729114326E+01  0.83029266199E+01  0.14145392065E+04  0.14145996871E+04  0.10000000000E+02 0.  1.
</event>
<event>
 5    1  0.1369527E-008  0.3861331E+03  0.7957747E-01  0.3424881E+00
         13   -1    0    0    0    0  0.00000000000E+00  0.00000000000E+00  0.14999999963E+04  0.15000000000E+04  0.10566000000E+00 0.  1.
        994   -1    0    0    0    0 -0.00000000000E+00 -0.00000000000E+00  0.11368683772E-12  0.17120000000E+03  0.17120000000E+03 0.  0.
         13    1    1    2    0    0 -0.10760256868E+02 -0.32856697901E+01  0.53491308771E+02  0.54661778529E+02  0.10566000000E+00 0.  1.
        994    1    1    2    0    0  0.26036857965E+02 -0.15111846617E+01  0.33005563458E+01  0.17320662610E+03  0.17120000000E+03 0.  0.
        998    1    1    2    0    0 -0.15276601097E+02  0.47968544518E+01  0.14432081312E+04  0.14433315954E+04  0.10000000000E+02 0.  1.
</event>
<event>
 5    1  0.1369527E-008  0.3862146E+03  0.7957747E-01  0.3424537E+00
         13   -1    0    0    0    0  0.00000000000E+00  0.00000000000E+00  0.14999999963E+04  0.15000000000E+04  0.10566000000E+00 0.  1.
        994   -1    0    0    0    0 -0.00000000000E+00 -0.00000000000E+00  0.11368683772E-12  0.17120000000E+03  0.17120000000E+03 0.  0.
         13    1    1    2    0    0 -0.11059420747E+02  0.36622166384E+00  0.59914952220E+02  0.60928298590E+02  0.10566000000E+00 0.  1.
        994    1    1    2    0    0  0.85979846594E+01 -0.98741113594E+00  0.12736757509E+01  0.17142334313E+03  0.17120000000E+03 0.  0.
        998    1    1    2    0    0  0.24614360872E+01  0.62118947209E+00  0.14388113683E+04  0.14388483583E+04  0.10000000000E+02 0.  1.
</event>
<event>
 5    1  0.1369527E-008  0.3835189E+03  0.7957747E-01  0.3435978E+00
         13   -1    0    0    0    0  0.00000000000E+00  0.00000000000E+00  0.14999999963E+04  0.15000000000E+04  0.10566000000E+00 0.  1.
        994   -1    0    0    0    0 -0.00000000000E+00 -0.00000000000E+00  0.11368683772E-12  0.17120000000E+03  0.17120000000E+03 0.  0.
         13    1    1    2    0    0  0.16133232505E+02  0.45293033708E+01  0.59292045567E+02  0.61614556816E+02  0.10566000000E+00 0.  1.
        994    1    1    2    0    0 -0.86601699555E+01 -0.24026647562E+01  0.26342374278E+01  0.17145597262E+03  0.17120000000E+03 0.  0.
        998    1    1    2    0    0 -0.74730625490E+01 -0.21266386146E+01  0.14380737133E+04  0.14381294706E+04  0.10000000000E+02 0.  1.
</event>
<event>
 5    1  0.1369527E-008  0.3710748E+03  0.7957747E-01  0.3490966E+00
         13   -1    0    0    0    0  0.00000000000E+00  0.00000000000E+00  0.14999999963E+04  0.15000000000E+04  0.10566000000E+00 0. -1.
        994   -1    0    0    0    0 -0.00000000000E+00 -0.00000000000E+00  0.11368683772E-12  0.17120000000E+03  0.17120000000E+03 0.  0.
         13    1    1    2    0    0  0.31712676783E+01 -0.18151613399E+02  0.95407742021E+01  0.20750314313E+02  0.10566000000E+00 0. -1.
        994    1    1    2    0    0 -0.47212829211E+01  0.17822559172E+02  0.12702019184E+02  0.17265779861E+03  0.17120000000E+03 0.  0.
        998    1    1    2    0    0  0.15500152428E+01  0.32905422710E+00  0.14777572029E+04  0.14777918871E+04  0.10000000000E+02 0. -1.
</event>
<event>
 5    1  0.1369527E-008  0.3775293E+03  0.7957747E-01  0.3461987E+00
         13   -1    0    0    0    0  0.00000000000E+00  0.00000000000E+00  0.14999999963E+04  0.15000000000E+04  0.10566000000E+00 0. -1.
        994   -1    0    0    0    0 -0.00000000000E+00 -0.00000000000E+00  0.11368683772E-12  0.17120000000E+03  0.17120000000E+03 0.  0.
         13    1    1    2    0    0  0.20828146321E+02  0.11136754933E+01  0.37229378831E+02  0.42674228340E+02  0.10566000000E+00 0. -1.
        994    1    1    2    0    0 -0.22670025259E+02 -0.29520806233E+01  0.71490838287E+01  0.17286756267E+03  0.17120000000E+03 0.  0.
        998    1    1    2    0    0  0.18418789372E+01  0.18384051300E+01  0.14556215336E+04  0.14556582090E+04  0.10000000000E+02 0. -1.
</event>
<event>
 5    1  0.1369527E-008  0.3749348E+03  0.7957747E-01  0.3473515E+00
         13   -1    0    0    0    0  0.00000000000E+00  0.00000000000E+00  0.14999999963E+04  0.15000000000E+04  0.10566000000E+00 0. -1.
        994   -1    0    0    0    0 -0.00000000000E+00 -0.00000000000E+00  0.11368683772E-12  0.17120000000E+03  0.17120000000E+03 0.  0.
         13    1    1    2    0    0  0.55309359290E+02  0.29722025797E+02  0.25490757841E+03  0.26252696764E+03  0.10566000000E+00 0. -1.
        994    1    1    2    0    0 -0.37596764436E+02 -0.50008324048E+02  0.20139355434E+02  0.18338315846E+03  0.17120000000E+03 0.  0.
        998    1    1    2    0    0 -0.17712594854E+02  0.20286298251E+02  0.12249530624E+04  0.12252898739E+04  0.10000000000E+02 0. -1.
</event>
<event>
 5    1  0.1369527E-008  0.2884938E+03  0.7957747E-01  0.3981749E+00
         13   -1    0    0    0    0  0.00000000000E+00  0.00000000000E+00  0.14999999963E+04  0.15000000000E+04  0.10566000000E+00 0.  1.
        994   -1    0    0    0    0 -0.00000000000E+00 -0.00000000000E+00  0.11368683772E-12  0.17120000000E+03  0.17120000000E+03 0.  0.
         13    1    1    2    0    0  0.20807323081E+03 -0.59502377683E+02  0.38182367074E+03  0.43888988258E+03  0.10566000000E+00 0.  1.
        994    1    1    2    0    0 -0.22976387805E+03  0.74821487669E+02  0.32910711134E+03  0.44273087244E+03  0.17120000000E+03 0.  0.
        998    1    1    2    0    0  0.21690647240E+02 -0.15319109987E+02  0.78906921419E+03  0.78957924498E+03  0.10000000000E+02 0.  1.
</event>
<event>
 5    1  0.1369527E-008  0.3925641E+03  0.7957747E-01  0.3398212E+00
         13   -1    0    0    0    0  0.00000000000E+00  0.00000000000E+00  0.14999999963E+04  0.15000000000E+04  0.10566000000E+00 0.  1.
        994   -1    0    0    0    0 -0.00000000000E+00 -0.00000000000E+00  0.11368683772E-12  0.17120000000E+03  0.17120000000E+03 0.  0.
         13    1    1    2    0    0  0.96247076753E+02  0.12389457396E+03  0.39273244274E+03  0.42290914862E+03  0.10566000000E+00 0.  1.
        994    1    1    2    0    0 -0.72483475167E+02 -0.12529656284E+03  0.10828419750E+03  0.24897387465E+03  0.17120000000E+03 0.  0.
        998    1    1    2    0    0 -0.23763601586E+02  0.14019888802E+01  0.99898335604E+03  0.99931697673E+03  0.10000000000E+02 0.  1.
</event>
<event>
 5    1  0.1369527E-008  0.3835733E+03  0.7957747E-01  0.3435746E+00
         13   -1    0    0    0    0  0.00000000000E+00  0.00000000000E+00  0.14999999963E+04  0.15000000000E+04  0.10566000000E+00 0.  1.
        994   -1    0    0    0    0 -0.00000000000E+00 -0.00000000000E+00  0.11368683772E-12  0.17120000000E+03  0.17120000000E+03 0.  0.
         13    1    1    2    0    0  0.22003540776E+02 -0.96665993340E+00  0.11549142591E+03  0.11757283215E+03  0.10566000000E+00 0.  1.
        994    1    1    2    0    0  0.19304462571E+01 -0.40820938653E+00  0.23530039943E+01  0.17122753834E+03  0.17120000000E+03 0.  0.
        998    1    1    2    0    0 -0.23933987033E+02  0.13748693199E+01  0.13821555664E+04  0.13823996295E+04  0.10000000000E+02 0.  1.
</event>
<event>
 5    1  0.1369527E-008  0.3712393E+03  0.7957747E-01  0.3490215E+00
         13   -1    0    0    0    0  0.00000000000E+00  0.00000000000E+00  0.14999999963E+04  0.15000000000E+04  0.10566000000E+00 0.  1.
        994   -1    0    0    0    0 -0.00000000000E+00 -0.00000000000E+00  0.11368683772E-12  0.17120000000E+03  0.17120000000E+03 0.  0.
         13    1    1    2    0    0  0.51660150179E+02  0.33746983898E+02  0.14970869192E+03  0.16192693921E+03  0.10566000000E+00 0.  1.
        994    1    1    2    0    0 -0.41260755363E+02 -0.36360903940E+02  0.22292319031E+02  0.18119313661E+03  0.17120000000E+03 0.  0.
        998    1    1    2    0    0 -0.10399394815E+02  0.26139200427E+01  0.13279989853E+04  0.13280799242E+04  0.10000000000E+02 0.  1.
</event>
<event>
 5    1  0.1369527E-008  0.3772447E+03  0.7957747E-01  0.3463244E+00
         13   -1    0    0    0    0  0.00000000000E+00  0.00000000000E+00  0.14999999963E+04  0.15000000000E+04  0.10566000000E+00 0.  1.
        994   -1    0    0    0    0 -0.00000000000E+00 -0.00000000000E+00  0.11368683772E-12  0.17120000000E+03  0.17120000000E+03 0.  0.
         13    1    1    2    0    0  0.19460257160E+02 -0.21363018069E+02  0.79103207415E+02  0.84216439827E+02  0.10566000000E+00 0.  1.
        994    1    1    2    0    0 -0.45237036070E+01 -0.39491869122E+01  0.56522017341E+01  0.17139850453E+03  0.17120000000E+03 0.  0.
        998    1    1    2    0    0 -0.14936553553E+02  0.25312204981E+02  0.14152445871E+04  0.14155850556E+04  0.10000000000E+02 0.  1.
</event>
<event>
 5    1  0.1940802E-008  0.3856161E+03  0.7957747E-01  0.3427063E+00
         13   -1    0    0    0    0  0.00000000000E+00  0.00000000000E+00  0.14999999963E+04  0.15000000000E+04  0.10566000000E+00 0. -1.
        994   -1    0    0    0    0 -0.00000000000E+00 -0.00000000000E+00  0.11368683772E-12  0.17120000000E+03  0.17120000000E+03 0.  0.
         13    1    1    2    0    0 -0.10510388567E+02  0.33817734954E+01  0.46942782165E+02  0.48223859460E+02  0.10566000000E+00 0. -1.
        994    1    1    2    0    0  0.48283515685E+01 -0.14242442414E+01  0.14077369400E+01  0.17127978040E+03  0.17120000000E+03 0.  0.
        998    1    1    2    0    0  0.56820369984E+01 -0.19575292540E+01  0.14516494772E+04  0.14516963601E+04  0.10000000000E+02 0. -1.
</event>
<event>
 5    1  0.1433035E-008  0.3860816E+03  0.7957747E-01  0.3425098E+00
         13   -1    0    0    0    0  0.00000000000E+00  0.00000000000E+00  0.14999999963E+04  0.15000000000E+04  0.10566000000E+00 0.  1.
        994   -1    0    0    0    0 -0.00000000000E+00 -0.00000000000E+00  0.11368683772E-12  0.17120000000E+03  0.17120000000E+03 0.  0.
         13    1    1    2    0    0 -0.62033078196E+01  0.10467808864E+02  0.72674422184E+02  0.73686083178E+02  0.10566000000E+00 0.  1.
        994    1    1    2    0    0 -0.37189510586E+01 -0.33488497059E+01  0.11761678758E+01  0.17127716941E+03  0.17120000000E+03 0.  0.
        998    1    1    2    0    0  0.99222588782E+01 -0.71189591577E+01  0.14261494062E+04  0.14262367474E+04  0.10000000000E+02 0.  1.
</event>
<event>
 5    1  0.1369527E-008  0.3700349E+03  0.7957747E-01  0.3495730E+00
         13   -1    0    0    0    0  0.00000000000E+00  0.00000000000E+00  0.14999999963E+04  0.15000000000E+04  0.10566000000E+00 0.  1.
        994   -1    0    0    0    0 -0.00000000000E+00 -0.00000000000E+00  0.11368683772E-12  0.17120000000E+03  0.17120000000E+03 0.  0.
         13    1    1    2    0    0 -0.60408866124E+01  0.26012486492E+02  0.28190679861E+02  0.38831267808E+02  0.10566000000E+00 0.  1.
        994    1    1    2    0    0 -0.93655876566E+01 -0.19277974284E+02  0.12564988075E+02  0.17299327574E+03  0.17120000000E+03 0.  0.
        998    1    1    2    0    0  0.15406474269E+02 -0.67345122080E+01  0.14592443283E+04  0.14593754565E+04  0.10000000000E+02 0.  1.
</event>
<event>
 5    1  0.1369527E-008  0.3806256E+03  0.7957747E-01  0.3448439E+00
         13   -1    0    0    0    0  0.00000000000E+00  0.00000000000E+00  0.14999999963E+04  0.15000000000E+04  0.10566000000E+00 0. -1.
        994   -1    0    0    0    0 -0.00000000000E+00 -0.00000000000E+00  0.11368683772E-12  0.17120000000E+03  0.17120000000E+03 0.  0.
         13    1    1    2    0    0 -0.29255952555E+02 -0.27366884805E+02  0.22157927424E+03  0.22517158586E+03  0.10566000000E+00 0. -1.
        994    1    1    2    0    0  0.16433685782E+02  0.57867215199E+01  0.48309680209E+01  0.17215205612E+03  0.17120000000E+03 0.  0.
        998    1    1    2    0    0  0.12822266773E+02  0.21580163285E+02  0.12735897540E+04  0.12738763580E+04  0.10000000000E+02 0. -1.
</event>
<event>
 5    1  0.1369527E-008  0.3792188E+03  0.7957747E-01  0.3454567E+00
         13   -1    0    0    0    0  0.00000000000E+00  0.00000000000E+00  0.14999999963E+04  0.15000000000E+04  0.10566000000E+00 0. -1.
        994   -1    0    0    0    0 -0.00000000000E+00 -0.00000000000E+00  0.11368683772E-12  0.17120000000E+03  0.17120000000E+03 0.  0.
         13    1    1    2    0    0  0.63494319156E+01 -0.33062133044E+02  0.12671188540E+03  0.13110809660E+03  0.10566000000E+00 0. -1.
        994    1    1    2    0    0 -0.27506170844E+02  0.11201069007E+02  0.74899324193E+01  0.17391835001E+03  0.17120000000E+03 0.  0.
        998    1    1    2    0    0  0.21156738928E+02  0.21861064037E+02  0.13657981785E+04  0.13661735534E+04  0.10000000000E+02 0. -1.
</event>
<event>
 5    1  0.1369527E-008  0.4223761E+03  0.7957747E-01  0.3285137E+00
         13   -1    0    0    0    0  0.00000000000E+00  0.00000000000E+00  0.14999999963E+04  0.15000000000E+04  0.10566000000E+00 0.  1.
        994   -1    0    0    0    0 -0.00000000000E+00 -0.00000000000E+00  0.11368683772E-12  0.17120000000E+03  0.17120000000E+03 0.  0.
         13    1    1    2    0    0  0.92850277011E+02  0.30646787345E+02  0.10137288748E+03  0.14084343434E+03  0.10566000000E+00 0.  1.
        994    1    1    2    0    0 -0.76350850157E+02 -0.19628582924E+02  0.69256018939E+02  0.20079982507E+03  0.17120000000E+03 0.  0.
        998    1    1    2    0    0 -0.16499426853E+02 -0.11018204421E+02  0.13293710899E+04  0.13295567406E+04  0.10000000000E+02 0.  1.
</event>
<event>
 5    1  0.1369527E-008  0.3853778E+03  0.7957747E-01  0.3428072E+00
         13   -1    0    0    0    0  0.00000000000E+00  0.00000000000E+00  0.14999999963E+04  0.15000000000E+04  0.10566000000E+00 0. -1.
        994   -1    0    0    0    0 -0.00000000000E+00 -0.00000000000E+00  0.11368683772E-12  0.17120000000E+03  0.17120000000E+03 0.  0.
         13    1    1    2    0    0 -0.10860712796E+01 -0.11025386348E+02  0.41989054796E+02  0.43426150896E+02  0.10566000000E+00 0. -1.
        994    1    1    2    0    0 -0.12269841850E+02  0.11628017616E+02  0.23818788972E+01  0.17204904289E+03  0.17120000000E+03 0.  0.
        998    1    1    2    0    0  0.13355913130E+02 -0.60263126776E+00  0.14556290626E+04  0.14557248062E+04  0.10000000000E+02 0. -1.
</event>
<event>
 5    1  0.1369527E-008  0.3738539E+03  0.7957747E-01  0.3478364E+00
         13   -1    0    0    0    0  0.00000000000E+00  0.00000000000E+00  0.14999999963E+04  0.15000000000E+04  0.10566000000E+00 0. -1.
        994   -1    0    0    0    0 -0.00000000000E+00 -0.00000000000E+00  0.11368683772E-12  0.17120000000E+03  0.17120000000E+03 0.  0.
         13    1    1    2    0    0  0.29689730554E+02 -0.40280998390E+02  0.15670245257E+03  0.16449835482E+03  0.10566000000E+00 0. -1.
        994    1    1    2    0    0 -0.25434708285E+02  0.37778659578E+02  0.14379463219E+02  0.17773677297E+03  0.17120000000E+03 0.  0.
        998    1    1    2    0    0 -0.42550222694E+01  0.25023388115E+01  0.13289180805E+04  0.13289648722E+04  0.10000000000E+02 0. -1.
</event>
<event>
 5    1  0.1369527E-008  0.3857546E+03  0.7957747E-01  0.3426478E+00
         13   -1    0    0    0    0  0.00000000000E+00  0.00000000000E+00  0.14999999963E+04  0.15000000000E+04  0.10566000000E+00 0. -1.
        994   -1    0    0    0    0 -0.00000000000E+00 -0.00000000000E+00  0.11368683772E-12  0.17120000000E+03  0.17120000000E+03 0.  0.
         13    1    1    2    0    0  0.23359861984E+01  0.10914645902E+02  0.59969294146E+02  0.60999292873E+02  0.10566000000E+00 0. -1.
        994    1    1    2    0    0  0.26570245383E+01  0.17813596542E+02  0.23208481273E+01  0.17216042036E+03  0.17120000000E+03 0.  0.
        998    1    1    2    0    0 -0.49930107367E+01 -0.28728242444E+02  0.14377098540E+04  0.14380402868E+04  0.10000000000E+02 0. -1.
</event>
<event>
 5    1  0.1369527E-008  0.3814488E+03  0.7957747E-01  0.3444874E+00
         13   -1    0    0    0    0  0.00000000000E+00  0.00000000000E+00  0.14999999963E+04  0.15000000000E+04  0.10566000000E+00 0. -1.
        994   -1    0    0    0    0 -0.00000000000E+00 -0.00000000000E+00  0.11368683772E-12  0.17120000000E+03  0.17120000000E+03 0.  0.
         13    1    1    2    0    0  0.16517099382E+02 -0.22349927479E+02  0.11676138764E+03  0.12002319209E+03  0.10566000000E+00 0. -1.
        994    1    1    2    0    0  0.45362614659E+01  0.16601745910E+02  0.43896255198E+01  0.17211886720E+03  0.17120000000E+03 0.  0.
        998    1    1    2    0    0 -0.21053360848E+02  0.57481815693E+01  0.13788489831E+04  0.13790579407E+04  0.10000000000E+02 0. -1.
</event>
<event>
 5    1  0.1369527E-008  0.3850834E+03  0.7957747E-01  0.3429318E+00
         13   -1    0    0    0    0  0.00000000000E+00  0.00000000000E+00  0.14999999963E+04  0.15000000000E+04  0.10566000000E+00 0. -1.
        994   -1    0    0    0    0 -0.00000000000E+00 -0.00000000000E+00  0.11368683772E-12  0.17120000000E+03  0.17120000000E+03 0.  0.
         13    1    1    2    0    0 -0.78259071120E+01 -0.12013520080E+02  0.61258664290E+02  0.62914263896E+02  0.10566000000E+00 0. -1.
        994    1    1    2    0    0  0.72943417042E+01  0.17310574954E+02  0.27497072690E+01  0.17224942472E+03  0.17120000000E+03 0.  0.
        998    1    1    2    0    0  0.53156540783E+00 -0.52970548733E+01  0.14359916247E+04  0.14360363114E+04  0.10000000000E+02 0. -1.
</event>
<event>
 5    1  0.1369527E-008  0.3841715E+03  0.7957747E-01  0.3433193E+00
         13   -1    0    0    0    0  0.00000000000E+00  0.00000000000E+00  0.14999999963E+04  0.15000000000E+04  0.10566000000E+00 0. -1.
        994   -1    0    0    0    0 -0.00000000000E+00 -0.00000000000E+00  0.11368683772E-12  0.17120000000E+03  0.17120000000E+03 0.  0.
         13    1    1    2    0    0  0.67326227838E+00 -0.17278673788E+02  0.78597253810E+02  0.80476986279E+02  0.10566000000E+00 0. -1.
        994    1    1    2    0    0  0.17125363003E+01 -0.71450198610E+00  0.20533724864E+01  0.17122236896E+03  0.17120000000E+03 0.  0.
        998    1    1    2    0    0 -0.23857985787E+01  0.17993175774E+02  0.14193493700E+04  0.14195006448E+04  0.10000000000E+02 0. -1.
</event>
<event>
 5    1  0.1369527E-008  0.3835375E+03  0.7957747E-01  0.3435899E+00
         13   -1    0    0    0    0  0.00000000000E+00  0.00000000000E+00  0.14999999963E+04  0.15000000000E+04  0.10566000000E+00 0. -1.
        994   -1    0    0    0    0 -0.00000000000E+00 -0.00000000000E+00  0.11368683772E-12  0.17120000000E+03  0.17120000000E+03 0.  0.
         13    1    1    2    0    0 -0.13192540532E+01  0.10780195822E+02  0.24587687017E+02  0.26879705544E+02  0.10566000000E+00 0. -1.
        994    1    1    2    0    0  0.74986038535E+00 -0.32224011194E+01  0.23941592966E+01  0.17124870265E+03  0.17120000000E+03 0.  0.
        998    1    1    2    0    0  0.56939366780E+00 -0.75577947026E+01  0.14730181500E+04  0.14730715918E+04  0.10000000000E+02 0. -1.
</event>
<event>
 5    1  0.1369527E-008  0.3816451E+03  0.7957747E-01  0.3444026E+00
         13   -1    0    0    0    0  0.00000000000E+00  0.00000000000E+00  0.14999999963E+04  0.15000000000E+04  0.10566000000E+00 0. -1.
        994   -1    0    0    0    0 -0.00000000000E+00 -0.00000000000E+00  0.11368683772E-12  0.17120000000E+03  0.17120000000E+03 0.  0.
         13    1    1    2    0    0 -0.37872400053E+01  0.19467614862E+02  0.61272052971E+02  0.64401916544E+02  0.10566000000E+00 0. -1.
        994    1    1    2    0    0 -0.76754667413E+01 -0.36450502366E+01  0.35450724313E+01  0.17144738761E+03  0.17120000000E+03 0.  0.
        998    1    1    2    0    0  0.11462706747E+02 -0.15822564626E+02  0.14351828709E+04  0.14353506958E+04  0.10000000000E+02 0. -1.
</event>
<event>
 5    1  0.1369527E-008  0.3848973E+03  0.7957747E-01  0.3430108E+00
         13   -1    0    0    0    0  0.00000000000E+00  0.00000000000E+00  0.14999999963E+04  0.15000000000E+04  0.10566000000E+00 0. -1.
        994   -1    0    0    0    0 -0.00000000000E+00 -0.00000000000E+00  0.11368683772E-12  0.17120000000E+03  0.17120000000E+03 0.  0.
         13    1    1    2    0    0  0.64325243774E+00 -0.15748042996E+02  0.87588159930E+02  0.88995008600E+02  0.10566000000E+00 0. -1.
        994    1    1    2    0    0 -0.13937396207E+02 -0.12765038119E+02  0.28570949795E+01  0.17226375185E+03  0.17120000000E+03 0.  0.
        998    1    1    2    0    0  0.13294143769E+02  0.28513081115E+02  0.14095547414E+04  0.14099412395E+04  0.10000000000E+02 0. -1.
</event>
<event>
 5    1  0.1369527E-008  0.3851331E+03  0.7957747E-01  0.3429108E+00
         13   -1    0    0    0    0  0.00000000000E+00  0.00000000000E+00  0.14999999963E+04  0.15000000000E+04  0.10566000000E+00 0.  1.
        994   -1    0    0    0    0 -0.00000000000E+00 -0.00000000000E+00  0.11368683772E-12  0.17120000000E+03  0.17120000000E+03 0.  0.
         13    1    1    2    0    0 -0.26157536866E+02  0.12046967366E+02  0.12743438883E+02  0.31492103077E+02  0.10566000000E+00 0.  1.
        994    1    1    2    0    0  0.48287378873E+02 -0.90038135166E+00  0.27840509655E+02  0.18004725942E+03  0.17120000000E+03 0.  0.
        998    1    1    2    0    0 -0.22129842008E+02 -0.11146586015E+02  0.14594160477E+04  0.14596606375E+04  0.10000000000E+02 0.  1.
</event>
<event>
 5    1  0.1369527E-008  0.3761348E+03  0.7957747E-01  0.3468163E+00
         13   -1    0    0    0    0  0.00000000000E+00  0.00000000000E+00  0.14999999963E+04  0.15000000000E+04  0.10566000000E+00 0.  1.
        994   -1    0    0    0    0 -0.00000000000E+00 -0.00000000000E+00  0.11368683772E-12  0.17120000000E+03  0.17120000000E+03 0.  0.
         13    1    1    2    0    0  0.31334017818E+02  0.22659020126E+02  0.14111121438E+03  0.14631349170E+03  0.10566000000E+00 0.  1.
        994    1    1    2    0    0  0.18027801077E+02 -0.13931581605E+02  0.78568782629E+01  0.17288800165E+03  0.17120000000E+03 0.  0.
        998    1    1    2    0    0 -0.49361818895E+02 -0.87274385211E+01  0.13510319036E+04  0.13519985067E+04  0.10000000000E+02 0.  1.
</event>
<event>
 5    1  0.1369527E-008  0.3848227E+03  0.7957747E-01  0.3430424E+00
         13   -1    0    0    0    0  0.00000000000E+00  0.00000000000E+00  0.14999999963E+04  0.15000000000E+04  0.10566000000E+00 0.  1.
        994   -1    0    0    0    0 -0.00000000000E+00 -0.00000000000E+00  0.11368683772E-12  0.17120000000E+03  0.17120000000E+03 0.  0.
         13    1    1    2    0    0 -0.27219937189E+01 -0.16308430359E+02  0.81348259286E+02  0.83011593187E+02  0.10566000000E+00 0.  1.
        994    1    1    2    0    0  0.82406032150E+01  0.62016611578E+01  0.20682710193E+01  0.17152284363E+03  0.17120000000E+03 0.  0.
        998    1    1    2    0    0 -0.55186094960E+01  0.10106769201E+02  0.14165834660E+04  0.14166655632E+04  0.10000000000E+02 0.  1.
</event>
<event>
 5    1  0.1369527E-008  0.3841885E+03  0.7957747E-01  0.3433121E+00
         13   -1    0    0    0    0  0.00000000000E+00  0.00000000000E+00  0.14999999963E+04  0.15000000000E+04  0.10566000000E+00 0.  1.
        994   -1    0    0    0    0 -0.00000000000E+00 -0.00000000000E+00  0.11368683772E-12  0.17120000000E+03  0.17120000000E+03 0.  0.
         13    1    1    2    0    0  0.76263433909E+01 -0.11780829487E+02  0.49442882284E+02  0.51396097415E+02  0.10566000000E+00 0.  1.
        994    1    1    2    0    0  0.54874818164E+01  0.78467633309E+01  0.23359207663E+01  0.17148347057E+03  0.17120000000E+03 0.  0.
        998    1    1    2    0    0 -0.13113825207E+02  0.39340661562E+01  0.14482211932E+04  0.14483204320E+04  0.10000000000E+02 0.  1.
</event>
<event>
 5    1  0.1369527E-008  0.3827767E+03  0.7957747E-01  0.3439157E+00
         13   -1    0    0    0    0  0.00000000000E+00  0.00000000000E+00  0.14999999963E+04  0.15000000000E+04  0.10566000000E+00 0. -1.
        994   -1    0    0    0    0 -0.00000000000E+00 -0.00000000000E+00  0.11368683772E-12  0.17120000000E+03  0.17120000000E+03 0.  0.
         13    1    1    2    0    0  0.65722489366E+01  0.16532878172E+02  0.56970079765E+02  0.59683596316E+02  0.10566000000E+00 0. -1.
        994    1    1    2    0    0 -0.48479643350E+01 -0.10534950639E+02  0.31836247964E+01  0.17162186169E+03  0.17120000000E+03 0.  0.
        998    1    1    2    0    0 -0.17242846016E+01 -0.59979275326E+01  0.14398462917E+04  0.14398945420E+04  0.10000000000E+02 0. -1.
</event>
<event>
 5    1  0.1369527E-008  0.3761991E+03  0.7957747E-01  0.3467877E+00
         13   -1    0    0    0    0  0.00000000000E+00  0.00000000000E+00  0.14999999963E+04  0.15000000000E+04  0.10566000000E+00 0.  1.
        994   -1    0    0    0    0 -0.00000000000E+00 -0.00000000000E+00  0.11368683772E-12  0.17120000000E+03  0.17120000000E+03 0.  0.
         13    1    1    2    0    0 -0.80171956039E+02 -0.10870332713E+02  0.35896389990E+03  0.36796847591E+03  0.10566000000E+00 0.  1.
        994    1    1    2    0    0  0.95239278769E+02  0.39456657454E+01  0.37473258179E+02  0.19949880595E+03  0.17120000000E+03 0.  0.
        998    1    1    2    0    0 -0.15067322730E+02  0.69246669676E+01  0.11035628382E+04  0.11037327181E+04  0.10000000000E+02 0.  1.
</event>
<event>
 5    1  0.1369527E-008  0.3772544E+03  0.7957747E-01  0.3463201E+00
         13   -1    0    0    0    0  0.00000000000E+00  0.00000000000E+00  0.14999999963E+04  0.15000000000E+04  0.10566000000E+00 0.  1.
        994   -1    0    0    0    0 -0.00000000000E+00 -0.00000000000E+00  0.11368683772E-12  0.17120000000E+03  0.17120000000E+03 0.  0.
         13    1    1    2    0    0  0.26765582314E+02 -0.44893758179E+02  0.22201299208E+03  0.22808249765E+03  0.10566000000E+00 0.  1.
        994    1    1    2    0    0 -0.22252492063E+02  0.38826494479E+02  0.12311657179E+02  0.17738006365E+03  0.17120000000E+03 0.  0.
        998    1    1    2    0    0 -0.45130902514E+01  0.60672637004E+01  0.12656753470E+04  0.12657374387E+04  0.10000000000E+02 0.  1.
</event>
<event>
 5    1  0.1369527E-008  0.3842172E+03  0.7957747E-01  0.3432999E+00
         13   -1    0    0    0    0  0.00000000000E+00  0.00000000000E+00  0.14999999963E+04  0.15000000000E+04  0.10566000000E+00 0.  1.
        994   -1    0    0    0    0 -0.00000000000E+00 -0.00000000000E+00  0.11368683772E-12  0.17120000000E+03  0.17120000000E+03 0.  0.
         13    1    1    2    0    0 -0.79467489138E+01  0.18164965855E+02  0.98709222908E+02  0.10068087531E+03  0.10566000000E+00 0.  1.
        994    1    1    2    0    0 -0.11432096710E+02 -0.16429634850E+02  0.33412621810E+01  0.17239846220E+03  0.17120000000E+03 0.  0.
        998    1    1    2    0    0  0.19378845623E+02 -0.17353310048E+01  0.13979495112E+04  0.13981206625E+04  0.10000000000E+02 0.  1.
</event>
<event>
 5    1  0.1369527E-008  0.3761685E+03  0.7957747E-01  0.3468013E+00
         13   -1    0    0    0    0  0.00000000000E+00  0.00000000000E+00  0.14999999963E+04  0.15000000000E+04  0.10566000000E+00 0.  1.
        994   -1    0    0    0    0 -0.00000000000E+00 -0.00000000000E+00  0.11368683772E-12  0.17120000000E+03  0.17120000000E+03 0.  0.
         13    1    1    2    0    0  0.15956016468E+02  0.23818402427E+01  0.25283724922E+01  0.16330078259E+02  0.10566000000E+00 0.  1.
        994    1    1    2    0    0 -0.24124210368E+02  0.50017545233E+00  0.16321548254E+02  0.17366076310E+03  0.17120000000E+03 0.  0.
        998    1    1    2    0    0  0.81681939007E+01 -0.28820156951E+01  0.14811500755E+04  0.14812091586E+04  0.10000000000E+02 0.  1.
</event>
<event>
 5    1  0.1369527E-008  0.3838572E+03  0.7957747E-01  0.3434534E+00
         13   -1    0    0    0    0  0.00000000000E+00  0.00000000000E+00  0.14999999963E+04  0.15000000000E+04  0.10566000000E+00 0.  1.
        994   -1    0    0    0    0 -0.00000000000E+00 -0.00000000000E+00  0.11368683772E-12  0.17120000000E+03  0.17120000000E+03 0.  0.
         13    1    1    2    0    0  0.97578363664E+01 -0.74027597037E+01  0.33385448697E+02  0.35561433753E+02  0.10566000000E+00 0.  1.
        994    1    1    2    0    0 -0.36408425020E+01  0.10487119246E+02  0.26054840999E+01  0.17157932262E+03  0.17120000000E+03 0.  0.
        998    1    1    2    0    0 -0.61169938644E+01 -0.30843595425E+01  0.14640090635E+04  0.14640592436E+04  0.10000000000E+02 0.  1.
</event>
<event>
 5    1  0.1369527E-008  0.3771292E+03  0.7957747E-01  0.3463754E+00
         13   -1    0    0    0    0  0.00000000000E+00  0.00000000000E+00  0.14999999963E+04  0.15000000000E+04  0.10566000000E+00 0.  1.
        994   -1    0    0    0    0 -0.00000000000E+00 -0.00000000000E+00  0.11368683772E-12  0.17120000000E+03  0.17120000000E+03 0.  0.
         13    1    1    2    0    0  0.41912691936E+01 -0.12100242926E+02  0.12237996120E+02  0.17713337614E+02  0.10566000000E+00 0.  1.
        994    1    1    2    0    0  0.35195909330E+01  0.92335879241E+01  0.59189785068E+01  0.17158706528E+03  0.17120000000E+03 0.  0.
        998    1    1    2    0    0 -0.77108601266E+01  0.28666550024E+01  0.14818430217E+04  0.14818995971E+04  0.10000000000E+02 0.  1.
</event>
<event>
 5    1  0.1369527E-008  0.3833581E+03  0.7957747E-01  0.3436666E+00
         13   -1    0    0    0    0  0.00000000000E+00  0.00000000000E+00  0.14999999963E+04  0.15000000000E+04  0.10566000000E+00 0.  1.
        994   -1    0    0    0    0 -0.00000000000E+00 -0.00000000000E+00  0.11368683772E-12  0.17120000000E+03  0.17120000000E+03 0.  0.
         13    1    1    2    0    0  0.24464735406E+02  0.97074076405E+01  0.15560790500E+03  0.15781821284E+03  0.10566000000E+00 0.  1.
        994    1    1    2    0    0 -0.35682137908E+01 -0.15355816767E+01  0.24974088851E+01  0.17126227609E+03  0.17120000000E+03 0.  0.
        998    1    1    2    0    0 -0.20896521615E+02 -0.81718259638E+01  0.13418946824E+04  0.13421195111E+04  0.10000000000E+02 0.  1.
</event>
<event>
 5    1  0.1369527E-008  0.3734502E+03  0.7957747E-01  0.3480183E+00
         13   -1    0    0    0    0  0.00000000000E+00  0.00000000000E+00  0.14999999963E+04  0.15000000000E+04  0.10566000000E+00 0.  1.
        994   -1    0    0    0    0 -0.00000000000E+00 -0.00000000000E+00  0.11368683772E-12  0.17120000000E+03  0.17120000000E+03 0.  0.
         13    1    1    2    0    0 -0.17531083728E+02 -0.28310245240E+02  0.67857402921E+02  0.75587347998E+02  0.10566000000E+00 0.  1.
        994    1    1    2    0    0  0.26739678855E+02  0.25742985334E+02  0.12199066854E+02  0.17560173391E+03  0.17120000000E+03 0.  0.
        998    1    1    2    0    0 -0.92085951270E+01  0.25672599061E+01  0.14199435265E+04  0.14200109181E+04  0.10000000000E+02 0.  1.
</event>
<event>
 5    1  0.1369527E-008  0.3820260E+03  0.7957747E-01  0.3442384E+00
         13   -1    0    0    0    0  0.00000000000E+00  0.00000000000E+00  0.14999999963E+04  0.15000000000E+04  0.10566000000E+00 0.  1.
        994   -1    0    0    0    0 -0.00000000000E+00 -0.00000000000E+00  0.11368683772E-12  0.17120000000E+03  0.17120000000E+03 0.  0.
         13    1    1    2    0    0  0.16967478750E+02  0.30040876194E+01  0.47826210888E+02  0.50835789454E+02  0.10566000000E+00 0.  1.
        994    1    1    2    0    0 -0.29054180245E+01 -0.13443501932E+02  0.37423270371E+01  0.17179235783E+03  0.17120000000E+03 0.  0.
        998    1    1    2    0    0 -0.14062060725E+02  0.10439414312E+02  0.14484314584E+04  0.14485718527E+04  0.10000000000E+02 0.  1.
</event>
<event>
 5    1  0.1369527E-008  0.3845053E+03  0.7957747E-01  0.3431773E+00
         13   -1    0    0    0    0  0.00000000000E+00  0.00000000000E+00  0.14999999963E+04  0.15000000000E+04  0.10566000000E+00 0. -1.
        994   -1    0    0    0    0 -0.00000000000E+00 -0.00000000000E+00  0.11368683772E-12  0.17120000000E+03  0.17120000000E+03 0.  0.
         13    1    1    2    0    0  0.15504853205E+02 -0.25126657054E+01  0.66225211456E+02  0.68062498913E+02  0.10566000000E+00 0. -1.
        994    1    1    2    0    0 -0.79306036443E+01  0.44313514324E+01  0.21478522926E+01  0.17145432225E+03  0.17120000000E+03 0.  0.
        998    1    1    2    0    0 -0.75742495610E+01 -0.19186857270E+01  0.14316269325E+04  0.14316831788E+04  0.10000000000E+02 0. -1.
</event>
<event>
 5    1  0.1369527E-008  0.3839058E+03  0.7957747E-01  0.3434326E+00
         13   -1    0    0    0    0  0.00000000000E+00  0.00000000000E+00  0.14999999963E+04  0.15000000000E+04  0.10566000000E+00 0.  1.
        994   -1    0    0    0    0 -0.00000000000E+00 -0.00000000000E+00  0.11368683772E-12  0.17120000000E+03  0.17120000000E+03 0.  0.
         13    1    1    2    0    0 -0.90483936648E+01  0.53545593279E+01  0.24553390699E+02  0.26710014833E+02  0.10566000000E+00 0.  1.
        994    1    1    2    0    0  0.89853533723E+01 -0.34316900465E+01  0.24797281697E+01  0.17148790664E+03  0.17120000000E+03 0.  0.
        998    1    1    2    0    0  0.63040292479E-01 -0.19228692814E+01  0.14729668774E+04  0.14730020785E+04  0.10000000000E+02 0.  1.
</event>
<event>
 5    1  0.1369527E-008  0.3792965E+03  0.7957747E-01  0.3454227E+00
         13   -1    0    0    0    0  0.00000000000E+00  0.00000000000E+00  0.14999999963E+04  0.15000000000E+04  0.10566000000E+00 0. -1.
        994   -1    0    0    0    0 -0.00000000000E+00 -0.00000000000E+00  0.11368683772E-12  0.17120000000E+03  0.17120000000E+03 0.  0.
         13    1    1    2    0    0  0.10739011819E+02  0.25969750643E+02  0.85156852613E+02  0.89674160349E+02  0.10566000000E+00 0. -1.
        994    1    1    2    0    0 -0.74705186578E+01 -0.19043481250E+02  0.58920665373E+01  0.17251846068E+03  0.17120000000E+03 0.  0.
        998    1    1    2    0    0 -0.32684931610E+01 -0.69262693926E+01  0.14089510771E+04  0.14090073790E+04  0.10000000000E+02 0. -1.
</event>
<event>
 5    1  0.1369527E-008  0.3755767E+03  0.7957747E-01  0.3470648E+00
         13   -1    0    0    0    0  0.00000000000E+00  0.00000000000E+00  0.14999999963E+04  0.15000000000E+04  0.10566000000E+00 0.  1.
        994   -1    0    0    0    0 -0.00000000000E+00 -0.00000000000E+00  0.11368683772E-12  0.17120000000E+03  0.17120000000E+03 0.  0.
         13    1    1    2    0    0 -0.13449039248E+03  0.50230917184E+02  0.70083604096E+03  0.71538938921E+03  0.10566000000E+00 0.  1.
        994    1    1    2    0    0  0.14039400903E+03 -0.56406916539E+02  0.88489395023E+02  0.24501434863E+03  0.17120000000E+03 0.  0.
        998    1    1    2    0    0 -0.59036165445E+01  0.61759993547E+01  0.71067456029E+03  0.71079626216E+03  0.10000000000E+02 0. -1.
</event>
<event>
 5    1  0.1369527E-008  0.3748672E+03  0.7957747E-01  0.3473817E+00
         13   -1    0    0    0    0  0.00000000000E+00  0.00000000000E+00  0.14999999963E+04  0.15000000000E+04  0.10566000000E+00 0.  1.
        994   -1    0    0    0    0 -0.00000000000E+00 -0.00000000000E+00  0.11368683772E-12  0.17120000000E+03  0.17120000000E+03 0.  0.
         13    1    1    2    0    0 -0.49983511166E+02 -0.68227951980E+01  0.19983997287E+03  0.20610901931E+03  0.10566000000E+00 0.  1.
        994    1    1    2    0    0  0.17845562995E+02  0.32645153651E-01  0.78307133407E+01  0.17230561586E+03  0.17120000000E+03 0.  0.
        998    1    1    2    0    0  0.32137948171E+02  0.67901500443E+01  0.12923293101E+04  0.12927853648E+04  0.10000000000E+02 0.  1.
</event>
<event>
 5    1  0.1369527E-008  0.3851193E+03  0.7957747E-01  0.3429166E+00
         13   -1    0    0    0    0  0.00000000000E+00  0.00000000000E+00  0.14999999963E+04  0.15000000000E+04  0.10566000000E+00 0. -1.
        994   -1    0    0    0    0 -0.00000000000E+00 -0.00000000000E+00  0.11368683772E-12  0.17120000000E+03  0.17120000000E+03 0.  0.
         13    1    1    2    0    0  0.34524644060E+01  0.10467974786E+02  0.40634241453E+02  0.42102859156E+02  0.10566000000E+00 0. -1.
        994    1    1    2    0    0 -0.66530311751E+00  0.28751577866E+01  0.15995447870E+01  0.17123290485E+03  0.17120000000E+03 0.  0.
        998    1    1    2    0    0 -0.27871612885E+01 -0.13343132572E+02  0.14577662100E+04  0.14578642360E+04  0.10000000000E+02 0. -1.
</event>
<event>
 5    1  0.1369527E-008  0.3725598E+03  0.7957747E-01  0.3484208E+00
         13   -1    0    0    0    0  0.00000000000E+00  0.00000000000E+00  0.14999999963E+04  0.15000000000E+04  0.10566000000E+00 0. -1.
        994   -1    0    0    0    0 -0.00000000000E+00 -0.00000000000E+00  0.11368683772E-12  0.17120000000E+03  0.17120000000E+03 0.  0.
         13    1    1    2    0    0  0.48132451734E+02 -0.48429278312E+02  0.36936995674E+03  0.37562787970E+03  0.10566000000E+00 0. -1.
        994    1    1    2    0    0 -0.62426024125E+00  0.14325493570E+02  0.86421877068E+01  0.17201667615E+03  0.17120000000E+03 0.  0.
        998    1    1    2    0    0 -0.47508191493E+02  0.34103784742E+02  0.11219878518E+04  0.11235554441E+04  0.10000000000E+02 0. -1.
</event>
<event>
 5    1  0.1369527E-008  0.3747941E+03  0.7957747E-01  0.3474144E+00
         13   -1    0    0    0    0  0.00000000000E+00  0.00000000000E+00  0.14999999963E+04  0.15000000000E+04  0.10566000000E+00 0.  1.
        994   -1    0    0    0    0 -0.00000000000E+00 -0.00000000000E+00  0.11368683772E-12  0.17120000000E+03  0.17120000000E+03 0.  0.
         13    1    1    2    0    0 -0.76503471727E+02 -0.51308483840E+02  0.25227391803E+03  0.26856560201E+03  0.10566000000E+00 0.  1.
        994    1    1    2    0    0  0.78929555493E+02  0.53078581996E+02  0.46409160558E+02  0.20127210632E+03  0.17120000000E+03 0.  0.
        998    1    1    2    0    0 -0.24260837660E+01 -0.17700981554E+01  0.12013169177E+04  0.12013622917E+04  0.10000000000E+02 0.  1.
</event>
<event>
 5    1  0.1369527E-008  0.3829210E+03  0.7957747E-01  0.3438538E+00
         13   -1    0    0    0    0  0.00000000000E+00  0.00000000000E+00  0.14999999963E+04  0.15000000000E+04  0.10566000000E+00 0. -1.
        994   -1    0    0    0    0 -0.00000000000E+00 -0.00000000000E+00  0.11368683772E-12  0.17120000000E+03  0.17120000000E+03 0.  0.
         13    1    1    2    0    0 -0.74073199066E+01  0.10899664001E+02  0.32423859847E+02  0.34999841642E+02  0.10566000000E+00 0. -1.
        994    1    1    2    0    0 -0.36612064197E+01 -0.57648527440E+01  0.28202964275E+01  0.17135936517E+03  0.17120000000E+03 0.  0.
        998    1    1    2    0    0  0.11068526326E+02 -0.51348112567E+01  0.14647558400E+04  0.14648407932E+04  0.10000000000E+02 0. -1.
</event>
<event>
 5    1  0.1369527E-008  0.3833651E+03  0.7957747E-01  0.3436636E+00
         13   -1    0    0    0    0  0.00000000000E+00  0.00000000000E+00  0.14999999963E+04  0.15000000000E+04  0.10566000000E+00 0.  1.
        994   -1    0    0    0    0 -0.00000000000E+00 -0.00000000000E+00  0.11368683772E-12  0.17120000000E+03  0.17120000000E+03 0.  0.
         13    1    1    2    0    0 -0.70509360206E+01 -0.97445969706E+01  0.29087199780E+02  0.31476169143E+02  0.10566000000E+00 0.  1.
        994    1    1    2    0    0  0.16004534874E+01  0.57388421274E+01  0.25613809341E+01  0.17132278434E+03  0.17120000000E+03 0.  0.
        998    1    1    2    0    0  0.54504825332E+01  0.40057548432E+01  0.14683514156E+04  0.14684010465E+04  0.10000000000E+02 0.  1.
</event>
<event>
 5    1  0.1369527E-008  0.3751979E+03  0.7957747E-01  0.3472338E+00
         13   -1    0    0    0    0  0.00000000000E+00  0.00000000000E+00  0.14999999963E+04  0.15000000000E+04  0.10566000000E+00 0. -1.
        994   -1    0    0    0    0 -0.00000000000E+00 -0.00000000000E+00  0.11368683772E-12  0.17120000000E+03  0.17120000000E+03 0.  0.
         13    1    1    2    0    0  0.16670792453E+02  0.13382779789E+02  0.31611285522E+02  0.38161481264E+02  0.10566000000E+00 0. -1.
        994    1    1    2    0    0 -0.14810704584E+02 -0.12954076574E+02  0.78933857096E+01  0.17250771174E+03  0.17120000000E+03 0.  0.
        998    1    1    2    0    0 -0.18600878688E+01 -0.42870321549E+00  0.14604953250E+04  0.14605308070E+04  0.10000000000E+02 0. -1.
</event>
<event>
 5    1  0.1369527E-008  0.2678433E+03  0.7957747E-01  0.4156208E+00
         13   -1    0    0    0    0  0.00000000000E+00  0.00000000000E+00  0.14999999963E+04  0.15000000000E+04  0.10566000000E+00 0. -1.
        994   -1    0    0    0    0 -0.00000000000E+00 -0.00000000000E+00  0.11368683772E-12  0.17120000000E+03  0.17120000000E+03 0.  0.
         13    1    1    2    0    0  0.10970283289E+03 -0.15339257717E+03  0.34545358792E+03  0.39357615127E+03  0.10566000000E+00 0. -1.
        994    1    1    2    0    0 -0.12802538557E+03  0.15842891112E+03  0.22678971971E+03  0.34961870115E+03  0.17120000000E+03 0.  0.
        998    1    1    2    0    0  0.18322552674E+02 -0.50363339500E+01  0.92775668865E+03  0.92800514758E+03  0.10000000000E+02 0. -1.
</event>
<event>
 5    1  0.1369527E-008  0.3856806E+03  0.7957747E-01  0.3426791E+00
         13   -1    0    0    0    0  0.00000000000E+00  0.00000000000E+00  0.14999999963E+04  0.15000000000E+04  0.10566000000E+00 0.  1.
        994   -1    0    0    0    0 -0.00000000000E+00 -0.00000000000E+00  0.11368683772E-12  0.17120000000E+03  0.17120000000E+03 0.  0.
         13    1    1    2    0    0  0.11260968164E+02 -0.13164534457E+01  0.50505627106E+02  0.51762650503E+02  0.10566000000E+00 0.  1.
        994    1    1    2    0    0 -0.52564920620E+01  0.91596908881E+01  0.16586900406E+01  0.17153344251E+03  0.17120000000E+03 0.  0.
        998    1    1    2    0    0 -0.60044761024E+01 -0.78432374424E+01  0.14478356791E+04  0.14479039070E+04  0.10000000000E+02 0.  1.
</event>
<event>
 5    1  0.1369527E-008  0.3838045E+03  0.7957747E-01  0.3434758E+00
         13   -1    0    0    0    0  0.00000000000E+00  0.00000000000E+00  0.14999999963E+04  0.15000000000E+04  0.10566000000E+00 0. -1.
        994   -1    0    0    0    0 -0.00000000000E+00 -0.00000000000E+00  0.11368683772E-12  0.17120000000E+03  0.17120000000E+03 0.  0.
         13    1    1    2    0    0  0.23895745926E+03  0.60658545932E+02  0.11808381168E+04  0.12062996293E+04  0.10566000000E+00 0. -1.
        994    1    1    2    0    0 -0.23828929821E+03 -0.57593973211E+02  0.23558408833E+03  0.38066804183E+03  0.17120000000E+03 0.  0.
        998    1    1    2    0    0 -0.66816105112E+00 -0.30645727210E+01  0.83577791174E+02  0.84232328845E+02  0.10000000000E+02 0.  0.
</event>
<event>
 5    1  0.1369527E-008  0.3866098E+03  0.7957747E-01  0.3422873E+00
         13   -1    0    0    0    0  0.00000000000E+00  0.00000000000E+00  0.14999999963E+04  0.15000000000E+04  0.10566000000E+00 0.  1.
        994   -1    0    0    0    0 -0.00000000000E+00 -0.00000000000E+00  0.11368683772E-12  0.17120000000E+03  0.17120000000E+03 0.  0.
         13    1    1    2    0    0  0.32369109474E+02  0.57399406700E+02  0.10110952855E+03  0.12068802370E+03  0.10566000000E+00 0.  1.
        994    1    1    2    0    0 -0.22689741807E+02 -0.42503534547E+02  0.28677958595E+02  0.18014782858E+03  0.17120000000E+03 0.  0.
        998    1    1    2    0    0 -0.96793676672E+01 -0.14895872153E+02  0.13702125091E+04  0.13703641477E+04  0.10000000000E+02 0.  1.
</event>
<event>
 5    1  0.1369527E-008  0.3764434E+03  0.7957747E-01  0.3466792E+00
         13   -1    0    0    0    0  0.00000000000E+00  0.00000000000E+00  0.14999999963E+04  0.15000000000E+04  0.10566000000E+00 0.  1.
        994   -1    0    0    0    0 -0.00000000000E+00 -0.00000000000E+00  0.11368683772E-12  0.17120000000E+03  0.17120000000E+03 0.  0.
         13    1    1    2    0    0 -0.10374577650E+02  0.23041500630E+02  0.58828030417E+02  0.64025705303E+02  0.10566000000E+00 0.  1.
        994    1    1    2    0    0  0.10494715190E+02  0.28310037280E+02  0.90292292634E+01  0.17407631728E+03  0.17120000000E+03 0.  0.
        998    1    1    2    0    0 -0.12013753968E+00 -0.51351537910E+02  0.14321427366E+04  0.14330979774E+04  0.10000000000E+02 0.  1.
</event>
<event>
 5    1  0.1369527E-008  0.2525788E+03  0.7957747E-01  0.4306106E+00
         13   -1    0    0    0    0  0.00000000000E+00  0.00000000000E+00  0.14999999963E+04  0.15000000000E+04  0.10566000000E+00 0. -1.
        994   -1    0    0    0    0 -0.00000000000E+00 -0.00000000000E+00  0.11368683772E-12  0.17120000000E+03  0.17120000000E+03 0.  0.
         13    1    1    2    0    0 -0.16989452474E+03 -0.21084296262E+02  0.25803455882E+03  0.30966197990E+03  0.10566000000E+00 0. -1.
        994    1    1    2    0    0  0.19162371913E+03  0.25825290476E+02  0.21993273281E+03  0.33921444887E+03  0.17120000000E+03 0.  0.
        998    1    1    2    0    0 -0.21729194389E+02 -0.47409942142E+01  0.10220327046E+04  0.10223235712E+04  0.10000000000E+02 0. -1.
</event>
<event>
 5    1  0.1369527E-008  0.3709070E+03  0.7957747E-01  0.3491733E+00
         13   -1    0    0    0    0  0.00000000000E+00  0.00000000000E+00  0.14999999963E+04  0.15000000000E+04  0.10566000000E+00 0.  1.
        994   -1    0    0    0    0 -0.00000000000E+00 -0.00000000000E+00  0.11368683772E-12  0.17120000000E+03  0.17120000000E+03 0.  0.
         13    1    1    2    0    0 -0.61056642091E+01  0.47510615789E+02  0.90412394648E+02  0.10231788709E+03  0.10566000000E+00 0.  1.
        994    1    1    2    0    0  0.64819118379E+00 -0.50345397319E+02  0.20363533765E+02  0.17960844270E+03  0.17120000000E+03 0.  0.
        998    1    1    2    0    0  0.54574730253E+01  0.28347815309E+01  0.13892240679E+04  0.13892736702E+04  0.10000000000E+02 0.  1.
</event>
<event>
 5    1  0.1369527E-008  0.3820926E+03  0.7957747E-01  0.3442097E+00
         13   -1    0    0    0    0  0.00000000000E+00  0.00000000000E+00  0.14999999963E+04  0.15000000000E+04  0.10566000000E+00 0. -1.
        994   -1    0    0    0    0 -0.00000000000E+00 -0.00000000000E+00  0.11368683772E-12  0.17120000000E+03  0.17120000000E+03 0.  0.
         13    1    1    2    0    0 -0.22465819967E+02  0.32002541647E+01  0.82904552768E+02  0.85954236238E+02  0.10566000000E+00 0. -1.
        994    1    1    2    0    0  0.13262460829E+02 -0.26750815680E+01  0.36884945695E+01  0.17177337955E+03  0.17120000000E+03 0.  0.
        998    1    1    2    0    0  0.92033591376E+01 -0.52517259679E+00  0.14134069489E+04  0.14134723842E+04  0.10000000000E+02 0. -1.
</event>
<event>
 5    1  0.1369527E-008  0.3808323E+03  0.7957747E-01  0.3447543E+00
         13   -1    0    0    0    0  0.00000000000E+00  0.00000000000E+00  0.14999999963E+04  0.15000000000E+04  0.10566000000E+00 0. -1.
        994   -1    0    0    0    0 -0.00000000000E+00 -0.00000000000E+00  0.11368683772E-12  0.17120000000E+03  0.17120000000E+03 0.  0.
         13    1    1    2    0    0  0.42974581323E+02 -0.13037384877E+02  0.24419585893E+03  0.24829099203E+03  0.10566000000E+00 0. -1.
        994    1    1    2    0    0 -0.35828643237E+02  0.11307674267E+02  0.84337245922E+01  0.17547684430E+03  0.17120000000E+03 0.  0.
        998    1    1    2    0    0 -0.71459380866E+01  0.17297106094E+01  0.12473704128E+04  0.12474321637E+04  0.10000000000E+02 0. -1.
</event>
<event>
 5    1  0.1369527E-008  0.3833440E+03  0.7957747E-01  0.3436726E+00
         13   -1    0    0    0    0  0.00000000000E+00  0.00000000000E+00  0.14999999963E+04  0.15000000000E+04  0.10566000000E+00 0. -1.
        994   -1    0    0    0    0 -0.00000000000E+00 -0.00000000000E+00  0.11368683772E-12  0.17120000000E+03  0.17120000000E+03 0.  0.
         13    1    1    2    0    0 -0.91551974368E+01  0.16387829870E+02  0.76669301808E+02  0.78933969948E+02  0.10566000000E+00 0. -1.
        994    1    1    2    0    0  0.13741117088E+00  0.12099917765E+01  0.24594321355E+01  0.17122199557E+03  0.17120000000E+03 0.  0.
        998    1    1    2    0    0  0.90177862659E+01 -0.17597821647E+02  0.14208712623E+04  0.14210440345E+04  0.10000000000E+02 0. -1.
</event>
<event>
 5    1  0.1369527E-008  0.3847595E+03  0.7957747E-01  0.3430693E+00
         13   -1    0    0    0    0  0.00000000000E+00  0.00000000000E+00  0.14999999963E+04  0.15000000000E+04  0.10566000000E+00 0.  1.
        994   -1    0    0    0    0 -0.00000000000E+00 -0.00000000000E+00  0.11368683772E-12  0.17120000000E+03  0.17120000000E+03 0.  0.
         13    1    1    2    0    0 -0.20358857387E+02 -0.31127330250E+01  0.11426870481E+03  0.11610994894E+03  0.10566000000E+00 0.  1.
        994    1    1    2    0    0  0.19295420453E+02  0.72451324579E+01  0.31489446038E+01  0.17246495600E+03  0.17120000000E+03 0.  0.
        998    1    1    2    0    0  0.10634369337E+01 -0.41323994329E+01  0.13825823469E+04  0.13826250951E+04  0.10000000000E+02 0.  1.
</event>
<event>
 5    1  0.1369527E-008  0.3760211E+03  0.7957747E-01  0.3468669E+00
         13   -1    0    0    0    0  0.00000000000E+00  0.00000000000E+00  0.14999999963E+04  0.15000000000E+04  0.10566000000E+00 0.  1.
        994   -1    0    0    0    0 -0.00000000000E+00 -0.00000000000E+00  0.11368683772E-12  0.17120000000E+03  0.17120000000E+03 0.  0.
         13    1    1    2    0    0 -0.24222081288E+02 -0.60538947611E+02  0.31436036193E+03  0.32105158732E+03  0.10566000000E+00 0.  1.
        994    1    1    2    0    0 -0.30059342190E+01  0.54062334301E+02  0.16152213267E+02  0.18028340363E+03  0.17120000000E+03 0.  0.
        998    1    1    2    0    0  0.27228015507E+02  0.64766133097E+01  0.11694874211E+04  0.11698650091E+04  0.10000000000E+02 0.  1.
</event>
<event>
 5    1  0.1369527E-008  0.3835551E+03  0.7957747E-01  0.3435823E+00
         13   -1    0    0    0    0  0.00000000000E+00  0.00000000000E+00  0.14999999963E+04  0.15000000000E+04  0.10566000000E+00 0.  1.
        994   -1    0    0    0    0 -0.00000000000E+00 -0.00000000000E+00  0.11368683772E-12  0.17120000000E+03  0.17120000000E+03 0.  0.
         13    1    1    2    0    0  0.23605398611E+00  0.13850792132E+02  0.40396578236E+02  0.42705911317E+02  0.10566000000E+00 0.  1.
        994    1    1    2    0    0 -0.22635767634E+01 -0.80321765799E+01  0.25793466798E+01  0.17142267257E+03  0.17120000000E+03 0.  0.
        998    1    1    2    0    0  0.20275227773E+01 -0.58186155521E+01  0.14570240714E+04  0.14570714161E+04  0.10000000000E+02 0.  1.
</event>
<event>
 5    1  0.1369527E-008  0.3756558E+03  0.7957747E-01  0.3470295E+00
         13   -1    0    0    0    0  0.00000000000E+00  0.00000000000E+00  0.14999999963E+04  0.15000000000E+04  0.10566000000E+00 0. -1.
        994   -1    0    0    0    0 -0.00000000000E+00 -0.00000000000E+00  0.11368683772E-12  0.17120000000E+03  0.17120000000E+03 0.  0.
         13    1    1    2    0    0  0.94092473794E+02  0.36844282343E+02  0.52717049075E+03  0.53676776379E+03  0.10566000000E+00 0. -1.
        994    1    1    2    0    0 -0.92081114862E+02 -0.34343678783E+02  0.39839140340E+02  0.20138276264E+03  0.17120000000E+03 0.  0.
        998    1    1    2    0    0 -0.20113589323E+01 -0.25006035606E+01  0.93299036519E+03  0.93304947357E+03  0.10000000000E+02 0.  0.
</event>
<event>
 5    1  0.1369527E-008  0.3852674E+03  0.7957747E-01  0.3428539E+00
         13   -1    0    0    0    0  0.00000000000E+00  0.00000000000E+00  0.14999999963E+04  0.15000000000E+04  0.10566000000E+00 0. -1.
        994   -1    0    0    0    0 -0.00000000000E+00 -0.00000000000E+00  0.11368683772E-12  0.17120000000E+03  0.17120000000E+03 0.  0.
         13    1    1    2    0    0 -0.31729098415E+01 -0.12340384242E+02  0.54673849948E+02  0.56139054787E+02  0.10566000000E+00 0. -1.
        994    1    1    2    0    0 -0.70516164535E+00  0.78752512349E+01  0.17028966308E+01  0.17139094694E+03  0.17120000000E+03 0.  0.
        998    1    1    2    0    0  0.38780714869E+01  0.44651330074E+01  0.14436232497E+04  0.14436699983E+04  0.10000000000E+02 0. -1.
</event>
<event>
 5    1  0.1369527E-008  0.3710154E+03  0.7957747E-01  0.3491237E+00
         13   -1    0    0    0    0  0.00000000000E+00  0.00000000000E+00  0.14999999963E+04  0.15000000000E+04  0.10566000000E+00 0.  1.
        994   -1    0    0    0    0 -0.00000000000E+00 -0.00000000000E+00  0.11368683772E-12  0.17120000000E+03  0.17120000000E+03 0.  0.
         13    1    1    2    0    0 -0.91579855852E+02  0.32510547034E+02  0.39238170783E+03  0.40423659096E+03  0.10566000000E+00 0.  1.
        994    1    1    2    0    0  0.90967444778E+02 -0.33250729340E+02  0.41790744330E+02  0.20108852111E+03  0.17120000000E+03 0.  0.
        998    1    1    2    0    0  0.61241107335E+00  0.74018230686E+00  0.10658275441E+04  0.10658748879E+04  0.10000000000E+02 0.  1.
</event>
<event>
 5    1  0.1369527E-008  0.3853719E+03  0.7957747E-01  0.3428097E+00
         13   -1    0    0    0    0  0.00000000000E+00  0.00000000000E+00  0.14999999963E+04  0.15000000000E+04  0.10566000000E+00 0. -1.
        994   -1    0    0    0    0 -0.00000000000E+00 -0.00000000000E+00  0.11368683772E-12  0.17120000000E+03  0.17120000000E+03 0.  0.
         13    1    1    2    0    0  0.78292407739E+01  0.68799275269E+01  0.39430685963E+02  0.40785053309E+02  0.10566000000E+00 0. -1.
        994    1    1    2    0    0  0.41367486447E+01 -0.18358425489E+01  0.15129098165E+01  0.17126649381E+03  0.17120000000E+03 0.  0.
        998    1    1    2    0    0 -0.11965989419E+02 -0.50440849779E+01  0.14590564005E+04  0.14591484529E+04  0.10000000000E+02 0. -1.
</event>
<event>
 5    1  0.1369527E-008  0.3757077E+03  0.7957747E-01  0.3470064E+00
         13   -1    0    0    0    0  0.00000000000E+00  0.00000000000E+00  0.14999999963E+04  0.15000000000E+04  0.10566000000E+00 0. -1.
        994   -1    0    0    0    0 -0.00000000000E+00 -0.00000000000E+00  0.11368683772E-12  0.17120000000E+03  0.17120000000E+03 0.  0.
         13    1    1    2    0    0 -0.31406982698E+01 -0.11910297432E+02  0.95119963625E+01  0.15563046276E+02  0.10566000000E+00 0. -1.
        994    1    1    2    0    0  0.15734360274E+02 -0.12573625839E+02  0.76926178440E+01  0.17255226028E+03  0.17120000000E+03 0.  0.
        998    1    1    2    0    0 -0.12593662004E+02  0.24483923271E+02  0.14827953821E+04  0.14830846934E+04  0.10000000000E+02 0. -1.
</event>
<event>
 5    1  0.1369527E-008  0.3851125E+03  0.7957747E-01  0.3429195E+00
         13   -1    0    0    0    0  0.00000000000E+00  0.00000000000E+00  0.14999999963E+04  0.15000000000E+04  0.10566000000E+00 0. -1.
        994   -1    0    0    0    0 -0.00000000000E+00 -0.00000000000E+00  0.11368683772E-12  0.17120000000E+03  0.17120000000E+03 0.  0.
         13    1    1    2    0    0 -0.10603461367E+02 -0.31330258131E+01  0.38479534565E+02  0.40036670542E+02  0.10566000000E+00 0. -1.
        994    1    1    2    0    0  0.58486225837E+01  0.11494539871E+02  0.21212871145E+01  0.17169819653E+03  0.17120000000E+03 0.  0.
        998    1    1    2    0    0  0.47548387830E+01 -0.83615140584E+01  0.14593991746E+04  0.14594651329E+04  0.10000000000E+02 0. -1.
</event>
<event>
 5    1  0.1369527E-008  0.3822165E+03  0.7957747E-01  0.3441564E+00
         13   -1    0    0    0    0  0.00000000000E+00  0.00000000000E+00  0.14999999963E+04  0.15000000000E+04  0.10566000000E+00 0.  1.
        994   -1    0    0    0    0 -0.00000000000E+00 -0.00000000000E+00  0.11368683772E-12  0.17120000000E+03  0.17120000000E+03 0.  0.
         13    1    1    2    0    0 -0.29145649756E+02  0.75283462404E+00  0.12867909922E+03  0.13194073442E+03  0.10566000000E+00 0.  1.
        994    1    1    2    0    0  0.29895005610E+02 -0.61598994773E+01  0.61163686449E+01  0.17400720010E+03  0.17120000000E+03 0.  0.
        998    1    1    2    0    0 -0.74935585371E+00  0.54070648532E+01  0.13652045284E+04  0.13652520655E+04  0.10000000000E+02 0.  1.
</event>
<event>
 5    1  0.1369527E-008  0.3740756E+03  0.7957747E-01  0.3477367E+00
         13   -1    0    0    0    0  0.00000000000E+00  0.00000000000E+00  0.14999999963E+04  0.15000000000E+04  0.10566000000E+00 0. -1.
        994   -1    0    0    0    0 -0.00000000000E+00 -0.00000000000E+00  0.11368683772E-12  0.17120000000E+03  0.17120000000E+03 0.  0.
         13    1    1    2    0    0 -0.14552407947E+02  0.15987381363E+02  0.32223197901E+02  0.38803538329E+02  0.10566000000E+00 0. -1.
        994    1    1    2    0    0  0.84085579447E+01  0.29209061206E+02  0.10310921617E+02  0.17418274371E+03  0.17120000000E+03 0.  0.
        998    1    1    2    0    0  0.61438500023E+01 -0.45196442569E+02  0.14574658768E+04  0.14582137180E+04  0.10000000000E+02 0. -1.
</event>
<event>
 5    1  0.1369527E-008  0.3785569E+03  0.7957747E-01  0.3457466E+00
         13   -1    0    0    0    0  0.00000000000E+00  0.00000000000E+00  0.14999999963E+04  0.15000000000E+04  0.10566000000E+00 0. -1.
        994   -1    0    0    0    0 -0.00000000000E+00 -0.00000000000E+00  0.11368683772E-12  0.17120000000E+03  0.17120000000E+03 0.  0.
         13    1    1    2    0    0  0.19594396275E+02 -0.13843565351E+02  0.59349456477E+02  0.64015262361E+02  0.10566000000E+00 0. -1.
        994    1    1    2    0    0  0.27810904866E+01  0.15113879986E+02  0.56570520666E+01  0.17198141199E+03  0.17120000000E+03 0.  0.
        998    1    1    2    0    0 -0.22375486761E+02 -0.12703146350E+01  0.14349934877E+04  0.14352033256E+04  0.10000000000E+02 0. -1.
</event>
<event>
 5    1  0.1369527E-008  0.3839170E+03  0.7957747E-01  0.3434278E+00
         13   -1    0    0    0    0  0.00000000000E+00  0.00000000000E+00  0.14999999963E+04  0.15000000000E+04  0.10566000000E+00 0.  1.
        994   -1    0    0    0    0 -0.00000000000E+00 -0.00000000000E+00  0.11368683772E-12  0.17120000000E+03  0.17120000000E+03 0.  0.
         13    1    1    2    0    0  0.25900662211E+01 -0.10000186142E+02  0.24241848230E+02  0.26351290966E+02  0.10566000000E+00 0.  1.
        994    1    1    2    0    0  0.32134117017E+01  0.44545244909E+01  0.22683418229E+01  0.17130310615E+03  0.17120000000E+03 0.  0.
        998    1    1    2    0    0 -0.58034779229E+01  0.55456616510E+01  0.14734898062E+04  0.14735456029E+04  0.10000000000E+02 0.  0.
</event>
<event>
 5    1  0.1369527E-008  0.3786119E+03  0.7957747E-01  0.3457225E+00
         13   -1    0    0    0    0  0.00000000000E+00  0.00000000000E+00  0.14999999963E+04  0.15000000000E+04  0.10566000000E+00 0.  1.
        994   -1    0    0    0    0 -0.00000000000E+00 -0.00000000000E+00  0.11368683772E-12  0.17120000000E+03  0.17120000000E+03 0.  0.
         13    1    1    2    0    0  0.16431648548E+03 -0.54148522487E+02  0.96524654768E+03  0.98062881809E+03  0.10566000000E+00 0.  1.
        994    1    1    2    0    0 -0.16049464868E+03  0.58307297127E+02  0.10997156496E+03  0.26563406832E+03  0.17120000000E+03 0.  0.
        998    1    1    2    0    0 -0.38218367986E+01 -0.41587746406E+01  0.42478188363E+03  0.42493711359E+03  0.10000000000E+02 0.  0.
</event>
<event>
 5    1  0.1369527E-008  0.3732751E+03  0.7957747E-01  0.3480973E+00
         13   -1    0    0    0    0  0.00000000000E+00  0.00000000000E+00  0.14999999963E+04  0.15000000000E+04  0.10566000000E+00 0.  1.
        994   -1    0    0    0    0 -0.00000000000E+00 -0.00000000000E+00  0.11368683772E-12  0.17120000000E+03  0.17120000000E+03 0.  0.
         13    1    1    2    0    0  0.98549256539E+01  0.99916788838E+01  0.94725913097E+01  0.16932051167E+02  0.10566000000E+00 0.  1.
        994    1    1    2    0    0 -0.10395693276E+02 -0.12887920324E+02  0.85051414054E+01  0.17220901939E+03  0.17120000000E+03 0.  0.
        998    1    1    2    0    0  0.54076762200E+00  0.28962414400E+01  0.14820222636E+04  0.14820589294E+04  0.10000000000E+02 0.  1.
</event>
<event>
 5    1  0.1369527E-008  0.3815497E+03  0.7957747E-01  0.3444438E+00
         13   -1    0    0    0    0  0.00000000000E+00  0.00000000000E+00  0.14999999963E+04  0.15000000000E+04  0.10566000000E+00 0. -1.
        994   -1    0    0    0    0 -0.00000000000E+00 -0.00000000000E+00  0.11368683772E-12  0.17120000000E+03  0.17120000000E+03 0.  0.
         13    1    1    2    0    0 -0.50975069443E+01 -0.14367480427E+02  0.34129257787E+02  0.37379492666E+02  0.10566000000E+00 0. -1.
        994    1    1    2    0    0  0.73003991480E+01  0.18773319355E+01  0.35418860421E+01  0.17140246544E+03  0.17120000000E+03 0.  0.
        998    1    1    2    0    0 -0.22028922036E+01  0.12490148491E+02  0.14623288524E+04  0.14624180419E+04  0.10000000000E+02 0. -1.
</event>
<event>
 5    1  0.1369527E-008  0.3824419E+03  0.7957747E-01  0.3440594E+00
         13   -1    0    0    0    0  0.00000000000E+00  0.00000000000E+00  0.14999999963E+04  0.15000000000E+04  0.10566000000E+00 0.  1.
        994   -1    0    0    0    0 -0.00000000000E+00 -0.00000000000E+00  0.11368683772E-12  0.17120000000E+03  0.17120000000E+03 0.  0.
         13    1    1    2    0    0  0.14142014090E+02 -0.46217096505E+01  0.38239359807E+02  0.41031896923E+02  0.10566000000E+00 0.  1.
        994    1    1    2    0    0  0.19562822307E+01  0.13045545332E+02  0.34827816291E+01  0.17174278169E+03  0.17120000000E+03 0.  0.
        998    1    1    2    0    0 -0.16098296321E+02 -0.84238356812E+01  0.14582778548E+04  0.14584253214E+04  0.10000000000E+02 0.  1.
</event>
<event>
 5    1  0.1369527E-008  0.3857465E+03  0.7957747E-01  0.3426513E+00
         13   -1    0    0    0    0  0.00000000000E+00  0.00000000000E+00  0.14999999963E+04  0.15000000000E+04  0.10566000000E+00 0.  1.
        994   -1    0    0    0    0 -0.00000000000E+00 -0.00000000000E+00  0.11368683772E-12  0.17120000000E+03  0.17120000000E+03 0.  0.
         13    1    1    2    0    0  0.65477610370E+01  0.11273795536E+02  0.63951213944E+02  0.65266688052E+02  0.10566000000E+00 0.  1.
        994    1    1    2    0    0 -0.19823286028E+02 -0.88490768866E+01  0.28076048286E+01  0.17259371795E+03  0.17120000000E+03 0.  0.
        998    1    1    2    0    0  0.13275524991E+02 -0.24247186492E+01  0.14332411775E+04  0.14333395940E+04  0.10000000000E+02 0.  1.
</event>
<event>
 5    1  0.1369527E-008  0.3818019E+03  0.7957747E-01  0.3443350E+00
         13   -1    0    0    0    0  0.00000000000E+00  0.00000000000E+00  0.14999999963E+04  0.15000000000E+04  0.10566000000E+00 0. -1.
        994   -1    0    0    0    0 -0.00000000000E+00 -0.00000000000E+00  0.11368683772E-12  0.17120000000E+03  0.17120000000E+03 0.  0.
         13    1    1    2    0    0 -0.18807291010E+02  0.20192239850E+02  0.11176183289E+03  0.11511802291E+03  0.10566000000E+00 0. -1.
        994    1    1    2    0    0  0.17175667167E+02 -0.17144782577E+02  0.51859078974E+01  0.17298925040E+03  0.17120000000E+03 0.  0.
        998    1    1    2    0    0  0.16316238434E+01 -0.30474572726E+01  0.13830522555E+04  0.13830927267E+04  0.10000000000E+02 0. -1.
</event>
<event>
 5    1  0.1369527E-008  0.3819524E+03  0.7957747E-01  0.3442701E+00
         13   -1    0    0    0    0  0.00000000000E+00  0.00000000000E+00  0.14999999963E+04  0.15000000000E+04  0.10566000000E+00 0. -1.
        994   -1    0    0    0    0 -0.00000000000E+00 -0.00000000000E+00  0.11368683772E-12  0.17120000000E+03  0.17120000000E+03 0.  0.
         13    1    1    2    0    0 -0.10481767110E+02  0.62485097724E+01  0.22249342859E+02  0.25376282978E+02  0.10566000000E+00 0. -1.
        994    1    1    2    0    0  0.92772491551E+01 -0.55250567727E+01  0.35381881877E+01  0.17157666619E+03  0.17120000000E+03 0.  0.
        998    1    1    2    0    0  0.12045179551E+01 -0.72345299972E+00  0.14742124652E+04  0.14742470508E+04  0.10000000000E+02 0. -1.
</event>
<event>
 5    1  0.1369527E-008  0.3799013E+03  0.7957747E-01  0.3451588E+00
         13   -1    0    0    0    0  0.00000000000E+00  0.00000000000E+00  0.14999999963E+04  0.15000000000E+04  0.10566000000E+00 0. -1.
        994   -1    0    0    0    0 -0.00000000000E+00 -0.00000000000E+00  0.11368683772E-12  0.17120000000E+03  0.17120000000E+03 0.  0.
         13    1    1    2    0    0 -0.95104540910E+01 -0.93245102589E+01  0.19446542686E+02  0.23570626107E+02  0.10566000000E+00 0. -1.
        994    1    1    2    0    0  0.24425136289E+02 -0.11721540700E+02  0.66412695772E+01  0.17345756905E+03  0.17120000000E+03 0.  0.
        998    1    1    2    0    0 -0.14914682198E+02  0.21046050959E+02  0.14739121840E+04  0.14741718048E+04  0.10000000000E+02 0. -1.
</event>
<event>
 5    1  0.1369527E-008  0.3812888E+03  0.7957747E-01  0.3445566E+00
         13   -1    0    0    0    0  0.00000000000E+00  0.00000000000E+00  0.14999999963E+04  0.15000000000E+04  0.10566000000E+00 0.  1.
        994   -1    0    0    0    0 -0.00000000000E+00 -0.00000000000E+00  0.11368683772E-12  0.17120000000E+03  0.17120000000E+03 0.  0.
         13    1    1    2    0    0 -0.34031182938E+01 -0.12412115852E+02  0.21165626664E+02  0.24771692518E+02  0.10566000000E+00 0.  1.
        994    1    1    2    0    0  0.23165840048E+02  0.22771754451E+02  0.70044305778E+01  0.17439527228E+03  0.17120000000E+03 0.  0.
        998    1    1    2    0    0 -0.19762721754E+02 -0.10359638598E+02  0.14718299390E+04  0.14720330352E+04  0.10000000000E+02 0.  1.
</event>
<event>
 5    1  0.1369527E-008  0.3155153E+03  0.7957747E-01  0.3791124E+00
         13   -1    0    0    0    0  0.00000000000E+00  0.00000000000E+00  0.14999999963E+04  0.15000000000E+04  0.10566000000E+00 0. -1.
        994   -1    0    0    0    0 -0.00000000000E+00 -0.00000000000E+00  0.11368683772E-12  0.17120000000E+03  0.17120000000E+03 0.  0.
         13    1    1    2    0    0  0.16671372711E+02  0.14877869482E+03  0.87127570140E+03  0.88404433922E+03  0.10566000000E+00 0. -1.
        994    1    1    2    0    0 -0.45653597962E+02 -0.10003574766E+03  0.55307527173E+02  0.21085484196E+03  0.17120000000E+03 0.  0.
        998    1    1    2    0    0  0.28982225250E+02 -0.48742947154E+02  0.57341676771E+03  0.57630081881E+03  0.10000000000E+02 0.  1.
</event>
<event>
 5    1  0.1369527E-008  0.3847659E+03  0.7957747E-01  0.3430666E+00
         13   -1    0    0    0    0  0.00000000000E+00  0.00000000000E+00  0.14999999963E+04  0.15000000000E+04  0.10566000000E+00 0.  1.
        994   -1    0    0    0    0 -0.00000000000E+00 -0.00000000000E+00  0.11368683772E-12  0.17120000000E+03  0.17120000000E+03 0.  0.
         13    1    1    2    0    0  0.15956210402E+02 -0.32313437726E+01  0.83666185314E+02  0.85235461880E+02  0.10566000000E+00 0.  1.
        994    1    1    2    0    0  0.49672627325E+00 -0.13402884650E+02  0.23386616469E+01  0.17174048268E+03  0.17120000000E+03 0.  0.
        998    1    1    2    0    0 -0.16452936675E+02  0.16634228423E+02  0.14139951493E+04  0.14142240554E+04  0.10000000000E+02 0.  1.
</event>
<event>
 5    1  0.1369527E-008  0.3836892E+03  0.7957747E-01  0.3435250E+00
         13   -1    0    0    0    0  0.00000000000E+00  0.00000000000E+00  0.14999999963E+04  0.15000000000E+04  0.10566000000E+00 0. -1.
        994   -1    0    0    0    0 -0.00000000000E+00 -0.00000000000E+00  0.11368683772E-12  0.17120000000E+03  0.17120000000E+03 0.  0.
         13    1    1    2    0    0  0.13102949565E+02 -0.82235668352E+01  0.49956429169E+02  0.52296943679E+02  0.10566000000E+00 0. -1.
        994    1    1    2    0    0 -0.18401413535E+02  0.46704359029E+01  0.34735891128E+01  0.17228444739E+03  0.17120000000E+03 0.  0.
        998    1    1    2    0    0  0.52984639695E+01  0.35531309323E+01  0.14465699780E+04  0.14466186089E+04  0.10000000000E+02 0. -1.
</event>
<event>
 5    1  0.1369527E-008  0.3842159E+03  0.7957747E-01  0.3433004E+00
         13   -1    0    0    0    0  0.00000000000E+00  0.00000000000E+00  0.14999999963E+04  0.15000000000E+04  0.10566000000E+00 0. -1.
        994   -1    0    0    0    0 -0.00000000000E+00 -0.00000000000E+00  0.11368683772E-12  0.17120000000E+03  0.17120000000E+03 0.  0.
         13    1    1    2    0    0 -0.87818281937E+01  0.70869456311E+01  0.30552676723E+02  0.32570270551E+02  0.10566000000E+00 0. -1.
        994    1    1    2    0    0  0.64495615912E+01 -0.10121589066E+02  0.24949733276E+01  0.17163830663E+03  0.17120000000E+03 0.  0.
        998    1    1    2    0    0  0.23322666024E+01  0.30346434347E+01  0.14669523462E+04  0.14669914228E+04  0.10000000000E+02 0. -1.
</event>
<event>
 5    1  0.1369527E-008  0.3751510E+03  0.7957747E-01  0.3472548E+00
         13   -1    0    0    0    0  0.00000000000E+00  0.00000000000E+00  0.14999999963E+04  0.15000000000E+04  0.10566000000E+00 0. -1.
        994   -1    0    0    0    0 -0.00000000000E+00 -0.00000000000E+00  0.11368683772E-12  0.17120000000E+03  0.17120000000E+03 0.  0.
         13    1    1    2    0    0  0.29996885521E+02  0.10112717594E+02  0.70086157588E+02  0.76903581500E+02  0.10566000000E+00 0. -1.
        994    1    1    2    0    0 -0.34854117341E+02  0.13392080292E+00  0.10739685851E+02  0.17504173297E+03  0.17120000000E+03 0.  0.
        998    1    1    2    0    0  0.48572318207E+01 -0.10246638397E+02  0.14191741528E+04  0.14192546855E+04  0.10000000000E+02 0. -1.
</event>
<event>
 5    1  0.1369527E-008  0.3855512E+03  0.7957747E-01  0.3427338E+00
         13   -1    0    0    0    0  0.00000000000E+00  0.00000000000E+00  0.14999999963E+04  0.15000000000E+04  0.10566000000E+00 0. -1.
        994   -1    0    0    0    0 -0.00000000000E+00 -0.00000000000E+00  0.11368683772E-12  0.17120000000E+03  0.17120000000E+03 0.  0.
         13    1    1    2    0    0 -0.87299079055E+01  0.51864906902E+01  0.38682643375E+02  0.39993362452E+02  0.10566000000E+00 0. -1.
        994    1    1    2    0    0  0.18026786985E+01 -0.51637311345E+01  0.14549214087E+01  0.17129352167E+03  0.17120000000E+03 0.  0.
        998    1    1    2    0    0  0.69272292070E+01 -0.22759555685E-01  0.14598624315E+04  0.14599131159E+04  0.10000000000E+02 0. -1.
</event>
<event>
 5    1  0.1369527E-008  0.3688072E+03  0.7957747E-01  0.3501391E+00
         13   -1    0    0    0    0  0.00000000000E+00  0.00000000000E+00  0.14999999963E+04  0.15000000000E+04  0.10566000000E+00 0. -1.
        994   -1    0    0    0    0 -0.00000000000E+00 -0.00000000000E+00  0.11368683772E-12  0.17120000000E+03  0.17120000000E+03 0.  0.
         13    1    1    2    0    0  0.13200534499E+03 -0.25512761468E+03  0.10023301360E+04  0.10426798279E+04  0.10566000000E+00 0. -1.
        994    1    1    2    0    0 -0.15359654601E+03  0.23409572620E+03  0.35958297818E+03  0.48682857986E+03  0.17120000000E+03 0.  0.
        998    1    1    2    0    0  0.21591201019E+02  0.21031888486E+02  0.13808688214E+03  0.14169159225E+03  0.10000000000E+02 0.  0.
</event>
<event>
 5    1  0.1369527E-008  0.3833739E+03  0.7957747E-01  0.3436598E+00
         13   -1    0    0    0    0  0.00000000000E+00  0.00000000000E+00  0.14999999963E+04  0.15000000000E+04  0.10566000000E+00 0. -1.
        994   -1    0    0    0    0 -0.00000000000E+00 -0.00000000000E+00  0.11368683772E-12  0.17120000000E+03  0.17120000000E+03 0.  0.
         13    1    1    2    0    0  0.10002756940E+02 -0.10879397612E+02  0.46742207627E+02  0.49023071882E+02  0.10566000000E+00 0. -1.
        994    1    1    2    0    0  0.67300114957E+01  0.20094830442E+01  0.26027198233E+01  0.17136378038E+03  0.17120000000E+03 0.  0.
        998    1    1    2    0    0 -0.16732768435E+02  0.88699145681E+01  0.14506550688E+04  0.14508131477E+04  0.10000000000E+02 0. -1.
</event>
<event>
 5    1  0.1369527E-008  0.3812351E+03  0.7957747E-01  0.3445798E+00
         13   -1    0    0    0    0  0.00000000000E+00  0.00000000000E+00  0.14999999963E+04  0.15000000000E+04  0.10566000000E+00 0. -1.
        994   -1    0    0    0    0 -0.00000000000E+00 -0.00000000000E+00  0.11368683772E-12  0.17120000000E+03  0.17120000000E+03 0.  0.
         13    1    1    2    0    0  0.22302921614E+02 -0.14035197938E+01  0.62670517148E+02  0.66535667608E+02  0.10566000000E+00 0. -1.
        994    1    1    2    0    0 -0.38841341286E+02  0.56761934530E+01  0.86580770557E+01  0.17585582522E+03  0.17120000000E+03 0.  0.
        998    1    1    2    0    0  0.16538419672E+02 -0.42726736592E+01  0.14286714021E+04  0.14288085072E+04  0.10000000000E+02 0. -1.
</event>
<event>
 5    1  0.1369527E-008  0.3732728E+03  0.7957747E-01  0.3480984E+00
         13   -1    0    0    0    0  0.00000000000E+00  0.00000000000E+00  0.14999999963E+04  0.15000000000E+04  0.10566000000E+00 0. -1.
        994   -1    0    0    0    0 -0.00000000000E+00 -0.00000000000E+00  0.11368683772E-12  0.17120000000E+03  0.17120000000E+03 0.  0.
         13    1    1    2    0    0  0.40655043270E+02  0.32263487627E+01  0.97717045764E+02  0.10588613727E+03  0.10566000000E+00 0. -1.
        994    1    1    2    0    0 -0.48285721074E+02 -0.33584742510E+01  0.15621380582E+02  0.17859523437E+03  0.17120000000E+03 0.  0.
        998    1    1    2    0    0  0.76306778042E+01  0.13212548829E+00  0.13866615699E+04  0.13867186284E+04  0.10000000000E+02 0. -1.
</event>
<event>
 5    1  0.1369527E-008  0.2329424E+03  0.7957747E-01  0.4533044E+00
         13   -1    0    0    0    0  0.00000000000E+00  0.00000000000E+00  0.14999999963E+04  0.15000000000E+04  0.10566000000E+00 0.  1.
        994   -1    0    0    0    0 -0.00000000000E+00 -0.00000000000E+00  0.11368683772E-12  0.17120000000E+03  0.17120000000E+03 0.  0.
         13    1    1    2    0    0 -0.56524616864E+02 -0.10174368953E+03  0.64383805064E+03  0.65427383968E+03  0.10566000000E+00 0.  1.
        994    1    1    2    0    0  0.64030546028E+02 -0.15855320337E+03  0.21071616311E+03  0.32085786654E+03  0.17120000000E+03 0.  0.
        998    1    1    2    0    0 -0.75059291640E+01  0.26029689290E+03  0.64544578253E+03  0.69606829378E+03  0.10000000000E+02 0.  1.
</event>
<event>
 5    1  0.1369527E-008  0.3847635E+03  0.7957747E-01  0.3430676E+00
         13   -1    0    0    0    0  0.00000000000E+00  0.00000000000E+00  0.14999999963E+04  0.15000000000E+04  0.10566000000E+00 0.  1.
        994   -1    0    0    0    0 -0.00000000000E+00 -0.00000000000E+00  0.11368683772E-12  0.17120000000E+03  0.17120000000E+03 0.  0.
         13    1    1    2    0    0  0.50001770079E+01 -0.17907507003E+02  0.10070450558E+03  0.10240648996E+03  0.10566000000E+00 0.  1.
        994    1    1    2    0    0 -0.11661732171E+01  0.94001327149E+01  0.20429327047E+01  0.17147400978E+03  0.17120000000E+03 0.  0.
        998    1    1    2    0    0 -0.38340037908E+01  0.85073742881E+01  0.13972525580E+04  0.13973195003E+04  0.10000000000E+02 0.  1.
</event>
<event>
 5    1  0.1369527E-008  0.3836983E+03  0.7957747E-01  0.3435212E+00
         13   -1    0    0    0    0  0.00000000000E+00  0.00000000000E+00  0.14999999963E+04  0.15000000000E+04  0.10566000000E+00 0.  1.
        994   -1    0    0    0    0 -0.00000000000E+00 -0.00000000000E+00  0.11368683772E-12  0.17120000000E+03  0.17120000000E+03 0.  0.
         13    1    1    2    0    0 -0.35595855713E+00 -0.12790664185E+02  0.34770027654E+02  0.37049882374E+02  0.10566000000E+00 0.  1.
        994    1    1    2    0    0 -0.60095873097E+00  0.12353598422E+02  0.27831648242E+01  0.17166874658E+03  0.17120000000E+03 0.  0.
        998    1    1    2    0    0  0.95691728809E+00  0.43706576264E+00  0.14624468038E+04  0.14624813710E+04  0.10000000000E+02 0.  1.
</event>
<event>
 5    1  0.1369527E-008  0.3810231E+03  0.7957747E-01  0.3446716E+00
         13   -1    0    0    0    0  0.00000000000E+00  0.00000000000E+00  0.14999999963E+04  0.15000000000E+04  0.10566000000E+00 0. -1.
        994   -1    0    0    0    0 -0.00000000000E+00 -0.00000000000E+00  0.11368683772E-12  0.17120000000E+03  0.17120000000E+03 0.  0.
         13    1    1    2    0    0  0.27376411770E+01 -0.31313883864E+02  0.12437020817E+03  0.12828099566E+03  0.10566000000E+00 0. -1.
        994    1    1    2    0    0 -0.45006861715E+01  0.32561950519E+02  0.72259335892E+01  0.17447690653E+03  0.17120000000E+03 0.  0.
        998    1    1    2    0    0  0.17630449945E+01 -0.12480666550E+01  0.13684038545E+04  0.13684420978E+04  0.10000000000E+02 0.  0.
</event>
<event>
 5    1  0.1369527E-008  0.3735030E+03  0.7957747E-01  0.3479945E+00
         13   -1    0    0    0    0  0.00000000000E+00  0.00000000000E+00  0.14999999963E+04  0.15000000000E+04  0.10566000000E+00 0.  1.
        994   -1    0    0    0    0 -0.00000000000E+00 -0.00000000000E+00  0.11368683772E-12  0.17120000000E+03  0.17120000000E+03 0.  0.
         13    1    1    2    0    0  0.19776118072E+02  0.58228745678E+01  0.11042634548E+02  0.23386997585E+02  0.10566000000E+00 0.  1.
        994    1    1    2    0    0 -0.12406167776E+02 -0.66081514762E+01  0.13502831282E+02  0.17230596948E+03  0.17120000000E+03 0.  0.
        998    1    1    2    0    0 -0.73699502961E+01  0.78527690843E+00  0.14754545304E+04  0.14755070329E+04  0.10000000000E+02 0.  1.
</event>
<event>
 5    1  0.1369527E-008  0.3685815E+03  0.7957747E-01  0.3502436E+00
         13   -1    0    0    0    0  0.00000000000E+00  0.00000000000E+00  0.14999999963E+04  0.15000000000E+04  0.10566000000E+00 0. -1.
        994   -1    0    0    0    0 -0.00000000000E+00 -0.00000000000E+00  0.11368683772E-12  0.17120000000E+03  0.17120000000E+03 0.  0.
         13    1    1    2    0    0  0.16926819800E+02  0.11529552067E+02  0.16403050230E+02  0.26239645964E+02  0.10566000000E+00 0. -1.
        994    1    1    2    0    0 -0.18348208297E+02 -0.95767076820E+01  0.11502258007E+02  0.17282971972E+03  0.17120000000E+03 0.  0.
        998    1    1    2    0    0  0.14213884968E+01 -0.19528443854E+01  0.14720946880E+04  0.14721306343E+04  0.10000000000E+02 0. -1.
</event>
<event>
 5    1  0.1369527E-008  0.3836985E+03  0.7957747E-01  0.3435211E+00
         13   -1    0    0    0    0  0.00000000000E+00  0.00000000000E+00  0.14999999963E+04  0.15000000000E+04  0.10566000000E+00 0.  1.
        994   -1    0    0    0    0 -0.00000000000E+00 -0.00000000000E+00  0.11368683772E-12  0.17120000000E+03  0.17120000000E+03 0.  0.
         13    1    1    2    0    0  0.17212012969E+02  0.63365628355E+01  0.78176690791E+02  0.80299511618E+02  0.10566000000E+00 0.  1.
        994    1    1    2    0    0 -0.12162694759E+01  0.16408557661E+00  0.22826549800E+01  0.17121961555E+03  0.17120000000E+03 0.  0.
        998    1    1    2    0    0 -0.15995743494E+02 -0.65006484121E+01  0.14195406505E+04  0.14196808728E+04  0.10000000000E+02 0.  1.
</event>
<event>
 5    1  0.1369527E-008  0.3737233E+03  0.7957747E-01  0.3478952E+00
         13   -1    0    0    0    0  0.00000000000E+00  0.00000000000E+00  0.14999999963E+04  0.15000000000E+04  0.10566000000E+00 0. -1.
        994   -1    0    0    0    0 -0.00000000000E+00 -0.00000000000E+00  0.11368683772E-12  0.17120000000E+03  0.17120000000E+03 0.  0.
         13    1    1    2    0    0 -0.61043328886E+02  0.17157450186E+02  0.31906941232E+03  0.32530903329E+03  0.10566000000E+00 0. -1.
        994    1    1    2    0    0  0.24943473172E+02  0.25925593108E+02  0.11767267578E+02  0.17533459960E+03  0.17120000000E+03 0.  0.
        998    1    1    2    0    0  0.36099855714E+02 -0.43083043294E+02  0.11691633164E+04  0.11705563671E+04  0.10000000000E+02 0. -1.
</event>
<event>
 5    1  0.1369527E-008  0.3814106E+03  0.7957747E-01  0.3445039E+00
         13   -1    0    0    0    0  0.00000000000E+00  0.00000000000E+00  0.14999999963E+04  0.15000000000E+04  0.10566000000E+00 0.  1.
        994   -1    0    0    0    0 -0.00000000000E+00 -0.00000000000E+00  0.11368683772E-12  0.17120000000E+03  0.17120000000E+03 0.  0.
         13    1    1    2    0    0  0.20556984228E+02 -0.11724407238E+01  0.63501343020E+02  0.66756242758E+02  0.10566000000E+00 0.  1.
        994    1    1    2    0    0 -0.34037251488E+01  0.51097451469E+00  0.34621862295E+01  0.17126959209E+03  0.17120000000E+03 0.  0.
        998    1    1    2    0    0 -0.17153259079E+02  0.66146620911E+00  0.14330364670E+04  0.14331741652E+04  0.10000000000E+02 0. -1.
</event>
<event>
 5    1  0.1369527E-008  0.3779413E+03  0.7957747E-01  0.3460172E+00
         13   -1    0    0    0    0  0.00000000000E+00  0.00000000000E+00  0.14999999963E+04  0.15000000000E+04  0.10566000000E+00 0.  1.
        994   -1    0    0    0    0 -0.00000000000E+00 -0.00000000000E+00  0.11368683772E-12  0.17120000000E+03  0.17120000000E+03 0.  0.
         13    1    1    2    0    0  0.95099694810E+02 -0.30528251991E+02  0.56657675424E+03  0.57531309366E+03  0.10566000000E+00 0.  1.
        994    1    1    2    0    0 -0.96079247908E+02  0.35699191858E+02  0.41393344110E+02  0.20378543401E+03  0.17120000000E+03 0.  0.
        998    1    1    2    0    0  0.97955309842E+00 -0.51709398664E+01  0.89202989792E+03  0.89210147233E+03  0.10000000000E+02 0.  0.
</event>
<event>
 5    1  0.1369527E-008  0.2374933E+03  0.7957747E-01  0.4476476E+00
         13   -1    0    0    0    0  0.00000000000E+00  0.00000000000E+00  0.14999999963E+04  0.15000000000E+04  0.10566000000E+00 0.  1.
        994   -1    0    0    0    0 -0.00000000000E+00 -0.00000000000E+00  0.11368683772E-12  0.17120000000E+03  0.17120000000E+03 0.  0.
         13    1    1    2    0    0  0.13083094252E+03 -0.90039371518E+02  0.23650068849E+03  0.28487964260E+03  0.10566000000E+00 0.  1.
        994    1    1    2    0    0 -0.12611854407E+03  0.82559504347E+02  0.15058553773E+03  0.27332655028E+03  0.17120000000E+03 0.  0.
        998    1    1    2    0    0 -0.47123984483E+01  0.74798671702E+01  0.11129137701E+04  0.11129938071E+04  0.10000000000E+02 0.  1.
</event>
<event>
 5    1  0.1369527E-008  0.3833166E+03  0.7957747E-01  0.3436843E+00
         13   -1    0    0    0    0  0.00000000000E+00  0.00000000000E+00  0.14999999963E+04  0.15000000000E+04  0.10566000000E+00 0. -1.
        994   -1    0    0    0    0 -0.00000000000E+00 -0.00000000000E+00  0.11368683772E-12  0.17120000000E+03  0.17120000000E+03 0.  0.
         13    1    1    2    0    0 -0.80374845205E+01  0.16718914300E+02  0.72964876802E+02  0.75286171795E+02  0.10566000000E+00 0. -1.
        994    1    1    2    0    0  0.19111151502E+01 -0.13645295455E+01  0.24864633420E+01  0.17123415781E+03  0.17120000000E+03 0.  0.
        998    1    1    2    0    0  0.61263693703E+01 -0.15354384754E+02  0.14245486561E+04  0.14246796704E+04  0.10000000000E+02 0. -1.
</event>
<event>
 5    1  0.1369527E-008  0.3847844E+03  0.7957747E-01  0.3430587E+00
         13   -1    0    0    0    0  0.00000000000E+00  0.00000000000E+00  0.14999999963E+04  0.15000000000E+04  0.10566000000E+00 0. -1.
        994   -1    0    0    0    0 -0.00000000000E+00 -0.00000000000E+00  0.11368683772E-12  0.17120000000E+03  0.17120000000E+03 0.  0.
         13    1    1    2    0    0 -0.67781919230E+01 -0.95732561539E+01  0.37832507184E+02  0.39609353479E+02  0.10566000000E+00 0. -1.
        994    1    1    2    0    0  0.13832308331E+02  0.10238389828E+02  0.27124504952E+01  0.17208415025E+03  0.17120000000E+03 0.  0.
        998    1    1    2    0    0 -0.70541164076E+01 -0.66513367371E+00  0.14594550386E+04  0.14595064963E+04  0.10000000000E+02 0. -1.
</event>
<event>
 5    1  0.1369527E-008  0.3825108E+03  0.7957747E-01  0.3440298E+00
         13   -1    0    0    0    0  0.00000000000E+00  0.00000000000E+00  0.14999999963E+04  0.15000000000E+04  0.10566000000E+00 0. -1.
        994   -1    0    0    0    0 -0.00000000000E+00 -0.00000000000E+00  0.11368683772E-12  0.17120000000E+03  0.17120000000E+03 0.  0.
         13    1    1    2    0    0  0.84314780871E+01  0.21757075399E+02  0.85424457160E+02  0.88553990299E+02  0.10566000000E+00 0. -1.
        994    1    1    2    0    0 -0.25622088786E+02 -0.24347903532E+02  0.70240826958E+01  0.17495167784E+03  0.17120000000E+03 0.  0.
        998    1    1    2    0    0  0.17190610699E+02  0.25908281328E+01  0.14075514564E+04  0.14076943319E+04  0.10000000000E+02 0. -1.
</event>
<event>
 5    1  0.1369527E-008  0.3778654E+03  0.7957747E-01  0.3460506E+00
         13   -1    0    0    0    0  0.00000000000E+00  0.00000000000E+00  0.14999999963E+04  0.15000000000E+04  0.10566000000E+00 0. -1.
        994   -1    0    0    0    0 -0.00000000000E+00 -0.00000000000E+00  0.11368683772E-12  0.17120000000E+03  0.17120000000E+03 0.  0.
         13    1    1    2    0    0 -0.17609478548E+02  0.14370188625E+02  0.50406945345E+02  0.55294370047E+02  0.10566000000E+00 0. -1.
        994    1    1    2    0    0  0.15620047211E+01  0.53609418105E+01  0.53195688417E+01  0.17137361923E+03  0.17120000000E+03 0.  0.
        998    1    1    2    0    0  0.16047473827E+02 -0.19731130436E+02  0.14442734821E+04  0.14445320107E+04  0.10000000000E+02 0. -1.
</event>
<event>
 5    1  0.1369527E-008  0.3841129E+03  0.7957747E-01  0.3433443E+00
         13   -1    0    0    0    0  0.00000000000E+00  0.00000000000E+00  0.14999999963E+04  0.15000000000E+04  0.10566000000E+00 0. -1.
        994   -1    0    0    0    0 -0.00000000000E+00 -0.00000000000E+00  0.11368683772E-12  0.17120000000E+03  0.17120000000E+03 0.  0.
         13    1    1    2    0    0 -0.52245831295E+01 -0.98589831687E+01  0.29530993330E+02  0.31568759068E+02  0.10566000000E+00 0. -1.
        994    1    1    2    0    0  0.23147383895E+01  0.70681181717E+01  0.22536496563E+01  0.17137629721E+03  0.17120000000E+03 0.  0.
        998    1    1    2    0    0  0.29098447400E+01  0.27908649970E+01  0.14682153533E+04  0.14682549437E+04  0.10000000000E+02 0. -1.
</event>
<event>
 5    1  0.1369527E-008  0.3814172E+03  0.7957747E-01  0.3445011E+00
         13   -1    0    0    0    0  0.00000000000E+00  0.00000000000E+00  0.14999999963E+04  0.15000000000E+04  0.10566000000E+00 0.  1.
        994   -1    0    0    0    0 -0.00000000000E+00 -0.00000000000E+00  0.11368683772E-12  0.17120000000E+03  0.17120000000E+03 0.  0.
         13    1    1    2    0    0 -0.22920249327E+02 -0.21881504852E+02  0.13822674409E+03  0.14181248898E+03  0.10566000000E+00 0.  1.
        994    1    1    2    0    0  0.16998298775E+02  0.21088656040E+02  0.58644550581E+01  0.17342867528E+03  0.17120000000E+03 0.  0.
        998    1    1    2    0    0  0.59219505520E+01  0.79284881221E+00  0.13559087971E+04  0.13559588357E+04  0.10000000000E+02 0.  1.
</event>
<event>
 5    1  0.1369527E-008  0.3755047E+03  0.7957747E-01  0.3470969E+00
         13   -1    0    0    0    0  0.00000000000E+00  0.00000000000E+00  0.14999999963E+04  0.15000000000E+04  0.10566000000E+00 0.  1.
        994   -1    0    0    0    0 -0.00000000000E+00 -0.00000000000E+00  0.11368683772E-12  0.17120000000E+03  0.17120000000E+03 0.  0.
         13    1    1    2    0    0  0.46822943614E+02  0.15645947174E+02  0.20133306445E+03  0.20729736543E+03  0.10566000000E+00 0.  1.
        994    1    1    2    0    0 -0.30296232331E+02  0.31018865761E+02  0.12826340795E+02  0.17707056996E+03  0.17120000000E+03 0.  0.
        998    1    1    2    0    0 -0.16526711284E+02 -0.46664812935E+02  0.12858405910E+04  0.12868320646E+04  0.10000000000E+02 0.  1.
</event>
<event>
 5    1  0.1369527E-008  0.3848242E+03  0.7957747E-01  0.3430418E+00
         13   -1    0    0    0    0  0.00000000000E+00  0.00000000000E+00  0.14999999963E+04  0.15000000000E+04  0.10566000000E+00 0.  1.
        994   -1    0    0    0    0 -0.00000000000E+00 -0.00000000000E+00  0.11368683772E-12  0.17120000000E+03  0.17120000000E+03 0.  0.
         13    1    1    2    0    0 -0.96882731928E+01  0.67281459383E+01  0.38585220776E+02  0.40347998855E+02  0.10566000000E+00 0.  1.
        994    1    1    2    0    0  0.14534766491E+02 -0.88788260080E+01  0.26725913603E+01  0.17206590520E+03  0.17120000000E+03 0.  0.
        998    1    1    2    0    0 -0.48464932983E+01  0.21506800697E+01  0.14587421841E+04  0.14587860959E+04  0.10000000000E+02 0.  1.
</event>
<event>
 5    1  0.1369527E-008  0.3848910E+03  0.7957747E-01  0.3430134E+00
         13   -1    0    0    0    0  0.00000000000E+00  0.00000000000E+00  0.14999999963E+04  0.15000000000E+04  0.10566000000E+00 0.  1.
        994   -1    0    0    0    0 -0.00000000000E+00 -0.00000000000E+00  0.11368683772E-12  0.17120000000E+03  0.17120000000E+03 0.  0.
         13    1    1    2    0    0 -0.10285904384E+02  0.49073530198E+01  0.37490695004E+02  0.39184758753E+02  0.10566000000E+00 0.  1.
        994    1    1    2    0    0  0.14918965364E+02  0.21075302462E+01  0.24314431020E+01  0.17187893741E+03  0.17120000000E+03 0.  0.
        998    1    1    2    0    0 -0.46330609805E+01 -0.70148832661E+01  0.14600778582E+04  0.14601363038E+04  0.10000000000E+02 0.  1.
</event>
<event>
 5    1  0.1369527E-008  0.3788711E+03  0.7957747E-01  0.3456089E+00
         13   -1    0    0    0    0  0.00000000000E+00  0.00000000000E+00  0.14999999963E+04  0.15000000000E+04  0.10566000000E+00 0.  1.
        994   -1    0    0    0    0 -0.00000000000E+00 -0.00000000000E+00  0.11368683772E-12  0.17120000000E+03  0.17120000000E+03 0.  0.
         13    1    1    2    0    0 -0.45365868085E+02  0.75128007502E+01  0.23508407295E+03  0.23953921741E+03  0.10566000000E+00 0.  1.
        994    1    1    2    0    0  0.19946800359E+02  0.42051603672E+00  0.60408875040E+01  0.17246444271E+03  0.17120000000E+03 0.  0.
        998    1    1    2    0    0  0.25419067726E+02 -0.79333167870E+01  0.12588750358E+04  0.12591963399E+04  0.10000000000E+02 0.  1.
</event>
<event>
 5    1  0.1369527E-008  0.3820820E+03  0.7957747E-01  0.3442143E+00
         13   -1    0    0    0    0  0.00000000000E+00  0.00000000000E+00  0.14999999963E+04  0.15000000000E+04  0.10566000000E+00 0.  1.
        994   -1    0    0    0    0 -0.00000000000E+00 -0.00000000000E+00  0.11368683772E-12  0.17120000000E+03  0.17120000000E+03 0.  0.
         13    1    1    2    0    0  0.10745036764E+02  0.23467138325E+02  0.10382440441E+03  0.10698448724E+03  0.10566000000E+00 0.  1.
        994    1    1    2    0    0 -0.12272288870E+02 -0.17257547758E+02  0.45760867883E+01  0.17256538645E+03  0.17120000000E+03 0.  0.
        998    1    1    2    0    0  0.15272521060E+01 -0.62095905675E+01  0.13915995051E+04  0.13916501263E+04  0.10000000000E+02 0.  1.
</event>
<event>
 5    1  0.1369527E-008  0.3856915E+03  0.7957747E-01  0.3426745E+00
         13   -1    0    0    0    0  0.00000000000E+00  0.00000000000E+00  0.14999999963E+04  0.15000000000E+04  0.10566000000E+00 0. -1.
        994   -1    0    0    0    0 -0.00000000000E+00 -0.00000000000E+00  0.11368683772E-12  0.17120000000E+03  0.17120000000E+03 0.  0.
         13    1    1    2    0    0 -0.10326613575E+02  0.81190103565E+01  0.71945307679E+02  0.73134777898E+02  0.10566000000E+00 0. -1.
        994    1    1    2    0    0  0.30769647772E+01  0.33980199482E+01  0.13561455084E+01  0.17126673169E+03  0.17120000000E+03 0.  0.
        998    1    1    2    0    0  0.72496487981E+01 -0.11517030305E+02  0.14266985431E+04  0.14267984904E+04  0.10000000000E+02 0. -1.
</event>
<event>
 5    1  0.1369527E-008  0.3852908E+03  0.7957747E-01  0.3428440E+00
         13   -1    0    0    0    0  0.00000000000E+00  0.00000000000E+00  0.14999999963E+04  0.15000000000E+04  0.10566000000E+00 0. -1.
        994   -1    0    0    0    0 -0.00000000000E+00 -0.00000000000E+00  0.11368683772E-12  0.17120000000E+03  0.17120000000E+03 0.  0.
         13    1    1    2    0    0  0.13225195096E+02 -0.45017781757E+01  0.67958025162E+02  0.69379219800E+02  0.10566000000E+00 0. -1.
        994    1    1    2    0    0 -0.38521437417E+01  0.30733562219E+01  0.15656294502E+01  0.17127806551E+03  0.17120000000E+03 0.  0.
        998    1    1    2    0    0 -0.93730513540E+01  0.14284219539E+01  0.14304763417E+04  0.14305427147E+04  0.10000000000E+02 0. -1.
</event>
<event>
 5    1  0.1369527E-008  0.3727148E+03  0.7957747E-01  0.3483506E+00
         13   -1    0    0    0    0  0.00000000000E+00  0.00000000000E+00  0.14999999963E+04  0.15000000000E+04  0.10566000000E+00 0. -1.
        994   -1    0    0    0    0 -0.00000000000E+00 -0.00000000000E+00  0.11368683772E-12  0.17120000000E+03  0.17120000000E+03 0.  0.
         13    1    1    2    0    0  0.95282537479E+02  0.69294036769E+02  0.59887345400E+03  0.61035223482E+03  0.10566000000E+00 0. -1.
        994    1    1    2    0    0 -0.93744912165E+02 -0.50191052251E+02  0.47643204103E+02  0.20709071727E+03  0.17120000000E+03 0.  0.
        998    1    1    2    0    0 -0.15376253144E+01 -0.19102984518E+02  0.85348333818E+03  0.85375704791E+03  0.10000000000E+02 0. -1.
</event>
<event>
 5    1  0.1369527E-008  0.3856227E+03  0.7957747E-01  0.3427036E+00
         13   -1    0    0    0    0  0.00000000000E+00  0.00000000000E+00  0.14999999963E+04  0.15000000000E+04  0.10566000000E+00 0. -1.
        994   -1    0    0    0    0 -0.00000000000E+00 -0.00000000000E+00  0.11368683772E-12  0.17120000000E+03  0.17120000000E+03 0.  0.
         13    1    1    2    0    0  0.85054534527E+01  0.12291096637E+02  0.80663605046E+02  0.82036834032E+02  0.10566000000E+00 0. -1.
        994    1    1    2    0    0 -0.58394868488E+01 -0.16255281934E+02  0.23010433057E+01  0.17208448099E+03  0.17120000000E+03 0.  0.
        998    1    1    2    0    0 -0.26659666039E+01  0.39641852977E+01  0.14170353479E+04  0.14170786850E+04  0.10000000000E+02 0. -1.
</event>
<event>
 5    1  0.1369527E-008  0.3809188E+03  0.7957747E-01  0.3447168E+00
         13   -1    0    0    0    0  0.00000000000E+00  0.00000000000E+00  0.14999999963E+04  0.15000000000E+04  0.10566000000E+00 0. -1.
        994   -1    0    0    0    0 -0.00000000000E+00 -0.00000000000E+00  0.11368683772E-12  0.17120000000E+03  0.17120000000E+03 0.  0.
         13    1    1    2    0    0  0.56462343948E+01  0.16606217100E+02  0.40003476608E+02  0.43679923465E+02  0.10566000000E+00 0. -1.
        994    1    1    2    0    0 -0.21019143505E+01 -0.15607307620E+02  0.44970498370E+01  0.17198159655E+03  0.17120000000E+03 0.  0.
        998    1    1    2    0    0 -0.35443200443E+01 -0.99890948054E+00  0.14554994698E+04  0.14555384800E+04  0.10000000000E+02 0. -1.
</event>
<event>
 5    1  0.1369527E-008  0.3587944E+03  0.7957747E-01  0.3549030E+00
         13   -1    0    0    0    0  0.00000000000E+00  0.00000000000E+00  0.14999999963E+04  0.15000000000E+04  0.10566000000E+00 0. -1.
        994   -1    0    0    0    0 -0.00000000000E+00 -0.00000000000E+00  0.11368683772E-12  0.17120000000E+03  0.17120000000E+03 0.  0.
         13    1    1    2    0    0  0.27564045396E+03  0.16134943419E+02  0.10081266965E+04  0.10452547267E+04  0.10566000000E+00 0. -1.
        994    1    1    2    0    0 -0.23923863620E+03 -0.62423976499E+01  0.26579352986E+03  0.39652204616E+03  0.17120000000E+03 0.  0.
        998    1    1    2    0    0 -0.36401817767E+02 -0.98925457687E+01  0.22607976992E+03  0.22942322717E+03  0.10000000000E+02 0. -1.
</event>
<event>
 5    1  0.1369527E-008  0.3779741E+03  0.7957747E-01  0.3460027E+00
         13   -1    0    0    0    0  0.00000000000E+00  0.00000000000E+00  0.14999999963E+04  0.15000000000E+04  0.10566000000E+00 0.  1.
        994   -1    0    0    0    0 -0.00000000000E+00 -0.00000000000E+00  0.11368683772E-12  0.17120000000E+03  0.17120000000E+03 0.  0.
         13    1    1    2    0    0  0.38557660266E+02  0.28901701400E+02  0.25560478222E+03  0.26010731894E+03  0.10566000000E+00 0.  1.
        994    1    1    2    0    0 -0.27342849996E+02  0.16753811431E+02  0.86278457798E+01  0.17439094405E+03  0.17120000000E+03 0.  0.
        998    1    1    2    0    0 -0.11214810270E+02 -0.45655512831E+02  0.12357673683E+04  0.12367017370E+04  0.10000000000E+02 0.  1.
</event>
<event>
 5    1  0.1369527E-008  0.3807917E+03  0.7957747E-01  0.3447719E+00
         13   -1    0    0    0    0  0.00000000000E+00  0.00000000000E+00  0.14999999963E+04  0.15000000000E+04  0.10566000000E+00 0.  1.
        994   -1    0    0    0    0 -0.00000000000E+00 -0.00000000000E+00  0.11368683772E-12  0.17120000000E+03  0.17120000000E+03 0.  0.
         13    1    1    2    0    0  0.18914638230E+01 -0.20912688475E+02  0.55721092741E+02  0.59546364414E+02  0.10566000000E+00 0.  1.
        994    1    1    2    0    0  0.34412306895E+01  0.22520300021E+02  0.54664227950E+01  0.17279562425E+03  0.17120000000E+03 0.  0.
        998    1    1    2    0    0 -0.53326945125E+01 -0.16076115457E+01  0.14388124807E+04  0.14388580113E+04  0.10000000000E+02 0.  1.
</event>
<event>
 5    1  0.1369527E-008  0.3740556E+03  0.7957747E-01  0.3477457E+00
         13   -1    0    0    0    0  0.00000000000E+00  0.00000000000E+00  0.14999999963E+04  0.15000000000E+04  0.10566000000E+00 0. -1.
        994   -1    0    0    0    0 -0.00000000000E+00 -0.00000000000E+00  0.11368683772E-12  0.17120000000E+03  0.17120000000E+03 0.  0.
         13    1    1    2    0    0 -0.12899255069E+02  0.43388983309E+01  0.97284122828E+00  0.13644574166E+02  0.10566000000E+00 0. -1.
        994    1    1    2    0    0  0.15376884477E+02 -0.90610887346E+01  0.14230020527E+02  0.17271504101E+03  0.17120000000E+03 0.  0.
        998    1    1    2    0    0 -0.24776294074E+01  0.47221904037E+01  0.14847971345E+04  0.14848403848E+04  0.10000000000E+02 0. -1.
</event>
<event>
 5    1  0.1369527E-008  0.3733638E+03  0.7957747E-01  0.3480573E+00
         13   -1    0    0    0    0  0.00000000000E+00  0.00000000000E+00  0.14999999963E+04  0.15000000000E+04  0.10566000000E+00 0. -1.
        994   -1    0    0    0    0 -0.00000000000E+00 -0.00000000000E+00  0.11368683772E-12  0.17120000000E+03  0.17120000000E+03 0.  0.
         13    1    1    2    0    0  0.76187059169E+02  0.19840681694E+02  0.39609117978E+03  0.40383951577E+03  0.10566000000E+00 0. -1.
        994    1    1    2    0    0 -0.42944761950E+02 -0.32318165372E+02  0.17460321405E+02  0.18028593738E+03  0.17120000000E+03 0.  0.
        998    1    1    2    0    0 -0.33242297218E+02  0.12477483678E+02  0.10864484951E+04  0.10870745469E+04  0.10000000000E+02 0. -1.
</event>
<event>
 5    1  0.1369527E-008  0.3721062E+03  0.7957747E-01  0.3486267E+00
         13   -1    0    0    0    0  0.00000000000E+00  0.00000000000E+00  0.14999999963E+04  0.15000000000E+04  0.10566000000E+00 0.  1.
        994   -1    0    0    0    0 -0.00000000000E+00 -0.00000000000E+00  0.11368683772E-12  0.17120000000E+03  0.17120000000E+03 0.  0.
         13    1    1    2    0    0 -0.82853263163E+02  0.80725328845E+02  0.52823465162E+03  0.54075234652E+03  0.10566000000E+00 0.  1.
        994    1    1    2    0    0  0.72337092594E+02 -0.31607447154E+02  0.34341650667E+02  0.19162587156E+03  0.17120000000E+03 0.  0.
        998    1    1    2    0    0  0.10516170569E+02 -0.49117881690E+02  0.93742369400E+03  0.93882178192E+03  0.10000000000E+02 0.  1.
</event>
<event>
 5    1  0.1369527E-008  0.3847215E+03  0.7957747E-01  0.3430854E+00
         13   -1    0    0    0    0  0.00000000000E+00  0.00000000000E+00  0.14999999963E+04  0.15000000000E+04  0.10566000000E+00 0.  1.
        994   -1    0    0    0    0 -0.00000000000E+00 -0.00000000000E+00  0.11368683772E-12  0.17120000000E+03  0.17120000000E+03 0.  0.
         13    1    1    2    0    0 -0.47859127190E+01  0.15990553851E+02  0.86414920038E+02  0.88012228367E+02  0.10566000000E+00 0.  1.
        994    1    1    2    0    0 -0.37882827318E+01  0.13089157741E+01  0.18213365370E+01  0.17125659582E+03  0.17120000000E+03 0.  0.
        998    1    1    2    0    0  0.85741954508E+01 -0.17299469625E+02  0.14117637397E+04  0.14119311758E+04  0.10000000000E+02 0.  1.
</event>
<event>
 5    1  0.1369527E-008  0.3839754E+03  0.7957747E-01  0.3434029E+00
         13   -1    0    0    0    0  0.00000000000E+00  0.00000000000E+00  0.14999999963E+04  0.15000000000E+04  0.10566000000E+00 0.  1.
        994   -1    0    0    0    0 -0.00000000000E+00 -0.00000000000E+00  0.11368683772E-12  0.17120000000E+03  0.17120000000E+03 0.  0.
         13    1    1    2    0    0 -0.10333102632E+02 -0.12163217787E+02  0.62425368905E+02  0.64433335501E+02  0.10566000000E+00 0.  1.
        994    1    1    2    0    0  0.38630317388E+01 -0.26417282688E+01  0.22119635243E+01  0.17127823716E+03  0.17120000000E+03 0.  0.
        998    1    1    2    0    0  0.64700708933E+01  0.14804946056E+02  0.14353626638E+04  0.14354884273E+04  0.10000000000E+02 0.  1.
</event>
<event>
 5    1  0.1369527E-008  0.3860311E+03  0.7957747E-01  0.3425311E+00
         13   -1    0    0    0    0  0.00000000000E+00  0.00000000000E+00  0.14999999963E+04  0.15000000000E+04  0.10566000000E+00 0. -1.
        994   -1    0    0    0    0 -0.00000000000E+00 -0.00000000000E+00  0.11368683772E-12  0.17120000000E+03  0.17120000000E+03 0.  0.
         13    1    1    2    0    0 -0.10964153791E+02 -0.24384849866E+01  0.59631828913E+02  0.60680516320E+02  0.10566000000E+00 0. -1.
        994    1    1    2    0    0  0.20769698161E+01 -0.23008628284E+01  0.11505891645E+01  0.17123192351E+03  0.17120000000E+03 0.  0.
        998    1    1    2    0    0  0.88871839748E+01  0.47393478150E+01  0.14392175782E+04  0.14392875602E+04  0.10000000000E+02 0. -1.
</event>
<event>
 5    1  0.1369527E-008  0.3818822E+03  0.7957747E-01  0.3443004E+00
         13   -1    0    0    0    0  0.00000000000E+00  0.00000000000E+00  0.14999999963E+04  0.15000000000E+04  0.10566000000E+00 0. -1.
        994   -1    0    0    0    0 -0.00000000000E+00 -0.00000000000E+00  0.11368683772E-12  0.17120000000E+03  0.17120000000E+03 0.  0.
         13    1    1    2    0    0  0.12182221522E+02  0.11966708628E+02  0.46335398072E+02  0.49382070786E+02  0.10566000000E+00 0. -1.
        994    1    1    2    0    0 -0.33856506263E+01  0.37922450139E+00  0.32246083105E+01  0.17126425354E+03  0.17120000000E+03 0.  0.
        998    1    1    2    0    0 -0.87965708960E+01 -0.12345933130E+02  0.14504399899E+04  0.14505536757E+04  0.10000000000E+02 0. -1.
</event>
<event>
 5    1  0.1369527E-008  0.3750471E+03  0.7957747E-01  0.3473012E+00
         13   -1    0    0    0    0  0.00000000000E+00  0.00000000000E+00  0.14999999963E+04  0.15000000000E+04  0.10566000000E+00 0.  1.
        994   -1    0    0    0    0 -0.00000000000E+00 -0.00000000000E+00  0.11368683772E-12  0.17120000000E+03  0.17120000000E+03 0.  0.
         13    1    1    2    0    0  0.55919835688E+02  0.34322117975E+01  0.10568100877E+03  0.11961310497E+03  0.10566000000E+00 0.  1.
        994    1    1    2    0    0 -0.49153864744E+02 -0.49649446904E+01  0.22370712953E+02  0.17958463713E+03  0.17120000000E+03 0.  0.
        998    1    1    2    0    0 -0.67659709448E+01  0.15327328929E+01  0.13719482746E+04  0.13720022579E+04  0.10000000000E+02 0.  1.
</event>
<event>
 5    1  0.1369527E-008  0.3796918E+03  0.7957747E-01  0.3452501E+00
         13   -1    0    0    0    0  0.00000000000E+00  0.00000000000E+00  0.14999999963E+04  0.15000000000E+04  0.10566000000E+00 0. -1.
        994   -1    0    0    0    0 -0.00000000000E+00 -0.00000000000E+00  0.11368683772E-12  0.17120000000E+03  0.17120000000E+03 0.  0.
         13    1    1    2    0    0 -0.35756338628E+01  0.98646281082E+01 -0.41620960692E+01  0.11288500917E+02  0.10566000000E+00 0. -1.
        994    1    1    2    0    0  0.55022276903E+01 -0.15278608238E+02  0.17113175144E+02  0.17281785539E+03  0.17120000000E+03 0.  0.
        998    1    1    2    0    0 -0.19265938275E+01  0.54139801295E+01  0.14870489172E+04  0.14870936437E+04  0.10000000000E+02 0. -1.
</event>
<event>
 5    1  0.1369527E-008  0.3829113E+03  0.7957747E-01  0.3438579E+00
         13   -1    0    0    0    0  0.00000000000E+00  0.00000000000E+00  0.14999999963E+04  0.15000000000E+04  0.10566000000E+00 0. -1.
        994   -1    0    0    0    0 -0.00000000000E+00 -0.00000000000E+00  0.11368683772E-12  0.17120000000E+03  0.17120000000E+03 0.  0.
         13    1    1    2    0    0  0.86391161965E+01  0.33701559493E+02  0.20904126947E+03  0.21191671229E+03  0.10566000000E+00 0. -1.
        994    1    1    2    0    0 -0.17451947941E+02 -0.25346287684E+02  0.58126083816E+01  0.17404088946E+03  0.17120000000E+03 0.  0.
        998    1    1    2    0    0  0.88128317448E+01 -0.83552718093E+01  0.12851461184E+04  0.12852423983E+04  0.10000000000E+02 0. -1.
</event>
<event>
 5    1  0.1369527E-008  0.3696992E+03  0.7957747E-01  0.3497274E+00
         13   -1    0    0    0    0  0.00000000000E+00  0.00000000000E+00  0.14999999963E+04  0.15000000000E+04  0.10566000000E+00 0. -1.
        994   -1    0    0    0    0 -0.00000000000E+00 -0.00000000000E+00  0.11368683772E-12  0.17120000000E+03  0.17120000000E+03 0.  0.
         13    1    1    2    0    0  0.56429491408E+02 -0.32355749537E+02  0.17307214386E+03  0.18489229344E+03  0.10566000000E+00 0. -1.
        994    1    1    2    0    0 -0.51996106653E+02  0.35394876328E+02  0.24727449317E+02  0.18405781463E+03  0.17120000000E+03 0.  0.
        998    1    1    2    0    0 -0.44333847554E+01 -0.30391267906E+01  0.13022004031E+04  0.13022498919E+04  0.10000000000E+02 0. -1.
</event>
<event>
 5    1  0.1369527E-008  0.3830055E+03  0.7957747E-01  0.3438175E+00
         13   -1    0    0    0    0  0.00000000000E+00  0.00000000000E+00  0.14999999963E+04  0.15000000000E+04  0.10566000000E+00 0. -1.
        994   -1    0    0    0    0 -0.00000000000E+00 -0.00000000000E+00  0.11368683772E-12  0.17120000000E+03  0.17120000000E+03 0.  0.
         13    1    1    2    0    0 -0.13088452167E+02  0.68400429059E+01  0.40760908659E+02  0.43353853414E+02  0.10566000000E+00 0. -1.
        994    1    1    2    0    0  0.17987520571E+02  0.12976438905E+02  0.42536459948E+01  0.17268315600E+03  0.17120000000E+03 0.  0.
        998    1    1    2    0    0 -0.48990684039E+01 -0.19816481811E+02  0.14549854416E+04  0.14551629906E+04  0.10000000000E+02 0. -1.
</event>
<event>
 5    1  0.1369527E-008  0.4225227E+03  0.7957747E-01  0.3284620E+00
         13   -1    0    0    0    0  0.00000000000E+00  0.00000000000E+00  0.14999999963E+04  0.15000000000E+04  0.10566000000E+00 0. -1.
        994   -1    0    0    0    0 -0.00000000000E+00 -0.00000000000E+00  0.11368683772E-12  0.17120000000E+03  0.17120000000E+03 0.  0.
         13    1    1    2    0    0 -0.71287698247E+02  0.30885318966E+02  0.55286760339E+02  0.95354474891E+02  0.10566000000E+00 0. -1.
        994    1    1    2    0    0  0.77582138516E+02 -0.32083644864E+02  0.73144138102E+02  0.20422500685E+03  0.17120000000E+03 0.  0.
        998    1    1    2    0    0 -0.62944402689E+01  0.11983258983E+01  0.13715690978E+04  0.13716205183E+04  0.10000000000E+02 0. -1.
</event>
<event>
 5    1  0.1369527E-008  0.3831968E+03  0.7957747E-01  0.3437356E+00
         13   -1    0    0    0    0  0.00000000000E+00  0.00000000000E+00  0.14999999963E+04  0.15000000000E+04  0.10566000000E+00 0. -1.
        994   -1    0    0    0    0 -0.00000000000E+00 -0.00000000000E+00  0.11368683772E-12  0.17120000000E+03  0.17120000000E+03 0.  0.
         13    1    1    2    0    0 -0.46649853038E+00 -0.10054381219E+02  0.18653821019E+02  0.21196329994E+02  0.10566000000E+00 0. -1.
        994    1    1    2    0    0 -0.33704500837E+01  0.15007572614E+02  0.33110789167E+01  0.17192146583E+03  0.17120000000E+03 0.  0.
        998    1    1    2    0    0  0.38369486140E+01 -0.49531913950E+01  0.14780350963E+04  0.14780822042E+04  0.10000000000E+02 0. -1.
</event>
<event>
 5    1  0.1369527E-008  0.3737367E+03  0.7957747E-01  0.3478892E+00
         13   -1    0    0    0    0  0.00000000000E+00  0.00000000000E+00  0.14999999963E+04  0.15000000000E+04  0.10566000000E+00 0. -1.
        994   -1    0    0    0    0 -0.00000000000E+00 -0.00000000000E+00  0.11368683772E-12  0.17120000000E+03  0.17120000000E+03 0.  0.
         13    1    1    2    0    0 -0.67733435051E+02  0.90756041293E+01  0.18866886251E+03  0.20066423612E+03  0.10566000000E+00 0. -1.
        994    1    1    2    0    0  0.26156937739E+02 -0.62363735893E+01  0.15494036192E+02  0.17399018048E+03  0.17120000000E+03 0.  0.
        998    1    1    2    0    0  0.41576497312E+02 -0.28392305399E+01  0.12958370976E+04  0.12965455834E+04  0.10000000000E+02 0. -1.
</event>
<event>
 5    1  0.1369527E-008  0.4005705E+03  0.7957747E-01  0.3366206E+00
         13   -1    0    0    0    0  0.00000000000E+00  0.00000000000E+00  0.14999999963E+04  0.15000000000E+04  0.10566000000E+00 0. -1.
        994   -1    0    0    0    0 -0.00000000000E+00 -0.00000000000E+00  0.11368683772E-12  0.17120000000E+03  0.17120000000E+03 0.  0.
         13    1    1    2    0    0 -0.53158083623E+02 -0.14944981851E+02  0.47995246077E+02  0.73162074513E+02  0.10566000000E+00 0. -1.
        994    1    1    2    0    0  0.90822532899E+01  0.92235565019E+01  0.28779888710E+02  0.17408412712E+03  0.17120000000E+03 0.  0.
        998    1    1    2    0    0  0.44075830334E+02  0.57214253496E+01  0.14232248615E+04  0.14239537984E+04  0.10000000000E+02 0. -1.
</event>
<event>
 5    1  0.1369527E-008  0.3813177E+03  0.7957747E-01  0.3445441E+00
         13   -1    0    0    0    0  0.00000000000E+00  0.00000000000E+00  0.14999999963E+04  0.15000000000E+04  0.10566000000E+00 0.  1.
        994   -1    0    0    0    0 -0.00000000000E+00 -0.00000000000E+00  0.11368683772E-12  0.17120000000E+03  0.17120000000E+03 0.  0.
         13    1    1    2    0    0 -0.22128368853E+02 -0.28298145029E+02  0.16171726833E+03  0.16565909502E+03  0.10566000000E+00 0.  1.
        994    1    1    2    0    0  0.26032949364E+02  0.30630061973E+02  0.88666622711E+01  0.17607945039E+03  0.17120000000E+03 0.  0.
        998    1    1    2    0    0 -0.39045805108E+01 -0.23319169441E+01  0.13294160657E+04  0.13294614546E+04  0.10000000000E+02 0.  1.
</event>
<event>
 5    1  0.1369527E-008  0.3837348E+03  0.7957747E-01  0.3435056E+00
         13   -1    0    0    0    0  0.00000000000E+00  0.00000000000E+00  0.14999999963E+04  0.15000000000E+04  0.10566000000E+00 0.  1.
        994   -1    0    0    0    0 -0.00000000000E+00 -0.00000000000E+00  0.11368683772E-12  0.17120000000E+03  0.17120000000E+03 0.  0.
         13    1    1    2    0    0  0.16283946849E+02 -0.14014700482E+02  0.12166535991E+03  0.12354776291E+03  0.10566000000E+00 0.  1.
        994    1    1    2    0    0  0.96231097807E+01 -0.40812635073E+01  0.26204621662E+01  0.17153882294E+03  0.17120000000E+03 0.  0.
        998    1    1    2    0    0 -0.25907056629E+02  0.18095963989E+02  0.13757141742E+04  0.13761134142E+04  0.10000000000E+02 0.  1.
</event>
<event>
 5    1  0.1369527E-008  0.3820853E+03  0.7957747E-01  0.3442129E+00
         13   -1    0    0    0    0  0.00000000000E+00  0.00000000000E+00  0.14999999963E+04  0.15000000000E+04  0.10566000000E+00 0.  1.
        994   -1    0    0    0    0 -0.00000000000E+00 -0.00000000000E+00  0.11368683772E-12  0.17120000000E+03  0.17120000000E+03 0.  0.
         13    1    1    2    0    0 -0.64033891894E+01 -0.40473329745E+02  0.24420831030E+03  0.24762230068E+03  0.10566000000E+00 0.  1.
        994    1    1    2    0    0  0.16336707188E+02  0.32895659294E+02  0.75759369185E+01  0.17525937128E+03  0.17120000000E+03 0.  0.
        998    1    1    2    0    0 -0.99333179986E+01  0.75776704515E+01  0.12482157491E+04  0.12483183280E+04  0.10000000000E+02 0.  1.
</event>
<event>
 5    1  0.1400338E-008  0.3846952E+03  0.7957747E-01  0.3430966E+00
         13   -1    0    0    0    0  0.00000000000E+00  0.00000000000E+00  0.14999999963E+04  0.15000000000E+04  0.10566000000E+00 0. -1.
        994   -1    0    0    0    0 -0.00000000000E+00 -0.00000000000E+00  0.11368683772E-12  0.17120000000E+03  0.17120000000E+03 0.  0.
         13    1    1    2    0    0 -0.14568507384E+02 -0.37202309003E+01  0.61124187993E+02  0.62946477639E+02  0.10566000000E+00 0. -1.
        994    1    1    2    0    0  0.14965412486E+02  0.55754101989E+01  0.26216077728E+01  0.17196325653E+03  0.17120000000E+03 0.  0.
        998    1    1    2    0    0 -0.39690510215E+00 -0.18551792986E+01  0.14362542005E+04  0.14362902658E+04  0.10000000000E+02 0. -1.
</event>
<event>
 5    1  0.1369527E-008  0.3760118E+03  0.7957747E-01  0.3468710E+00
         13   -1    0    0    0    0  0.00000000000E+00  0.00000000000E+00  0.14999999963E+04  0.15000000000E+04  0.10566000000E+00 0.  1.
        994   -1    0    0    0    0 -0.00000000000E+00 -0.00000000000E+00  0.11368683772E-12  0.17120000000E+03  0.17120000000E+03 0.  0.
         13    1    1    2    0    0 -0.20786035366E+03 -0.94225881508E+02  0.12242453686E+04  0.12453357688E+04  0.10566000000E+00 0.  1.
        994    1    1    2    0    0  0.19339977423E+03  0.95858611570E+02  0.18137347116E+03  0.32984560346E+03  0.17120000000E+03 0.  0.
        998    1    1    2    0    0  0.14460579427E+02 -0.16327300620E+01  0.94381156566E+02  0.96018627774E+02  0.10000000000E+02 0.  1.
</event>
<event>
 5    1  0.1369527E-008  0.3837894E+03  0.7957747E-01  0.3434823E+00
         13   -1    0    0    0    0  0.00000000000E+00  0.00000000000E+00  0.14999999963E+04  0.15000000000E+04  0.10566000000E+00 0.  1.
        994   -1    0    0    0    0 -0.00000000000E+00 -0.00000000000E+00  0.11368683772E-12  0.17120000000E+03  0.17120000000E+03 0.  0.
         13    1    1    2    0    0 -0.14099838257E+02 -0.20868052104E+01  0.47754935473E+02  0.49836785820E+02  0.10566000000E+00 0.  1.
        994    1    1    2    0    0 -0.24715720122E+01 -0.50082008700E+01  0.23353727607E+01  0.17130698967E+03  0.17120000000E+03 0.  0.
        998    1    1    2    0    0  0.16571410269E+02  0.70950060804E+01  0.14499096880E+04  0.14500562245E+04  0.10000000000E+02 0.  1.
</event>
<event>
 5    1  0.1369527E-008  0.3140933E+03  0.7957747E-01  0.3800275E+00
         13   -1    0    0    0    0  0.00000000000E+00  0.00000000000E+00  0.14999999963E+04  0.15000000000E+04  0.10566000000E+00 0.  1.
        994   -1    0    0    0    0 -0.00000000000E+00 -0.00000000000E+00  0.11368683772E-12  0.17120000000E+03  0.17120000000E+03 0.  0.
         13    1    1    2    0    0  0.61890810801E+02  0.22170661598E+03  0.73822923417E+03  0.77328307196E+03  0.10566000000E+00 0.  1.
        994    1    1    2    0    0 -0.99128399632E+02 -0.16717686967E+03  0.18743700530E+03  0.31971333460E+03  0.17120000000E+03 0.  0.
        998    1    1    2    0    0  0.37237588831E+02 -0.54529746305E+02  0.57433375681E+03  0.57820359344E+03  0.10000000000E+02 0.  1.
</event>
<event>
 5    1  0.1369527E-008  0.3851089E+03  0.7957747E-01  0.3429210E+00
         13   -1    0    0    0    0  0.00000000000E+00  0.00000000000E+00  0.14999999963E+04  0.15000000000E+04  0.10566000000E+00 0. -1.
        994   -1    0    0    0    0 -0.00000000000E+00 -0.00000000000E+00  0.11368683772E-12  0.17120000000E+03  0.17120000000E+03 0.  0.
         13    1    1    2    0    0 -0.96809858770E+01  0.54677799274E+01  0.40515475902E+02  0.42013486602E+02  0.10566000000E+00 0. -1.
        994    1    1    2    0    0  0.31244847900E+01  0.39222439814E+01  0.16587453162E+01  0.17128145795E+03  0.17120000000E+03 0.  0.
        998    1    1    2    0    0  0.65565010870E+01 -0.93900239088E+01  0.14578257751E+04  0.14579050554E+04  0.10000000000E+02 0. -1.
</event>
<event>
 5    1  0.1369527E-008  0.3827302E+03  0.7957747E-01  0.3439356E+00
         13   -1    0    0    0    0  0.00000000000E+00  0.00000000000E+00  0.14999999963E+04  0.15000000000E+04  0.10566000000E+00 0. -1.
        994   -1    0    0    0    0 -0.00000000000E+00 -0.00000000000E+00  0.11368683772E-12  0.17120000000E+03  0.17120000000E+03 0.  0.
         13    1    1    2    0    0 -0.10120867961E+02  0.85937577716E+01  0.31766722406E+02  0.34429935483E+02  0.10566000000E+00 0. -1.
        994    1    1    2    0    0  0.10227892245E+02  0.88343024622E+01  0.33666356654E+01  0.17176562204E+03  0.17120000000E+03 0.  0.
        998    1    1    2    0    0 -0.10702428368E+00 -0.17428060234E+02  0.14648666382E+04  0.14650044425E+04  0.10000000000E+02 0. -1.
</event>
<event>
 5    1  0.1369527E-008  0.3827837E+03  0.7957747E-01  0.3439126E+00
         13   -1    0    0    0    0  0.00000000000E+00  0.00000000000E+00  0.14999999963E+04  0.15000000000E+04  0.10566000000E+00 0. -1.
        994   -1    0    0    0    0 -0.00000000000E+00 -0.00000000000E+00  0.11368683772E-12  0.17120000000E+03  0.17120000000E+03 0.  0.
         13    1    1    2    0    0  0.65469086938E+01  0.10808466734E+02  0.27567441793E+02  0.30325896156E+02  0.10566000000E+00 0. -1.
        994    1    1    2    0    0 -0.68653725999E+01 -0.14106572598E+02  0.35502111505E+01  0.17195398434E+03  0.17120000000E+03 0.  0.
        998    1    1    2    0    0  0.31846390604E+00  0.32981058640E+01  0.14688823433E+04  0.14689201195E+04  0.10000000000E+02 0. -1.
</event>
<event>
 5    1  0.1369527E-008  0.3790907E+03  0.7957747E-01  0.3455127E+00
         13   -1    0    0    0    0  0.00000000000E+00  0.00000000000E+00  0.14999999963E+04  0.15000000000E+04  0.10566000000E+00 0. -1.
        994   -1    0    0    0    0 -0.00000000000E+00 -0.00000000000E+00  0.11368683772E-12  0.17120000000E+03  0.17120000000E+03 0.  0.
         13    1    1    2    0    0 -0.32939248130E+02  0.16414685224E+02  0.18045353829E+03  0.18416820193E+03  0.10566000000E+00 0. -1.
        994    1    1    2    0    0 -0.14549822048E+02 -0.89671522615E+01  0.55728970471E+01  0.17214123365E+03  0.17120000000E+03 0.  0.
        998    1    1    2    0    0  0.47489070177E+02 -0.74475329627E+01  0.13139735609E+04  0.13148905644E+04  0.10000000000E+02 0.  1.
</event>
<event>
 5    1  0.1369527E-008  0.3832908E+03  0.7957747E-01  0.3436954E+00
         13   -1    0    0    0    0  0.00000000000E+00  0.00000000000E+00  0.14999999963E+04  0.15000000000E+04  0.10566000000E+00 0. -1.
        994   -1    0    0    0    0 -0.00000000000E+00 -0.00000000000E+00  0.11368683772E-12  0.17120000000E+03  0.17120000000E+03 0.  0.
         13    1    1    2    0    0  0.93287057881E+01  0.17092214959E+02  0.79683946258E+02  0.82028720697E+02  0.10566000000E+00 0. -1.
        994    1    1    2    0    0 -0.89069013627E+00 -0.37293485987E+01  0.25297301813E+01  0.17126161539E+03  0.17120000000E+03 0.  0.
        998    1    1    2    0    0 -0.84380156518E+01 -0.13362866360E+02  0.14177863198E+04  0.14179096639E+04  0.10000000000E+02 0. -1.
</event>
<event>
 5    1  0.1369527E-008  0.3854031E+03  0.7957747E-01  0.3427964E+00
         13   -1    0    0    0    0  0.00000000000E+00  0.00000000000E+00  0.14999999963E+04  0.15000000000E+04  0.10566000000E+00 0. -1.
        994   -1    0    0    0    0 -0.00000000000E+00 -0.00000000000E+00  0.11368683772E-12  0.17120000000E+03  0.17120000000E+03 0.  0.
         13    1    1    2    0    0 -0.11925872248E+02 -0.93303007198E+01  0.80237683814E+02  0.81654014036E+02  0.10566000000E+00 0. -1.
        994    1    1    2    0    0  0.55735988090E+01  0.96352316047E+01  0.18371703567E+01  0.17157132012E+03  0.17120000000E+03 0.  0.
        998    1    1    2    0    0  0.63522734390E+01 -0.30493088487E+00  0.14179251421E+04  0.14179746658E+04  0.10000000000E+02 0. -1.
</event>
<event>
 5    1  0.1369527E-008  0.3760499E+03  0.7957747E-01  0.3468541E+00
         13   -1    0    0    0    0  0.00000000000E+00  0.00000000000E+00  0.14999999963E+04  0.15000000000E+04  0.10566000000E+00 0.  1.
        994   -1    0    0    0    0 -0.00000000000E+00 -0.00000000000E+00  0.11368683772E-12  0.17120000000E+03  0.17120000000E+03 0.  0.
         13    1    1    2    0    0  0.29298146712E+02 -0.36734871867E+02  0.14434547734E+03  0.15180072531E+03  0.10566000000E+00 0.  1.
        994    1    1    2    0    0 -0.66279540161E+02  0.35116502091E+02  0.25442020000E+02  0.18863425602E+03  0.17120000000E+03 0.  0.
        998    1    1    2    0    0  0.36981393449E+02  0.16183697764E+01  0.13302124989E+04  0.13307650187E+04  0.10000000000E+02 0.  1.
</event>
<event>
 5    1  0.1369527E-008  0.3837740E+03  0.7957747E-01  0.3434888E+00
         13   -1    0    0    0    0  0.00000000000E+00  0.00000000000E+00  0.14999999963E+04  0.15000000000E+04  0.10566000000E+00 0.  1.
        994   -1    0    0    0    0 -0.00000000000E+00 -0.00000000000E+00  0.11368683772E-12  0.17120000000E+03  0.17120000000E+03 0.  0.
         13    1    1    2    0    0  0.97769581512E+01  0.46950310571E+01  0.25575921303E+02  0.27780769281E+02  0.10566000000E+00 0.  1.
        994    1    1    2    0    0 -0.47803406780E+01 -0.68134772522E+01  0.24687986961E+01  0.17141998161E+03  0.17120000000E+03 0.  0.
        998    1    1    2    0    0 -0.49966174732E+01  0.21184461952E+01  0.14719552763E+04  0.14719992491E+04  0.10000000000E+02 0.  1.
</event>
<event>
 5    1  0.1369527E-008  0.3812247E+03  0.7957747E-01  0.3445843E+00
         13   -1    0    0    0    0  0.00000000000E+00  0.00000000000E+00  0.14999999963E+04  0.15000000000E+04  0.10566000000E+00 0. -1.
        994   -1    0    0    0    0 -0.00000000000E+00 -0.00000000000E+00  0.11368683772E-12  0.17120000000E+03  0.17120000000E+03 0.  0.
         13    1    1    2    0    0 -0.15436866547E+02 -0.62966223969E+01  0.37186385106E+02  0.40752701796E+02  0.10566000000E+00 0. -1.
        994    1    1    2    0    0  0.16079604071E+02  0.10689378683E+02  0.47584568486E+01  0.17235109340E+03  0.17120000000E+03 0.  0.
        998    1    1    2    0    0 -0.64273752404E+00 -0.43927562861E+01  0.14580551543E+04  0.14580962048E+04  0.10000000000E+02 0. -1.
</event>
<event>
 5    1  0.1369527E-008  0.3780108E+03  0.7957747E-01  0.3459866E+00
         13   -1    0    0    0    0  0.00000000000E+00  0.00000000000E+00  0.14999999963E+04  0.15000000000E+04  0.10566000000E+00 0.  1.
        994   -1    0    0    0    0 -0.00000000000E+00 -0.00000000000E+00  0.11368683772E-12  0.17120000000E+03  0.17120000000E+03 0.  0.
         13    1    1    2    0    0 -0.18714901376E+02 -0.21186900678E+02  0.72350644137E+02  0.77677275731E+02  0.10566000000E+00 0.  1.
        994    1    1    2    0    0  0.18429192066E+02  0.22969134223E+02  0.80643778366E+01  0.17390138135E+03  0.17120000000E+03 0.  0.
        998    1    1    2    0    0  0.28570930995E+00 -0.17822335446E+01  0.14195849743E+04  0.14196213429E+04  0.10000000000E+02 0.  1.
</event>
<event>
 5    1  0.1369527E-008  0.3752732E+03  0.7957747E-01  0.3472002E+00
         13   -1    0    0    0    0  0.00000000000E+00  0.00000000000E+00  0.14999999963E+04  0.15000000000E+04  0.10566000000E+00 0.  1.
        994   -1    0    0    0    0 -0.00000000000E+00 -0.00000000000E+00  0.11368683772E-12  0.17120000000E+03  0.17120000000E+03 0.  0.
         13    1    1    2    0    0 -0.23809637934E+02 -0.21525553428E+02  0.70626211714E+02  0.77577839967E+02  0.10566000000E+00 0.  1.
        994    1    1    2    0    0  0.41926247077E+02  0.15745991276E+02  0.13380756187E+02  0.17746614063E+03  0.17120000000E+03 0.  0.
        998    1    1    2    0    0 -0.18116609143E+02  0.57795621516E+01  0.14159930284E+04  0.14161560194E+04  0.10000000000E+02 0.  1.
</event>
<event>
 5    1  0.1369527E-008  0.3709510E+03  0.7957747E-01  0.3491531E+00
         13   -1    0    0    0    0  0.00000000000E+00  0.00000000000E+00  0.14999999963E+04  0.15000000000E+04  0.10566000000E+00 0.  1.
        994   -1    0    0    0    0 -0.00000000000E+00 -0.00000000000E+00  0.11368683772E-12  0.17120000000E+03  0.17120000000E+03 0.  0.
         13    1    1    2    0    0  0.16027221178E+02  0.12689085353E+01  0.60190762787E+01  0.17167480620E+02  0.10566000000E+00 0.  1.
        994    1    1    2    0    0 -0.18462674631E+02 -0.16597098868E+01  0.12648786021E+02  0.17266457882E+03  0.17120000000E+03 0.  0.
        998    1    1    2    0    0  0.24354534539E+01  0.39080135148E+00  0.14813321340E+04  0.14813679406E+04  0.10000000000E+02 0.  1.
</event>
<event>
 5    1  0.1369527E-008  0.3845995E+03  0.7957747E-01  0.3431372E+00
         13   -1    0    0    0    0  0.00000000000E+00  0.00000000000E+00  0.14999999963E+04  0.15000000000E+04  0.10566000000E+00 0. -1.
        994   -1    0    0    0    0 -0.00000000000E+00 -0.00000000000E+00  0.11368683772E-12  0.17120000000E+03  0.17120000000E+03 0.  0.
         13    1    1    2    0    0 -0.13564629188E+02  0.18170283160E+01  0.54137128884E+02  0.55840313795E+02  0.10566000000E+00 0. -1.
        994    1    1    2    0    0 -0.87976347276E+00  0.63785661505E+01  0.19656318692E+01  0.17133231977E+03  0.17120000000E+03 0.  0.
        998    1    1    2    0    0  0.14444392661E+02 -0.81955944665E+01  0.14438972355E+04  0.14440273664E+04  0.10000000000E+02 0. -1.
</event>
<event>
 5    1  0.1369527E-008  0.3822963E+03  0.7957747E-01  0.3441221E+00
         13   -1    0    0    0    0  0.00000000000E+00  0.00000000000E+00  0.14999999963E+04  0.15000000000E+04  0.10566000000E+00 0. -1.
        994   -1    0    0    0    0 -0.00000000000E+00 -0.00000000000E+00  0.11368683772E-12  0.17120000000E+03  0.17120000000E+03 0.  0.
         13    1    1    2    0    0  0.19128691915E+02  0.11465302020E+02  0.80351560802E+02  0.83389114950E+02  0.10566000000E+00 0. -1.
        994    1    1    2    0    0 -0.14150129617E+02 -0.13554906764E+02  0.42533947301E+01  0.17237022084E+03  0.17120000000E+03 0.  0.
        998    1    1    2    0    0 -0.49785622972E+01  0.20896047438E+01  0.14153950407E+04  0.14154406642E+04  0.10000000000E+02 0. -1.
</event>
<event>
 5    1  0.1369527E-008  0.3830596E+03  0.7957747E-01  0.3437944E+00
         13   -1    0    0    0    0  0.00000000000E+00  0.00000000000E+00  0.14999999963E+04  0.15000000000E+04  0.10566000000E+00 0. -1.
        994   -1    0    0    0    0 -0.00000000000E+00 -0.00000000000E+00  0.11368683772E-12  0.17120000000E+03  0.17120000000E+03 0.  0.
         13    1    1    2    0    0 -0.60702968472E+01  0.23938892999E+02  0.11022620173E+03  0.11295904485E+03  0.10566000000E+00 0. -1.
        994    1    1    2    0    0  0.13998985553E+01 -0.24229187275E+02  0.45483399965E+01  0.17297150236E+03  0.17120000000E+03 0.  0.
        998    1    1    2    0    0  0.46703982919E+01  0.29029427586E+00  0.13852254545E+04  0.13852694528E+04  0.10000000000E+02 0. -1.
</event>
<event>
 5    1  0.1369527E-008  0.3776323E+03  0.7957747E-01  0.3461533E+00
         13   -1    0    0    0    0  0.00000000000E+00  0.00000000000E+00  0.14999999963E+04  0.15000000000E+04  0.10566000000E+00 0. -1.
        994   -1    0    0    0    0 -0.00000000000E+00 -0.00000000000E+00  0.11368683772E-12  0.17120000000E+03  0.17120000000E+03 0.  0.
         13    1    1    2    0    0  0.10375668110E+03 -0.83285843555E+02  0.40662566812E+03  0.42783925223E+03  0.10566000000E+00 0. -1.
        994    1    1    2    0    0 -0.88677425064E+02  0.10378256904E+03  0.85415818216E+02  0.23503150715E+03  0.17120000000E+03 0.  0.
        998    1    1    2    0    0 -0.15079256037E+02 -0.20496725489E+02  0.10079585099E+04  0.10083292406E+04  0.10000000000E+02 0. -1.
</event>
<event>
 5    1  0.1369527E-008  0.3850451E+03  0.7957747E-01  0.3429481E+00
         13   -1    0    0    0    0  0.00000000000E+00  0.00000000000E+00  0.14999999963E+04  0.15000000000E+04  0.10566000000E+00 0. -1.
        994   -1    0    0    0    0 -0.00000000000E+00 -0.00000000000E+00  0.11368683772E-12  0.17120000000E+03  0.17120000000E+03 0.  0.
         13    1    1    2    0    0 -0.84593687439E+01 -0.15138021664E+02  0.10154684484E+03  0.10301695725E+03  0.10566000000E+00 0. -1.
        994    1    1    2    0    0  0.23748624487E+01 -0.85928024467E-01  0.16263287755E+01  0.17122421645E+03  0.17120000000E+03 0.  0.
        998    1    1    2    0    0  0.60845062952E+01  0.15223949689E+02  0.13968268227E+04  0.13969588263E+04  0.10000000000E+02 0. -1.
</event>
<event>
 5    1  0.1369527E-008  0.3858768E+03  0.7957747E-01  0.3425962E+00
         13   -1    0    0    0    0  0.00000000000E+00  0.00000000000E+00  0.14999999963E+04  0.15000000000E+04  0.10566000000E+00 0. -1.
        994   -1    0    0    0    0 -0.00000000000E+00 -0.00000000000E+00  0.11368683772E-12  0.17120000000E+03  0.17120000000E+03 0.  0.
         13    1    1    2    0    0  0.11463203798E+02  0.78374911646E+01  0.77362514814E+02  0.78598989634E+02  0.10566000000E+00 0. -1.
        994    1    1    2    0    0 -0.20403214715E+02  0.17693206172E+01  0.25720925106E+01  0.17243977884E+03  0.17120000000E+03 0.  0.
        998    1    1    2    0    0  0.89400109175E+01 -0.96068117817E+01  0.14200653890E+04  0.14201612315E+04  0.10000000000E+02 0. -1.
</event>
<event>
 5    1  0.1369527E-008  0.3813050E+03  0.7957747E-01  0.3445496E+00
         13   -1    0    0    0    0  0.00000000000E+00  0.00000000000E+00  0.14999999963E+04  0.15000000000E+04  0.10566000000E+00 0. -1.
        994   -1    0    0    0    0 -0.00000000000E+00 -0.00000000000E+00  0.11368683772E-12  0.17120000000E+03  0.17120000000E+03 0.  0.
         13    1    1    2    0    0 -0.15237212197E+02  0.14372324623E+02  0.61499838425E+02  0.64969051408E+02  0.10566000000E+00 0. -1.
        994    1    1    2    0    0  0.99246746602E+01 -0.11245063060E+02  0.42249698394E+01  0.17190765248E+03  0.17120000000E+03 0.  0.
        998    1    1    2    0    0  0.53125375372E+01 -0.31272615624E+01  0.14342751880E+04  0.14343232961E+04  0.10000000000E+02 0. -1.
</event>
<event>
 5    1  0.1369527E-008  0.3755634E+03  0.7957747E-01  0.3470707E+00
         13   -1    0    0    0    0  0.00000000000E+00  0.00000000000E+00  0.14999999963E+04  0.15000000000E+04  0.10566000000E+00 0. -1.
        994   -1    0    0    0    0 -0.00000000000E+00 -0.00000000000E+00  0.11368683772E-12  0.17120000000E+03  0.17120000000E+03 0.  0.
         13    1    1    2    0    0 -0.22149603939E+02  0.55929343446E+01  0.37398316327E+02  0.43823864473E+02  0.10566000000E+00 0. -1.
        994    1    1    2    0    0  0.21633795430E+02 -0.96257785622E+01  0.82942506150E+01  0.17302864304E+03  0.17120000000E+03 0.  0.
        998    1    1    2    0    0  0.51580850870E+00  0.40328442176E+01  0.14543074293E+04  0.14543474925E+04  0.10000000000E+02 0. -1.
</event>
<event>
 5    1  0.1369527E-008  0.3818678E+03  0.7957747E-01  0.3443066E+00
         13   -1    0    0    0    0  0.00000000000E+00  0.00000000000E+00  0.14999999963E+04  0.15000000000E+04  0.10566000000E+00 0. -1.
        994   -1    0    0    0    0 -0.00000000000E+00 -0.00000000000E+00  0.11368683772E-12  0.17120000000E+03  0.17120000000E+03 0.  0.
         13    1    1    2    0    0 -0.11091150500E+02  0.38075392791E-02  0.17824878601E+02  0.20994072856E+02  0.10566000000E+00 0. -1.
        994    1    1    2    0    0  0.10781310514E+02  0.20529544777E+01  0.35935269625E+01  0.17158905768E+03  0.17120000000E+03 0.  0.
        998    1    1    2    0    0  0.30983998511E+00 -0.20567620169E+01  0.14785815907E+04  0.14786168695E+04  0.10000000000E+02 0. -1.
</event>
<event>
 5    1  0.1369527E-008  0.3832827E+03  0.7957747E-01  0.3436988E+00
         13   -1    0    0    0    0  0.00000000000E+00  0.00000000000E+00  0.14999999963E+04  0.15000000000E+04  0.10566000000E+00 0.  1.
        994   -1    0    0    0    0 -0.00000000000E+00 -0.00000000000E+00  0.11368683772E-12  0.17120000000E+03  0.17120000000E+03 0.  0.
         13    1    1    2    0    0  0.84482522834E+02  0.32757275259E+02  0.20484978479E+03  0.22399504736E+03  0.10566000000E+00 0.  1.
        994    1    1    2    0    0 -0.65653156577E+02 -0.36356979898E+02  0.39104576979E+02  0.19097323084E+03  0.17120000000E+03 0.  0.
        998    1    1    2    0    0 -0.18829366257E+02  0.35997046388E+01  0.12560456345E+04  0.12562317218E+04  0.10000000000E+02 0.  1.
</event>
<event>
 5    1  0.1369527E-008  0.3848981E+03  0.7957747E-01  0.3430104E+00
         13   -1    0    0    0    0  0.00000000000E+00  0.00000000000E+00  0.14999999963E+04  0.15000000000E+04  0.10566000000E+00 0.  1.
        994   -1    0    0    0    0 -0.00000000000E+00 -0.00000000000E+00  0.11368683772E-12  0.17120000000E+03  0.17120000000E+03 0.  0.
         13    1    1    2    0    0  0.13643587913E+02 -0.11803114583E+02  0.96289977051E+02  0.97965462534E+02  0.10566000000E+00 0.  1.
        994    1    1    2    0    0 -0.92756647163E+01  0.80070930671E+01  0.21748479089E+01  0.17165174470E+03  0.17120000000E+03 0.  0.
        998    1    1    2    0    0 -0.43679231970E+01  0.37960215157E+01  0.14015351713E+04  0.14015827928E+04  0.10000000000E+02 0.  1.
</event>
<event>
 5    1  0.1369527E-008  0.3742644E+03  0.7957747E-01  0.3476519E+00
         13   -1    0    0    0    0  0.00000000000E+00  0.00000000000E+00  0.14999999963E+04  0.15000000000E+04  0.10566000000E+00 0.  1.
        994   -1    0    0    0    0 -0.00000000000E+00 -0.00000000000E+00  0.11368683772E-12  0.17120000000E+03  0.17120000000E+03 0.  0.
         13    1    1    2    0    0 -0.11044658278E+02 -0.44094955053E+00 -0.15424767674E+01  0.11161062297E+02  0.10566000000E+00 0.  1.
        994    1    1    2    0    0  0.92730108539E+01  0.81994937543E+01  0.13755632101E+02  0.17219720626E+03  0.17120000000E+03 0.  0.
        998    1    1    2    0    0  0.17716474245E+01 -0.77585442037E+01  0.14877868409E+04  0.14878417314E+04  0.10000000000E+02 0.  1.
</event>
<event>
 5    1  0.1369527E-008  0.3833601E+03  0.7957747E-01  0.3436657E+00
         13   -1    0    0    0    0  0.00000000000E+00  0.00000000000E+00  0.14999999963E+04  0.15000000000E+04  0.10566000000E+00 0. -1.
        994   -1    0    0    0    0 -0.00000000000E+00 -0.00000000000E+00  0.11368683772E-12  0.17120000000E+03  0.17120000000E+03 0.  0.
         13    1    1    2    0    0  0.20038933782E+02 -0.10532504446E+02  0.11397495838E+03  0.11620152675E+03  0.10566000000E+00 0. -1.
        994    1    1    2    0    0 -0.35561837115E+01 -0.41953850983E+01  0.25465157209E+01  0.17130724573E+03  0.17120000000E+03 0.  0.
        998    1    1    2    0    0 -0.16482750070E+02  0.14727889544E+02  0.13834785222E+04  0.13836912275E+04  0.10000000000E+02 0. -1.
</event>
<event>
 5    1  0.1580949E-008  0.3859053E+03  0.7957747E-01  0.3425842E+00
         13   -1    0    0    0    0  0.00000000000E+00  0.00000000000E+00  0.14999999963E+04  0.15000000000E+04  0.10566000000E+00 0.  1.
        994   -1    0    0    0    0 -0.00000000000E+00 -0.00000000000E+00  0.11368683772E-12  0.17120000000E+03  0.17120000000E+03 0.  0.
         13    1    1    2    0    0  0.31395882783E+01 -0.10531904728E+02  0.55297929456E+02  0.56379519313E+02  0.10566000000E+00 0.  1.
        994    1    1    2    0    0  0.10553987012E+01 -0.23056079453E+01  0.12023997387E+01  0.17122299921E+03  0.17120000000E+03 0.  0.
        998    1    1    2    0    0 -0.41949869795E+01  0.12837512673E+02  0.14434996671E+04  0.14435974815E+04  0.10000000000E+02 0.  1.
</event>
<event>
 5    1  0.1369527E-008  0.3725895E+03  0.7957747E-01  0.3484074E+00
         13   -1    0    0    0    0  0.00000000000E+00  0.00000000000E+00  0.14999999963E+04  0.15000000000E+04  0.10566000000E+00 0.  1.
        994   -1    0    0    0    0 -0.00000000000E+00 -0.00000000000E+00  0.11368683772E-12  0.17120000000E+03  0.17120000000E+03 0.  0.
         13    1    1    2    0    0  0.49724599325E+02 -0.67562765483E+02  0.23283936832E+03  0.24749029408E+03  0.10566000000E+00 0.  1.
        994    1    1    2    0    0 -0.50505857639E+02  0.71567483512E+02  0.39901998494E+02  0.19640355352E+03  0.17120000000E+03 0.  0.
        998    1    1    2    0    0  0.78125831384E+00 -0.40047180293E+01  0.12272586295E+04  0.12273061524E+04  0.10000000000E+02 0.  1.
</event>
<event>
 5    1  0.1369527E-008  0.3713102E+03  0.7957747E-01  0.3489891E+00
         13   -1    0    0    0    0  0.00000000000E+00  0.00000000000E+00  0.14999999963E+04  0.15000000000E+04  0.10566000000E+00 0.  1.
        994   -1    0    0    0    0 -0.00000000000E+00 -0.00000000000E+00  0.11368683772E-12  0.17120000000E+03  0.17120000000E+03 0.  0.
         13    1    1    2    0    0  0.77718449285E+02 -0.42525337110E+02  0.35637634851E+03  0.36722292221E+03  0.10566000000E+00 0.  1.
        994    1    1    2    0    0 -0.71302897977E+02  0.44776832955E+02  0.33397475374E+02  0.19368505206E+03  0.17120000000E+03 0.  0.
        998    1    1    2    0    0 -0.64155513077E+01 -0.22514958459E+01  0.11102261724E+04  0.11102920257E+04  0.10000000000E+02 0.  1.
</event>
<event>
 5    1  0.1369527E-008  0.3851944E+03  0.7957747E-01  0.3428848E+00
         13   -1    0    0    0    0  0.00000000000E+00  0.00000000000E+00  0.14999999963E+04  0.15000000000E+04  0.10566000000E+00 0.  1.
        994   -1    0    0    0    0 -0.00000000000E+00 -0.00000000000E+00  0.11368683772E-12  0.17120000000E+03  0.17120000000E+03 0.  0.
         13    1    1    2    0    0 -0.11661792320E+02 -0.64740439423E+01  0.60358198518E+02  0.61814512353E+02  0.10566000000E+00 0.  1.
        994    1    1    2    0    0  0.17521021316E+01  0.26819611669E+01  0.15673639649E+01  0.17123714377E+03  0.17120000000E+03 0.  0.
        998    1    1    2    0    0  0.99096901887E+01  0.37920827754E+01  0.14380744338E+04  0.14381483439E+04  0.10000000000E+02 0.  1.
</event>
<event>
 5    1  0.1369527E-008  0.3766275E+03  0.7957747E-01  0.3465976E+00
         13   -1    0    0    0    0  0.00000000000E+00  0.00000000000E+00  0.14999999963E+04  0.15000000000E+04  0.10566000000E+00 0.  1.
        994   -1    0    0    0    0 -0.00000000000E+00 -0.00000000000E+00  0.11368683772E-12  0.17120000000E+03  0.17120000000E+03 0.  0.
         13    1    1    2    0    0 -0.10971485268E+02 -0.25777379182E+02  0.64209628292E+02  0.70055223188E+02  0.10566000000E+00 0.  1.
        994    1    1    2    0    0  0.13450048378E+02  0.17067301089E+02  0.74433166384E+01  0.17273401382E+03  0.17120000000E+03 0.  0.
        998    1    1    2    0    0 -0.24785631098E+01  0.87100780926E+01  0.14283470513E+04  0.14284107630E+04  0.10000000000E+02 0.  1.
</event>
<event>
 5    1  0.1369527E-008  0.3822911E+03  0.7957747E-01  0.3441243E+00
         13   -1    0    0    0    0  0.00000000000E+00  0.00000000000E+00  0.14999999963E+04  0.15000000000E+04  0.10566000000E+00 0. -1.
        994   -1    0    0    0    0 -0.00000000000E+00 -0.00000000000E+00  0.11368683772E-12  0.17120000000E+03  0.17120000000E+03 0.  0.
         13    1    1    2    0    0  0.15998309942E+02 -0.78873614406E+01  0.50258020553E+02  0.53329505768E+02  0.10566000000E+00 0. -1.
        994    1    1    2    0    0 -0.17409727535E+02  0.13017344901E+02  0.45504473506E+01  0.17263457490E+03  0.17120000000E+03 0.  0.
        998    1    1    2    0    0  0.14114175929E+01 -0.51299834606E+01  0.14451915284E+04  0.14452359193E+04  0.10000000000E+02 0. -1.
</event>
<event>
 5    1  0.1369527E-008  0.3857940E+03  0.7957747E-01  0.3426312E+00
         13   -1    0    0    0    0  0.00000000000E+00  0.00000000000E+00  0.14999999963E+04  0.15000000000E+04  0.10566000000E+00 0.  1.
        994   -1    0    0    0    0 -0.00000000000E+00 -0.00000000000E+00  0.11368683772E-12  0.17120000000E+03  0.17120000000E+03 0.  0.
         13    1    1    2    0    0 -0.10357119530E+02  0.56918215401E+01  0.60440531579E+02  0.61585191231E+02  0.10566000000E+00 0.  1.
        994    1    1    2    0    0 -0.38607529158E+01 -0.61648232765E+01  0.14100372098E+01  0.17136025987E+03  0.17120000000E+03 0.  0.
        998    1    1    2    0    0  0.14217872446E+02  0.47300173636E+00  0.14381494275E+04  0.14382545489E+04  0.10000000000E+02 0.  1.
</event>
<event>
 5    1  0.1369527E-008  0.3792512E+03  0.7957747E-01  0.3454425E+00
         13   -1    0    0    0    0  0.00000000000E+00  0.00000000000E+00  0.14999999963E+04  0.15000000000E+04  0.10566000000E+00 0.  1.
        994   -1    0    0    0    0 -0.00000000000E+00 -0.00000000000E+00  0.11368683772E-12  0.17120000000E+03  0.17120000000E+03 0.  0.
         13    1    1    2    0    0  0.15403371889E+03  0.18631362405E+02  0.88622985078E+03  0.89970932739E+03  0.10566000000E+00 0.  1.
        994    1    1    2    0    0 -0.15836245020E+03 -0.11432622534E+02  0.94235423306E+02  0.25179182969E+03  0.17120000000E+03 0.  0.
        998    1    1    2    0    0  0.43287313045E+01 -0.71987398711E+01  0.51953472219E+03  0.51969884292E+03  0.10000000000E+02 0.  0.
</event>
<event>
 5    1  0.1369527E-008  0.3756017E+03  0.7957747E-01  0.3470536E+00
         13   -1    0    0    0    0  0.00000000000E+00  0.00000000000E+00  0.14999999963E+04  0.15000000000E+04  0.10566000000E+00 0. -1.
        994   -1    0    0    0    0 -0.00000000000E+00 -0.00000000000E+00  0.11368683772E-12  0.17120000000E+03  0.17120000000E+03 0.  0.
         13    1    1    2    0    0 -0.87308263360E+01  0.99504959956E+01  0.10847440225E+02  0.17114842171E+02  0.10566000000E+00 0. -1.
        994    1    1    2    0    0  0.65233421580E+01 -0.10234953987E+02  0.68699223335E+01  0.17176712173E+03  0.17120000000E+03 0.  0.
        998    1    1    2    0    0  0.22074841780E+01  0.28445799161E+00  0.14822826337E+04  0.14823180361E+04  0.10000000000E+02 0. -1.
</event>
<event>
 5    1  0.1369527E-008  0.3765530E+03  0.7957747E-01  0.3466306E+00
         13   -1    0    0    0    0  0.00000000000E+00  0.00000000000E+00  0.14999999963E+04  0.15000000000E+04  0.10566000000E+00 0.  1.
        994   -1    0    0    0    0 -0.00000000000E+00 -0.00000000000E+00  0.11368683772E-12  0.17120000000E+03  0.17120000000E+03 0.  0.
         13    1    1    2    0    0 -0.21885017496E+02  0.12376262008E+02  0.57870165453E+02  0.63095903716E+02  0.10566000000E+00 0.  1.
        994    1    1    2    0    0 -0.20439678547E+02 -0.12565033521E+01  0.73027443502E+01  0.17257499626E+03  0.17120000000E+03 0.  0.
        998    1    1    2    0    0  0.42324696043E+02 -0.11119758656E+02  0.14348270865E+04  0.14355291000E+04  0.10000000000E+02 0.  1.
</event>
<event>
 5    1  0.1369527E-008  0.3852878E+03  0.7957747E-01  0.3428453E+00
         13   -1    0    0    0    0  0.00000000000E+00  0.00000000000E+00  0.14999999963E+04  0.15000000000E+04  0.10566000000E+00 0. -1.
        994   -1    0    0    0    0 -0.00000000000E+00 -0.00000000000E+00  0.11368683772E-12  0.17120000000E+03  0.17120000000E+03 0.  0.
         13    1    1    2    0    0 -0.10044419601E+02  0.19922715605E+01  0.34965346775E+02  0.36434134411E+02  0.10566000000E+00 0. -1.
        994    1    1    2    0    0  0.86255074852E+01  0.68231012178E+00  0.17333565590E+01  0.17142727161E+03  0.17120000000E+03 0.  0.
        998    1    1    2    0    0  0.14189121161E+01 -0.26745816822E+01  0.14633012929E+04  0.14633385940E+04  0.10000000000E+02 0. -1.
</event>
<event>
 5    1  0.1369527E-008  0.2325760E+03  0.7957747E-01  0.4537714E+00
         13   -1    0    0    0    0  0.00000000000E+00  0.00000000000E+00  0.14999999963E+04  0.15000000000E+04  0.10566000000E+00 0.  1.
        994   -1    0    0    0    0 -0.00000000000E+00 -0.00000000000E+00  0.11368683772E-12  0.17120000000E+03  0.17120000000E+03 0.  0.
         13    1    1    2    0    0 -0.95244492031E+02  0.13658974685E+01  0.14969826453E+02  0.96423471242E+02  0.10566000000E+00 0.  1.
        994    1    1    2    0    0  0.62997187809E+02  0.94072340207E+02  0.20274585257E+03  0.28850229045E+03  0.17120000000E+03 0.  0.
        998    1    1    2    0    0  0.32247304223E+02 -0.95438237676E+02  0.12822843173E+04  0.12862742383E+04  0.10000000000E+02 0.  1.
</event>
<event>
 5    1  0.1369527E-008  0.3843352E+03  0.7957747E-01  0.3432496E+00
         13   -1    0    0    0    0  0.00000000000E+00  0.00000000000E+00  0.14999999963E+04  0.15000000000E+04  0.10566000000E+00 0. -1.
        994   -1    0    0    0    0 -0.00000000000E+00 -0.00000000000E+00  0.11368683772E-12  0.17120000000E+03  0.17120000000E+03 0.  0.
         13    1    1    2    0    0  0.10330598043E+02  0.14176328792E+02  0.76678939521E+02  0.78659776787E+02  0.10566000000E+00 0. -1.
        994    1    1    2    0    0 -0.90666615821E+01 -0.11226681826E+02  0.26471530624E+01  0.17182750116E+03  0.17120000000E+03 0.  0.
        998    1    1    2    0    0 -0.12639364607E+01 -0.29496469660E+01  0.14206739037E+04  0.14207127220E+04  0.10000000000E+02 0. -1.
</event>
<event>
 5    1  0.1369527E-008  0.3753925E+03  0.7957747E-01  0.3471469E+00
         13   -1    0    0    0    0  0.00000000000E+00  0.00000000000E+00  0.14999999963E+04  0.15000000000E+04  0.10566000000E+00 0.  1.
        994   -1    0    0    0    0 -0.00000000000E+00 -0.00000000000E+00  0.11368683772E-12  0.17120000000E+03  0.17120000000E+03 0.  0.
         13    1    1    2    0    0  0.36642467099E+02 -0.78197937371E+02  0.31936958917E+03  0.33083913532E+03  0.10566000000E+00 0.  1.
        994    1    1    2    0    0  0.85410981098E+01  0.26339641509E+02  0.16555943980E+02  0.17421327835E+03  0.17120000000E+03 0.  0.
        998    1    1    2    0    0 -0.45183565209E+02  0.51858295862E+02  0.11640744631E+04  0.11661475863E+04  0.10000000000E+02 0.  1.
</event>
<event>
 5    1  0.1369527E-008  0.3852204E+03  0.7957747E-01  0.3428738E+00
         13   -1    0    0    0    0  0.00000000000E+00  0.00000000000E+00  0.14999999963E+04  0.15000000000E+04  0.10566000000E+00 0. -1.
        994   -1    0    0    0    0 -0.00000000000E+00 -0.00000000000E+00  0.11368683772E-12  0.17120000000E+03  0.17120000000E+03 0.  0.
         13    1    1    2    0    0 -0.64186763227E+01 -0.13498377691E+02  0.71240691599E+02  0.72791846450E+02  0.10566000000E+00 0. -1.
        994    1    1    2    0    0 -0.36179833971E+01  0.18120905331E+02  0.26436696242E+01  0.17221465095E+03  0.17120000000E+03 0.  0.
        998    1    1    2    0    0  0.10036659720E+02 -0.46225276398E+01  0.14261156351E+04  0.14261935026E+04  0.10000000000E+02 0. -1.
</event>
<event>
 5    1  0.1369527E-008  0.3777534E+03  0.7957747E-01  0.3460999E+00
         13   -1    0    0    0    0  0.00000000000E+00  0.00000000000E+00  0.14999999963E+04  0.15000000000E+04  0.10566000000E+00 0. -1.
        994   -1    0    0    0    0 -0.00000000000E+00 -0.00000000000E+00  0.11368683772E-12  0.17120000000E+03  0.17120000000E+03 0.  0.
         13    1    1    2    0    0 -0.61243097976E+01 -0.20793729813E+02  0.42816644258E+02  0.47991275869E+02  0.10566000000E+00 0. -1.
        994    1    1    2    0    0  0.99334930767E+01  0.96686542340E+01  0.59189636275E+01  0.17186224510E+03  0.17120000000E+03 0.  0.
        998    1    1    2    0    0 -0.38091832792E+01  0.11125075579E+02  0.14512643884E+04  0.14513464790E+04  0.10000000000E+02 0. -1.
</event>
<event>
 5    1  0.1369527E-008  0.3810639E+03  0.7957747E-01  0.3446539E+00
         13   -1    0    0    0    0  0.00000000000E+00  0.00000000000E+00  0.14999999963E+04  0.15000000000E+04  0.10566000000E+00 0. -1.
        994   -1    0    0    0    0 -0.00000000000E+00 -0.00000000000E+00  0.11368683772E-12  0.17120000000E+03  0.17120000000E+03 0.  0.
         13    1    1    2    0    0 -0.12780140791E+02 -0.20781516166E+02  0.89591263101E+02  0.92853696754E+02  0.10566000000E+00 0. -1.
        994    1    1    2    0    0 -0.67202220599E+01  0.80877660795E+00  0.37496808329E+01  0.17137478114E+03  0.17120000000E+03 0.  0.
        998    1    1    2    0    0  0.19500362851E+02  0.19972739558E+02  0.14066590523E+04  0.14069715221E+04  0.10000000000E+02 0. -1.
</event>
<event>
 5    1  0.1369527E-008  0.3853547E+03  0.7957747E-01  0.3428169E+00
         13   -1    0    0    0    0  0.00000000000E+00  0.00000000000E+00  0.14999999963E+04  0.15000000000E+04  0.10566000000E+00 0. -1.
        994   -1    0    0    0    0 -0.00000000000E+00 -0.00000000000E+00  0.11368683772E-12  0.17120000000E+03  0.17120000000E+03 0.  0.
         13    1    1    2    0    0  0.39995422996E+01 -0.10680491319E+02  0.43054210381E+02  0.44539257167E+02  0.10566000000E+00 0. -1.
        994    1    1    2    0    0 -0.18264727975E+02  0.93859236260E+01  0.28405597693E+01  0.17245058605E+03  0.17120000000E+03 0.  0.
        998    1    1    2    0    0  0.14265185676E+02  0.12945676926E+01  0.14541052261E+04  0.14542101568E+04  0.10000000000E+02 0. -1.
</event>
<event>
 5    1  0.1369527E-008  0.3708725E+03  0.7957747E-01  0.3491891E+00
         13   -1    0    0    0    0  0.00000000000E+00  0.00000000000E+00  0.14999999963E+04  0.15000000000E+04  0.10566000000E+00 0. -1.
        994   -1    0    0    0    0 -0.00000000000E+00 -0.00000000000E+00  0.11368683772E-12  0.17120000000E+03  0.17120000000E+03 0.  0.
         13    1    1    2    0    0 -0.43635758862E+01 -0.35053832690E+02  0.55754401870E+02  0.66002852004E+02  0.10566000000E+00 0. -1.
        994    1    1    2    0    0  0.14923090910E+02 -0.14400977575E+02  0.12910513493E+02  0.17293411507E+03  0.17120000000E+03 0.  0.
        998    1    1    2    0    0 -0.10559515024E+02  0.49454810265E+02  0.14313350809E+04  0.14322630329E+04  0.10000000000E+02 0. -1.
</event>
<event>
 5    1  0.1369527E-008  0.3713173E+03  0.7957747E-01  0.3489859E+00
         13   -1    0    0    0    0  0.00000000000E+00  0.00000000000E+00  0.14999999963E+04  0.15000000000E+04  0.10566000000E+00 0.  1.
        994   -1    0    0    0    0 -0.00000000000E+00 -0.00000000000E+00  0.11368683772E-12  0.17120000000E+03  0.17120000000E+03 0.  0.
         13    1    1    2    0    0 -0.48463349370E+02  0.29339827653E+02  0.16206797004E+03  0.17168447745E+03  0.10566000000E+00 0.  1.
        994    1    1    2    0    0  0.45450132966E+02 -0.41475430989E+02  0.21728183885E+02  0.18321430058E+03  0.17120000000E+03 0.  0.
        998    1    1    2    0    0  0.30132164046E+01  0.12135603336E+02  0.13162038424E+04  0.13163012220E+04  0.10000000000E+02 0.  1.
</event>
<event>
 5    1  0.1369527E-008  0.3812849E+03  0.7957747E-01  0.3445583E+00
         13   -1    0    0    0    0  0.00000000000E+00  0.00000000000E+00  0.14999999963E+04  0.15000000000E+04  0.10566000000E+00 0. -1.
        994   -1    0    0    0    0 -0.00000000000E+00 -0.00000000000E+00  0.11368683772E-12  0.17120000000E+03  0.17120000000E+03 0.  0.
         13    1    1    2    0    0  0.39715607588E+02 -0.75768734645E+01  0.21022300682E+03  0.21407583296E+03  0.10566000000E+00 0. -1.
        994    1    1    2    0    0 -0.44343140662E+02 -0.27785617885E+02  0.12655582042E+02  0.17946575841E+03  0.17120000000E+03 0.  0.
        998    1    1    2    0    0  0.46275330742E+01  0.35362491349E+02  0.12771214074E+04  0.12776584086E+04  0.10000000000E+02 0. -1.
</event>
<event>
 5    1  0.1369527E-008  0.3739603E+03  0.7957747E-01  0.3477886E+00
         13   -1    0    0    0    0  0.00000000000E+00  0.00000000000E+00  0.14999999963E+04  0.15000000000E+04  0.10566000000E+00 0.  1.
        994   -1    0    0    0    0 -0.00000000000E+00 -0.00000000000E+00  0.11368683772E-12  0.17120000000E+03  0.17120000000E+03 0.  0.
         13    1    1    2    0    0 -0.20500067123E+02 -0.29209157054E+02  0.82398885069E+02  0.89794292873E+02  0.10566000000E+00 0.  1.
        994    1    1    2    0    0  0.13178247906E+02  0.30607522876E+02  0.11011020885E+02  0.17476031945E+03  0.17120000000E+03 0.  0.
        998    1    1    2    0    0  0.73218192173E+01 -0.13983658218E+01  0.14065900903E+04  0.14066453877E+04  0.10000000000E+02 0.  1.
</event>
<event>
 5    1  0.1369527E-008  0.3850020E+03  0.7957747E-01  0.3429664E+00
         13   -1    0    0    0    0  0.00000000000E+00  0.00000000000E+00  0.14999999963E+04  0.15000000000E+04  0.10566000000E+00 0.  1.
        994   -1    0    0    0    0 -0.00000000000E+00 -0.00000000000E+00  0.11368683772E-12  0.17120000000E+03  0.17120000000E+03 0.  0.
         13    1    1    2    0    0  0.62075452347E+01  0.92766845654E+01  0.40163688791E+02  0.41686011511E+02  0.10566000000E+00 0.  1.
        994    1    1    2    0    0  0.34284830536E+01  0.11638999095E+01  0.16722688964E+01  0.17124644709E+03  0.17120000000E+03 0.  0.
        998    1    1    2    0    0 -0.96360282884E+01 -0.10440584475E+02  0.14581640386E+04  0.14582675414E+04  0.10000000000E+02 0.  1.
</event>
<event>
 5    1  0.1369527E-008  0.3801290E+03  0.7957747E-01  0.3450597E+00
         13   -1    0    0    0    0  0.00000000000E+00  0.00000000000E+00  0.14999999963E+04  0.15000000000E+04  0.10566000000E+00 0. -1.
        994   -1    0    0    0    0 -0.00000000000E+00 -0.00000000000E+00  0.11368683772E-12  0.17120000000E+03  0.17120000000E+03 0.  0.
         13    1    1    2    0    0 -0.11923544365E+02  0.85300962516E+01  0.24494551906E+02  0.28546938354E+02  0.10566000000E+00 0. -1.
        994    1    1    2    0    0  0.63330189662E+01 -0.15125872788E+02  0.49670564397E+01  0.17205525510E+03  0.17120000000E+03 0.  0.
        998    1    1    2    0    0  0.55905253983E+01  0.65957765361E+01  0.14705383879E+04  0.14705978065E+04  0.10000000000E+02 0. -1.
</event>
<event>
 5    1  0.1369527E-008  0.3793689E+03  0.7957747E-01  0.3453911E+00
         13   -1    0    0    0    0  0.00000000000E+00  0.00000000000E+00  0.14999999963E+04  0.15000000000E+04  0.10566000000E+00 0.  1.
        994   -1    0    0    0    0 -0.00000000000E+00 -0.00000000000E+00  0.11368683772E-12  0.17120000000E+03  0.17120000000E+03 0.  0.
         13    1    1    2    0    0  0.15923681539E+02  0.46821186906E+02  0.24132855720E+03  0.24634380621E+03  0.10566000000E+00 0.  1.
        994    1    1    2    0    0 -0.17468627091E+02 -0.40730998146E+02  0.11060118158E+02  0.17718897640E+03  0.17120000000E+03 0.  0.
        998    1    1    2    0    0  0.15449455524E+01 -0.60901887609E+01  0.12476113209E+04  0.12476672174E+04  0.10000000000E+02 0.  1.
</event>
<event>
 5    1  0.1369527E-008  0.3768919E+03  0.7957747E-01  0.3464805E+00
         13   -1    0    0    0    0  0.00000000000E+00  0.00000000000E+00  0.14999999963E+04  0.15000000000E+04  0.10566000000E+00 0.  1.
        994   -1    0    0    0    0 -0.00000000000E+00 -0.00000000000E+00  0.11368683772E-12  0.17120000000E+03  0.17120000000E+03 0.  0.
         13    1    1    2    0    0 -0.64790161621E+01  0.38504397939E+02  0.15726747452E+03  0.16204208101E+03  0.10566000000E+00 0.  1.
        994    1    1    2    0    0 -0.11683094825E+02  0.59573573485E+01  0.62915028334E+01  0.17181678562E+03  0.17120000000E+03 0.  0.
        998    1    1    2    0    0  0.18162110987E+02 -0.44461755287E+02  0.13364410189E+04  0.13373411334E+04  0.10000000000E+02 0.  1.
</event>
<event>
 5    1  0.1369527E-008  0.3819419E+03  0.7957747E-01  0.3442747E+00
         13   -1    0    0    0    0  0.00000000000E+00  0.00000000000E+00  0.14999999963E+04  0.15000000000E+04  0.10566000000E+00 0.  1.
        994   -1    0    0    0    0 -0.00000000000E+00 -0.00000000000E+00  0.11368683772E-12  0.17120000000E+03  0.17120000000E+03 0.  0.
         13    1    1    2    0    0 -0.20776031657E+02 -0.19203831282E+01  0.67031614913E+02  0.70203845512E+02  0.10566000000E+00 0.  1.
        994    1    1    2    0    0  0.15835624203E+02  0.35507761187E+01  0.40314178350E+01  0.17201472999E+03  0.17120000000E+03 0.  0.
        998    1    1    2    0    0  0.49404074537E+01 -0.16303929905E+01  0.14289369635E+04  0.14289814245E+04  0.10000000000E+02 0.  1.
</event>
<event>
 5    1  0.1369527E-008  0.3824614E+03  0.7957747E-01  0.3440511E+00
         13   -1    0    0    0    0  0.00000000000E+00  0.00000000000E+00  0.14999999963E+04  0.15000000000E+04  0.10566000000E+00 0.  1.
        994   -1    0    0    0    0 -0.00000000000E+00 -0.00000000000E+00  0.11368683772E-12  0.17120000000E+03  0.17120000000E+03 0.  0.
         13    1    1    2    0    0 -0.13147997528E+02 -0.89594357219E+01  0.42415963600E+02  0.45301947636E+02  0.10566000000E+00 0.  1.
        994    1    1    2    0    0  0.38881497970E+01  0.16573658549E+02  0.38573488364E+01  0.17208754460E+03  0.17120000000E+03 0.  0.
        998    1    1    2    0    0  0.92598477310E+01 -0.76142228271E+01  0.14537266838E+04  0.14538105078E+04  0.10000000000E+02 0.  1.
</event>
<event>
 5    1  0.1369527E-008  0.3838899E+03  0.7957747E-01  0.3434394E+00
         13   -1    0    0    0    0  0.00000000000E+00  0.00000000000E+00  0.14999999963E+04  0.15000000000E+04  0.10566000000E+00 0. -1.
        994   -1    0    0    0    0 -0.00000000000E+00 -0.00000000000E+00  0.11368683772E-12  0.17120000000E+03  0.17120000000E+03 0.  0.
         13    1    1    2    0    0  0.11537348091E+02 -0.10086174724E+02  0.52209668816E+02  0.54412333193E+02  0.10566000000E+00 0. -1.
        994    1    1    2    0    0 -0.14911607803E+02  0.47240121991E+01  0.29902569641E+01  0.17193909961E+03  0.17120000000E+03 0.  0.
        998    1    1    2    0    0  0.33742597122E+01  0.53621625252E+01  0.14448000705E+04  0.14448485672E+04  0.10000000000E+02 0. -1.
</event>
<event>
 5    1  0.1369527E-008  0.3724867E+03  0.7957747E-01  0.3484540E+00
         13   -1    0    0    0    0  0.00000000000E+00  0.00000000000E+00  0.14999999963E+04  0.15000000000E+04  0.10566000000E+00 0.  1.
        994   -1    0    0    0    0 -0.00000000000E+00 -0.00000000000E+00  0.11368683772E-12  0.17120000000E+03  0.17120000000E+03 0.  0.
         13    1    1    2    0    0  0.46180671352E+02 -0.95630928619E+02  0.52744993526E+03  0.53803473335E+03  0.10566000000E+00 0.  1.
        994    1    1    2    0    0 -0.10486007825E+02  0.98665440288E+02  0.42519286184E+02  0.20239109458E+03  0.17120000000E+03 0.  0.
        998    1    1    2    0    0 -0.35694663526E+02 -0.30345116694E+01  0.93003077483E+03  0.93077417208E+03  0.10000000000E+02 0.  1.
</event>
<event>
 5    1  0.1369527E-008  0.3841049E+03  0.7957747E-01  0.3433477E+00
         13   -1    0    0    0    0  0.00000000000E+00  0.00000000000E+00  0.14999999963E+04  0.15000000000E+04  0.10566000000E+00 0. -1.
        994   -1    0    0    0    0 -0.00000000000E+00 -0.00000000000E+00  0.11368683772E-12  0.17120000000E+03  0.17120000000E+03 0.  0.
         13    1    1    2    0    0 -0.86937579333E+01  0.61235874748E+01  0.29533314988E+02  0.31389609886E+02  0.10566000000E+00 0. -1.
        994    1    1    2    0    0 -0.73581102892E+00  0.30353805104E+02  0.51217067729E+01  0.17394702292E+03  0.17120000000E+03 0.  0.
        998    1    1    2    0    0  0.94295689623E+01 -0.36477392579E+02  0.14653449745E+04  0.14658633672E+04  0.10000000000E+02 0. -1.
</event>
<event>
 5    1  0.1369527E-008  0.3850293E+03  0.7957747E-01  0.3429548E+00
         13   -1    0    0    0    0  0.00000000000E+00  0.00000000000E+00  0.14999999963E+04  0.15000000000E+04  0.10566000000E+00 0.  1.
        994   -1    0    0    0    0 -0.00000000000E+00 -0.00000000000E+00  0.11368683772E-12  0.17120000000E+03  0.17120000000E+03 0.  0.
         13    1    1    2    0    0  0.17639943090E+02  0.37939852886E+01  0.97040398063E+02  0.98703657160E+02  0.10566000000E+00 0.  1.
        994    1    1    2    0    0 -0.15902443113E+02 -0.45616648718E+01  0.25161390972E+01  0.17201589298E+03  0.17120000000E+03 0.  0.
        998    1    1    2    0    0 -0.17374999767E+01  0.76767958316E+00  0.14004434591E+04  0.14004804499E+04  0.10000000000E+02 0.  1.
</event>
<event>
 5    1  0.1369527E-008  0.3693960E+03  0.7957747E-01  0.3498671E+00
         13   -1    0    0    0    0  0.00000000000E+00  0.00000000000E+00  0.14999999963E+04  0.15000000000E+04  0.10566000000E+00 0.  1.
        994   -1    0    0    0    0 -0.00000000000E+00 -0.00000000000E+00  0.11368683772E-12  0.17120000000E+03  0.17120000000E+03 0.  0.
         13    1    1    2    0    0 -0.35922259621E+02  0.56534368557E+02  0.23684204341E+03  0.24613148570E+03  0.10566000000E+00 0.  1.
        994    1    1    2    0    0  0.37026530688E+02  0.37901883534E+01  0.15468154133E+02  0.17588073600E+03  0.17120000000E+03 0.  0.
        998    1    1    2    0    0 -0.11042710676E+01 -0.60324556910E+02  0.12476897987E+04  0.12491877783E+04  0.10000000000E+02 0.  1.
</event>
<event>
 5    1  0.2042158E-008  0.3866742E+03  0.7957747E-01  0.3422603E+00
         13   -1    0    0    0    0  0.00000000000E+00  0.00000000000E+00  0.14999999963E+04  0.15000000000E+04  0.10566000000E+00 0.  1.
        994   -1    0    0    0    0 -0.00000000000E+00 -0.00000000000E+00  0.11368683772E-12  0.17120000000E+03  0.17120000000E+03 0.  0.
         13    1    1    2    0    0  0.91126949201E+01  0.48356098651E+01  0.62281651279E+02  0.63130338044E+02  0.10566000000E+00 0.  1.
        994    1    1    2    0    0 -0.13841734484E+02 -0.11131085369E+02  0.18338158479E+01  0.17212872380E+03  0.17120000000E+03 0.  0.
        998    1    1    2    0    0  0.47290395637E+01  0.62954755043E+01  0.14358845292E+04  0.14359409382E+04  0.10000000000E+02 0.  1.
</event>
<event>
 5    1  0.1369527E-008  0.3856236E+03  0.7957747E-01  0.3427032E+00
         13   -1    0    0    0    0  0.00000000000E+00  0.00000000000E+00  0.14999999963E+04  0.15000000000E+04  0.10566000000E+00 0. -1.
        994   -1    0    0    0    0 -0.00000000000E+00 -0.00000000000E+00  0.11368683772E-12  0.17120000000E+03  0.17120000000E+03 0.  0.
         13    1    1    2    0    0  0.44829909071E+01 -0.13831961115E+02  0.84069880034E+02  0.85318088637E+02  0.10566000000E+00 0. -1.
        994    1    1    2    0    0 -0.29665207772E+02 -0.36738583784E+01  0.42588959748E+01  0.17384216975E+03  0.17120000000E+03 0.  0.
        998    1    1    2    0    0  0.25182216865E+02  0.17505819494E+02  0.14116712203E+04  0.14120397416E+04  0.10000000000E+02 0. -1.
</event>
<event>
 5    1  0.1369527E-008  0.3774704E+03  0.7957747E-01  0.3462247E+00
         13   -1    0    0    0    0  0.00000000000E+00  0.00000000000E+00  0.14999999963E+04  0.15000000000E+04  0.10566000000E+00 0. -1.
        994   -1    0    0    0    0 -0.00000000000E+00 -0.00000000000E+00  0.11368683772E-12  0.17120000000E+03  0.17120000000E+03 0.  0.
         13    1    1    2    0    0 -0.15927692334E+02 -0.40569394404E+02  0.64263227435E+02  0.77648829416E+02  0.10566000000E+00 0. -1.
        994    1    1    2    0    0  0.38952536755E+01 -0.87451455397E+01  0.15273876715E+02  0.17214639666E+03  0.17120000000E+03 0.  0.
        998    1    1    2    0    0  0.12032438659E+02  0.49314539943E+02  0.14204628921E+04  0.14214047739E+04  0.10000000000E+02 0. -1.
</event>
<event>
 5    1  0.1369527E-008  0.3782987E+03  0.7957747E-01  0.3458600E+00
         13   -1    0    0    0    0  0.00000000000E+00  0.00000000000E+00  0.14999999963E+04  0.15000000000E+04  0.10566000000E+00 0. -1.
        994   -1    0    0    0    0 -0.00000000000E+00 -0.00000000000E+00  0.11368683772E-12  0.17120000000E+03  0.17120000000E+03 0.  0.
         13    1    1    2    0    0  0.88344478737E+01  0.19064307837E+02  0.42205871073E+02  0.47147025564E+02  0.10566000000E+00 0. -1.
        994    1    1    2    0    0 -0.38214430897E+01 -0.13916431247E+02  0.56949095467E+01  0.17190154880E+03  0.17120000000E+03 0.  0.
        998    1    1    2    0    0 -0.50130047840E+01 -0.51478765898E+01  0.14520992157E+04  0.14521514256E+04  0.10000000000E+02 0. -1.
</event>
<event>
 5    1  0.1369527E-008  0.3841602E+03  0.7957747E-01  0.3433242E+00
         13   -1    0    0    0    0  0.00000000000E+00  0.00000000000E+00  0.14999999963E+04  0.15000000000E+04  0.10566000000E+00 0.  1.
        994   -1    0    0    0    0 -0.00000000000E+00 -0.00000000000E+00  0.11368683772E-12  0.17120000000E+03  0.17120000000E+03 0.  0.
         13    1    1    2    0    0  0.12279119520E+02  0.68728488394E+01  0.47033113411E+02  0.49093153785E+02  0.10566000000E+00 0.  1.
        994    1    1    2    0    0 -0.10143241871E+02 -0.90188992469E+01  0.26553998130E+01  0.17175772777E+03  0.17120000000E+03 0.  0.
        998    1    1    2    0    0 -0.21358776493E+01  0.21460504075E+01  0.14503114831E+04  0.14503491184E+04  0.10000000000E+02 0.  1.
</event>
<event>
 5    1  0.1369527E-008  0.3858993E+03  0.7957747E-01  0.3425867E+00
         13   -1    0    0    0    0  0.00000000000E+00  0.00000000000E+00  0.14999999963E+04  0.15000000000E+04  0.10566000000E+00 0.  1.
        994   -1    0    0    0    0 -0.00000000000E+00 -0.00000000000E+00  0.11368683772E-12  0.17120000000E+03  0.17120000000E+03 0.  0.
         13    1    1    2    0    0  0.50375178899E+01 -0.11805542152E+02  0.71480460021E+02  0.72623789083E+02  0.10566000000E+00 0.  1.
        994    1    1    2    0    0  0.22165810064E+01  0.78133988649E+01  0.14006419131E+01  0.17139826204E+03  0.17120000000E+03 0.  0.
        998    1    1    2    0    0 -0.72540988964E+01  0.39921432872E+01  0.14271188943E+04  0.14271779489E+04  0.10000000000E+02 0.  1.
</event>
<event>
 5    1  0.1369527E-008  0.3834544E+03  0.7957747E-01  0.3436254E+00
         13   -1    0    0    0    0  0.00000000000E+00  0.00000000000E+00  0.14999999963E+04  0.15000000000E+04  0.10566000000E+00 0.  1.
        994   -1    0    0    0    0 -0.00000000000E+00 -0.00000000000E+00  0.11368683772E-12  0.17120000000E+03  0.17120000000E+03 0.  0.
         13    1    1    2    0    0  0.17429686643E+02 -0.21071883940E+01  0.68382973642E+02  0.70600824837E+02  0.10566000000E+00 0.  1.
        994    1    1    2    0    0  0.18548429207E+01  0.46448653655E+00  0.24115315454E+01  0.17122766037E+03  0.17120000000E+03 0.  0.
        998    1    1    2    0    0 -0.19284529564E+02  0.16427018575E+01  0.14292054911E+04  0.14293715148E+04  0.10000000000E+02 0.  1.
</event>
<event>
 5    1  0.1369527E-008  0.3700994E+03  0.7957747E-01  0.3495434E+00
         13   -1    0    0    0    0  0.00000000000E+00  0.00000000000E+00  0.14999999963E+04  0.15000000000E+04  0.10566000000E+00 0.  1.
        994   -1    0    0    0    0 -0.00000000000E+00 -0.00000000000E+00  0.11368683772E-12  0.17120000000E+03  0.17120000000E+03 0.  0.
         13    1    1    2    0    0 -0.20003771375E+02  0.25593519666E+02  0.52073003952E+02  0.61374164131E+02  0.10566000000E+00 0.  1.
        994    1    1    2    0    0  0.17985033701E+02 -0.26746078157E+02  0.12816179461E+02  0.17467830028E+03  0.17120000000E+03 0.  0.
        998    1    1    2    0    0  0.20187376738E+01  0.11525584912E+01  0.14351108129E+04  0.14351475356E+04  0.10000000000E+02 0.  1.
</event>
<event>
 5    1  0.1369527E-008  0.3859901E+03  0.7957747E-01  0.3425484E+00
         13   -1    0    0    0    0  0.00000000000E+00  0.00000000000E+00  0.14999999963E+04  0.15000000000E+04  0.10566000000E+00 0.  1.
        994   -1    0    0    0    0 -0.00000000000E+00 -0.00000000000E+00  0.11368683772E-12  0.17120000000E+03  0.17120000000E+03 0.  0.
         13    1    1    2    0    0 -0.16806499602E+01  0.11356766655E+02  0.56896518157E+02  0.58043308621E+02  0.10566000000E+00 0.  1.
        994    1    1    2    0    0 -0.17025405531E+00 -0.11849962162E+02  0.15999069553E+01  0.17161716200E+03  0.17120000000E+03 0.  0.
        998    1    1    2    0    0  0.18509040156E+01  0.49319550686E+00  0.14415035712E+04  0.14415395294E+04  0.10000000000E+02 0.  1.
</event>
<event>
 5    1  0.1369527E-008  0.3772149E+03  0.7957747E-01  0.3463376E+00
         13   -1    0    0    0    0  0.00000000000E+00  0.00000000000E+00  0.14999999963E+04  0.15000000000E+04  0.10566000000E+00 0. -1.
        994   -1    0    0    0    0 -0.00000000000E+00 -0.00000000000E+00  0.11368683772E-12  0.17120000000E+03  0.17120000000E+03 0.  0.
         13    1    1    2    0    0  0.22807830613E+02 -0.78536181811E+02  0.19024661580E+03  0.20707948951E+03  0.10566000000E+00 0. -1.
        994    1    1    2    0    0 -0.21601801997E+02  0.82332717332E+02  0.41276312767E+02  0.19559777143E+03  0.17120000000E+03 0.  0.
        998    1    1    2    0    0 -0.12060286153E+01 -0.37965355213E+01  0.12684770677E+04  0.12685227391E+04  0.10000000000E+02 0. -1.
</event>
<event>
 5    1  0.1369527E-008  0.3767971E+03  0.7957747E-01  0.3465224E+00
         13   -1    0    0    0    0  0.00000000000E+00  0.00000000000E+00  0.14999999963E+04  0.15000000000E+04  0.10566000000E+00 0. -1.
        994   -1    0    0    0    0 -0.00000000000E+00 -0.00000000000E+00  0.11368683772E-12  0.17120000000E+03  0.17120000000E+03 0.  0.
         13    1    1    2    0    0  0.13500868815E+03  0.53078753211E+02  0.45928203517E+03  0.48164789932E+03  0.10566000000E+00 0. -1.
        994    1    1    2    0    0 -0.13637336224E+03 -0.56155397311E+02  0.97215563824E+02  0.24599070801E+03  0.17120000000E+03 0.  0.
        998    1    1    2    0    0  0.13646740856E+01  0.30766440999E+01  0.94350239728E+03  0.94356139268E+03  0.10000000000E+02 0.  0.
</event>
<event>
 5    1  0.1369527E-008  0.3854437E+03  0.7957747E-01  0.3427793E+00
         13   -1    0    0    0    0  0.00000000000E+00  0.00000000000E+00  0.14999999963E+04  0.15000000000E+04  0.10566000000E+00 0.  1.
        994   -1    0    0    0    0 -0.00000000000E+00 -0.00000000000E+00  0.11368683772E-12  0.17120000000E+03  0.17120000000E+03 0.  0.
         13    1    1    2    0    0  0.45465011758E+00 -0.10440888564E+02  0.39762338445E+02  0.41112936935E+02  0.10566000000E+00 0.  1.
        994    1    1    2    0    0 -0.27753933656E+01  0.24188746391E+01  0.14545291124E+01  0.17124575737E+03  0.17120000000E+03 0.  0.
        998    1    1    2    0    0  0.23207432480E+01  0.80220139250E+01  0.14587831287E+04  0.14588413057E+04  0.10000000000E+02 0.  1.
</event>
<event>
 5    1  0.1369527E-008  0.3276949E+03  0.7957747E-01  0.3716204E+00
         13   -1    0    0    0    0  0.00000000000E+00  0.00000000000E+00  0.14999999963E+04  0.15000000000E+04  0.10566000000E+00 0. -1.
        994   -1    0    0    0    0 -0.00000000000E+00 -0.00000000000E+00  0.11368683772E-12  0.17120000000E+03  0.17120000000E+03 0.  0.
         13    1    1    2    0    0  0.86999960519E+02 -0.16837691692E+03  0.95861298640E+03  0.97716868971E+03  0.10566000000E+00 0. -1.
        994    1    1    2    0    0 -0.62267155576E+02  0.10801557722E+03  0.77575228007E+02  0.22554804275E+03  0.17120000000E+03 0.  0.
        998    1    1    2    0    0 -0.24732804943E+02  0.60361339691E+02  0.46381178187E+03  0.46848326755E+03  0.10000000000E+02 0.  0.
</event>
<event>
 5    1  0.1369527E-008  0.3773440E+03  0.7957747E-01  0.3462806E+00
         13   -1    0    0    0    0  0.00000000000E+00  0.00000000000E+00  0.14999999963E+04  0.15000000000E+04  0.10566000000E+00 0.  1.
        994   -1    0    0    0    0 -0.00000000000E+00 -0.00000000000E+00  0.11368683772E-12  0.17120000000E+03  0.17120000000E+03 0.  0.
         13    1    1    2    0    0 -0.36302175667E+02 -0.72316725563E+01  0.13453243321E+03  0.13953183076E+03  0.10566000000E+00 0.  1.
        994    1    1    2    0    0  0.48844805399E+01  0.33857847807E+01  0.55990762550E+01  0.17139460710E+03  0.17120000000E+03 0.  0.
        998    1    1    2    0    0  0.31417695127E+02  0.38458877756E+01  0.13598684868E+04  0.13602735621E+04  0.10000000000E+02 0.  1.
</event>
<event>
 5    1  0.1369527E-008  0.3803148E+03  0.7957747E-01  0.3449789E+00
         13   -1    0    0    0    0  0.00000000000E+00  0.00000000000E+00  0.14999999963E+04  0.15000000000E+04  0.10566000000E+00 0. -1.
        994   -1    0    0    0    0 -0.00000000000E+00 -0.00000000000E+00  0.11368683772E-12  0.17120000000E+03  0.17120000000E+03 0.  0.
         13    1    1    2    0    0 -0.32953424167E+02  0.19368862689E+02  0.17773683690E+03  0.18180064731E+03  0.10566000000E+00 0. -1.
        994    1    1    2    0    0  0.26315300738E+02 -0.66085229209E+01  0.64365699274E+01  0.17345615314E+03  0.17120000000E+03 0.  0.
        998    1    1    2    0    0  0.66381234291E+01 -0.12760339768E+02  0.13158265894E+04  0.13159431996E+04  0.10000000000E+02 0. -1.
</event>
<event>
 5    1  0.1857279E-008  0.3856812E+03  0.7957747E-01  0.3426788E+00
         13   -1    0    0    0    0  0.00000000000E+00  0.00000000000E+00  0.14999999963E+04  0.15000000000E+04  0.10566000000E+00 0. -1.
        994   -1    0    0    0    0 -0.00000000000E+00 -0.00000000000E+00  0.11368683772E-12  0.17120000000E+03  0.17120000000E+03 0.  0.
         13    1    1    2    0    0 -0.98742890980E+01 -0.16634338760E+01  0.38173598780E+02  0.39465217664E+02  0.10566000000E+00 0. -1.
        994    1    1    2    0    0  0.10485205396E+02  0.22480033031E+01  0.16697444351E+01  0.17154364196E+03  0.17120000000E+03 0.  0.
        998    1    1    2    0    0 -0.61091629754E+00 -0.58456942713E+00  0.14601566531E+04  0.14601911404E+04  0.10000000000E+02 0. -1.
</event>
<event>
 5    1  0.1369527E-008  0.3811177E+03  0.7957747E-01  0.3446306E+00
         13   -1    0    0    0    0  0.00000000000E+00  0.00000000000E+00  0.14999999963E+04  0.15000000000E+04  0.10566000000E+00 0.  1.
        994   -1    0    0    0    0 -0.00000000000E+00 -0.00000000000E+00  0.11368683772E-12  0.17120000000E+03  0.17120000000E+03 0.  0.
         13    1    1    2    0    0 -0.11791411870E+02 -0.10135129627E+02  0.32619080377E+02  0.36135492457E+02  0.10566000000E+00 0.  1.
        994    1    1    2    0    0  0.99485873391E+01  0.29290020161E+01  0.39282838895E+01  0.17155880874E+03  0.17120000000E+03 0.  0.
        998    1    1    2    0    0  0.18428245313E+01  0.72061276107E+01  0.14634526320E+04  0.14635056988E+04  0.10000000000E+02 0.  1.
</event>
<event>
 5    1  0.1369527E-008  0.3854106E+03  0.7957747E-01  0.3427933E+00
         13   -1    0    0    0    0  0.00000000000E+00  0.00000000000E+00  0.14999999963E+04  0.15000000000E+04  0.10566000000E+00 0.  1.
        994   -1    0    0    0    0 -0.00000000000E+00 -0.00000000000E+00  0.11368683772E-12  0.17120000000E+03  0.17120000000E+03 0.  0.
         13    1    1    2    0    0 -0.37373915169E+01 -0.11359090565E+02  0.52121625524E+02  0.53475901536E+02  0.10566000000E+00 0.  1.
        994    1    1    2    0    0 -0.41032191568E+01  0.36482548525E+01  0.15254595737E+01  0.17129481369E+03  0.17120000000E+03 0.  0.
        998    1    1    2    0    0  0.78406106737E+01  0.77108357129E+01  0.14463529112E+04  0.14464292848E+04  0.10000000000E+02 0.  1.
</event>
<event>
 5    1  0.1369527E-008  0.3854982E+03  0.7957747E-01  0.3427562E+00
         13   -1    0    0    0    0  0.00000000000E+00  0.00000000000E+00  0.14999999963E+04  0.15000000000E+04  0.10566000000E+00 0.  1.
        994   -1    0    0    0    0 -0.00000000000E+00 -0.00000000000E+00  0.11368683772E-12  0.17120000000E+03  0.17120000000E+03 0.  0.
         13    1    1    2    0    0 -0.29631307375E+01  0.13208728927E+02  0.61702656024E+02  0.63170242901E+02  0.10566000000E+00 0.  1.
        994    1    1    2    0    0 -0.55329279099E+01 -0.22436110003E+02  0.31382518100E+01  0.17278102022E+03  0.17120000000E+03 0.  0.
        998    1    1    2    0    0  0.84960586474E+01  0.92273810760E+01  0.14351590884E+04  0.14352487369E+04  0.10000000000E+02 0.  1.
</event>
<event>
 5    1  0.1369527E-008  0.3818265E+03  0.7957747E-01  0.3443244E+00
         13   -1    0    0    0    0  0.00000000000E+00  0.00000000000E+00  0.14999999963E+04  0.15000000000E+04  0.10566000000E+00 0. -1.
        994   -1    0    0    0    0 -0.00000000000E+00 -0.00000000000E+00  0.11368683772E-12  0.17120000000E+03  0.17120000000E+03 0.  0.
         13    1    1    2    0    0  0.16821680400E+02  0.20814216260E+02  0.12416364321E+03  0.12701504631E+03  0.10566000000E+00 0. -1.
        994    1    1    2    0    0  0.56847035043E+01 -0.23370974157E+01  0.33395350627E+01  0.17134284453E+03  0.17120000000E+03 0.  0.
        998    1    1    2    0    0 -0.22506383904E+02 -0.18477118844E+02  0.13724968180E+04  0.13728421092E+04  0.10000000000E+02 0. -1.
</event>
<event>
 5    1  0.1369527E-008  0.3822104E+03  0.7957747E-01  0.3441590E+00
         13   -1    0    0    0    0  0.00000000000E+00  0.00000000000E+00  0.14999999963E+04  0.15000000000E+04  0.10566000000E+00 0.  1.
        994   -1    0    0    0    0 -0.00000000000E+00 -0.00000000000E+00  0.11368683772E-12  0.17120000000E+03  0.17120000000E+03 0.  0.
         13    1    1    2    0    0  0.22275940364E+02 -0.19473772871E+02  0.13466992993E+03  0.13788200224E+03  0.10566000000E+00 0.  1.
        994    1    1    2    0    0 -0.24445860812E+02  0.13743325401E+02  0.56359253938E+01  0.17357327778E+03  0.17120000000E+03 0.  0.
        998    1    1    2    0    0  0.21699204483E+01  0.57304474698E+01  0.13596941410E+04  0.13597447200E+04  0.10000000000E+02 0.  1.
</event>
<event>
 5    1  0.1369527E-008  0.3782804E+03  0.7957747E-01  0.3458680E+00
         13   -1    0    0    0    0  0.00000000000E+00  0.00000000000E+00  0.14999999963E+04  0.15000000000E+04  0.10566000000E+00 0. -1.
        994   -1    0    0    0    0 -0.00000000000E+00 -0.00000000000E+00  0.11368683772E-12  0.17120000000E+03  0.17120000000E+03 0.  0.
         13    1    1    2    0    0  0.50022028736E+01 -0.28167901299E+02  0.84044385901E+02  0.88780192964E+02  0.10566000000E+00 0. -1.
        994    1    1    2    0    0  0.70924229907E+01  0.78624591149E+01  0.53807499974E+01  0.17161151825E+03  0.17120000000E+03 0.  0.
        998    1    1    2    0    0 -0.12094625864E+02  0.20305442184E+02  0.14105748604E+04  0.14108082888E+04  0.10000000000E+02 0. -1.
</event>
<event>
 5    1  0.1369527E-008  0.3689934E+03  0.7957747E-01  0.3500530E+00
         13   -1    0    0    0    0  0.00000000000E+00  0.00000000000E+00  0.14999999963E+04  0.15000000000E+04  0.10566000000E+00 0.  1.
        994   -1    0    0    0    0 -0.00000000000E+00 -0.00000000000E+00  0.11368683772E-12  0.17120000000E+03  0.17120000000E+03 0.  0.
         13    1    1    2    0    0 -0.21051803227E+02 -0.89354873538E+01  0.20563402220E+02  0.30755260172E+02  0.10566000000E+00 0.  1.
        994    1    1    2    0    0  0.20114027891E+02  0.28383740582E+01  0.11846311169E+02  0.17280742338E+03  0.17120000000E+03 0.  0.
        998    1    1    2    0    0  0.93777533575E+00  0.60971132956E+01  0.14675902829E+04  0.14676373165E+04  0.10000000000E+02 0.  1.
</event>
<event>
 5    1  0.1369527E-008  0.3743979E+03  0.7957747E-01  0.3475920E+00
         13   -1    0    0    0    0  0.00000000000E+00  0.00000000000E+00  0.14999999963E+04  0.15000000000E+04  0.10566000000E+00 0. -1.
        994   -1    0    0    0    0 -0.00000000000E+00 -0.00000000000E+00  0.11368683772E-12  0.17120000000E+03  0.17120000000E+03 0.  0.
         13    1    1    2    0    0 -0.18153581447E+02 -0.29864576072E+01  0.21017035214E+02  0.27932031462E+02  0.10566000000E+00 0. -1.
        994    1    1    2    0    0  0.16454717753E+02  0.61273919472E+01  0.80390367495E+01  0.17228571845E+03  0.17120000000E+03 0.  0.
        998    1    1    2    0    0  0.16988636935E+01 -0.31409343400E+01  0.14709439243E+04  0.14709822501E+04  0.10000000000E+02 0. -1.
</event>
<event>
 5    1  0.1369527E-008  0.3851483E+03  0.7957747E-01  0.3429043E+00
         13   -1    0    0    0    0  0.00000000000E+00  0.00000000000E+00  0.14999999963E+04  0.15000000000E+04  0.10566000000E+00 0.  1.
        994   -1    0    0    0    0 -0.00000000000E+00 -0.00000000000E+00  0.11368683772E-12  0.17120000000E+03  0.17120000000E+03 0.  0.
         13    1    1    2    0    0  0.23952304185E+01 -0.13683203927E+02  0.66223646842E+02  0.67664981812E+02  0.10566000000E+00 0.  1.
        994    1    1    2    0    0  0.67107407843E+01  0.62222643600E+00  0.17058471991E+01  0.17134109584E+03  0.17120000000E+03 0.  0.
        998    1    1    2    0    0 -0.91059712028E+01  0.13060977491E+02  0.14320705022E+04  0.14321939224E+04  0.10000000000E+02 0.  1.
</event>
<event>
 5    1  0.1369527E-008  0.3704371E+03  0.7957747E-01  0.3493884E+00
         13   -1    0    0    0    0  0.00000000000E+00  0.00000000000E+00  0.14999999963E+04  0.15000000000E+04  0.10566000000E+00 0. -1.
        994   -1    0    0    0    0 -0.00000000000E+00 -0.00000000000E+00  0.11368683772E-12  0.17120000000E+03  0.17120000000E+03 0.  0.
         13    1    1    2    0    0 -0.43764275518E+02  0.89248306699E+01  0.11429706859E+03  0.12271428387E+03  0.10566000000E+00 0. -1.
        994    1    1    2    0    0  0.18817284564E+02  0.32075523122E+02  0.13830319264E+02  0.17573743799E+03  0.17120000000E+03 0.  0.
        998    1    1    2    0    0  0.24946990955E+02 -0.41000353792E+02  0.13718726084E+04  0.13727482781E+04  0.10000000000E+02 0. -1.
</event>
<event>
 5    1  0.1369527E-008  0.3861541E+03  0.7957747E-01  0.3424792E+00
         13   -1    0    0    0    0  0.00000000000E+00  0.00000000000E+00  0.14999999963E+04  0.15000000000E+04  0.10566000000E+00 0. -1.
        994   -1    0    0    0    0 -0.00000000000E+00 -0.00000000000E+00  0.11368683772E-12  0.17120000000E+03  0.17120000000E+03 0.  0.
         13    1    1    2    0    0  0.78410167676E+00 -0.10575360270E+02  0.51960417355E+02  0.53031586777E+02  0.10566000000E+00 0. -1.
        994    1    1    2    0    0  0.28653744549E+01  0.12707769109E+02  0.16143959666E+01  0.17170248700E+03  0.17120000000E+03 0.  0.
        998    1    1    2    0    0 -0.36494761317E+01 -0.21324088390E+01  0.14464251830E+04  0.14464659262E+04  0.10000000000E+02 0. -1.
</event>
<event>
 5    1  0.1369527E-008  0.3820524E+03  0.7957747E-01  0.3442270E+00
         13   -1    0    0    0    0  0.00000000000E+00  0.00000000000E+00  0.14999999963E+04  0.15000000000E+04  0.10566000000E+00 0. -1.
        994   -1    0    0    0    0 -0.00000000000E+00 -0.00000000000E+00  0.11368683772E-12  0.17120000000E+03  0.17120000000E+03 0.  0.
         13    1    1    2    0    0  0.77179049634E+01  0.19718424530E+02  0.74402843532E+02  0.77357459967E+02  0.10566000000E+00 0. -1.
        994    1    1    2    0    0  0.55973958642E+01 -0.76598492124E+01  0.33995745249E+01  0.17149635925E+03  0.17120000000E+03 0.  0.
        998    1    1    2    0    0 -0.13315300828E+02 -0.12058575318E+02  0.14221975782E+04  0.14223461808E+04  0.10000000000E+02 0. -1.
</event>
<event>
 5    1  0.1369527E-008  0.3714496E+03  0.7957747E-01  0.3489255E+00
         13   -1    0    0    0    0  0.00000000000E+00  0.00000000000E+00  0.14999999963E+04  0.15000000000E+04  0.10566000000E+00 0. -1.
        994   -1    0    0    0    0 -0.00000000000E+00 -0.00000000000E+00  0.11368683772E-12  0.17120000000E+03  0.17120000000E+03 0.  0.
         13    1    1    2    0    0  0.98219998953E+01  0.41617349853E+01  0.26281530866E+01  0.10986813583E+02  0.10566000000E+00 0. -1.
        994    1    1    2    0    0 -0.15265930628E+02 -0.81947033503E+01  0.95468416356E+01  0.17233915396E+03  0.17120000000E+03 0.  0.
        998    1    1    2    0    0  0.54439307323E+01  0.40329683650E+01  0.14878250016E+04  0.14878740325E+04  0.10000000000E+02 0. -1.
</event>
<event>
 5    1  0.1369527E-008  0.3706143E+03  0.7957747E-01  0.3493072E+00
         13   -1    0    0    0    0  0.00000000000E+00  0.00000000000E+00  0.14999999963E+04  0.15000000000E+04  0.10566000000E+00 0. -1.
        994   -1    0    0    0    0 -0.00000000000E+00 -0.00000000000E+00  0.11368683772E-12  0.17120000000E+03  0.17120000000E+03 0.  0.
         13    1    1    2    0    0 -0.15191611169E+02  0.12442568408E+02  0.12827577941E+02  0.23455499960E+02  0.10566000000E+00 0. -1.
        994    1    1    2    0    0  0.90281198443E+01  0.24659947629E+02  0.13683846171E+02  0.17374207208E+03  0.17120000000E+03 0.  0.
        998    1    1    2    0    0  0.61634913249E+01 -0.37102516037E+02  0.14734885722E+04  0.14740024280E+04  0.10000000000E+02 0. -1.
</event>
<event>
 5    1  0.1369527E-008  0.3843608E+03  0.7957747E-01  0.3432388E+00
         13   -1    0    0    0    0  0.00000000000E+00  0.00000000000E+00  0.14999999963E+04  0.15000000000E+04  0.10566000000E+00 0. -1.
        994   -1    0    0    0    0 -0.00000000000E+00 -0.00000000000E+00  0.11368683772E-12  0.17120000000E+03  0.17120000000E+03 0.  0.
         13    1    1    2    0    0 -0.10479306959E+01 -0.11181457046E+02  0.32266017480E+02  0.34164750672E+02  0.10566000000E+00 0. -1.
        994    1    1    2    0    0  0.12069545186E+02  0.40720127298E+01  0.24827239656E+01  0.17169117370E+03  0.17120000000E+03 0.  0.
        998    1    1    2    0    0 -0.11021614490E+02  0.71094443164E+01  0.14652512548E+04  0.14653440756E+04  0.10000000000E+02 0. -1.
</event>
<event>
 5    1  0.1369527E-008  0.3806096E+03  0.7957747E-01  0.3448509E+00
         13   -1    0    0    0    0  0.00000000000E+00  0.00000000000E+00  0.14999999963E+04  0.15000000000E+04  0.10566000000E+00 0. -1.
        994   -1    0    0    0    0 -0.00000000000E+00 -0.00000000000E+00  0.11368683772E-12  0.17120000000E+03  0.17120000000E+03 0.  0.
         13    1    1    2    0    0 -0.17204090693E+02 -0.22651801945E+00  0.38081595402E+02  0.41788169610E+02  0.10566000000E+00 0. -1.
        994    1    1    2    0    0  0.49993431332E+01  0.25951001053E+01  0.39316214661E+01  0.17133775306E+03  0.17120000000E+03 0.  0.
        998    1    1    2    0    0  0.12204747560E+02 -0.23685820859E+01  0.14579867794E+04  0.14580740773E+04  0.10000000000E+02 0. -1.
</event>
<event>
 5    1  0.1369527E-008  0.2040605E+03  0.7957747E-01  0.4965840E+00
         13   -1    0    0    0    0  0.00000000000E+00  0.00000000000E+00  0.14999999963E+04  0.15000000000E+04  0.10566000000E+00 0.  1.
        994   -1    0    0    0    0 -0.00000000000E+00 -0.00000000000E+00  0.11368683772E-12  0.17120000000E+03  0.17120000000E+03 0.  0.
         13    1    1    2    0    0  0.33110521056E+02 -0.11621547858E+03  0.81454020556E+02  0.14572958758E+03  0.10566000000E+00 0.  1.
        994    1    1    2    0    0 -0.17074112366E+02  0.11110370213E+03  0.14303207754E+03  0.24980627123E+03  0.17120000000E+03 0.  0.
        998    1    1    2    0    0 -0.16036408690E+02  0.51117764531E+01  0.12755138982E+04  0.12756641412E+04  0.10000000000E+02 0.  1.
</event>
<event>
 5    1  0.1369527E-008  0.3705519E+03  0.7957747E-01  0.3493358E+00
         13   -1    0    0    0    0  0.00000000000E+00  0.00000000000E+00  0.14999999963E+04  0.15000000000E+04  0.10566000000E+00 0. -1.
        994   -1    0    0    0    0 -0.00000000000E+00 -0.00000000000E+00  0.11368683772E-12  0.17120000000E+03  0.17120000000E+03 0.  0.
         13    1    1    2    0    0 -0.35737292280E+02 -0.47441227539E+01  0.66862315763E+02  0.75962103666E+02  0.10566000000E+00 0. -1.
        994    1    1    2    0    0  0.31758235907E+02  0.13477575388E+02  0.13099572061E+02  0.17513214832E+03  0.17120000000E+03 0.  0.
        998    1    1    2    0    0  0.39790563724E+01 -0.87334526342E+01  0.14200381085E+04  0.14201057480E+04  0.10000000000E+02 0. -1.
</event>
<event>
 5    1  0.1369527E-008  0.3793967E+03  0.7957747E-01  0.3453790E+00
         13   -1    0    0    0    0  0.00000000000E+00  0.00000000000E+00  0.14999999963E+04  0.15000000000E+04  0.10566000000E+00 0. -1.
        994   -1    0    0    0    0 -0.00000000000E+00 -0.00000000000E+00  0.11368683772E-12  0.17120000000E+03  0.17120000000E+03 0.  0.
         13    1    1    2    0    0  0.25374027877E+02  0.31029434477E+02  0.16016438209E+03  0.16510392954E+03  0.10566000000E+00 0. -1.
        994    1    1    2    0    0 -0.37665182840E+02 -0.23301613843E+02  0.11036852651E+02  0.17718036946E+03  0.17120000000E+03 0.  0.
        998    1    1    2    0    0  0.12291154963E+02 -0.77278206340E+01  0.13287987615E+04  0.13289157010E+04  0.10000000000E+02 0. -1.
</event>
<event>
 5    1  0.1369527E-008  0.3738863E+03  0.7957747E-01  0.3478218E+00
         13   -1    0    0    0    0  0.00000000000E+00  0.00000000000E+00  0.14999999963E+04  0.15000000000E+04  0.10566000000E+00 0. -1.
        994   -1    0    0    0    0 -0.00000000000E+00 -0.00000000000E+00  0.11368683772E-12  0.17120000000E+03  0.17120000000E+03 0.  0.
         13    1    1    2    0    0 -0.13324462175E+02 -0.57145004475E+02  0.21037758175E+03  0.21840748819E+03  0.10566000000E+00 0. -1.
        994    1    1    2    0    0  0.20346020968E+02  0.49637609182E+02  0.17135327860E+02  0.18022461618E+03  0.17120000000E+03 0.  0.
        998    1    1    2    0    0 -0.70215587930E+01  0.75073952926E+01  0.12724870867E+04  0.12725678956E+04  0.10000000000E+02 0. -1.
</event>
<event>
 5    1  0.1369527E-008  0.3757895E+03  0.7957747E-01  0.3469700E+00
         13   -1    0    0    0    0  0.00000000000E+00  0.00000000000E+00  0.14999999963E+04  0.15000000000E+04  0.10566000000E+00 0. -1.
        994   -1    0    0    0    0 -0.00000000000E+00 -0.00000000000E+00  0.11368683772E-12  0.17120000000E+03  0.17120000000E+03 0.  0.
         13    1    1    2    0    0  0.86835338369E+01 -0.51773525802E+01  0.52034343775E+01  0.11370823760E+02  0.10566000000E+00 0. -1.
        994    1    1    2    0    0 -0.93442500152E+01  0.58745354970E+01  0.66869994688E+01  0.17168570452E+03  0.17120000000E+03 0.  0.
        998    1    1    2    0    0  0.66071617833E+00 -0.69718291684E+00  0.14881095624E+04  0.14881434717E+04  0.10000000000E+02 0. -1.
</event>
<event>
 5    1  0.1369527E-008  0.3702846E+03  0.7957747E-01  0.3494584E+00
         13   -1    0    0    0    0  0.00000000000E+00  0.00000000000E+00  0.14999999963E+04  0.15000000000E+04  0.10566000000E+00 0.  1.
        994   -1    0    0    0    0 -0.00000000000E+00 -0.00000000000E+00  0.11368683772E-12  0.17120000000E+03  0.17120000000E+03 0.  0.
         13    1    1    2    0    0 -0.13120950084E+02  0.26788188635E+01  0.56229614203E+01  0.14524608800E+02  0.10566000000E+00 0.  1.
        994    1    1    2    0    0  0.11644685008E+02 -0.66790384286E+01  0.97431208494E+01  0.17200167629E+03  0.17120000000E+03 0.  0.
        998    1    1    2    0    0  0.14762650759E+01  0.40002195651E+01  0.14846339140E+04  0.14846737149E+04  0.10000000000E+02 0.  1.
</event>
<event>
 5    1  0.1369527E-008  0.3829066E+03  0.7957747E-01  0.3438599E+00
         13   -1    0    0    0    0  0.00000000000E+00  0.00000000000E+00  0.14999999963E+04  0.15000000000E+04  0.10566000000E+00 0. -1.
        994   -1    0    0    0    0 -0.00000000000E+00 -0.00000000000E+00  0.11368683772E-12  0.17120000000E+03  0.17120000000E+03 0.  0.
         13    1    1    2    0    0  0.10068145986E+02 -0.28609199880E+02  0.18076415794E+03  0.18329087769E+03  0.10566000000E+00 0. -1.
        994    1    1    2    0    0  0.45168378724E+02  0.33997369105E+02  0.13328382731E+02  0.18078464904E+03  0.17120000000E+03 0.  0.
        998    1    1    2    0    0 -0.55236524710E+02 -0.53881692244E+01  0.13059074556E+04  0.13071244733E+04  0.10000000000E+02 0. -1.
</event>
<event>
 5    1  0.1369527E-008  0.3817190E+03  0.7957747E-01  0.3443708E+00
         13   -1    0    0    0    0  0.00000000000E+00  0.00000000000E+00  0.14999999963E+04  0.15000000000E+04  0.10566000000E+00 0. -1.
        994   -1    0    0    0    0 -0.00000000000E+00 -0.00000000000E+00  0.11368683772E-12  0.17120000000E+03  0.17120000000E+03 0.  0.
         13    1    1    2    0    0  0.24577294783E+01  0.12600297753E+02  0.23769818228E+02  0.27015243110E+02  0.10566000000E+00 0. -1.
        994    1    1    2    0    0 -0.28055792727E+01 -0.10959315827E+02  0.36934407803E+01  0.17161310959E+03  0.17120000000E+03 0.  0.
        998    1    1    2    0    0  0.34784979434E+00 -0.16409819256E+01  0.14725367373E+04  0.14725716473E+04  0.10000000000E+02 0. -1.
</event>
<event>
 5    1  0.1369527E-008  0.3843444E+03  0.7957747E-01  0.3432457E+00
         13   -1    0    0    0    0  0.00000000000E+00  0.00000000000E+00  0.14999999963E+04  0.15000000000E+04  0.10566000000E+00 0. -1.
        994   -1    0    0    0    0 -0.00000000000E+00 -0.00000000000E+00  0.11368683772E-12  0.17120000000E+03  0.17120000000E+03 0.  0.
         13    1    1    2    0    0  0.96946579450E+01 -0.13141759022E+02  0.63570280561E+02  0.65634472325E+02  0.10566000000E+00 0. -1.
        994    1    1    2    0    0 -0.12738768606E+02  0.18159953359E+02  0.35793164430E+01  0.17266821259E+03  0.17120000000E+03 0.  0.
        998    1    1    2    0    0  0.30441106607E+01 -0.50181943366E+01  0.14328503993E+04  0.14328973151E+04  0.10000000000E+02 0. -1.
</event>
<event>
 5    1  0.1369527E-008  0.3789253E+03  0.7957747E-01  0.3455852E+00
         13   -1    0    0    0    0  0.00000000000E+00  0.00000000000E+00  0.14999999963E+04  0.15000000000E+04  0.10566000000E+00 0. -1.
        994   -1    0    0    0    0 -0.00000000000E+00 -0.00000000000E+00  0.11368683772E-12  0.17120000000E+03  0.17120000000E+03 0.  0.
         13    1    1    2    0    0  0.23057231541E+01 -0.12751069719E+02  0.15811267025E+02  0.20442931962E+02  0.10566000000E+00 0. -1.
        994    1    1    2    0    0 -0.20032290047E+01  0.12230385206E+02  0.51920968618E+01  0.17172650674E+03  0.17120000000E+03 0.  0.
        998    1    1    2    0    0 -0.30249414939E+00  0.52068451298E+00  0.14789966324E+04  0.14790305613E+04  0.10000000000E+02 0. -1.
</event>
