<LesHouchesEvents version="3.0">
<header>
<!--
#*********************************************************************
#                                                                    *
#                        MadGraph5_aMC@NLO                           *
#                                                                    *
#                           Going Beyond                             *
#                                                                    *
#                   http://madgraph.hep.uiuc.edu                     *
#                   http://madgraph.phys.ucl.ac.be                   *
#                   http://amcatnlo.cern.ch                          *
#                                                                    *
#                     The MadGraph5_aMC@NLO team                     *
#                                                                    *
#....................................................................*
#                                                                    *
# This file contains all the information necessary to reproduce      *
# the events generated:                                              *
#                                                                    *
# 1. software version                                                *
# 2. proc_card          : code generation info including model       *
# 3. param_card         : model primary parameters in the LH format  *
# 4. run_card           : running parameters (collider and cuts)     *
# 5. pythia_card        : present only if pythia has been run        *
# 6. pgs_card           : present only if pgs has been run           *
# 7. delphes_cards      : present only if delphes has been run       *
#                                                                    *
#                                                                    *
#*********************************************************************
-->
<MGVersion>
#3.5.0
</MGVersion>
<MG5ProcCard>
<![CDATA[
#************************************************************
#*                     MadGraph5_aMC@NLO                    *
#*                                                          *
#*                *                       *                 *
#*                  *        * *        *                   *
#*                    * * * * 5 * * * *                     *
#*                  *        * *        *                   *
#*                *                       *                 *
#*                                                          *
#*                                                          *
#*         VERSION 3.5.0                 2023-05-12         *
#*                                                          *
#*    The MadGraph5_aMC@NLO Development Team - Find us at   *
#*    https://server06.fynu.ucl.ac.be/projects/madgraph     *
#*                                                          *
#************************************************************
#*                                                          *
#*               Command File for MadGraph5_aMC@NLO         *
#*                                                          *
#*     run as ./bin/mg5_aMC  filename                       *
#*                                                          *
#************************************************************
set group_subprocesses Auto
set ignore_six_quark_processes False
set low_mem_multicore_nlo_generation False
set complex_mass_scheme False
set include_lepton_initiated_processes False
set gauge unitary
set loop_optimized_output True
set loop_color_flows False
set max_npoint_for_channel 0
set default_unset_couplings 99
set max_t_for_channel 99
set zerowidth_tchannel True
set nlo_mixed_expansion True
import model combined_beamdump
define l+ = e+ mu+
define l- = e- mu-
generate mu- ns > mu- ns phi
output /Users/sam/Documents/Research/BeamDumpBSM/calculations/madgraph\
/processes/test_madgraph_generation
]]>
</MG5ProcCard>
<MGProcCard>
#*********************************************************************
#                        MadGraph/MadEvent                           *
#                   http://madgraph.hep.uiuc.edu                     *
#                                                                    *
#                          proc_card.dat                             *
#*********************************************************************
#                                                                    *
#            This Files is generated by MADGRAPH 5                   *
#                                                                    *
# WARNING: This Files is generated for MADEVENT (compatibility issue)*
#          This files is NOT a valid MG4 proc_card.dat               *
#          Running this in MG4 will NEVER reproduce the result of MG5*
#                                                                    *
#*********************************************************************
#*********************************************************************
# Process(es) requested : mg2 input                                  *
#*********************************************************************
# Begin PROCESS # This is TAG. Do not modify this line
mu- ns > mu- ns phi           #Process
# Be carefull the coupling are here in MG5 convention
          
end_coup           # End the couplings input

done               # this tells MG there are no more procs
# End PROCESS  # This is TAG. Do not modify this line
#*********************************************************************
# Model information                                                  *
#*********************************************************************
# Begin MODEL  # This is TAG. Do not modify this line
combined_beamdump
# End   MODEL  # This is TAG. Do not modify this line
#*********************************************************************
# Start multiparticle definitions                                    *
#*********************************************************************
# Begin MULTIPARTICLES # This is TAG. Do not modify this line

# End  MULTIPARTICLES # This is TAG. Do not modify this line
</MGProcCard>
<MGRunCard>
<![CDATA[
#*********************************************************************
#                       MadGraph5_aMC@NLO                            *
#                                                                    *
#                     run_card.dat MadEvent                          *
#                                                                    *
#  This file is used to set the parameters of the run.               *
#                                                                    *
#  Some notation/conventions:                                        *
#                                                                    *
#   Lines starting with a '# ' are info or comments                  *
#                                                                    *
#   mind the format:   value    = variable     ! comment             *
#                                                                    *
#   To display more options, you can type the command:               *
#      update to_full                                                *
#*********************************************************************
#                                                                    
#*********************************************************************
# Tag name for the run (one word)                                    *
#*********************************************************************
  tag_1	= run_tag ! name of the run 
#*********************************************************************
# Number of events and rnd seed                                      *
# Warning: Do not generate more than 1M events in a single run       *
#*********************************************************************
  1000	= nevents ! Number of unweighted events requested 
 21 = iseed ! rnd seed (0=assigned automatically=default))
#*********************************************************************
# Collider type and energy                                           *
# lpp: 0=No PDF, 1=proton, -1=antiproton,                            *
#                2=elastic photon of proton/ion beam                 *
#             +/-3=PDF of electron/positron beam                     *
#             +/-4=PDF of muon/antimuon beam                         *
#*********************************************************************
  0	= lpp1 ! beam 1 type 
  0	= lpp2 ! beam 2 type
  500.0	= ebeam1 ! beam 1 total energy in GeV
  0.0	= ebeam2 ! beam 2 total energy in GeV
#*********************************************************************
# Beam polarization from -100 (left-handed) to 100 (right-handed)    *
#*********************************************************************
  0.0	= polbeam1 ! beam polarization for beam 1
  0.0	= polbeam2 ! beam polarization for beam 2


#*********************************************************************
# PDF CHOICE: this automatically fixes alpha_s and its evol.         *
# pdlabel: lhapdf=LHAPDF (installation needed) [1412.7420]           *
#          iww=Improved Weizsaecker-Williams Approx.[hep-ph/9310350] *
#          eva=Effective W/Z/A Approx.       [2111.02442]            *
#          edff=EDFF in gamma-UPC            [eq.(11) in 2207.03012] *
#          chff=ChFF in gamma-UPC            [eq.(13) in 2207.03012] *
#          none=No PDF, same as lhapdf with lppx=0                   *
#*********************************************************************
  none	= pdlabel1 ! PDF type for beam #1
  none	= pdlabel2 ! PDF type for beam #2
  230000	= lhaid ! if pdlabel=lhapdf, this is the lhapdf number
# To see heavy ion options: type "update ion_pdf"
#*********************************************************************
# Renormalization and factorization scales                           *
#*********************************************************************
  False	= fixed_ren_scale ! if .true. use fixed ren scale
  False	= fixed_fac_scale1 ! if .true. use fixed fac scale for beam 1
  False	= fixed_fac_scale2 ! if .true. use fixed fac scale for beam 2
  91.188	= scale ! fixed ren scale
  91.188	= dsqrt_q2fact1 ! fixed fact scale for pdf1
  91.188	= dsqrt_q2fact2 ! fixed fact scale for pdf2
  -1	= dynamical_scale_choice ! Choose one of the preselected dynamical choices
  1.0	= scalefact ! scale factor for event-by-event scales

 
#*********************************************************************
# Type and output format
#*********************************************************************
  False	= gridpack !True = setting up the grid pack
  -1.0	= time_of_flight ! threshold (in mm) below which the invariant livetime is not written (-1 means not written)
  average	= event_norm ! average/sum. Normalization of the weight in the LHEF
# To see MLM/CKKW  merging options: type "update MLM" or "update CKKW"

#*********************************************************************
#
#*********************************************************************
# Phase-Space Optimization strategy (basic options)
#*********************************************************************
  0	= nhel ! using helicities importance sampling or not.
                             ! 0: sum over helicity, 1: importance sampling
  2	= sde_strategy ! default integration strategy (hep-ph/2021.00773)
                             ! 1 is old strategy (using amp square)
			     ! 2 is new strategy (using only the denominator)
# To see advanced option for Phase-Space optimization: type "update psoptim"			     
#*********************************************************************
# Customization (custom cuts/scale/bias/...)                         *
# list of files containing fortran function that overwrite default   *
#*********************************************************************
  	= custom_fcts ! List of files containing user hook function
#*******************************                                                 
# Parton level cuts definition *
#*******************************
  0.0	= dsqrt_shat ! minimal shat for full process
#                                                                    
#
#*********************************************************************
# BW cutoff (M+/-bwcutoff*Gamma) ! Define on/off-shell for "$" and decay  
#*********************************************************************
  15.0	= bwcutoff ! (M+/-bwcutoff*Gamma)
#*********************************************************************
# Standard Cuts                                                      *
#*********************************************************************
# Minimum and maximum pt's (for max, -1 means no cut)                *
#*********************************************************************
  10.0	= ptl ! minimum pt for the charged leptons 
  -1.0	= ptlmax ! maximum pt for the charged leptons
  {}	= pt_min_pdg ! pt cut for other particles (use pdg code). Applied on particle and anti-particle
  {}	= pt_max_pdg ! pt cut for other particles (syntax e.g. {6: 100, 25: 50}) 
#
# For display option for energy cut in the partonic center of mass frame type 'update ecut'
#
#*********************************************************************
# Maximum and minimum absolute rapidity (for max, -1 means no cut)   *
#*********************************************************************
  2.5	= etal ! max rap for the charged leptons 
  0.0	= etalmin ! main rap for the charged leptons
  {}	= eta_min_pdg ! rap cut for other particles (use pdg code). Applied on particle and anti-particle
  {}	= eta_max_pdg ! rap cut for other particles (syntax e.g. {6: 2.5, 23: 5})
#*********************************************************************
# Minimum and maximum DeltaR distance                                *
#*********************************************************************
#*********************************************************************
# Minimum and maximum invariant mass for pairs                       *
#*********************************************************************
  {}	= mxx_min_pdg ! min invariant mass of a pair of particles X/X~ (e.g. {6:250})
  {'default': False}	= mxx_only_part_antipart ! if True the invariant mass is applied only 
                       ! to pairs of particle/antiparticle and not to pairs of the same pdg codes.  
#*********************************************************************
# Inclusive cuts                                                     *
#*********************************************************************
  0.0	= ptheavy ! minimum pt for at least one heavy final state
#*********************************************************************
# maximal pdg code for quark to be considered as a light jet         *
# (otherwise b cuts are applied)                                     *
#*********************************************************************
  4	= maxjetflavor ! Maximum jet pdg code
#*********************************************************************
#
#*********************************************************************
# Store info for systematics studies                                 *
# WARNING: Do not use for interference type of computation           *
#*********************************************************************
  False	= use_syst ! Enable systematics studies
#
  systematics	= systematics_program ! none, systematics [python], SysCalc [depreceted, C++]
  ['--mur=0.5,1,2', '--muf=0.5,1,2', '--pdf=errorset']	= systematics_arguments ! see: https://cp3.irmp.ucl.ac.be/projects/madgraph/wiki/Systematics#Systematicspythonmodule
]]>
</MGRunCard>
<slha>
######################################################################
## PARAM_CARD AUTOMATICALY GENERATED BY MG5                       ####
######################################################################
###################################
## INFORMATION FOR FRBLOCK
###################################
BLOCK FRBLOCK # 
      1 1.000000e+00 # alphaem
      2 1.000000e+00 # yse
      3 1.000000e+00 # ysmu
      4 1.000000e+00 # yphie
      5 1.000000e+00 # yphimu
      6 1.000000e+00 # gprimakoff
      7 1.000000e+00 # gvel
      8 1.000000e+00 # gvmu
      9 1.000000e+00 # guel
      10 1.000000e+00 # gumu
###################################
## INFORMATION FOR MASS
###################################
BLOCK MASS # 
      11 5.110000e-04 # mel
      13 1.056600e-01 # mmu
      994 1.310000e+02 # mns
      995 1.270000e+02 # mnf
      996 1.033000e+03 # ms
      997 10 # mphi
      998 1.181000e+03 # mv
      999 1.103000e+03 # mu
      22 0.000000e+00 # a : 0.0
###################################
## INFORMATION FOR DECAY
###################################
DECAY 11 0.000000e+00 # e- : 0.0
DECAY 13 0.000000e+00 # mu- : 0.0
DECAY 22 0.000000e+00 # a : 0.0
DECAY 994 0.000000e+00 # ns : 0.0
DECAY 995 0.000000e+00 # nf : 0.0
DECAY 996 0.000000e+00 # s : 0.0
DECAY 997 0.000000e+00 # phi : 0.0
DECAY 998 0.000000e+00 # v : 0.0
DECAY 999 0.000000e+00 # u : 0.0
###################################
## INFORMATION FOR QNUMBERS 994
###################################
BLOCK QNUMBERS 994 #    ns
      1 3 # 3 times electric charge
      2 1 # number of spin states (2s+1)
      3 1 # colour rep (1: singlet, 3: triplet, 8: octet)
      4 1 # particle/antiparticle distinction (0=own anti)
###################################
## INFORMATION FOR QNUMBERS 995
###################################
BLOCK QNUMBERS 995 #    nf
      1 3 # 3 times electric charge
      2 2 # number of spin states (2s+1)
      3 1 # colour rep (1: singlet, 3: triplet, 8: octet)
      4 1 # particle/antiparticle distinction (0=own anti)
###################################
## INFORMATION FOR QNUMBERS 996
###################################
BLOCK QNUMBERS 996 #    s
      1 0 # 3 times electric charge
      2 1 # number of spin states (2s+1)
      3 1 # colour rep (1: singlet, 3: triplet, 8: octet)
      4 0 # particle/antiparticle distinction (0=own anti)
###################################
## INFORMATION FOR QNUMBERS 997
###################################
BLOCK QNUMBERS 997 #    phi
      1 0 # 3 times electric charge
      2 1 # number of spin states (2s+1)
      3 1 # colour rep (1: singlet, 3: triplet, 8: octet)
      4 0 # particle/antiparticle distinction (0=own anti)
###################################
## INFORMATION FOR QNUMBERS 998
###################################
BLOCK QNUMBERS 998 #    v
      1 0 # 3 times electric charge
      2 3 # number of spin states (2s+1)
      3 1 # colour rep (1: singlet, 3: triplet, 8: octet)
      4 0 # particle/antiparticle distinction (0=own anti)
###################################
## INFORMATION FOR QNUMBERS 999
###################################
BLOCK QNUMBERS 999 #    u
      1 0 # 3 times electric charge
      2 3 # number of spin states (2s+1)
      3 1 # colour rep (1: singlet, 3: triplet, 8: octet)
      4 0 # particle/antiparticle distinction (0=own anti)
</slha>
<MGGenerationInfo>
#  Number of Events        :       1000
#  Integrated weight (pb)  :       4.47704e-06
</MGGenerationInfo>
</header>
<init>
13 994 5.000000e+02 0.000000e+00 0 0 0 0 -4 1
4.477040e-06 5.817720e-08 4.477040e-06 1
<generator name='MadGraph5_aMC@NLO' version='3.5.0'>please cite 1405.0301 </generator>
</init>
<event>
 5      1 +4.4770400e-06 2.10481600e+02 7.95774700e-02 4.85669700e-01
       13 -1    0    0    0    0 +0.0000000000e+00 +0.0000000000e+00 +4.9999998884e+02 5.0000000000e+02 1.0566000000e-01 0.0000e+00 -1.0000e+00
      994 -1    0    0    0    0 -0.0000000000e+00 -0.0000000000e+00 +0.0000000000e+00 1.3100000000e+02 1.3100000000e+02 0.0000e+00 0.0000e+00
       13  1    1    2    0    0 +7.0026860128e+00 -1.2299632023e+01 +3.1078894906e+01 3.4150072209e+01 1.0566000000e-01 0.0000e+00 1.0000e+00
      994  1    1    2    0    0 -5.9463266847e-01 +3.3260064399e+00 +3.3966837761e+00 1.3108757900e+02 1.3100000000e+02 0.0000e+00 0.0000e+00
      997  1    1    2    0    0 -6.4080533444e+00 +8.9736255831e+00 +4.6552441015e+02 4.6576234879e+02 1.0000000000e+01 0.0000e+00 0.0000e+00
</event>
<event>
 5      1 +4.4770400e-06 2.04024400e+02 7.95774700e-02 4.96647800e-01
       13 -1    0    0    0    0 +0.0000000000e+00 +0.0000000000e+00 +4.9999998884e+02 5.0000000000e+02 1.0566000000e-01 0.0000e+00 1.0000e+00
      994 -1    0    0    0    0 -0.0000000000e+00 -0.0000000000e+00 +0.0000000000e+00 1.3100000000e+02 1.3100000000e+02 0.0000e+00 0.0000e+00
       13  1    1    2    0    0 +1.3482480776e+01 -3.0380500988e+01 +1.0030032232e+02 1.0566417533e+02 1.0566000000e-01 0.0000e+00 -1.0000e+00
      994  1    1    2    0    0 -2.5000574752e+00 -1.8613745726e+01 +1.0469247395e+01 1.3275287928e+02 1.3100000000e+02 0.0000e+00 0.0000e+00
      997  1    1    2    0    0 -1.0982423301e+01 +4.8994246713e+01 +3.8923041912e+02 3.9258294538e+02 1.0000000000e+01 0.0000e+00 0.0000e+00
</event>
<event>
 5      1 +4.4770400e-06 2.08008100e+02 7.95774700e-02 4.89772300e-01
       13 -1    0    0    0    0 +0.0000000000e+00 +0.0000000000e+00 +4.9999998884e+02 5.0000000000e+02 1.0566000000e-01 0.0000e+00 -1.0000e+00
      994 -1    0    0    0    0 -0.0000000000e+00 -0.0000000000e+00 +0.0000000000e+00 1.3100000000e+02 1.3100000000e+02 0.0000e+00 0.0000e+00
       13  1    1    2    0    0 -1.0990759094e+01 -1.4152964936e+01 +2.7253372271e+01 3.2616877014e+01 1.0566000000e-01 0.0000e+00 1.0000e+00
      994  1    1    2    0    0 +9.4299254574e+00 +1.2458956551e+01 +6.5684132726e+00 1.3209198744e+02 1.3100000000e+02 0.0000e+00 0.0000e+00
      997  1    1    2    0    0 +1.5608336363e+00 +1.6940083845e+00 +4.6617820329e+02 4.6629113555e+02 1.0000000000e+01 0.0000e+00 0.0000e+00
</event>
<event>
 5      1 +4.4770400e-06 2.06866400e+02 7.95774700e-02 4.91708100e-01
       13 -1    0    0    0    0 +0.0000000000e+00 +0.0000000000e+00 +4.9999998884e+02 5.0000000000e+02 1.0566000000e-01 0.0000e+00 1.0000e+00
      994 -1    0    0    0    0 -0.0000000000e+00 -0.0000000000e+00 +0.0000000000e+00 1.3100000000e+02 1.3100000000e+02 0.0000e+00 0.0000e+00
       13  1    1    2    0    0 +4.7938877591e+01 -8.8401756681e+00 +1.2594864275e+02 1.3505316163e+02 1.0566000000e-01 0.0000e+00 -1.0000e+00
      994  1    1    2    0    0 -5.2913968666e+01 +1.0015229608e+01 +2.1551105287e+01 1.4326773204e+02 1.3100000000e+02 0.0000e+00 0.0000e+00
      997  1    1    2    0    0 +4.9750910748e+00 -1.1750539400e+00 +3.5250024080e+02 3.5267910633e+02 1.0000000000e+01 0.0000e+00 0.0000e+00
</event>
<event>
 5      1 +4.4770400e-06 2.10643600e+02 7.95774700e-02 4.85405200e-01
       13 -1    0    0    0    0 +0.0000000000e+00 +0.0000000000e+00 +4.9999998884e+02 5.0000000000e+02 1.0566000000e-01 0.0000e+00 1.0000e+00
      994 -1    0    0    0    0 -0.0000000000e+00 -0.0000000000e+00 +0.0000000000e+00 1.3100000000e+02 1.3100000000e+02 0.0000e+00 0.0000e+00
       13  1    1    2    0    0 +1.7777649771e+01 +5.2403013580e-01 +6.6517693868e+01 6.8854442126e+01 1.0566000000e-01 0.0000e+00 -1.0000e+00
      994  1    1    2    0    0 +8.2554354647e+00 +1.0921788785e+00 +3.5558644201e+00 1.3131256315e+02 1.3100000000e+02 0.0000e+00 0.0000e+00
      997  1    1    2    0    0 -2.6033085236e+01 -1.6162090143e+00 +4.2992643055e+02 4.3083299472e+02 1.0000000000e+01 0.0000e+00 0.0000e+00
</event>
<event>
 5      1 +4.4770400e-06 2.08722600e+02 7.95774700e-02 4.88574500e-01
       13 -1    0    0    0    0 +0.0000000000e+00 +0.0000000000e+00 +4.9999998884e+02 5.0000000000e+02 1.0566000000e-01 0.0000e+00 -1.0000e+00
      994 -1    0    0    0    0 -0.0000000000e+00 -0.0000000000e+00 +0.0000000000e+00 1.3100000000e+02 1.3100000000e+02 0.0000e+00 0.0000e+00
       13  1    1    2    0    0 -6.1577416992e+00 +9.8336872730e+00 +1.2155917928e+01 1.6804662833e+01 1.0566000000e-01 0.0000e+00 1.0000e+00
      994  1    1    2    0    0 +4.8653401991e+00 -8.1359628026e+00 +5.2025832576e+00 1.3144554880e+02 1.3100000000e+02 0.0000e+00 0.0000e+00
      997  1    1    2    0    0 +1.2924015001e+00 -1.6977244704e+00 +4.8264148765e+02 4.8274978837e+02 1.0000000000e+01 0.0000e+00 0.0000e+00
</event>
<event>
 5      1 +4.4770400e-06 2.12407000e+02 7.95774700e-02 4.82559600e-01
       13 -1    0    0    0    0 +0.0000000000e+00 +0.0000000000e+00 +4.9999998884e+02 5.0000000000e+02 1.0566000000e-01 0.0000e+00 -1.0000e+00
      994 -1    0    0    0    0 -0.0000000000e+00 -0.0000000000e+00 +0.0000000000e+00 1.3100000000e+02 1.3100000000e+02 0.0000e+00 0.0000e+00
       13  1    1    2    0    0 +1.2463548486e+01 +6.0185281880e+00 +3.0441358661e+01 3.3440248258e+01 1.0566000000e-01 0.0000e+00 1.0000e+00
      994  1    1    2    0    0 -5.4570865569e+01 -1.4232812101e+01 +1.7882410185e+01 1.4374050544e+02 1.3100000000e+02 0.0000e+00 0.0000e+00
      997  1    1    2    0    0 +4.2107317083e+01 +8.2142839129e+00 +4.5167621999e+02 4.5381924630e+02 1.0000000000e+01 0.0000e+00 0.0000e+00
</event>
<event>
 5      1 +4.4770400e-06 2.10945100e+02 7.95774700e-02 4.84914500e-01
       13 -1    0    0    0    0 +0.0000000000e+00 +0.0000000000e+00 +4.9999998884e+02 5.0000000000e+02 1.0566000000e-01 0.0000e+00 -1.0000e+00
      994 -1    0    0    0    0 -0.0000000000e+00 -0.0000000000e+00 +0.0000000000e+00 1.3100000000e+02 1.3100000000e+02 0.0000e+00 0.0000e+00
       13  1    1    2    0    0 +6.3469142440e+01 -2.2255665014e+01 +3.4004326001e+02 3.4663103800e+02 1.0566000000e-01 0.0000e+00 1.0000e+00
      994  1    1    2    0    0 -6.2378290008e+01 +1.2876529444e+01 +2.3890808971e+01 1.4760971116e+02 1.3100000000e+02 0.0000e+00 0.0000e+00
      997  1    1    2    0    0 -1.0908524313e+00 +9.3791355700e+00 +1.3606591986e+02 1.3675925084e+02 1.0000000000e+01 0.0000e+00 0.0000e+00
</event>
<event>
 5      1 +4.4770400e-06 1.84919800e+02 7.95774700e-02 5.35125700e-01
       13 -1    0    0    0    0 +0.0000000000e+00 +0.0000000000e+00 +4.9999998884e+02 5.0000000000e+02 1.0566000000e-01 0.0000e+00 -1.0000e+00
      994 -1    0    0    0    0 -0.0000000000e+00 -0.0000000000e+00 +0.0000000000e+00 1.3100000000e+02 1.3100000000e+02 0.0000e+00 0.0000e+00
       13  1    1    2    0    0 -8.6805736931e+01 -4.3298762115e+01 +2.5994458206e+02 2.7745488943e+02 1.0566000000e-01 0.0000e+00 1.0000e+00
      994  1    1    2    0    0 +7.3218904020e+01 +6.3875837771e+01 +6.3549408593e+01 1.7504473111e+02 1.3100000000e+02 0.0000e+00 0.0000e+00
      997  1    1    2    0    0 +1.3586832911e+01 -2.0577075656e+01 +1.7650599819e+02 1.7850037946e+02 1.0000000000e+01 0.0000e+00 0.0000e+00
</event>
<event>
 5      1 +4.4770400e-06 2.11686000e+02 7.95774700e-02 4.83715800e-01
       13 -1    0    0    0    0 +0.0000000000e+00 +0.0000000000e+00 +4.9999998884e+02 5.0000000000e+02 1.0566000000e-01 0.0000e+00 -1.0000e+00
      994 -1    0    0    0    0 -0.0000000000e+00 -0.0000000000e+00 +0.0000000000e+00 1.3100000000e+02 1.3100000000e+02 0.0000e+00 0.0000e+00
       13  1    1    2    0    0 +2.1798908132e+01 -6.4215875633e+00 +1.0205170718e+02 1.0455138108e+02 1.0566000000e-01 0.0000e+00 1.0000e+00
      994  1    1    2    0    0 -1.6524170931e+01 +4.5641679192e+00 +3.8388484746e+00 1.3217267725e+02 1.3100000000e+02 0.0000e+00 0.0000e+00
      997  1    1    2    0    0 -5.2747372006e+00 +1.8574196441e+00 +3.9410943318e+02 3.9427594167e+02 1.0000000000e+01 0.0000e+00 0.0000e+00
</event>
<event>
 5      1 +4.4770400e-06 2.10289100e+02 7.95774700e-02 4.85984600e-01
       13 -1    0    0    0    0 +0.0000000000e+00 +0.0000000000e+00 +4.9999998884e+02 5.0000000000e+02 1.0566000000e-01 0.0000e+00 -1.0000e+00
      994 -1    0    0    0    0 -0.0000000000e+00 -0.0000000000e+00 +0.0000000000e+00 1.3100000000e+02 1.3100000000e+02 0.0000e+00 0.0000e+00
       13  1    1    2    0    0 -1.4122834659e+01 -3.5548506831e+00 +3.0790382336e+01 3.4060978122e+01 1.0566000000e-01 0.0000e+00 1.0000e+00
      994  1    1    2    0    0 +4.1270965286e+00 +4.6454828050e+00 +3.6856067067e+00 1.3119907444e+02 1.3100000000e+02 0.0000e+00 0.0000e+00
      997  1    1    2    0    0 +9.9957381305e+00 -1.0906321219e+00 +4.6552399979e+02 4.6573994744e+02 1.0000000000e+01 0.0000e+00 0.0000e+00
</event>
<event>
 5      1 +4.4770400e-06 2.11809000e+02 7.95774700e-02 4.83518000e-01
       13 -1    0    0    0    0 +0.0000000000e+00 +0.0000000000e+00 +4.9999998884e+02 5.0000000000e+02 1.0566000000e-01 0.0000e+00 1.0000e+00
      994 -1    0    0    0    0 -0.0000000000e+00 -0.0000000000e+00 +0.0000000000e+00 1.3100000000e+02 1.3100000000e+02 0.0000e+00 0.0000e+00
       13  1    1    2    0    0 -1.5345360241e+01 -2.3239936885e+01 +5.3587294971e+01 6.0391920765e+01 1.0566000000e-01 0.0000e+00 -1.0000e+00
      994  1    1    2    0    0 +4.1126684265e+00 +1.2545457100e+02 +9.5960443153e+01 2.0524417185e+02 1.3100000000e+02 0.0000e+00 0.0000e+00
      997  1    1    2    0    0 +1.1232691814e+01 -1.0221463412e+02 +3.5045225071e+02 3.6536390739e+02 1.0000000000e+01 0.0000e+00 0.0000e+00
</event>
<event>
 5      1 +4.4770400e-06 2.10646100e+02 7.95774700e-02 4.85401200e-01
       13 -1    0    0    0    0 +0.0000000000e+00 +0.0000000000e+00 +4.9999998884e+02 5.0000000000e+02 1.0566000000e-01 0.0000e+00 -1.0000e+00
      994 -1    0    0    0    0 -0.0000000000e+00 -0.0000000000e+00 +0.0000000000e+00 1.3100000000e+02 1.3100000000e+02 0.0000e+00 0.0000e+00
       13  1    1    2    0    0 +1.3455343450e+01 +1.1851999223e+01 +6.1557214235e+01 6.4115660656e+01 1.0566000000e-01 0.0000e+00 1.0000e+00
      994  1    1    2    0    0 +7.8243400821e+00 -4.5675869247e+00 +3.6173149508e+00 1.3136273488e+02 1.3100000000e+02 0.0000e+00 0.0000e+00
      997  1    1    2    0    0 -2.1279683532e+01 -7.2844122983e+00 +4.3482545965e+02 4.3552160446e+02 1.0000000000e+01 0.0000e+00 0.0000e+00
</event>
<event>
 5      1 +4.4770400e-06 2.04350000e+02 7.95774700e-02 4.96073000e-01
       13 -1    0    0    0    0 +0.0000000000e+00 +0.0000000000e+00 +4.9999998884e+02 5.0000000000e+02 1.0566000000e-01 0.0000e+00 -1.0000e+00
      994 -1    0    0    0    0 -0.0000000000e+00 -0.0000000000e+00 +0.0000000000e+00 1.3100000000e+02 1.3100000000e+02 0.0000e+00 0.0000e+00
       13  1    1    2    0    0 +6.5959199357e+00 +8.5557364409e+00 +3.1475312022e+00 1.1252773105e+01 1.0566000000e-01 0.0000e+00 1.0000e+00
      994  1    1    2    0    0 -1.0732692317e+01 -5.5444473974e+00 +9.1050844840e+00 1.3187052038e+02 1.3100000000e+02 0.0000e+00 0.0000e+00
      997  1    1    2    0    0 +4.1367723812e+00 -3.0112890436e+00 +4.8774737315e+02 4.8787670652e+02 1.0000000000e+01 0.0000e+00 0.0000e+00
</event>
<event>
 5      1 +4.4770400e-06 2.12423100e+02 7.95774700e-02 4.82533900e-01
       13 -1    0    0    0    0 +0.0000000000e+00 +0.0000000000e+00 +4.9999998884e+02 5.0000000000e+02 1.0566000000e-01 0.0000e+00 -1.0000e+00
      994 -1    0    0    0    0 -0.0000000000e+00 -0.0000000000e+00 +0.0000000000e+00 1.3100000000e+02 1.3100000000e+02 0.0000e+00 0.0000e+00
       13  1    1    2    0    0 -7.8347908935e+00 +7.7497618081e+00 +3.7807955549e+01 3.9381409615e+01 1.0566000000e-01 0.0000e+00 1.0000e+00
      994  1    1    2    0    0 -3.0557196859e+00 -4.3438006965e+00 +1.9455088005e+00 1.3112204632e+02 1.3100000000e+02 0.0000e+00 0.0000e+00
      997  1    1    2    0    0 +1.0890510579e+01 -3.4059611116e+00 +4.6024652449e+02 4.6049654406e+02 1.0000000000e+01 0.0000e+00 0.0000e+00
</event>
<event>
 5      1 +4.4770400e-06 2.10824500e+02 7.95774700e-02 4.85110500e-01
       13 -1    0    0    0    0 +0.0000000000e+00 +0.0000000000e+00 +4.9999998884e+02 5.0000000000e+02 1.0566000000e-01 0.0000e+00 1.0000e+00
      994 -1    0    0    0    0 -0.0000000000e+00 -0.0000000000e+00 +0.0000000000e+00 1.3100000000e+02 1.3100000000e+02 0.0000e+00 0.0000e+00
       13  1    1    2    0    0 -1.4802427030e+01 -2.1584680829e+01 +8.8298294792e+01 9.2095658528e+01 1.0566000000e-01 0.0000e+00 -1.0000e+00
      994  1    1    2    0    0 +1.6251781902e+01 +2.4611919181e+01 +7.4187846631e+00 1.3448384790e+02 1.3100000000e+02 0.0000e+00 0.0000e+00
      997  1    1    2    0    0 -1.4493548717e+00 -3.0272383515e+00 +4.0428290938e+02 4.0442049357e+02 1.0000000000e+01 0.0000e+00 0.0000e+00
</event>
<event>
 5      1 +4.4770400e-06 2.13198800e+02 7.95774700e-02 4.81301300e-01
       13 -1    0    0    0    0 +0.0000000000e+00 +0.0000000000e+00 +4.9999998884e+02 5.0000000000e+02 1.0566000000e-01 0.0000e+00 -1.0000e+00
      994 -1    0    0    0    0 -0.0000000000e+00 -0.0000000000e+00 +0.0000000000e+00 1.3100000000e+02 1.3100000000e+02 0.0000e+00 0.0000e+00
       13  1    1    2    0    0 +1.0092612951e+01 -2.8238611233e-01 +3.9759315900e+01 4.1021396160e+01 1.0566000000e-01 0.0000e+00 1.0000e+00
      994  1    1    2    0    0 -1.3898274086e+01 -4.5915794535e+00 +2.2473088208e+00 1.3183434690e+02 1.3100000000e+02 0.0000e+00 0.0000e+00
      997  1    1    2    0    0 +3.8056611352e+00 +4.8739655658e+00 +4.5799336412e+02 4.5814425694e+02 1.0000000000e+01 0.0000e+00 0.0000e+00
</event>
<event>
 5      1 +4.4770400e-06 2.13028800e+02 7.95774700e-02 4.81570500e-01
       13 -1    0    0    0    0 +0.0000000000e+00 +0.0000000000e+00 +4.9999998884e+02 5.0000000000e+02 1.0566000000e-01 0.0000e+00 1.0000e+00
      994 -1    0    0    0    0 -0.0000000000e+00 -0.0000000000e+00 +0.0000000000e+00 1.3100000000e+02 1.3100000000e+02 0.0000e+00 0.0000e+00
       13  1    1    2    0    0 -9.6961884459e+00 -1.2575043249e+01 +8.1788671989e+01 8.3315939729e+01 1.0566000000e-01 0.0000e+00 -1.0000e+00
      994  1    1    2    0    0 +1.8558585308e+01 +8.9333819334e+00 +3.4115690096e+00 1.3265317638e+02 1.3100000000e+02 0.0000e+00 0.0000e+00
      997  1    1    2    0    0 -8.8623968626e+00 +3.6416613151e+00 +4.1479974784e+02 4.1503088389e+02 1.0000000000e+01 0.0000e+00 0.0000e+00
</event>
<event>
 5      1 +4.4770400e-06 2.03673200e+02 7.95774700e-02 4.97270500e-01
       13 -1    0    0    0    0 +0.0000000000e+00 +0.0000000000e+00 +4.9999998884e+02 5.0000000000e+02 1.0566000000e-01 0.0000e+00 1.0000e+00
      994 -1    0    0    0    0 -0.0000000000e+00 -0.0000000000e+00 +0.0000000000e+00 1.3100000000e+02 1.3100000000e+02 0.0000e+00 0.0000e+00
       13  1    1    2    0    0 -1.5984296880e+01 -8.2210150079e+00 +1.3330211873e+01 2.2378305279e+01 1.0566000000e-01 0.0000e+00 -1.0000e+00
      994  1    1    2    0    0 +2.3914553869e+01 +3.2204118450e+00 +1.1988226930e+01 1.3374226903e+02 1.3100000000e+02 0.0000e+00 0.0000e+00
      997  1    1    2    0    0 -7.9302569888e+00 +5.0006031629e+00 +4.7468155003e+02 4.7487942570e+02 1.0000000000e+01 0.0000e+00 0.0000e+00
</event>
<event>
 5      1 +4.4770400e-06 2.13428100e+02 7.95774700e-02 4.80939100e-01
       13 -1    0    0    0    0 +0.0000000000e+00 +0.0000000000e+00 +4.9999998884e+02 5.0000000000e+02 1.0566000000e-01 0.0000e+00 -1.0000e+00
      994 -1    0    0    0    0 -0.0000000000e+00 -0.0000000000e+00 +0.0000000000e+00 1.3100000000e+02 1.3100000000e+02 0.0000e+00 0.0000e+00
       13  1    1    2    0    0 -5.9239334410e+00 -1.4150108557e+01 +8.9765721508e+01 9.1067087806e+01 1.0566000000e-01 0.0000e+00 1.0000e+00
      994  1    1    2    0    0 +1.1039028026e+01 +1.8130212521e+01 +3.2234809869e+00 1.3274771401e+02 1.3100000000e+02 0.0000e+00 0.0000e+00
      997  1    1    2    0    0 -5.1150945854e+00 -3.9801039633e+00 +4.0701078634e+02 4.0718519818e+02 1.0000000000e+01 0.0000e+00 0.0000e+00
</event>
<event>
 5      1 +4.4770400e-06 2.12125600e+02 7.95774700e-02 4.83009800e-01
       13 -1    0    0    0    0 +0.0000000000e+00 +0.0000000000e+00 +4.9999998884e+02 5.0000000000e+02 1.0566000000e-01 0.0000e+00 1.0000e+00
      994 -1    0    0    0    0 -0.0000000000e+00 -0.0000000000e+00 +0.0000000000e+00 1.3100000000e+02 1.3100000000e+02 0.0000e+00 0.0000e+00
       13  1    1    2    0    0 +6.7005487125e+00 -1.0805395632e+01 +4.2832838608e+01 4.4680165119e+01 1.0566000000e-01 0.0000e+00 -1.0000e+00
      994  1    1    2    0    0 -3.8158138493e+00 +2.3343206965e+00 +2.1389518537e+00 1.3109380078e+02 1.3100000000e+02 0.0000e+00 0.0000e+00
      997  1    1    2    0    0 -2.8847348632e+00 +8.4710749351e+00 +4.5502819837e+02 4.5522603410e+02 1.0000000000e+01 0.0000e+00 0.0000e+00
</event>
<event>
 5      1 +4.4770400e-06 2.05114300e+02 7.95774700e-02 4.94732800e-01
       13 -1    0    0    0    0 +0.0000000000e+00 +0.0000000000e+00 +4.9999998884e+02 5.0000000000e+02 1.0566000000e-01 0.0000e+00 1.0000e+00
      994 -1    0    0    0    0 -0.0000000000e+00 -0.0000000000e+00 +0.0000000000e+00 1.3100000000e+02 1.3100000000e+02 0.0000e+00 0.0000e+00
       13  1    1    2    0    0 -4.2671719526e+01 +2.0656436755e+01 +1.1907252174e+02 1.2816333573e+02 1.0566000000e-01 0.0000e+00 -1.0000e+00
      994  1    1    2    0    0 +3.5009722734e+01 -2.1069945253e+01 +1.6524847288e+01 1.3821611287e+02 1.3100000000e+02 0.0000e+00 0.0000e+00
      997  1    1    2    0    0 +7.6619967917e+00 +4.1350849800e-01 +3.6440261981e+02 3.6462055140e+02 1.0000000000e+01 0.0000e+00 0.0000e+00
</event>
<event>
 5      1 +4.4770400e-06 2.09589300e+02 7.95774700e-02 4.87135400e-01
       13 -1    0    0    0    0 +0.0000000000e+00 +0.0000000000e+00 +4.9999998884e+02 5.0000000000e+02 1.0566000000e-01 0.0000e+00 -1.0000e+00
      994 -1    0    0    0    0 -0.0000000000e+00 -0.0000000000e+00 +0.0000000000e+00 1.3100000000e+02 1.3100000000e+02 0.0000e+00 0.0000e+00
       13  1    1    2    0    0 -9.3622163604e+00 +1.8358951674e+01 +3.9668098759e+01 4.4702029315e+01 1.0566000000e-01 0.0000e+00 1.0000e+00
      994  1    1    2    0    0 +2.5111564894e+00 -4.0916748980e+01 +1.2607773853e+01 1.3784209160e+02 1.3100000000e+02 0.0000e+00 0.0000e+00
      997  1    1    2    0    0 +6.8510598710e+00 +2.2557797306e+01 +4.4772411622e+02 4.4845587909e+02 1.0000000000e+01 0.0000e+00 0.0000e+00
</event>
<event>
 5      1 +4.4770400e-06 2.13039100e+02 7.95774700e-02 4.81554100e-01
       13 -1    0    0    0    0 +0.0000000000e+00 +0.0000000000e+00 +4.9999998884e+02 5.0000000000e+02 1.0566000000e-01 0.0000e+00 1.0000e+00
      994 -1    0    0    0    0 -0.0000000000e+00 -0.0000000000e+00 +0.0000000000e+00 1.3100000000e+02 1.3100000000e+02 0.0000e+00 0.0000e+00
       13  1    1    2    0    0 +1.3647380988e+01 -4.2095108782e+00 +8.4928659170e+01 8.6121189623e+01 1.0566000000e-01 0.0000e+00 -1.0000e+00
      994  1    1    2    0    0 -4.9946634421e+00 +9.8236239881e+00 +1.9189538298e+00 1.3147673800e+02 1.3100000000e+02 0.0000e+00 0.0000e+00
      997  1    1    2    0    0 -8.6527175456e+00 -5.6141131099e+00 +4.1315237584e+02 4.1340207238e+02 1.0000000000e+01 0.0000e+00 0.0000e+00
</event>
<event>
 5      1 +4.4770400e-06 2.10302200e+02 7.95774700e-02 4.85963100e-01
       13 -1    0    0    0    0 +0.0000000000e+00 +0.0000000000e+00 +4.9999998884e+02 5.0000000000e+02 1.0566000000e-01 0.0000e+00 -1.0000e+00
      994 -1    0    0    0    0 -0.0000000000e+00 -0.0000000000e+00 +0.0000000000e+00 1.3100000000e+02 1.3100000000e+02 0.0000e+00 0.0000e+00
       13  1    1    2    0    0 -2.2406752275e+01 -1.4843127711e+01 +9.7653127372e+01 1.0128437904e+02 1.0566000000e-01 0.0000e+00 1.0000e+00
      994  1    1    2    0    0 +2.7157119223e+01 -3.6430893183e+00 +7.2494909044e+00 1.3403110215e+02 1.3100000000e+02 0.0000e+00 0.0000e+00
      997  1    1    2    0    0 -4.7503669475e+00 +1.8486217029e+01 +3.9509737056e+02 3.9568451881e+02 1.0000000000e+01 0.0000e+00 0.0000e+00
</event>
<event>
 5      1 +4.4770400e-06 2.01738000e+02 7.95774700e-02 5.00752200e-01
       13 -1    0    0    0    0 +0.0000000000e+00 +0.0000000000e+00 +4.9999998884e+02 5.0000000000e+02 1.0566000000e-01 0.0000e+00 -1.0000e+00
      994 -1    0    0    0    0 -0.0000000000e+00 -0.0000000000e+00 +0.0000000000e+00 1.3100000000e+02 1.3100000000e+02 0.0000e+00 0.0000e+00
       13  1    1    2    0    0 -7.3794156510e+01 +4.9812896823e+00 +1.4994826712e+02 1.6719714339e+02 1.0566000000e-01 0.0000e+00 1.0000e+00
      994  1    1    2    0    0 +7.7906694361e+01 -3.5911851309e+01 +5.3544306630e+01 1.6549050385e+02 1.3100000000e+02 0.0000e+00 0.0000e+00
      997  1    1    2    0    0 -4.1125378506e+00 +3.0930561626e+01 +2.9650741508e+02 2.9831235276e+02 1.0000000000e+01 0.0000e+00 0.0000e+00
</event>
<event>
 5      1 +4.4770400e-06 2.08295500e+02 7.95774700e-02 4.89289300e-01
       13 -1    0    0    0    0 +0.0000000000e+00 +0.0000000000e+00 +4.9999998884e+02 5.0000000000e+02 1.0566000000e-01 0.0000e+00 -1.0000e+00
      994 -1    0    0    0    0 -0.0000000000e+00 -0.0000000000e+00 +0.0000000000e+00 1.3100000000e+02 1.3100000000e+02 0.0000e+00 0.0000e+00
       13  1    1    2    0    0 +7.2377235169e+00 +1.1172766347e+01 +1.6777688130e+01 2.1417687377e+01 1.0566000000e-01 0.0000e+00 1.0000e+00
      994  1    1    2    0    0 -4.1261153052e+00 +5.4713986150e+00 +5.3318498316e+00 1.3128743144e+02 1.3100000000e+02 0.0000e+00 0.0000e+00
      997  1    1    2    0    0 -3.1116082117e+00 -1.6644164962e+01 +4.7789045087e+02 4.7829488119e+02 1.0000000000e+01 0.0000e+00 0.0000e+00
</event>
<event>
 5      1 +4.4770400e-06 2.13314100e+02 7.95774700e-02 4.81118900e-01
       13 -1    0    0    0    0 +0.0000000000e+00 +0.0000000000e+00 +4.9999998884e+02 5.0000000000e+02 1.0566000000e-01 0.0000e+00 -1.0000e+00
      994 -1    0    0    0    0 -0.0000000000e+00 -0.0000000000e+00 +0.0000000000e+00 1.3100000000e+02 1.3100000000e+02 0.0000e+00 0.0000e+00
       13  1    1    2    0    0 -2.2434658333e+00 +1.1553075110e+01 +5.9819052346e+01 6.0965866442e+01 1.0566000000e-01 0.0000e+00 1.0000e+00
      994  1    1    2    0    0 +7.3147781034e+00 -1.1302555174e+01 +1.9954119475e+00 1.3170510773e+02 1.3100000000e+02 0.0000e+00 0.0000e+00
      997  1    1    2    0    0 -5.0713122701e+00 -2.5051993629e-01 +4.3818552454e+02 4.3832902583e+02 1.0000000000e+01 0.0000e+00 0.0000e+00
</event>
<event>
 5      1 +4.4770400e-06 2.09006300e+02 7.95774700e-02 4.88101800e-01
       13 -1    0    0    0    0 +0.0000000000e+00 +0.0000000000e+00 +4.9999998884e+02 5.0000000000e+02 1.0566000000e-01 0.0000e+00 1.0000e+00
      994 -1    0    0    0    0 -0.0000000000e+00 -0.0000000000e+00 +0.0000000000e+00 1.3100000000e+02 1.3100000000e+02 0.0000e+00 0.0000e+00
       13  1    1    2    0    0 -3.0695140407e+01 -3.5404242776e+01 +2.1650509997e+02 2.2151776797e+02 1.0566000000e-01 0.0000e+00 -1.0000e+00
      994  1    1    2    0    0 -3.0762850529e+00 +6.6983614185e+01 +2.8199984430e+01 1.4984160711e+02 1.3100000000e+02 0.0000e+00 0.0000e+00
      997  1    1    2    0    0 +3.3771425460e+01 -3.1579371409e+01 +2.5529490444e+02 2.5964062492e+02 1.0000000000e+01 0.0000e+00 0.0000e+00
</event>
<event>
 5      1 +4.4770400e-06 2.11599000e+02 7.95774700e-02 4.83856100e-01
       13 -1    0    0    0    0 +0.0000000000e+00 +0.0000000000e+00 +4.9999998884e+02 5.0000000000e+02 1.0566000000e-01 0.0000e+00 1.0000e+00
      994 -1    0    0    0    0 -0.0000000000e+00 -0.0000000000e+00 +0.0000000000e+00 1.3100000000e+02 1.3100000000e+02 0.0000e+00 0.0000e+00
       13  1    1    2    0    0 -1.8840130785e+01 +1.2669994194e+01 +7.2980277246e+01 7.6430434460e+01 1.0566000000e-01 0.0000e+00 -1.0000e+00
      994  1    1    2    0    0 +3.3834628935e+01 -1.4718572694e+01 +9.2551863605e+00 1.3641142537e+02 1.3100000000e+02 0.0000e+00 0.0000e+00
      997  1    1    2    0    0 -1.4994498150e+01 +2.0485785006e+00 +4.1776452523e+02 4.1815814017e+02 1.0000000000e+01 0.0000e+00 0.0000e+00
</event>
<event>
 5      1 +4.4770400e-06 2.12677700e+02 7.95774700e-02 4.82128200e-01
       13 -1    0    0    0    0 +0.0000000000e+00 +0.0000000000e+00 +4.9999998884e+02 5.0000000000e+02 1.0566000000e-01 0.0000e+00 -1.0000e+00
      994 -1    0    0    0    0 -0.0000000000e+00 -0.0000000000e+00 +0.0000000000e+00 1.3100000000e+02 1.3100000000e+02 0.0000e+00 0.0000e+00
       13  1    1    2    0    0 +9.9687055740e+00 -9.3432787201e+00 +6.9483126806e+01 7.0813755887e+01 1.0566000000e-01 0.0000e+00 1.0000e+00
      994  1    1    2    0    0 -1.4457615880e+01 -1.0174847093e+01 +3.1413554962e+00 1.3222487771e+02 1.3100000000e+02 0.0000e+00 0.0000e+00
      997  1    1    2    0    0 +4.4889103057e+00 +1.9518125813e+01 +4.2737550653e+02 4.2796136641e+02 1.0000000000e+01 0.0000e+00 0.0000e+00
</event>
<event>
 5      1 +4.4770400e-06 2.12927700e+02 7.95774700e-02 4.81730800e-01
       13 -1    0    0    0    0 +0.0000000000e+00 +0.0000000000e+00 +4.9999998884e+02 5.0000000000e+02 1.0566000000e-01 0.0000e+00 1.0000e+00
      994 -1    0    0    0    0 -0.0000000000e+00 -0.0000000000e+00 +0.0000000000e+00 1.3100000000e+02 1.3100000000e+02 0.0000e+00 0.0000e+00
       13  1    1    2    0    0 -1.1645632914e+01 -2.1500178903e-01 +4.1760867784e+01 4.3354910147e+01 1.0566000000e-01 0.0000e+00 -1.0000e+00
      994  1    1    2    0    0 +1.8640435429e+01 +7.2045200090e+00 +3.3697713125e+00 1.3255838827e+02 1.3100000000e+02 0.0000e+00 0.0000e+00
      997  1    1    2    0    0 -6.9948025154e+00 -6.9895182200e+00 +4.5486934974e+02 4.5508670158e+02 1.0000000000e+01 0.0000e+00 0.0000e+00
</event>
<event>
 5      1 +4.4770400e-06 2.13610700e+02 7.95774700e-02 4.80651300e-01
       13 -1    0    0    0    0 +0.0000000000e+00 +0.0000000000e+00 +4.9999998884e+02 5.0000000000e+02 1.0566000000e-01 0.0000e+00 1.0000e+00
      994 -1    0    0    0    0 -0.0000000000e+00 -0.0000000000e+00 +0.0000000000e+00 1.3100000000e+02 1.3100000000e+02 0.0000e+00 0.0000e+00
       13  1    1    2    0    0 -3.4413802914e+00 +1.2419577598e+01 +7.0758181386e+01 7.1922322009e+01 1.0566000000e-01 0.0000e+00 -1.0000e+00
      994  1    1    2    0    0 +9.5465274959e+00 -2.0754482989e+01 +3.4280093424e+00 1.3302118628e+02 1.3100000000e+02 0.0000e+00 0.0000e+00
      997  1    1    2    0    0 -6.1051472045e+00 +8.3349053911e+00 +4.2581379811e+02 4.2605649171e+02 1.0000000000e+01 0.0000e+00 0.0000e+00
</event>
<event>
 5      1 +4.4770400e-06 2.12997400e+02 7.95774700e-02 4.81620200e-01
       13 -1    0    0    0    0 +0.0000000000e+00 +0.0000000000e+00 +4.9999998884e+02 5.0000000000e+02 1.0566000000e-01 0.0000e+00 -1.0000e+00
      994 -1    0    0    0    0 -0.0000000000e+00 -0.0000000000e+00 +0.0000000000e+00 1.3100000000e+02 1.3100000000e+02 0.0000e+00 0.0000e+00
       13  1    1    2    0    0 -2.5176090593e+01 -1.2214492164e+01 +1.4846235793e+02 1.5107651122e+02 1.0566000000e-01 0.0000e+00 1.0000e+00
      994  1    1    2    0    0 +4.2324208991e+01 +6.4625703846e+00 +1.0454797618e+01 1.3821507254e+02 1.3100000000e+02 0.0000e+00 0.0000e+00
      997  1    1    2    0    0 -1.7148118397e+01 +5.7519217795e+00 +3.4108283329e+02 3.4170841624e+02 1.0000000000e+01 0.0000e+00 0.0000e+00
</event>
<event>
 5      1 +4.4770400e-06 2.10983900e+02 7.95774700e-02 4.84851400e-01
       13 -1    0    0    0    0 +0.0000000000e+00 +0.0000000000e+00 +4.9999998884e+02 5.0000000000e+02 1.0566000000e-01 0.0000e+00 -1.0000e+00
      994 -1    0    0    0    0 -0.0000000000e+00 -0.0000000000e+00 +0.0000000000e+00 1.3100000000e+02 1.3100000000e+02 0.0000e+00 0.0000e+00
       13  1    1    2    0    0 +2.2668932112e+01 +2.3364672769e+00 +1.2465498269e+02 1.2672101419e+02 1.0566000000e-01 0.0000e+00 1.0000e+00
      994  1    1    2    0    0 -1.1205029780e-01 +2.5760879375e+00 +2.9740626406e+00 1.3105912342e+02 1.3100000000e+02 0.0000e+00 0.0000e+00
      997  1    1    2    0    0 -2.2556881814e+01 -4.9125552145e+00 +3.7237094350e+02 3.7321986239e+02 1.0000000000e+01 0.0000e+00 0.0000e+00
</event>
<event>
 5      1 +4.4770400e-06 2.10321800e+02 7.95774700e-02 4.85931000e-01
       13 -1    0    0    0    0 +0.0000000000e+00 +0.0000000000e+00 +4.9999998884e+02 5.0000000000e+02 1.0566000000e-01 0.0000e+00 1.0000e+00
      994 -1    0    0    0    0 -0.0000000000e+00 -0.0000000000e+00 +0.0000000000e+00 1.3100000000e+02 1.3100000000e+02 0.0000e+00 0.0000e+00
       13  1    1    2    0    0 -4.9569584041e+00 +8.9271562188e+00 +1.4496387911e+01 1.7731948040e+01 1.0566000000e-01 0.0000e+00 -1.0000e+00
      994  1    1    2    0    0 -9.6914120513e-01 -1.9535611354e+00 +3.4907625012e+00 1.3106464458e+02 1.3100000000e+02 0.0000e+00 0.0000e+00
      997  1    1    2    0    0 +5.9260996092e+00 -6.9735950834e+00 +4.8201283842e+02 4.8220340738e+02 1.0000000000e+01 0.0000e+00 0.0000e+00
</event>
<event>
 5      1 +4.4770400e-06 1.93357000e+02 7.95774700e-02 5.16889200e-01
       13 -1    0    0    0    0 +0.0000000000e+00 +0.0000000000e+00 +4.9999998884e+02 5.0000000000e+02 1.0566000000e-01 0.0000e+00 -1.0000e+00
      994 -1    0    0    0    0 -0.0000000000e+00 -0.0000000000e+00 +0.0000000000e+00 1.3100000000e+02 1.3100000000e+02 0.0000e+00 0.0000e+00
       13  1    1    2    0    0 +1.1323396491e+01 +2.8170695365e+01 +1.6520498219e+01 3.4565089482e+01 1.0566000000e-01 0.0000e+00 1.0000e+00
      994  1    1    2    0    0 -7.2903463758e+00 -3.3248248348e+01 +2.4803145519e+01 1.3760374703e+02 1.3100000000e+02 0.0000e+00 0.0000e+00
      997  1    1    2    0    0 -4.0330501152e+00 +5.0775529828e+00 +4.5867634510e+02 4.5883116349e+02 1.0000000000e+01 0.0000e+00 0.0000e+00
</event>
<event>
 5      1 +4.4770400e-06 2.11714800e+02 7.95774700e-02 4.83669500e-01
       13 -1    0    0    0    0 +0.0000000000e+00 +0.0000000000e+00 +4.9999998884e+02 5.0000000000e+02 1.0566000000e-01 0.0000e+00 -1.0000e+00
      994 -1    0    0    0    0 -0.0000000000e+00 -0.0000000000e+00 +0.0000000000e+00 1.3100000000e+02 1.3100000000e+02 0.0000e+00 0.0000e+00
       13  1    1    2    0    0 +1.5144931586e+01 -2.2881274979e+00 +5.5025536564e+01 5.7117644545e+01 1.0566000000e-01 0.0000e+00 1.0000e+00
      994  1    1    2    0    0 -2.3184789076e+00 +1.3047385265e+01 +3.2305011577e+00 1.3170818404e+02 1.3100000000e+02 0.0000e+00 0.0000e+00
      997  1    1    2    0    0 -1.2826452679e+01 -1.0759257767e+01 +4.4174395111e+02 4.4217417141e+02 1.0000000000e+01 0.0000e+00 0.0000e+00
</event>
<event>
 5      1 +4.4770400e-06 2.12989800e+02 7.95774700e-02 4.81632300e-01
       13 -1    0    0    0    0 +0.0000000000e+00 +0.0000000000e+00 +4.9999998884e+02 5.0000000000e+02 1.0566000000e-01 0.0000e+00 -1.0000e+00
      994 -1    0    0    0    0 -0.0000000000e+00 -0.0000000000e+00 +0.0000000000e+00 1.3100000000e+02 1.3100000000e+02 0.0000e+00 0.0000e+00
       13  1    1    2    0    0 +2.6240824897e+00 -1.6109917575e+01 +7.6691923026e+01 7.8409677174e+01 1.0566000000e-01 0.0000e+00 1.0000e+00
      994  1    1    2    0    0 +7.8208418896e+00 +2.5171278226e+01 +4.7762624511e+00 1.3371077555e+02 1.3100000000e+02 0.0000e+00 0.0000e+00
      997  1    1    2    0    0 -1.0444924379e+01 -9.0613606508e+00 +4.1853180336e+02 4.1887954728e+02 1.0000000000e+01 0.0000e+00 0.0000e+00
</event>
<event>
 5      1 +4.4770400e-06 2.11241500e+02 7.95774700e-02 4.84433800e-01
       13 -1    0    0    0    0 +0.0000000000e+00 +0.0000000000e+00 +4.9999998884e+02 5.0000000000e+02 1.0566000000e-01 0.0000e+00 -1.0000e+00
      994 -1    0    0    0    0 -0.0000000000e+00 -0.0000000000e+00 +0.0000000000e+00 1.3100000000e+02 1.3100000000e+02 0.0000e+00 0.0000e+00
       13  1    1    2    0    0 -5.8947450815e+00 +1.6281550521e+01 +4.3282566059e+01 4.6617899949e+01 1.0566000000e-01 0.0000e+00 1.0000e+00
      994  1    1    2    0    0 +2.0328560928e+00 -3.0863212495e+01 +7.5110488009e+00 1.3481129865e+02 1.3100000000e+02 0.0000e+00 0.0000e+00
      997  1    1    2    0    0 +3.8618889887e+00 +1.4581661975e+01 +4.4920637398e+02 4.4957080140e+02 1.0000000000e+01 0.0000e+00 0.0000e+00
</event>
<event>
 5      1 +4.4770400e-06 2.13329800e+02 7.95774700e-02 4.81094200e-01
       13 -1    0    0    0    0 +0.0000000000e+00 +0.0000000000e+00 +4.9999998884e+02 5.0000000000e+02 1.0566000000e-01 0.0000e+00 -1.0000e+00
      994 -1    0    0    0    0 -0.0000000000e+00 -0.0000000000e+00 +0.0000000000e+00 1.3100000000e+02 1.3100000000e+02 0.0000e+00 0.0000e+00
       13  1    1    2    0    0 -7.4288738851e+00 -9.6448200387e+00 +5.6170016005e+01 5.7474277575e+01 1.0566000000e-01 0.0000e+00 1.0000e+00
      994  1    1    2    0    0 +1.2495997939e+01 +1.4892722561e+01 +2.9454006305e+00 1.3246742443e+02 1.3100000000e+02 0.0000e+00 0.0000e+00
      997  1    1    2    0    0 -5.0671240541e+00 -5.2479025225e+00 +4.4088457220e+02 4.4105829800e+02 1.0000000000e+01 0.0000e+00 0.0000e+00
</event>
<event>
 5      1 +4.4770400e-06 2.13066100e+02 7.95774700e-02 4.81511400e-01
       13 -1    0    0    0    0 +0.0000000000e+00 +0.0000000000e+00 +4.9999998884e+02 5.0000000000e+02 1.0566000000e-01 0.0000e+00 -1.0000e+00
      994 -1    0    0    0    0 -0.0000000000e+00 -0.0000000000e+00 +0.0000000000e+00 1.3100000000e+02 1.3100000000e+02 0.0000e+00 0.0000e+00
       13  1    1    2    0    0 -8.8151282312e+00 +6.6828978160e+00 +6.2450953573e+01 6.3423184839e+01 1.0566000000e-01 0.0000e+00 1.0000e+00
      994  1    1    2    0    0 -8.5264934538e-02 +4.3712139459e+00 +1.3980099377e+00 1.3108039218e+02 1.3100000000e+02 0.0000e+00 0.0000e+00
      997  1    1    2    0    0 +8.9003931657e+00 -1.1054111762e+01 +4.3615102533e+02 4.3649642298e+02 1.0000000000e+01 0.0000e+00 0.0000e+00
</event>
<event>
 5      1 +4.4770400e-06 2.12200600e+02 7.95774700e-02 4.82889600e-01
       13 -1    0    0    0    0 +0.0000000000e+00 +0.0000000000e+00 +4.9999998884e+02 5.0000000000e+02 1.0566000000e-01 0.0000e+00 1.0000e+00
      994 -1    0    0    0    0 -0.0000000000e+00 -0.0000000000e+00 +0.0000000000e+00 1.3100000000e+02 1.3100000000e+02 0.0000e+00 0.0000e+00
       13  1    1    2    0    0 +1.0646554428e+01 -3.4491389536e+00 +3.0975613135e+01 3.2935474095e+01 1.0566000000e-01 0.0000e+00 -1.0000e+00
      994  1    1    2    0    0 -1.0508670997e+01 +5.0598869641e-02 +2.5244906605e+00 1.3144507514e+02 1.3100000000e+02 0.0000e+00 0.0000e+00
      997  1    1    2    0    0 -1.3788343113e-01 +3.3985400840e+00 +4.6649988504e+02 4.6661945076e+02 1.0000000000e+01 0.0000e+00 0.0000e+00
</event>
<event>
 5      1 +4.4770400e-06 2.04446000e+02 7.95774700e-02 4.95903900e-01
       13 -1    0    0    0    0 +0.0000000000e+00 +0.0000000000e+00 +4.9999998884e+02 5.0000000000e+02 1.0566000000e-01 0.0000e+00 1.0000e+00
      994 -1    0    0    0    0 -0.0000000000e+00 -0.0000000000e+00 +0.0000000000e+00 1.3100000000e+02 1.3100000000e+02 0.0000e+00 0.0000e+00
       13  1    1    2    0    0 -3.7199484924e+00 -3.9421505119e+01 +6.8338221891e+01 7.8981116844e+01 1.0566000000e-01 0.0000e+00 -1.0000e+00
      994  1    1    2    0    0 -1.7682536433e+00 +5.1709318697e+01 +2.2642059836e+01 1.4265568070e+02 1.3100000000e+02 0.0000e+00 0.0000e+00
      997  1    1    2    0    0 +5.4882021356e+00 -1.2287813577e+01 +4.0901970711e+02 4.0936320246e+02 1.0000000000e+01 0.0000e+00 0.0000e+00
</event>
<event>
 5      1 +4.4770400e-06 2.10430500e+02 7.95774700e-02 4.85753300e-01
       13 -1    0    0    0    0 +0.0000000000e+00 +0.0000000000e+00 +4.9999998884e+02 5.0000000000e+02 1.0566000000e-01 0.0000e+00 1.0000e+00
      994 -1    0    0    0    0 -0.0000000000e+00 -0.0000000000e+00 +0.0000000000e+00 1.3100000000e+02 1.3100000000e+02 0.0000e+00 0.0000e+00
       13  1    1    2    0    0 +1.4854930508e+01 -1.5394992340e+01 +6.6247698516e+01 6.9616402322e+01 1.0566000000e-01 0.0000e+00 -1.0000e+00
      994  1    1    2    0    0 -4.4581373140e+00 +1.5648668070e+01 +4.7015527909e+00 1.3209034938e+02 1.3100000000e+02 0.0000e+00 0.0000e+00
      997  1    1    2    0    0 -1.0396793194e+01 -2.5367573049e-01 +4.2905073753e+02 4.2929324830e+02 1.0000000000e+01 0.0000e+00 0.0000e+00
</event>
<event>
 5      1 +4.4770400e-06 2.11274100e+02 7.95774700e-02 4.84380900e-01
       13 -1    0    0    0    0 +0.0000000000e+00 +0.0000000000e+00 +4.9999998884e+02 5.0000000000e+02 1.0566000000e-01 0.0000e+00 -1.0000e+00
      994 -1    0    0    0    0 -0.0000000000e+00 -0.0000000000e+00 +0.0000000000e+00 1.3100000000e+02 1.3100000000e+02 0.0000e+00 0.0000e+00
       13  1    1    2    0    0 +9.0956276948e+00 -1.0947624160e+01 +3.9390222137e+01 4.1882952164e+01 1.0566000000e-01 0.0000e+00 1.0000e+00
      994  1    1    2    0    0 +1.3987765008e+00 +7.1533389662e+00 +2.9742934988e+00 1.3123632598e+02 1.3100000000e+02 0.0000e+00 0.0000e+00
      997  1    1    2    0    0 -1.0494404196e+01 +3.7942851935e+00 +4.5763547320e+02 4.5788072186e+02 1.0000000000e+01 0.0000e+00 0.0000e+00
</event>
<event>
 5      1 +4.4770400e-06 2.09898700e+02 7.95774700e-02 4.86625500e-01
       13 -1    0    0    0    0 +0.0000000000e+00 +0.0000000000e+00 +4.9999998884e+02 5.0000000000e+02 1.0566000000e-01 0.0000e+00 -1.0000e+00
      994 -1    0    0    0    0 -0.0000000000e+00 -0.0000000000e+00 +0.0000000000e+00 1.3100000000e+02 1.3100000000e+02 0.0000e+00 0.0000e+00
       13  1    1    2    0    0 +5.5510581501e-01 -1.8676652221e+01 +4.9551973609e+01 5.2957858087e+01 1.0566000000e-01 0.0000e+00 1.0000e+00
      994  1    1    2    0    0 +1.1736925442e+00 +3.8740414547e+00 +3.8865178645e+00 1.3112013870e+02 1.3100000000e+02 0.0000e+00 0.0000e+00
      997  1    1    2    0    0 -1.7287983593e+00 +1.4802610767e+01 +4.4656149736e+02 4.4692200321e+02 1.0000000000e+01 0.0000e+00 0.0000e+00
</event>
<event>
 5      1 +4.4770400e-06 2.12241200e+02 7.95774700e-02 4.82824800e-01
       13 -1    0    0    0    0 +0.0000000000e+00 +0.0000000000e+00 +4.9999998884e+02 5.0000000000e+02 1.0566000000e-01 0.0000e+00 -1.0000e+00
      994 -1    0    0    0    0 -0.0000000000e+00 -0.0000000000e+00 +0.0000000000e+00 1.3100000000e+02 1.3100000000e+02 0.0000e+00 0.0000e+00
       13  1    1    2    0    0 -4.1184619306e+01 -2.7357101623e+01 +2.4647410909e+02 2.5138433025e+02 1.0566000000e-01 0.0000e+00 1.0000e+00
      994  1    1    2    0    0 +4.5280518943e+01 +3.2900591830e+01 +1.7784970593e+01 1.4356211031e+02 1.3100000000e+02 0.0000e+00 0.0000e+00
      997  1    1    2    0    0 -4.0958996366e+00 -5.5434902074e+00 +2.3574090915e+02 2.3605355944e+02 1.0000000000e+01 0.0000e+00 0.0000e+00
</event>
<event>
 5      1 +4.4770400e-06 2.05841100e+02 7.95774700e-02 4.93470000e-01
       13 -1    0    0    0    0 +0.0000000000e+00 +0.0000000000e+00 +4.9999998884e+02 5.0000000000e+02 1.0566000000e-01 0.0000e+00 1.0000e+00
      994 -1    0    0    0    0 -0.0000000000e+00 -0.0000000000e+00 +0.0000000000e+00 1.3100000000e+02 1.3100000000e+02 0.0000e+00 0.0000e+00
       13  1    1    2    0    0 +5.5808338791e+00 +1.0225899935e+01 +6.9895053189e+00 1.3585988551e+01 1.0566000000e-01 0.0000e+00 -1.0000e+00
      994  1    1    2    0    0 -5.3875067681e+00 +6.4000956082e+00 +7.4628030335e+00 1.3147881914e+02 1.3100000000e+02 0.0000e+00 0.0000e+00
      997  1    1    2    0    0 -1.9332711093e-01 -1.6625995543e+01 +4.8554768048e+02 4.8593519231e+02 1.0000000000e+01 0.0000e+00 0.0000e+00
</event>
<event>
 5      1 +4.4770400e-06 2.10303500e+02 7.95774700e-02 4.85960900e-01
       13 -1    0    0    0    0 +0.0000000000e+00 +0.0000000000e+00 +4.9999998884e+02 5.0000000000e+02 1.0566000000e-01 0.0000e+00 1.0000e+00
      994 -1    0    0    0    0 -0.0000000000e+00 -0.0000000000e+00 +0.0000000000e+00 1.3100000000e+02 1.3100000000e+02 0.0000e+00 0.0000e+00
       13  1    1    2    0    0 +1.3504437330e+01 -2.1823809192e+01 +8.1901978183e+01 8.5828862684e+01 1.0566000000e-01 0.0000e+00 -1.0000e+00
      994  1    1    2    0    0 -2.5278636369e+01 +1.3714802414e+01 +7.6343379577e+00 1.3433684669e+02 1.3100000000e+02 0.0000e+00 0.0000e+00
      997  1    1    2    0    0 +1.1774199040e+01 +8.1090067779e+00 +4.1046367270e+02 4.1083429063e+02 1.0000000000e+01 0.0000e+00 0.0000e+00
</event>
<event>
 5      1 +4.4770400e-06 2.07842700e+02 7.95774700e-02 4.90051100e-01
       13 -1    0    0    0    0 +0.0000000000e+00 +0.0000000000e+00 +4.9999998884e+02 5.0000000000e+02 1.0566000000e-01 0.0000e+00 1.0000e+00
      994 -1    0    0    0    0 -0.0000000000e+00 -0.0000000000e+00 +0.0000000000e+00 1.3100000000e+02 1.3100000000e+02 0.0000e+00 0.0000e+00
       13  1    1    2    0    0 -9.3292999232e+00 +9.4652687995e+00 +1.4661865034e+01 1.9789103083e+01 1.0566000000e-01 0.0000e+00 -1.0000e+00
      994  1    1    2    0    0 +4.0259868666e+00 +5.3419759482e-01 +5.5450781447e+00 1.3118018840e+02 1.3100000000e+02 0.0000e+00 0.0000e+00
      997  1    1    2    0    0 +5.3033130567e+00 -9.9994663943e+00 +4.7979304566e+02 4.8003070852e+02 1.0000000000e+01 0.0000e+00 0.0000e+00
</event>
<event>
 5      1 +4.4770400e-06 2.11344900e+02 7.95774700e-02 4.84266400e-01
       13 -1    0    0    0    0 +0.0000000000e+00 +0.0000000000e+00 +4.9999998884e+02 5.0000000000e+02 1.0566000000e-01 0.0000e+00 -1.0000e+00
      994 -1    0    0    0    0 -0.0000000000e+00 -0.0000000000e+00 +0.0000000000e+00 1.3100000000e+02 1.3100000000e+02 0.0000e+00 0.0000e+00
       13  1    1    2    0    0 -1.0350658007e+01 -1.4522886518e+01 +5.4752513057e+01 5.7583844992e+01 1.0566000000e-01 0.0000e+00 1.0000e+00
      994  1    1    2    0    0 +8.5701899924e+00 +1.5430894616e+01 +4.1997131502e+00 1.3225051325e+02 1.3100000000e+02 0.0000e+00 0.0000e+00
      997  1    1    2    0    0 +1.7804680143e+00 -9.0800809797e-01 +4.4104776263e+02 4.4116564175e+02 1.0000000000e+01 0.0000e+00 0.0000e+00
</event>
<event>
 5      1 +4.4770400e-06 2.13172700e+02 7.95774700e-02 4.81342600e-01
       13 -1    0    0    0    0 +0.0000000000e+00 +0.0000000000e+00 +4.9999998884e+02 5.0000000000e+02 1.0566000000e-01 0.0000e+00 -1.0000e+00
      994 -1    0    0    0    0 -0.0000000000e+00 -0.0000000000e+00 +0.0000000000e+00 1.3100000000e+02 1.3100000000e+02 0.0000e+00 0.0000e+00
       13  1    1    2    0    0 +1.3043991055e+01 -8.7003340287e+00 +6.6170787716e+01 6.8003131000e+01 1.0566000000e-01 0.0000e+00 1.0000e+00
      994  1    1    2    0    0 -2.1205367403e+01 +2.6849860902e+01 +6.9873174766e+00 1.3557435319e+02 1.3100000000e+02 0.0000e+00 0.0000e+00
      997  1    1    2    0    0 +8.1613763483e+00 -1.8149526873e+01 +4.2684188364e+02 4.2742251581e+02 1.0000000000e+01 0.0000e+00 0.0000e+00
</event>
<event>
 5      1 +4.4770400e-06 1.93238000e+02 7.95774700e-02 5.17131700e-01
       13 -1    0    0    0    0 +0.0000000000e+00 +0.0000000000e+00 +4.9999998884e+02 5.0000000000e+02 1.0566000000e-01 0.0000e+00 -1.0000e+00
      994 -1    0    0    0    0 -0.0000000000e+00 -0.0000000000e+00 +0.0000000000e+00 1.3100000000e+02 1.3100000000e+02 0.0000e+00 0.0000e+00
       13  1    1    2    0    0 -5.9121382669e+00 -3.5950691367e+01 +2.3401950583e+01 4.3302055884e+01 1.0566000000e-01 0.0000e+00 1.0000e+00
      994  1    1    2    0    0 +7.8999404857e+00 +3.8097575291e+01 +2.8647610559e+01 1.3962635816e+02 1.3100000000e+02 0.0000e+00 0.0000e+00
      997  1    1    2    0    0 -1.9878022188e+00 -2.1468839243e+00 +4.4795042769e+02 4.4807158595e+02 1.0000000000e+01 0.0000e+00 0.0000e+00
</event>
<event>
 5      1 +4.4770400e-06 2.10366100e+02 7.95774700e-02 4.85858400e-01
       13 -1    0    0    0    0 +0.0000000000e+00 +0.0000000000e+00 +4.9999998884e+02 5.0000000000e+02 1.0566000000e-01 0.0000e+00 -1.0000e+00
      994 -1    0    0    0    0 -0.0000000000e+00 -0.0000000000e+00 +0.0000000000e+00 1.3100000000e+02 1.3100000000e+02 0.0000e+00 0.0000e+00
       13  1    1    2    0    0 -1.4169793962e+01 -3.3680482747e+00 +5.0173069278e+01 5.2244376300e+01 1.0566000000e-01 0.0000e+00 1.0000e+00
      994  1    1    2    0    0 -2.5977207841e+01 -9.0904147110e+00 +7.2303821953e+00 1.3405494916e+02 1.3100000000e+02 0.0000e+00 0.0000e+00
      997  1    1    2    0    0 +4.0147001804e+01 +1.2458462986e+01 +4.4259653736e+02 4.4470067454e+02 1.0000000000e+01 0.0000e+00 0.0000e+00
</event>
<event>
 5      1 +4.4770400e-06 2.12633600e+02 7.95774700e-02 4.82198400e-01
       13 -1    0    0    0    0 +0.0000000000e+00 +0.0000000000e+00 +4.9999998884e+02 5.0000000000e+02 1.0566000000e-01 0.0000e+00 -1.0000e+00
      994 -1    0    0    0    0 -0.0000000000e+00 -0.0000000000e+00 +0.0000000000e+00 1.3100000000e+02 1.3100000000e+02 0.0000e+00 0.0000e+00
       13  1    1    2    0    0 -4.6825481963e+01 +5.9592122028e+01 +5.7451551009e+01 9.5102779383e+01 1.0566000000e-01 0.0000e+00 1.0000e+00
      994  1    1    2    0    0 +1.0715837304e+02 -9.5322363810e+01 +4.1801274672e+02 4.6093917861e+02 1.3100000000e+02 0.0000e+00 0.0000e+00
      997  1    1    2    0    0 -6.0332891081e+01 +3.5730241781e+01 +2.4535691109e+01 7.4958042011e+01 1.0000000000e+01 0.0000e+00 0.0000e+00
</event>
<event>
 5      1 +4.4770400e-06 2.11282200e+02 7.95774700e-02 4.84367800e-01
       13 -1    0    0    0    0 +0.0000000000e+00 +0.0000000000e+00 +4.9999998884e+02 5.0000000000e+02 1.0566000000e-01 0.0000e+00 1.0000e+00
      994 -1    0    0    0    0 -0.0000000000e+00 -0.0000000000e+00 +0.0000000000e+00 1.3100000000e+02 1.3100000000e+02 0.0000e+00 0.0000e+00
       13  1    1    2    0    0 +4.7010083072e+00 -1.2611424088e+01 +3.9676864425e+01 4.1897639924e+01 1.0566000000e-01 0.0000e+00 -1.0000e+00
      994  1    1    2    0    0 +5.9129616796e+00 -3.1045331280e+00 +2.9256959399e+00 1.3120274745e+02 1.3100000000e+02 0.0000e+00 0.0000e+00
      997  1    1    2    0    0 -1.0613969987e+01 +1.5715957216e+01 +4.5739742847e+02 4.5789961263e+02 1.0000000000e+01 0.0000e+00 0.0000e+00
</event>
<event>
 5      1 +4.4770400e-06 2.11617100e+02 7.95774700e-02 4.83826900e-01
       13 -1    0    0    0    0 +0.0000000000e+00 +0.0000000000e+00 +4.9999998884e+02 5.0000000000e+02 1.0566000000e-01 0.0000e+00 1.0000e+00
      994 -1    0    0    0    0 -0.0000000000e+00 -0.0000000000e+00 +0.0000000000e+00 1.3100000000e+02 1.3100000000e+02 0.0000e+00 0.0000e+00
       13  1    1    2    0    0 -1.2201741075e+01 -8.4580535296e+00 +5.4989251021e+01 5.6958318503e+01 1.0566000000e-01 0.0000e+00 -1.0000e+00
      994  1    1    2    0    0 +1.3982908522e+00 -6.3347179940e+00 +2.6483334200e+00 1.3118726135e+02 1.3100000000e+02 0.0000e+00 0.0000e+00
      997  1    1    2    0    0 +1.0803450223e+01 +1.4792771524e+01 +4.4236240439e+02 4.4285442015e+02 1.0000000000e+01 0.0000e+00 0.0000e+00
</event>
<event>
 5      1 +4.4770400e-06 2.06677700e+02 7.95774700e-02 4.92030700e-01
       13 -1    0    0    0    0 +0.0000000000e+00 +0.0000000000e+00 +4.9999998884e+02 5.0000000000e+02 1.0566000000e-01 0.0000e+00 -1.0000e+00
      994 -1    0    0    0    0 -0.0000000000e+00 -0.0000000000e+00 +0.0000000000e+00 1.3100000000e+02 1.3100000000e+02 0.0000e+00 0.0000e+00
       13  1    1    2    0    0 +1.9439433858e+01 +2.5958925449e+00 +2.6448451914e+01 3.2926615670e+01 1.0566000000e-01 0.0000e+00 1.0000e+00
      994  1    1    2    0    0 -1.6851606828e+01 -7.4348709075e+00 +8.1577343005e+00 1.3253981510e+02 1.3100000000e+02 0.0000e+00 0.0000e+00
      997  1    1    2    0    0 -2.5878270296e+00 +4.8389783625e+00 +4.6539380262e+02 4.6553356923e+02 1.0000000000e+01 0.0000e+00 0.0000e+00
</event>
<event>
 5      1 +4.4770400e-06 2.01864100e+02 7.95774700e-02 5.00522700e-01
       13 -1    0    0    0    0 +0.0000000000e+00 +0.0000000000e+00 +4.9999998884e+02 5.0000000000e+02 1.0566000000e-01 0.0000e+00 -1.0000e+00
      994 -1    0    0    0    0 -0.0000000000e+00 -0.0000000000e+00 +0.0000000000e+00 1.3100000000e+02 1.3100000000e+02 0.0000e+00 0.0000e+00
       13  1    1    2    0    0 +2.8784659930e+01 -2.4014130374e+01 +6.3435741587e+01 7.3684052411e+01 1.0566000000e-01 0.0000e+00 1.0000e+00
      994  1    1    2    0    0 -2.2885563328e+01 +8.4693365661e+00 +1.3643157760e+01 1.3395004451e+02 1.3100000000e+02 0.0000e+00 0.0000e+00
      997  1    1    2    0    0 -5.8990966023e+00 +1.5544793808e+01 +4.2292108949e+02 4.2336590308e+02 1.0000000000e+01 0.0000e+00 0.0000e+00
</event>
<event>
 5      1 +4.4770400e-06 2.10628200e+02 7.95774700e-02 4.85430400e-01
       13 -1    0    0    0    0 +0.0000000000e+00 +0.0000000000e+00 +4.9999998884e+02 5.0000000000e+02 1.0566000000e-01 0.0000e+00 -1.0000e+00
      994 -1    0    0    0    0 -0.0000000000e+00 -0.0000000000e+00 +0.0000000000e+00 1.3100000000e+02 1.3100000000e+02 0.0000e+00 0.0000e+00
       13  1    1    2    0    0 -9.5394949483e+00 -8.8203858979e+00 +2.4566486698e+01 2.7790728741e+01 1.0566000000e-01 0.0000e+00 1.0000e+00
      994  1    1    2    0    0 +7.3051271720e+00 +9.7185001913e+00 +3.9589358736e+00 1.3162251822e+02 1.3100000000e+02 0.0000e+00 0.0000e+00
      997  1    1    2    0    0 +2.2343677763e+00 -8.9811429343e-01 +4.7147456626e+02 4.7158675304e+02 1.0000000000e+01 0.0000e+00 0.0000e+00
</event>
<event>
 5      1 +4.4770400e-06 1.94881200e+02 7.95774700e-02 5.13818500e-01
       13 -1    0    0    0    0 +0.0000000000e+00 +0.0000000000e+00 +4.9999998884e+02 5.0000000000e+02 1.0566000000e-01 0.0000e+00 -1.0000e+00
      994 -1    0    0    0    0 -0.0000000000e+00 -0.0000000000e+00 +0.0000000000e+00 1.3100000000e+02 1.3100000000e+02 0.0000e+00 0.0000e+00
       13  1    1    2    0    0 -3.4628437760e+01 -1.1724205434e+01 +3.7075006136e+01 5.2068732833e+01 1.0566000000e-01 0.0000e+00 1.0000e+00
      994  1    1    2    0    0 +2.1035576538e+01 -2.5053173184e+01 +2.2780910827e+01 1.3693110262e+02 1.3100000000e+02 0.0000e+00 0.0000e+00
      997  1    1    2    0    0 +1.3592861223e+01 +3.6777378617e+01 +4.4014407187e+02 4.4200016455e+02 1.0000000000e+01 0.0000e+00 0.0000e+00
</event>
<event>
 5      1 +4.4770400e-06 1.98868400e+02 7.95774700e-02 5.06077200e-01
       13 -1    0    0    0    0 +0.0000000000e+00 +0.0000000000e+00 +4.9999998884e+02 5.0000000000e+02 1.0566000000e-01 0.0000e+00 -1.0000e+00
      994 -1    0    0    0    0 -0.0000000000e+00 -0.0000000000e+00 +0.0000000000e+00 1.3100000000e+02 1.3100000000e+02 0.0000e+00 0.0000e+00
       13  1    1    2    0    0 +5.3144356331e+00 -1.1218816511e+01 -7.9343437485e-02 1.2414609515e+01 1.0566000000e-01 0.0000e+00 1.0000e+00
      994  1    1    2    0    0 +1.1960136129e+01 +1.8816818025e+01 +1.5782441225e+01 1.3381779758e+02 1.3100000000e+02 0.0000e+00 0.0000e+00
      997  1    1    2    0    0 -1.7274571762e+01 -7.5980015142e+00 +4.8429689105e+02 4.8476759291e+02 1.0000000000e+01 0.0000e+00 0.0000e+00
</event>
<event>
 5      1 +4.4770400e-06 2.12317000e+02 7.95774700e-02 4.82703500e-01
       13 -1    0    0    0    0 +0.0000000000e+00 +0.0000000000e+00 +4.9999998884e+02 5.0000000000e+02 1.0566000000e-01 0.0000e+00 -1.0000e+00
      994 -1    0    0    0    0 -0.0000000000e+00 -0.0000000000e+00 +0.0000000000e+00 1.3100000000e+02 1.3100000000e+02 0.0000e+00 0.0000e+00
       13  1    1    2    0    0 -7.3923440488e+00 +6.7742294010e+00 +2.5003155221e+01 2.6938928515e+01 1.0566000000e-01 0.0000e+00 1.0000e+00
      994  1    1    2    0    0 +8.7567914369e+00 -9.8221944224e+00 +2.7412082360e+00 1.3168777894e+02 1.3100000000e+02 0.0000e+00 0.0000e+00
      997  1    1    2    0    0 -1.3644473881e+00 +3.0479650214e+00 +4.7225562538e+02 4.7237329254e+02 1.0000000000e+01 0.0000e+00 0.0000e+00
</event>
<event>
 5      1 +4.4770400e-06 2.11080100e+02 7.95774700e-02 4.84695300e-01
       13 -1    0    0    0    0 +0.0000000000e+00 +0.0000000000e+00 +4.9999998884e+02 5.0000000000e+02 1.0566000000e-01 0.0000e+00 1.0000e+00
      994 -1    0    0    0    0 -0.0000000000e+00 -0.0000000000e+00 +0.0000000000e+00 1.3100000000e+02 1.3100000000e+02 0.0000e+00 0.0000e+00
       13  1    1    2    0    0 +4.6621079667e+00 -1.5975600143e+01 +7.2258638598e+01 7.4150367947e+01 1.0566000000e-01 0.0000e+00 -1.0000e+00
      994  1    1    2    0    0 +7.1171259850e+00 -1.0526263645e+01 +3.6656976731e+00 1.3166583858e+02 1.3100000000e+02 0.0000e+00 0.0000e+00
      997  1    1    2    0    0 -1.1779233952e+01 +2.6501863788e+01 +4.2407565256e+02 4.2518379348e+02 1.0000000000e+01 0.0000e+00 0.0000e+00
</event>
<event>
 5      1 +4.4770400e-06 1.94867100e+02 7.95774700e-02 5.13846500e-01
       13 -1    0    0    0    0 +0.0000000000e+00 +0.0000000000e+00 +4.9999998884e+02 5.0000000000e+02 1.0566000000e-01 0.0000e+00 1.0000e+00
      994 -1    0    0    0    0 -0.0000000000e+00 -0.0000000000e+00 +0.0000000000e+00 1.3100000000e+02 1.3100000000e+02 0.0000e+00 0.0000e+00
       13  1    1    2    0    0 -7.5319861905e+00 -2.3077417535e+01 +9.9373575136e+00 2.6230902662e+01 1.0566000000e-01 0.0000e+00 -1.0000e+00
      994  1    1    2    0    0 +2.0074336357e+01 +2.0717745018e+01 +2.1410652822e+01 1.3583674022e+02 1.3100000000e+02 0.0000e+00 0.0000e+00
      997  1    1    2    0    0 -1.2542350166e+01 +2.3596725173e+00 +4.6865197850e+02 4.6893235712e+02 1.0000000000e+01 0.0000e+00 0.0000e+00
</event>
<event>
 5      1 +4.4770400e-06 2.10816700e+02 7.95774700e-02 4.85123300e-01
       13 -1    0    0    0    0 +0.0000000000e+00 +0.0000000000e+00 +4.9999998884e+02 5.0000000000e+02 1.0566000000e-01 0.0000e+00 1.0000e+00
      994 -1    0    0    0    0 -0.0000000000e+00 -0.0000000000e+00 +0.0000000000e+00 1.3100000000e+02 1.3100000000e+02 0.0000e+00 0.0000e+00
       13  1    1    2    0    0 +1.7542884958e+01 +1.3815074669e+01 +1.0659999769e+02 1.0891363446e+02 1.0566000000e-01 0.0000e+00 -1.0000e+00
      994  1    1    2    0    0 +3.9484653174e+00 -6.6383866359e+00 +3.3699321779e+00 1.3127076978e+02 1.3100000000e+02 0.0000e+00 0.0000e+00
      997  1    1    2    0    0 -2.1491350275e+01 -7.1766880327e+00 +3.9003005897e+02 3.9081559576e+02 1.0000000000e+01 0.0000e+00 0.0000e+00
</event>
<event>
 5      1 +4.4770400e-06 2.05497500e+02 7.95774700e-02 4.94065500e-01
       13 -1    0    0    0    0 +0.0000000000e+00 +0.0000000000e+00 +4.9999998884e+02 5.0000000000e+02 1.0566000000e-01 0.0000e+00 -1.0000e+00
      994 -1    0    0    0    0 -0.0000000000e+00 -0.0000000000e+00 +0.0000000000e+00 1.3100000000e+02 1.3100000000e+02 0.0000e+00 0.0000e+00
       13  1    1    2    0    0 +2.4015205120e+01 +2.3333868076e+00 +3.4332683260e+01 4.1963306291e+01 1.0566000000e-01 0.0000e+00 1.0000e+00
      994  1    1    2    0    0 -2.0480052088e+01 -2.7136004768e+01 +1.3439652666e+01 1.3600521884e+02 1.3100000000e+02 0.0000e+00 0.0000e+00
      997  1    1    2    0    0 -3.5351530319e+00 +2.4802617960e+01 +4.5222765291e+02 4.5303147487e+02 1.0000000000e+01 0.0000e+00 0.0000e+00
</event>
<event>
 5      1 +4.4770400e-06 2.12201000e+02 7.95774700e-02 4.82889100e-01
       13 -1    0    0    0    0 +0.0000000000e+00 +0.0000000000e+00 +4.9999998884e+02 5.0000000000e+02 1.0566000000e-01 0.0000e+00 -1.0000e+00
      994 -1    0    0    0    0 -0.0000000000e+00 -0.0000000000e+00 +0.0000000000e+00 1.3100000000e+02 1.3100000000e+02 0.0000e+00 0.0000e+00
       13  1    1    2    0    0 +7.6429801293e+00 -8.5322386380e+00 +4.1201268189e+01 4.2764119374e+01 1.0566000000e-01 0.0000e+00 1.0000e+00
      994  1    1    2    0    0 -4.2903103740e+00 -1.1297311173e+01 +2.6994116498e+00 1.3158390033e+02 1.3100000000e+02 0.0000e+00 0.0000e+00
      997  1    1    2    0    0 -3.3526697553e+00 +1.9829549811e+01 +4.5609930900e+02 4.5665198030e+02 1.0000000000e+01 0.0000e+00 0.0000e+00
</event>
<event>
 5      1 +4.4770400e-06 2.04451300e+02 7.95774700e-02 4.95894500e-01
       13 -1    0    0    0    0 +0.0000000000e+00 +0.0000000000e+00 +4.9999998884e+02 5.0000000000e+02 1.0566000000e-01 0.0000e+00 1.0000e+00
      994 -1    0    0    0    0 -0.0000000000e+00 -0.0000000000e+00 +0.0000000000e+00 1.3100000000e+02 1.3100000000e+02 0.0000e+00 0.0000e+00
       13  1    1    2    0    0 +1.7272996282e+00 +2.7296991936e+01 +5.3432094272e+01 6.0025904367e+01 1.0566000000e-01 0.0000e+00 -1.0000e+00
      994  1    1    2    0    0 -5.6994754798e+00 +7.2899926695e+00 +8.7040126696e+00 1.3161454270e+02 1.3100000000e+02 0.0000e+00 0.0000e+00
      997  1    1    2    0    0 +3.9721758517e+00 -3.4586984605e+01 +4.3786388189e+02 4.3935955293e+02 1.0000000000e+01 0.0000e+00 0.0000e+00
</event>
<event>
 5      1 +4.4770400e-06 2.09559100e+02 7.95774700e-02 4.87185400e-01
       13 -1    0    0    0    0 +0.0000000000e+00 +0.0000000000e+00 +4.9999998884e+02 5.0000000000e+02 1.0566000000e-01 0.0000e+00 -1.0000e+00
      994 -1    0    0    0    0 -0.0000000000e+00 -0.0000000000e+00 +0.0000000000e+00 1.3100000000e+02 1.3100000000e+02 0.0000e+00 0.0000e+00
       13  1    1    2    0    0 +4.6212646759e+00 +1.4532765991e+01 +3.4824658730e+01 3.8017435398e+01 1.0566000000e-01 0.0000e+00 1.0000e+00
      994  1    1    2    0    0 +3.4778961235e+00 +1.3196099743e+01 +5.0112241216e+00 1.3180419256e+02 1.3100000000e+02 0.0000e+00 0.0000e+00
      997  1    1    2    0    0 -8.0991607993e+00 -2.7728865734e+01 +4.6016410598e+02 4.6117837204e+02 1.0000000000e+01 0.0000e+00 0.0000e+00
</event>
<event>
 5      1 +4.4770400e-06 2.12178600e+02 7.95774700e-02 4.82924900e-01
       13 -1    0    0    0    0 +0.0000000000e+00 +0.0000000000e+00 +4.9999998884e+02 5.0000000000e+02 1.0566000000e-01 0.0000e+00 1.0000e+00
      994 -1    0    0    0    0 -0.0000000000e+00 -0.0000000000e+00 +0.0000000000e+00 1.3100000000e+02 1.3100000000e+02 0.0000e+00 0.0000e+00
       13  1    1    2    0    0 +1.0263246690e+01 -4.6376390078e+00 +3.3491550716e+01 3.5334643929e+01 1.0566000000e-01 0.0000e+00 -1.0000e+00
      994  1    1    2    0    0 -9.9797491651e+00 -1.0496715390e+01 +3.0311025151e+00 1.3183309148e+02 1.3100000000e+02 0.0000e+00 0.0000e+00
      997  1    1    2    0    0 -2.8349752522e-01 +1.5134354398e+01 +4.6347733560e+02 4.6383226459e+02 1.0000000000e+01 0.0000e+00 0.0000e+00
</event>
<event>
 5      1 +4.4770400e-06 2.12585800e+02 7.95774700e-02 4.82274500e-01
       13 -1    0    0    0    0 +0.0000000000e+00 +0.0000000000e+00 +4.9999998884e+02 5.0000000000e+02 1.0566000000e-01 0.0000e+00 -1.0000e+00
      994 -1    0    0    0    0 -0.0000000000e+00 -0.0000000000e+00 +0.0000000000e+00 1.3100000000e+02 1.3100000000e+02 0.0000e+00 0.0000e+00
       13  1    1    2    0    0 -8.9201520314e+00 -5.8495307797e+00 +3.9757696070e+01 4.1163960979e+01 1.0566000000e-01 0.0000e+00 1.0000e+00
      994  1    1    2    0    0 -2.7433392393e+00 +1.9120271743e+00 +1.7346274797e+00 1.3105415175e+02 1.3100000000e+02 0.0000e+00 0.0000e+00
      997  1    1    2    0    0 +1.1663491271e+01 +3.9375036054e+00 +4.5850766529e+02 4.5878188727e+02 1.0000000000e+01 0.0000e+00 0.0000e+00
</event>
<event>
 5      1 +4.4770400e-06 2.11138200e+02 7.95774700e-02 4.84601000e-01
       13 -1    0    0    0    0 +0.0000000000e+00 +0.0000000000e+00 +4.9999998884e+02 5.0000000000e+02 1.0566000000e-01 0.0000e+00 1.0000e+00
      994 -1    0    0    0    0 -0.0000000000e+00 -0.0000000000e+00 +0.0000000000e+00 1.3100000000e+02 1.3100000000e+02 0.0000e+00 0.0000e+00
       13  1    1    2    0    0 -1.0647500007e+01 -1.1893748776e+01 +3.9257346508e+01 4.2379015269e+01 1.0566000000e-01 0.0000e+00 -1.0000e+00
      994  1    1    2    0    0 +1.3445917134e+01 +1.6796399417e+01 +5.1201276996e+00 1.3285378214e+02 1.3100000000e+02 0.0000e+00 0.0000e+00
      997  1    1    2    0    0 -2.7984171275e+00 -4.9026506419e+00 +4.5562251463e+02 4.5576720259e+02 1.0000000000e+01 0.0000e+00 0.0000e+00
</event>
<event>
 5      1 +4.4770400e-06 2.10824800e+02 7.95774700e-02 4.85110000e-01
       13 -1    0    0    0    0 +0.0000000000e+00 +0.0000000000e+00 +4.9999998884e+02 5.0000000000e+02 1.0566000000e-01 0.0000e+00 -1.0000e+00
      994 -1    0    0    0    0 -0.0000000000e+00 -0.0000000000e+00 +0.0000000000e+00 1.3100000000e+02 1.3100000000e+02 0.0000e+00 0.0000e+00
       13  1    1    2    0    0 +5.2917417488e+00 -8.5162891574e+00 +1.5810815595e+01 1.8722253218e+01 1.0566000000e-01 0.0000e+00 1.0000e+00
      994  1    1    2    0    0 +4.0132177536e+00 +7.5329772590e+00 +3.4289819748e+00 1.3132254026e+02 1.3100000000e+02 0.0000e+00 0.0000e+00
      997  1    1    2    0    0 -9.3049595024e+00 +9.8331189842e-01 +4.8076019127e+02 4.8095520652e+02 1.0000000000e+01 0.0000e+00 0.0000e+00
</event>
<event>
 5      1 +4.4770400e-06 2.13262900e+02 7.95774700e-02 4.81200000e-01
       13 -1    0    0    0    0 +0.0000000000e+00 +0.0000000000e+00 +4.9999998884e+02 5.0000000000e+02 1.0566000000e-01 0.0000e+00 1.0000e+00
      994 -1    0    0    0    0 -0.0000000000e+00 -0.0000000000e+00 +0.0000000000e+00 1.3100000000e+02 1.3100000000e+02 0.0000e+00 0.0000e+00
       13  1    1    2    0    0 -8.8678655575e+00 -8.4077727816e+00 +6.0815417718e+01 6.2031088003e+01 1.0566000000e-01 0.0000e+00 -1.0000e+00
      994  1    1    2    0    0 +1.1691866050e+01 +7.4007761633e+00 +2.0856026906e+00 1.3174528818e+02 1.3100000000e+02 0.0000e+00 0.0000e+00
      997  1    1    2    0    0 -2.8240004922e+00 +1.0069966183e+00 +4.3709896843e+02 4.3722362381e+02 1.0000000000e+01 0.0000e+00 0.0000e+00
</event>
<event>
 5      1 +4.4770400e-06 2.07073700e+02 7.95774700e-02 4.91354600e-01
       13 -1    0    0    0    0 +0.0000000000e+00 +0.0000000000e+00 +4.9999998884e+02 5.0000000000e+02 1.0566000000e-01 0.0000e+00 1.0000e+00
      994 -1    0    0    0    0 -0.0000000000e+00 -0.0000000000e+00 +0.0000000000e+00 1.3100000000e+02 1.3100000000e+02 0.0000e+00 0.0000e+00
       13  1    1    2    0    0 -4.6961418982e+01 -1.7178049512e+00 +1.9547384070e+01 5.0896336947e+01 1.0566000000e-01 0.0000e+00 -1.0000e+00
      994  1    1    2    0    0 +3.7509044354e+01 -6.1859426329e+00 +4.3946299063e+01 1.4330900703e+02 1.3100000000e+02 0.0000e+00 0.0000e+00
      997  1    1    2    0    0 +9.4523746272e+00 +7.9037475841e+00 +4.3650630570e+02 4.3679465602e+02 1.0000000000e+01 0.0000e+00 0.0000e+00
</event>
<event>
 5      1 +4.4770400e-06 2.13368800e+02 7.95774700e-02 4.81032500e-01
       13 -1    0    0    0    0 +0.0000000000e+00 +0.0000000000e+00 +4.9999998884e+02 5.0000000000e+02 1.0566000000e-01 0.0000e+00 -1.0000e+00
      994 -1    0    0    0    0 -0.0000000000e+00 -0.0000000000e+00 +0.0000000000e+00 1.3100000000e+02 1.3100000000e+02 0.0000e+00 0.0000e+00
       13  1    1    2    0    0 +5.1146055188e+00 +1.0003918775e+01 +6.0034337517e+01 6.1076758473e+01 1.0566000000e-01 0.0000e+00 1.0000e+00
      994  1    1    2    0    0 +3.2846843960e-01 -1.1215428517e+01 +1.6823341531e+00 1.3149039500e+02 1.3100000000e+02 0.0000e+00 0.0000e+00
      997  1    1    2    0    0 -5.4430739584e+00 +1.2115097425e+00 +4.3828331717e+02 4.3843284653e+02 1.0000000000e+01 0.0000e+00 0.0000e+00
</event>
<event>
 5      1 +4.4770400e-06 2.05671000e+02 7.95774700e-02 4.93764500e-01
       13 -1    0    0    0    0 +0.0000000000e+00 +0.0000000000e+00 +4.9999998884e+02 5.0000000000e+02 1.0566000000e-01 0.0000e+00 1.0000e+00
      994 -1    0    0    0    0 -0.0000000000e+00 -0.0000000000e+00 +0.0000000000e+00 1.3100000000e+02 1.3100000000e+02 0.0000e+00 0.0000e+00
       13  1    1    2    0    0 +7.4506517329e+00 +6.9462162497e+00 +3.8048135386e+00 1.0874277058e+01 1.0566000000e-01 0.0000e+00 -1.0000e+00
      994  1    1    2    0    0 -3.2210226633e+00 -1.2549423074e+01 +8.1111520027e+00 1.3188879328e+02 1.3100000000e+02 0.0000e+00 0.0000e+00
      997  1    1    2    0    0 -4.2296290696e+00 +5.6032068238e+00 +4.8808402329e+02 4.8823692966e+02 1.0000000000e+01 0.0000e+00 0.0000e+00
</event>
<event>
 5      1 +4.4770400e-06 2.05263000e+02 7.95774700e-02 4.94473500e-01
       13 -1    0    0    0    0 +0.0000000000e+00 +0.0000000000e+00 +4.9999998884e+02 5.0000000000e+02 1.0566000000e-01 0.0000e+00 -1.0000e+00
      994 -1    0    0    0    0 -0.0000000000e+00 -0.0000000000e+00 +0.0000000000e+00 1.3100000000e+02 1.3100000000e+02 0.0000e+00 0.0000e+00
       13  1    1    2    0    0 -1.0554595482e+01 -1.0681883795e+01 +1.2967480670e+01 1.9841089843e+01 1.0566000000e-01 0.0000e+00 1.0000e+00
      994  1    1    2    0    0 +5.1256988716e+00 -1.1944379028e+01 +8.4579259563e+00 1.3191465988e+02 1.3100000000e+02 0.0000e+00 0.0000e+00
      997  1    1    2    0    0 +5.4288966106e+00 +2.2626262824e+01 +4.7857458221e+02 4.7924425028e+02 1.0000000000e+01 0.0000e+00 0.0000e+00
</event>
<event>
 5      1 +4.4770400e-06 2.13350500e+02 7.95774700e-02 4.81061400e-01
       13 -1    0    0    0    0 +0.0000000000e+00 +0.0000000000e+00 +4.9999998884e+02 5.0000000000e+02 1.0566000000e-01 0.0000e+00 -1.0000e+00
      994 -1    0    0    0    0 -0.0000000000e+00 -0.0000000000e+00 +0.0000000000e+00 1.3100000000e+02 1.3100000000e+02 0.0000e+00 0.0000e+00
       13  1    1    2    0    0 -6.5531352533e+00 +7.7494602589e+00 +6.0672707099e+01 6.1515739992e+01 1.0566000000e-01 0.0000e+00 1.0000e+00
      994  1    1    2    0    0 +1.0795130087e+01 +8.0079074805e+00 +1.9639546653e+00 1.3170238621e+02 1.3100000000e+02 0.0000e+00 0.0000e+00
      997  1    1    2    0    0 -4.2419948333e+00 -1.5757367739e+01 +4.3736332707e+02 4.3778187380e+02 1.0000000000e+01 0.0000e+00 0.0000e+00
</event>
<event>
 5      1 +4.4770400e-06 2.13549700e+02 7.95774700e-02 4.80747300e-01
       13 -1    0    0    0    0 +0.0000000000e+00 +0.0000000000e+00 +4.9999998884e+02 5.0000000000e+02 1.0566000000e-01 0.0000e+00 1.0000e+00
      994 -1    0    0    0    0 -0.0000000000e+00 -0.0000000000e+00 +0.0000000000e+00 1.3100000000e+02 1.3100000000e+02 0.0000e+00 0.0000e+00
       13  1    1    2    0    0 -3.2622364624e+00 +1.1737557481e+01 +6.9780606239e+01 7.0836125060e+01 1.0566000000e-01 0.0000e+00 -1.0000e+00
      994  1    1    2    0    0 +8.4091780184e+00 -1.4626277859e+01 +2.3152759848e+00 1.3210224367e+02 1.3100000000e+02 0.0000e+00 0.0000e+00
      997  1    1    2    0    0 -5.1469415561e+00 +2.8887203780e+00 +4.2790410661e+02 4.2806163127e+02 1.0000000000e+01 0.0000e+00 0.0000e+00
</event>
<event>
 5      1 +4.4770400e-06 2.06973400e+02 7.95774700e-02 4.91525600e-01
       13 -1    0    0    0    0 +0.0000000000e+00 +0.0000000000e+00 +4.9999998884e+02 5.0000000000e+02 1.0566000000e-01 0.0000e+00 1.0000e+00
      994 -1    0    0    0    0 -0.0000000000e+00 -0.0000000000e+00 +0.0000000000e+00 1.3100000000e+02 1.3100000000e+02 0.0000e+00 0.0000e+00
       13  1    1    2    0    0 -2.2855160949e+01 -2.1001692818e+01 +1.1025146935e+02 1.1453744864e+02 1.0566000000e-01 0.0000e+00 -1.0000e+00
      994  1    1    2    0    0 -1.4552499295e+01 +1.0895638433e+01 +7.8661670830e+00 1.3248911939e+02 1.3100000000e+02 0.0000e+00 0.0000e+00
      997  1    1    2    0    0 +3.7407660245e+01 +1.0106054385e+01 +3.8188235241e+02 3.8397343197e+02 1.0000000000e+01 0.0000e+00 0.0000e+00
</event>
<event>
 5      1 +4.4770400e-06 2.11794900e+02 7.95774700e-02 4.83540700e-01
       13 -1    0    0    0    0 +0.0000000000e+00 +0.0000000000e+00 +4.9999998884e+02 5.0000000000e+02 1.0566000000e-01 0.0000e+00 -1.0000e+00
      994 -1    0    0    0    0 -0.0000000000e+00 -0.0000000000e+00 +0.0000000000e+00 1.3100000000e+02 1.3100000000e+02 0.0000e+00 0.0000e+00
       13  1    1    2    0    0 -1.6653798793e+01 -1.9508047030e+00 +5.9467850437e+01 6.1786657563e+01 1.0566000000e-01 0.0000e+00 1.0000e+00
      994  1    1    2    0    0 +1.3231378624e+01 -1.9005617386e+00 +3.1821130818e+00 1.3171866747e+02 1.3100000000e+02 0.0000e+00 0.0000e+00
      997  1    1    2    0    0 +3.4224201691e+00 +3.8513664416e+00 +4.3735002532e+02 4.3749467497e+02 1.0000000000e+01 0.0000e+00 0.0000e+00
</event>
<event>
 5      1 +4.4770400e-06 2.11942300e+02 7.95774700e-02 4.83303800e-01
       13 -1    0    0    0    0 +0.0000000000e+00 +0.0000000000e+00 +4.9999998884e+02 5.0000000000e+02 1.0566000000e-01 0.0000e+00 1.0000e+00
      994 -1    0    0    0    0 -0.0000000000e+00 -0.0000000000e+00 +0.0000000000e+00 1.3100000000e+02 1.3100000000e+02 0.0000e+00 0.0000e+00
       13  1    1    2    0    0 +1.7033277475e+01 -1.8610534036e+01 +1.0477420634e+02 1.0776887305e+02 1.0566000000e-01 0.0000e+00 -1.0000e+00
      994  1    1    2    0    0 -2.6380243378e+01 +1.8479660386e+01 +7.3369981832e+00 1.3510087576e+02 1.3100000000e+02 0.0000e+00 0.0000e+00
      997  1    1    2    0    0 +9.3469659028e+00 +1.3087364992e-01 +3.8788878431e+02 3.8813025119e+02 1.0000000000e+01 0.0000e+00 0.0000e+00
</event>
<event>
 5      1 +4.4770400e-06 2.11333500e+02 7.95774700e-02 4.84284800e-01
       13 -1    0    0    0    0 +0.0000000000e+00 +0.0000000000e+00 +4.9999998884e+02 5.0000000000e+02 1.0566000000e-01 0.0000e+00 1.0000e+00
      994 -1    0    0    0    0 -0.0000000000e+00 -0.0000000000e+00 +0.0000000000e+00 1.3100000000e+02 1.3100000000e+02 0.0000e+00 0.0000e+00
       13  1    1    2    0    0 +3.1724500187e+01 +3.8416420581e+00 +1.4956323044e+02 1.5293911596e+02 1.0566000000e-01 0.0000e+00 -1.0000e+00
      994  1    1    2    0    0 -3.4106491365e+01 +1.6202094878e+01 +9.8053150516e+00 1.3668542291e+02 1.3100000000e+02 0.0000e+00 0.0000e+00
      997  1    1    2    0    0 +2.3819911780e+00 -2.0043736936e+01 +3.4063144334e+02 3.4137546114e+02 1.0000000000e+01 0.0000e+00 0.0000e+00
</event>
<event>
 5      1 +4.4770400e-06 2.02619500e+02 7.95774700e-02 4.99155500e-01
       13 -1    0    0    0    0 +0.0000000000e+00 +0.0000000000e+00 +4.9999998884e+02 5.0000000000e+02 1.0566000000e-01 0.0000e+00 1.0000e+00
      994 -1    0    0    0    0 -0.0000000000e+00 -0.0000000000e+00 +0.0000000000e+00 1.3100000000e+02 1.3100000000e+02 0.0000e+00 0.0000e+00
       13  1    1    2    0    0 +6.3143862833e+00 +4.3974186179e+01 +1.0052254514e+02 1.0990174598e+02 1.0566000000e-01 0.0000e+00 -1.0000e+00
      994  1    1    2    0    0 -3.0494146494e-01 -2.3980727298e+01 +1.2869130080e+01 1.3379754400e+02 1.3100000000e+02 0.0000e+00 0.0000e+00
      997  1    1    2    0    0 -6.0094448184e+00 -1.9993458881e+01 +3.8660831362e+02 3.8730071002e+02 1.0000000000e+01 0.0000e+00 0.0000e+00
</event>
<event>
 5      1 +4.4770400e-06 2.13560600e+02 7.95774700e-02 4.80730200e-01
       13 -1    0    0    0    0 +0.0000000000e+00 +0.0000000000e+00 +4.9999998884e+02 5.0000000000e+02 1.0566000000e-01 0.0000e+00 -1.0000e+00
      994 -1    0    0    0    0 -0.0000000000e+00 -0.0000000000e+00 +0.0000000000e+00 1.3100000000e+02 1.3100000000e+02 0.0000e+00 0.0000e+00
       13  1    1    2    0    0 +4.0608608057e+00 -1.1531411015e+01 +7.2759206020e+01 7.3779246778e+01 1.0566000000e-01 0.0000e+00 1.0000e+00
      994  1    1    2    0    0 -2.0485832183e+00 +1.5366213345e+01 +2.0902813095e+00 1.3193061238e+02 1.3100000000e+02 0.0000e+00 0.0000e+00
      997  1    1    2    0    0 -2.0122775874e+00 -3.8348023303e+00 +4.2515050151e+02 4.2529014085e+02 1.0000000000e+01 0.0000e+00 0.0000e+00
</event>
<event>
 5      1 +4.4770400e-06 2.07796300e+02 7.95774700e-02 4.90129300e-01
       13 -1    0    0    0    0 +0.0000000000e+00 +0.0000000000e+00 +4.9999998884e+02 5.0000000000e+02 1.0566000000e-01 0.0000e+00 -1.0000e+00
      994 -1    0    0    0    0 -0.0000000000e+00 -0.0000000000e+00 +0.0000000000e+00 1.3100000000e+02 1.3100000000e+02 0.0000e+00 0.0000e+00
       13  1    1    2    0    0 -2.2890750445e+01 -2.6964143385e+00 -8.3539384140e+00 2.4516454827e+01 1.0566000000e-01 0.0000e+00 1.0000e+00
      994  1    1    2    0    0 +4.9128877067e+01 -9.8403525296e+00 +5.2755705780e+01 1.4984873570e+02 1.3100000000e+02 0.0000e+00 0.0000e+00
      997  1    1    2    0    0 -2.6238126622e+01 +1.2536766868e+01 +4.5559822147e+02 4.5663480947e+02 1.0000000000e+01 0.0000e+00 0.0000e+00
</event>
<event>
 5      1 +4.4770400e-06 2.06824200e+02 7.95774700e-02 4.91780200e-01
       13 -1    0    0    0    0 +0.0000000000e+00 +0.0000000000e+00 +4.9999998884e+02 5.0000000000e+02 1.0566000000e-01 0.0000e+00 1.0000e+00
      994 -1    0    0    0    0 -0.0000000000e+00 -0.0000000000e+00 +0.0000000000e+00 1.3100000000e+02 1.3100000000e+02 0.0000e+00 0.0000e+00
       13  1    1    2    0    0 -1.5748025277e+01 -9.4227442837e-01 +1.9331316496e+01 2.4951936653e+01 1.0566000000e-01 0.0000e+00 -1.0000e+00
      994  1    1    2    0    0 -4.5488757834e+00 -1.1677255435e+00 +6.4052936417e+00 1.3124055639e+02 1.3100000000e+02 0.0000e+00 0.0000e+00
      997  1    1    2    0    0 +2.0296901060e+01 +2.1099999719e+00 +4.7426337870e+02 4.7480750696e+02 1.0000000000e+01 0.0000e+00 0.0000e+00
</event>
<event>
 5      1 +4.4770400e-06 2.12330500e+02 7.95774700e-02 4.82681900e-01
       13 -1    0    0    0    0 +0.0000000000e+00 +0.0000000000e+00 +4.9999998884e+02 5.0000000000e+02 1.0566000000e-01 0.0000e+00 -1.0000e+00
      994 -1    0    0    0    0 -0.0000000000e+00 -0.0000000000e+00 +0.0000000000e+00 1.3100000000e+02 1.3100000000e+02 0.0000e+00 0.0000e+00
       13  1    1    2    0    0 -6.7474961267e+00 +1.0873857426e+01 +3.9980489612e+01 4.1978806474e+01 1.0566000000e-01 0.0000e+00 1.0000e+00
      994  1    1    2    0    0 +5.4357232576e+00 -1.5095485007e+01 +3.1454562957e+00 1.3201634236e+02 1.3100000000e+02 0.0000e+00 0.0000e+00
      997  1    1    2    0    0 +1.3117728690e+00 +4.2216275808e+00 +4.5687404293e+02 4.5700485117e+02 1.0000000000e+01 0.0000e+00 0.0000e+00
</event>
<event>
 5      1 +4.4770400e-06 2.13481800e+02 7.95774700e-02 4.80854400e-01
       13 -1    0    0    0    0 +0.0000000000e+00 +0.0000000000e+00 +4.9999998884e+02 5.0000000000e+02 1.0566000000e-01 0.0000e+00 -1.0000e+00
      994 -1    0    0    0    0 -0.0000000000e+00 -0.0000000000e+00 +0.0000000000e+00 1.3100000000e+02 1.3100000000e+02 0.0000e+00 0.0000e+00
       13  1    1    2    0    0 -2.4826430046e+01 +6.1539364765e+00 +1.3397935067e+02 1.3639904741e+02 1.0566000000e-01 0.0000e+00 1.0000e+00
      994  1    1    2    0    0 +4.9206401687e+01 +1.1708271216e+00 +1.3023956441e+01 1.4054630641e+02 1.3100000000e+02 0.0000e+00 0.0000e+00
      997  1    1    2    0    0 -2.4379971642e+01 -7.3247635980e+00 +3.5299668172e+02 3.5405464618e+02 1.0000000000e+01 0.0000e+00 0.0000e+00
</event>
<event>
 5      1 +4.4770400e-06 2.04551300e+02 7.95774700e-02 4.95718800e-01
       13 -1    0    0    0    0 +0.0000000000e+00 +0.0000000000e+00 +4.9999998884e+02 5.0000000000e+02 1.0566000000e-01 0.0000e+00 -1.0000e+00
      994 -1    0    0    0    0 -0.0000000000e+00 -0.0000000000e+00 +0.0000000000e+00 1.3100000000e+02 1.3100000000e+02 0.0000e+00 0.0000e+00
       13  1    1    2    0    0 +8.8295223195e+00 -1.0690031782e+01 +8.1368107288e+00 1.6076569807e+01 1.0566000000e-01 0.0000e+00 1.0000e+00
      994  1    1    2    0    0 -1.0582395882e+01 +5.5778930905e+00 +8.9206780335e+00 1.3184717855e+02 1.3100000000e+02 0.0000e+00 0.0000e+00
      997  1    1    2    0    0 +1.7528735625e+00 +5.1121386919e+00 +4.8294250007e+02 4.8307625165e+02 1.0000000000e+01 0.0000e+00 0.0000e+00
</event>
<event>
 5      1 +4.4770400e-06 2.12655500e+02 7.95774700e-02 4.82163500e-01
       13 -1    0    0    0    0 +0.0000000000e+00 +0.0000000000e+00 +4.9999998884e+02 5.0000000000e+02 1.0566000000e-01 0.0000e+00 1.0000e+00
      994 -1    0    0    0    0 -0.0000000000e+00 -0.0000000000e+00 +0.0000000000e+00 1.3100000000e+02 1.3100000000e+02 0.0000e+00 0.0000e+00
       13  1    1    2    0    0 -7.4206878060e+00 +8.2092998817e+00 +3.9902628890e+01 4.1408817521e+01 1.0566000000e-01 0.0000e+00 -1.0000e+00
      994  1    1    2    0    0 +3.5695633620e+00 -4.3623060080e+00 +1.7808784677e+00 1.3113330250e+02 1.3100000000e+02 0.0000e+00 0.0000e+00
      997  1    1    2    0    0 +3.8511244440e+00 -3.8469938737e+00 +4.5831648148e+02 4.5845787998e+02 1.0000000000e+01 0.0000e+00 0.0000e+00
</event>
<event>
 5      1 +4.4770400e-06 2.12004600e+02 7.95774700e-02 4.83203700e-01
       13 -1    0    0    0    0 +0.0000000000e+00 +0.0000000000e+00 +4.9999998884e+02 5.0000000000e+02 1.0566000000e-01 0.0000e+00 1.0000e+00
      994 -1    0    0    0    0 -0.0000000000e+00 -0.0000000000e+00 +0.0000000000e+00 1.3100000000e+02 1.3100000000e+02 0.0000e+00 0.0000e+00
       13  1    1    2    0    0 +9.4963263877e+00 -6.6263977943e+00 +2.9539313452e+01 3.1728087964e+01 1.0566000000e-01 0.0000e+00 -1.0000e+00
      994  1    1    2    0    0 -1.5314733429e+01 +1.4731093154e+00 +3.3021302441e+00 1.3194171128e+02 1.3100000000e+02 0.0000e+00 0.0000e+00
      997  1    1    2    0    0 +5.8184070412e+00 +5.1532884789e+00 +4.6715854514e+02 4.6733020076e+02 1.0000000000e+01 0.0000e+00 0.0000e+00
</event>
<event>
 5      1 +4.4770400e-06 2.10788700e+02 7.95774700e-02 4.85168800e-01
       13 -1    0    0    0    0 +0.0000000000e+00 +0.0000000000e+00 +4.9999998884e+02 5.0000000000e+02 1.0566000000e-01 0.0000e+00 1.0000e+00
      994 -1    0    0    0    0 -0.0000000000e+00 -0.0000000000e+00 +0.0000000000e+00 1.3100000000e+02 1.3100000000e+02 0.0000e+00 0.0000e+00
       13  1    1    2    0    0 +1.3091972891e+01 +5.2123759096e+00 +3.0039699725e+01 3.3180767628e+01 1.0566000000e-01 0.0000e+00 -1.0000e+00
      994  1    1    2    0    0 -2.0670115113e+01 +1.3744628415e+01 +6.1716793534e+00 1.3347381052e+02 1.3100000000e+02 0.0000e+00 0.0000e+00
      997  1    1    2    0    0 +7.5781422215e+00 -1.8957004325e+01 +4.6378860976e+02 4.6434542185e+02 1.0000000000e+01 0.0000e+00 0.0000e+00
</event>
<event>
 5      1 +4.4770400e-06 2.12036900e+02 7.95774700e-02 4.83152000e-01
       13 -1    0    0    0    0 +0.0000000000e+00 +0.0000000000e+00 +4.9999998884e+02 5.0000000000e+02 1.0566000000e-01 0.0000e+00 1.0000e+00
      994 -1    0    0    0    0 -0.0000000000e+00 -0.0000000000e+00 +0.0000000000e+00 1.3100000000e+02 1.3100000000e+02 0.0000e+00 0.0000e+00
       13  1    1    2    0    0 +2.0617360996e+01 -3.5378254957e+00 +9.9825613877e+01 1.0199390243e+02 1.0566000000e-01 0.0000e+00 -1.0000e+00
      994  1    1    2    0    0 -2.2252767087e+01 -2.0684835829e+01 +6.6863999829e+00 1.3464306897e+02 1.3100000000e+02 0.0000e+00 0.0000e+00
      997  1    1    2    0    0 +1.6354060902e+00 +2.4222661325e+01 +3.9348797498e+02 3.9436302860e+02 1.0000000000e+01 0.0000e+00 0.0000e+00
</event>
<event>
 5      1 +4.4770400e-06 2.13129700e+02 7.95774700e-02 4.81410600e-01
       13 -1    0    0    0    0 +0.0000000000e+00 +0.0000000000e+00 +4.9999998884e+02 5.0000000000e+02 1.0566000000e-01 0.0000e+00 -1.0000e+00
      994 -1    0    0    0    0 -0.0000000000e+00 -0.0000000000e+00 +0.0000000000e+00 1.3100000000e+02 1.3100000000e+02 0.0000e+00 0.0000e+00
       13  1    1    2    0    0 +1.0000551362e+01 +9.5278401009e-01 +4.3941246287e+01 4.5075083075e+01 1.0566000000e-01 0.0000e+00 1.0000e+00
      994  1    1    2    0    0 -4.7651492997e+00 -1.4168433906e+00 +1.3756610763e+00 1.3110151233e+02 1.3100000000e+02 0.0000e+00 0.0000e+00
      997  1    1    2    0    0 -5.2354020620e+00 +4.6405938056e-01 +4.5468308147e+02 4.5482340459e+02 1.0000000000e+01 0.0000e+00 0.0000e+00
</event>
<event>
 5      1 +4.4770400e-06 2.11901400e+02 7.95774700e-02 4.83369500e-01
       13 -1    0    0    0    0 +0.0000000000e+00 +0.0000000000e+00 +4.9999998884e+02 5.0000000000e+02 1.0566000000e-01 0.0000e+00 1.0000e+00
      994 -1    0    0    0    0 -0.0000000000e+00 -0.0000000000e+00 +0.0000000000e+00 1.3100000000e+02 1.3100000000e+02 0.0000e+00 0.0000e+00
       13  1    1    2    0    0 +9.6308684843e-01 +1.6897535238e+01 +8.4711132728e+01 8.6385423570e+01 1.0566000000e-01 0.0000e+00 -1.0000e+00
      994  1    1    2    0    0 +8.5391811695e+00 +5.4370129945e-01 +2.5773601507e+00 1.3130444018e+02 1.3100000000e+02 0.0000e+00 0.0000e+00
      997  1    1    2    0    0 -9.5022680179e+00 -1.7441236538e+01 +4.1271149596e+02 4.1331013625e+02 1.0000000000e+01 0.0000e+00 0.0000e+00
</event>
<event>
 5      1 +4.4770400e-06 2.13406000e+02 7.95774700e-02 4.80973800e-01
       13 -1    0    0    0    0 +0.0000000000e+00 +0.0000000000e+00 +4.9999998884e+02 5.0000000000e+02 1.0566000000e-01 0.0000e+00 1.0000e+00
      994 -1    0    0    0    0 -0.0000000000e+00 -0.0000000000e+00 +0.0000000000e+00 1.3100000000e+02 1.3100000000e+02 0.0000e+00 0.0000e+00
       13  1    1    2    0    0 +8.7697642005e+00 +7.3478823346e+00 +6.7712325041e+01 6.8672194267e+01 1.0566000000e-01 0.0000e+00 -1.0000e+00
      994  1    1    2    0    0 -1.6015605736e+00 -1.0293279948e+01 +1.5685149683e+00 1.3142289316e+02 1.3100000000e+02 0.0000e+00 0.0000e+00
      997  1    1    2    0    0 -7.1682036269e+00 +2.9453976136e+00 +4.3071914883e+02 4.3090491257e+02 1.0000000000e+01 0.0000e+00 0.0000e+00
</event>
<event>
 5      1 +4.4770400e-06 2.10696600e+02 7.95774700e-02 4.85318800e-01
       13 -1    0    0    0    0 +0.0000000000e+00 +0.0000000000e+00 +4.9999998884e+02 5.0000000000e+02 1.0566000000e-01 0.0000e+00 -1.0000e+00
      994 -1    0    0    0    0 -0.0000000000e+00 -0.0000000000e+00 +0.0000000000e+00 1.3100000000e+02 1.3100000000e+02 0.0000e+00 0.0000e+00
       13  1    1    2    0    0 +9.9237196324e+00 +1.6866132241e+01 +7.1247102340e+01 7.3885772541e+01 1.0566000000e-01 0.0000e+00 1.0000e+00
      994  1    1    2    0    0 -6.2316341092e+00 +1.6162340465e+00 +3.3749184158e+00 1.3120150742e+02 1.3100000000e+02 0.0000e+00 0.0000e+00
      997  1    1    2    0    0 -3.6920855232e+00 -1.8482366287e+01 +4.2537796808e+02 4.2591272003e+02 1.0000000000e+01 0.0000e+00 0.0000e+00
</event>
<event>
 5      1 +4.4770400e-06 2.07942900e+02 7.95774700e-02 4.89882100e-01
       13 -1    0    0    0    0 +0.0000000000e+00 +0.0000000000e+00 +4.9999998884e+02 5.0000000000e+02 1.0566000000e-01 0.0000e+00 1.0000e+00
      994 -1    0    0    0    0 -0.0000000000e+00 -0.0000000000e+00 +0.0000000000e+00 1.3100000000e+02 1.3100000000e+02 0.0000e+00 0.0000e+00
       13  1    1    2    0    0 +2.9664784684e+01 -1.3972601172e+01 +8.9157943139e+01 9.4996752695e+01 1.0566000000e-01 0.0000e+00 -1.0000e+00
      994  1    1    2    0    0 -2.3312431351e+01 +1.2642461586e+01 +8.9739088587e+00 1.3395832311e+02 1.3100000000e+02 0.0000e+00 0.0000e+00
      997  1    1    2    0    0 -6.3523533323e+00 +1.3301395865e+00 +4.0186813684e+02 4.0204492419e+02 1.0000000000e+01 0.0000e+00 0.0000e+00
</event>
<event>
 5      1 +4.4770400e-06 2.12317600e+02 7.95774700e-02 4.82702500e-01
       13 -1    0    0    0    0 +0.0000000000e+00 +0.0000000000e+00 +4.9999998884e+02 5.0000000000e+02 1.0566000000e-01 0.0000e+00 1.0000e+00
      994 -1    0    0    0    0 -0.0000000000e+00 -0.0000000000e+00 +0.0000000000e+00 1.3100000000e+02 1.3100000000e+02 0.0000e+00 0.0000e+00
       13  1    1    2    0    0 +3.7672416496e+00 +1.4347876983e+01 +7.5525334331e+01 7.6968441412e+01 1.0566000000e-01 0.0000e+00 -1.0000e+00
      994  1    1    2    0    0 -2.3717104216e+01 +4.9086461845e+00 +4.7828111492e+00 1.3330593056e+02 1.3100000000e+02 0.0000e+00 0.0000e+00
      997  1    1    2    0    0 +1.9949862566e+01 -1.9256523167e+01 +4.1969184336e+02 4.2072562803e+02 1.0000000000e+01 0.0000e+00 0.0000e+00
</event>
<event>
 5      1 +4.4770400e-06 1.70891800e+02 7.95774700e-02 5.71068000e-01
       13 -1    0    0    0    0 +0.0000000000e+00 +0.0000000000e+00 +4.9999998884e+02 5.0000000000e+02 1.0566000000e-01 0.0000e+00 1.0000e+00
      994 -1    0    0    0    0 -0.0000000000e+00 -0.0000000000e+00 +0.0000000000e+00 1.3100000000e+02 1.3100000000e+02 0.0000e+00 0.0000e+00
       13  1    1    2    0    0 -1.0967711258e+01 -1.0605722745e+02 +9.2649821340e+01 1.4125305923e+02 1.0566000000e-01 0.0000e+00 -1.0000e+00
      994  1    1    2    0    0 +9.9423055815e+00 +1.1423007310e+02 +1.4359028736e+02 2.2566907113e+02 1.3100000000e+02 0.0000e+00 0.0000e+00
      997  1    1    2    0    0 +1.0254056762e+00 -8.1728456537e+00 +2.6375988014e+02 2.6407786964e+02 1.0000000000e+01 0.0000e+00 0.0000e+00
</event>
<event>
 5      1 +4.4770400e-06 1.95152700e+02 7.95774700e-02 5.13278100e-01
       13 -1    0    0    0    0 +0.0000000000e+00 +0.0000000000e+00 +4.9999998884e+02 5.0000000000e+02 1.0566000000e-01 0.0000e+00 1.0000e+00
      994 -1    0    0    0    0 -0.0000000000e+00 -0.0000000000e+00 +0.0000000000e+00 1.3100000000e+02 1.3100000000e+02 0.0000e+00 0.0000e+00
       13  1    1    2    0    0 -3.0324063755e+01 +2.1704149251e+01 +2.7310602658e+01 4.6222279465e+01 1.0566000000e-01 0.0000e+00 -1.0000e+00
      994  1    1    2    0    0 +2.0424500983e+01 +1.1864300560e+01 +2.4789154958e+01 1.3540097515e+02 1.3100000000e+02 0.0000e+00 0.0000e+00
      997  1    1    2    0    0 +9.8995627727e+00 -3.3568449811e+01 +4.4790023122e+02 4.4937674538e+02 1.0000000000e+01 0.0000e+00 0.0000e+00
</event>
<event>
 5      1 +4.4770400e-06 2.13244100e+02 7.95774700e-02 4.81229700e-01
       13 -1    0    0    0    0 +0.0000000000e+00 +0.0000000000e+00 +4.9999998884e+02 5.0000000000e+02 1.0566000000e-01 0.0000e+00 -1.0000e+00
      994 -1    0    0    0    0 -0.0000000000e+00 -0.0000000000e+00 +0.0000000000e+00 1.3100000000e+02 1.3100000000e+02 0.0000e+00 0.0000e+00
       13  1    1    2    0    0 +1.1559701897e+01 +8.7259733174e+00 +8.5018176603e+01 8.6243091521e+01 1.0566000000e-01 0.0000e+00 1.0000e+00
      994  1    1    2    0    0 -8.3195708586e+00 -1.1683686299e+01 +2.1700422324e+00 1.3180073167e+02 1.3100000000e+02 0.0000e+00 0.0000e+00
      997  1    1    2    0    0 -3.2401310384e+00 +2.9577129812e+00 +4.1281177000e+02 4.1295617681e+02 1.0000000000e+01 0.0000e+00 0.0000e+00
</event>
<event>
 5      1 +4.4770400e-06 1.46727800e+02 7.95774700e-02 6.58168500e-01
       13 -1    0    0    0    0 +0.0000000000e+00 +0.0000000000e+00 +4.9999998884e+02 5.0000000000e+02 1.0566000000e-01 0.0000e+00 -1.0000e+00
      994 -1    0    0    0    0 -0.0000000000e+00 -0.0000000000e+00 +0.0000000000e+00 1.3100000000e+02 1.3100000000e+02 0.0000e+00 0.0000e+00
       13  1    1    2    0    0 -4.3023005359e+01 -4.5942992658e+01 +2.2620131739e+01 6.6883623470e+01 1.0566000000e-01 0.0000e+00 1.0000e+00
      994  1    1    2    0    0 +4.6635239730e+01 +5.4189087371e+01 +8.5480496897e+01 1.7198609864e+02 1.3100000000e+02 0.0000e+00 0.0000e+00
      997  1    1    2    0    0 -3.6122343707e+00 -8.2460947132e+00 +3.9189936020e+02 3.9213027789e+02 1.0000000000e+01 0.0000e+00 0.0000e+00
</event>
<event>
 5      1 +4.4770400e-06 2.13164500e+02 7.95774700e-02 4.81355500e-01
       13 -1    0    0    0    0 +0.0000000000e+00 +0.0000000000e+00 +4.9999998884e+02 5.0000000000e+02 1.0566000000e-01 0.0000e+00 -1.0000e+00
      994 -1    0    0    0    0 -0.0000000000e+00 -0.0000000000e+00 +0.0000000000e+00 1.3100000000e+02 1.3100000000e+02 0.0000e+00 0.0000e+00
       13  1    1    2    0    0 +2.7221365270e+00 +1.4958262441e+01 +8.3759649613e+01 8.5128430679e+01 1.0566000000e-01 0.0000e+00 1.0000e+00
      994  1    1    2    0    0 +9.4851040827e+00 -1.9334180934e+01 +3.4979172030e+00 1.3280441701e+02 1.3100000000e+02 0.0000e+00 0.0000e+00
      997  1    1    2    0    0 -1.2207240610e+01 +4.3759184930e+00 +4.1274242202e+02 4.1306715231e+02 1.0000000000e+01 0.0000e+00 0.0000e+00
</event>
<event>
 5      1 +4.4770400e-06 2.12587900e+02 7.95774700e-02 4.82271100e-01
       13 -1    0    0    0    0 +0.0000000000e+00 +0.0000000000e+00 +4.9999998884e+02 5.0000000000e+02 1.0566000000e-01 0.0000e+00 -1.0000e+00
      994 -1    0    0    0    0 -0.0000000000e+00 -0.0000000000e+00 +0.0000000000e+00 1.3100000000e+02 1.3100000000e+02 0.0000e+00 0.0000e+00
       13  1    1    2    0    0 -5.5670846273e+00 -1.0600713809e+01 +4.9240060643e+01 5.0675065868e+01 1.0566000000e-01 0.0000e+00 1.0000e+00
      994  1    1    2    0    0 +4.2112504730e+00 -5.0772087002e-01 +1.7663030542e+00 1.3108055629e+02 1.3100000000e+02 0.0000e+00 0.0000e+00
      997  1    1    2    0    0 +1.3558341543e+00 +1.1108434679e+01 +4.4899362514e+02 4.4924437784e+02 1.0000000000e+01 0.0000e+00 0.0000e+00
</event>
<event>
 5      1 +4.4770400e-06 2.08780200e+02 7.95774700e-02 4.88478300e-01
       13 -1    0    0    0    0 +0.0000000000e+00 +0.0000000000e+00 +4.9999998884e+02 5.0000000000e+02 1.0566000000e-01 0.0000e+00 -1.0000e+00
      994 -1    0    0    0    0 -0.0000000000e+00 -0.0000000000e+00 +0.0000000000e+00 1.3100000000e+02 1.3100000000e+02 0.0000e+00 0.0000e+00
       13  1    1    2    0    0 -1.3995427939e+01 +8.9744037035e+00 +3.0065606095e+01 3.4356422383e+01 1.0566000000e-01 0.0000e+00 1.0000e+00
      994  1    1    2    0    0 +2.3799623415e+00 -3.0042765117e-01 +4.7314054630e+00 1.3110736316e+02 1.3100000000e+02 0.0000e+00 0.0000e+00
      997  1    1    2    0    0 +1.1615465598e+01 -8.6739760523e+00 +4.6520297728e+02 4.6553621446e+02 1.0000000000e+01 0.0000e+00 0.0000e+00
</event>
<event>
 5      1 +4.4770400e-06 2.12393000e+02 7.95774700e-02 4.82582100e-01
       13 -1    0    0    0    0 +0.0000000000e+00 +0.0000000000e+00 +4.9999998884e+02 5.0000000000e+02 1.0566000000e-01 0.0000e+00 1.0000e+00
      994 -1    0    0    0    0 -0.0000000000e+00 -0.0000000000e+00 +0.0000000000e+00 1.3100000000e+02 1.3100000000e+02 0.0000e+00 0.0000e+00
       13  1    1    2    0    0 -1.1763975674e+01 +1.0912121091e+01 +9.1669355749e+01 9.3063136944e+01 1.0566000000e-01 0.0000e+00 -1.0000e+00
      994  1    1    2    0    0 +3.1430053382e+00 +2.6860341909e+00 +1.9146898994e+00 1.3107921002e+02 1.3100000000e+02 0.0000e+00 0.0000e+00
      997  1    1    2    0    0 +8.6209703355e+00 -1.3598155282e+01 +4.0641594319e+02 4.0685765304e+02 1.0000000000e+01 0.0000e+00 0.0000e+00
</event>
<event>
 5      1 +4.4770400e-06 2.13001100e+02 7.95774700e-02 4.81614300e-01
       13 -1    0    0    0    0 +0.0000000000e+00 +0.0000000000e+00 +4.9999998884e+02 5.0000000000e+02 1.0566000000e-01 0.0000e+00 -1.0000e+00
      994 -1    0    0    0    0 -0.0000000000e+00 -0.0000000000e+00 +0.0000000000e+00 1.3100000000e+02 1.3100000000e+02 0.0000e+00 0.0000e+00
       13  1    1    2    0    0 -3.5901557994e+00 -9.9174915941e+00 +4.5373265139e+01 4.6583153732e+01 1.0566000000e-01 0.0000e+00 1.0000e+00
      994  1    1    2    0    0 -1.1459311922e+00 +4.8377449296e+00 +1.4760222586e+00 1.3110261468e+02 1.3100000000e+02 0.0000e+00 0.0000e+00
      997  1    1    2    0    0 +4.7360869916e+00 +5.0797466645e+00 +4.5315070144e+02 4.5331423159e+02 1.0000000000e+01 0.0000e+00 0.0000e+00
</event>
<event>
 5      1 +4.4770400e-06 2.13422400e+02 7.95774700e-02 4.80948000e-01
       13 -1    0    0    0    0 +0.0000000000e+00 +0.0000000000e+00 +4.9999998884e+02 5.0000000000e+02 1.0566000000e-01 0.0000e+00 1.0000e+00
      994 -1    0    0    0    0 -0.0000000000e+00 -0.0000000000e+00 +0.0000000000e+00 1.3100000000e+02 1.3100000000e+02 0.0000e+00 0.0000e+00
       13  1    1    2    0    0 +4.7831532862e+00 -1.2844792571e+01 +7.0301837328e+01 7.1625601200e+01 1.0566000000e-01 0.0000e+00 -1.0000e+00
      994  1    1    2    0    0 -7.8826625588e+01 +3.1574485711e+01 +3.8670444884e+01 1.6083217451e+02 1.3100000000e+02 0.0000e+00 0.0000e+00
      997  1    1    2    0    0 +7.4043472302e+01 -1.8729693140e+01 +3.9102770662e+02 3.9854222429e+02 1.0000000000e+01 0.0000e+00 0.0000e+00
</event>
<event>
 5      1 +4.4770400e-06 2.06354800e+02 7.95774700e-02 4.92584500e-01
       13 -1    0    0    0    0 +0.0000000000e+00 +0.0000000000e+00 +4.9999998884e+02 5.0000000000e+02 1.0566000000e-01 0.0000e+00 -1.0000e+00
      994 -1    0    0    0    0 -0.0000000000e+00 -0.0000000000e+00 +0.0000000000e+00 1.3100000000e+02 1.3100000000e+02 0.0000e+00 0.0000e+00
       13  1    1    2    0    0 -2.4304475863e+01 +7.8107079985e+00 +3.9833384351e+01 4.7311989805e+01 1.0566000000e-01 0.0000e+00 1.0000e+00
      994  1    1    2    0    0 +3.0674718024e+01 -1.0625615892e+01 +1.2152714098e+01 1.3550841486e+02 1.3100000000e+02 0.0000e+00 0.0000e+00
      997  1    1    2    0    0 -6.3702421609e+00 +2.8149078930e+00 +4.4801389039e+02 4.4817959533e+02 1.0000000000e+01 0.0000e+00 0.0000e+00
</event>
<event>
 5      1 +4.4770400e-06 2.09781700e+02 7.95774700e-02 4.86818100e-01
       13 -1    0    0    0    0 +0.0000000000e+00 +0.0000000000e+00 +4.9999998884e+02 5.0000000000e+02 1.0566000000e-01 0.0000e+00 1.0000e+00
      994 -1    0    0    0    0 -0.0000000000e+00 -0.0000000000e+00 +0.0000000000e+00 1.3100000000e+02 1.3100000000e+02 0.0000e+00 0.0000e+00
       13  1    1    2    0    0 -6.0603345273e+01 -7.9028886331e+00 +2.2725593641e+02 2.3533060342e+02 1.0566000000e-01 0.0000e+00 -1.0000e+00
      994  1    1    2    0    0 +6.3297642416e+01 +2.4018810146e+01 +2.7899090649e+01 1.5007616078e+02 1.3100000000e+02 0.0000e+00 0.0000e+00
      997  1    1    2    0    0 -2.6942971425e+00 -1.6115921513e+01 +2.4484496178e+02 2.4559323580e+02 1.0000000000e+01 0.0000e+00 0.0000e+00
</event>
<event>
 5      1 +4.4770400e-06 2.05779400e+02 7.95774700e-02 4.93576900e-01
       13 -1    0    0    0    0 +0.0000000000e+00 +0.0000000000e+00 +4.9999998884e+02 5.0000000000e+02 1.0566000000e-01 0.0000e+00 -1.0000e+00
      994 -1    0    0    0    0 -0.0000000000e+00 -0.0000000000e+00 +0.0000000000e+00 1.3100000000e+02 1.3100000000e+02 0.0000e+00 0.0000e+00
       13  1    1    2    0    0 -1.0178033664e+01 +2.0602202490e+01 +3.8408105589e+01 4.4757534066e+01 1.0566000000e-01 0.0000e+00 1.0000e+00
      994  1    1    2    0    0 +7.9656962086e+00 +2.0586998708e+00 +7.5021706439e+00 1.3147232836e+02 1.3100000000e+02 0.0000e+00 0.0000e+00
      997  1    1    2    0    0 +2.2123374551e+00 -2.2660902361e+01 +4.5408971260e+02 4.5477013757e+02 1.0000000000e+01 0.0000e+00 0.0000e+00
</event>
<event>
 5      1 +4.4770400e-06 2.07138900e+02 7.95774700e-02 4.91243600e-01
       13 -1    0    0    0    0 +0.0000000000e+00 +0.0000000000e+00 +4.9999998884e+02 5.0000000000e+02 1.0566000000e-01 0.0000e+00 -1.0000e+00
      994 -1    0    0    0    0 -0.0000000000e+00 -0.0000000000e+00 +0.0000000000e+00 1.3100000000e+02 1.3100000000e+02 0.0000e+00 0.0000e+00
       13  1    1    2    0    0 +3.1647455725e+01 +1.8741624829e+01 +1.5474292013e+02 1.5905405512e+02 1.0566000000e-01 0.0000e+00 1.0000e+00
      994  1    1    2    0    0 +3.1142417321e+00 -1.7842319021e+01 +7.7159441251e+00 1.3247106342e+02 1.3100000000e+02 0.0000e+00 0.0000e+00
      997  1    1    2    0    0 -3.4761697457e+01 -8.9930580861e-01 +3.3754112458e+02 3.3947488146e+02 1.0000000000e+01 0.0000e+00 0.0000e+00
</event>
<event>
 5      1 +4.4770400e-06 2.08709300e+02 7.95774700e-02 4.88596700e-01
       13 -1    0    0    0    0 +0.0000000000e+00 +0.0000000000e+00 +4.9999998884e+02 5.0000000000e+02 1.0566000000e-01 0.0000e+00 -1.0000e+00
      994 -1    0    0    0    0 -0.0000000000e+00 -0.0000000000e+00 +0.0000000000e+00 1.3100000000e+02 1.3100000000e+02 0.0000e+00 0.0000e+00
       13  1    1    2    0    0 -7.9463511134e+00 +1.2594129733e+01 +2.2204449756e+01 2.6735843970e+01 1.0566000000e-01 0.0000e+00 1.0000e+00
      994  1    1    2    0    0 +5.5499893136e+00 -3.9644112394e+00 +4.9944026154e+00 1.3127247615e+02 1.3100000000e+02 0.0000e+00 0.0000e+00
      997  1    1    2    0    0 +2.3963617997e+00 -8.6297184940e+00 +4.7280113646e+02 4.7299167988e+02 1.0000000000e+01 0.0000e+00 0.0000e+00
</event>
<event>
 5      1 +4.4770400e-06 2.12443400e+02 7.95774700e-02 4.82501500e-01
       13 -1    0    0    0    0 +0.0000000000e+00 +0.0000000000e+00 +4.9999998884e+02 5.0000000000e+02 1.0566000000e-01 0.0000e+00 -1.0000e+00
      994 -1    0    0    0    0 -0.0000000000e+00 -0.0000000000e+00 +0.0000000000e+00 1.3100000000e+02 1.3100000000e+02 0.0000e+00 0.0000e+00
       13  1    1    2    0    0 +6.2738638885e-01 -1.3246741807e+01 +5.4199606063e+01 5.5798550551e+01 1.0566000000e-01 0.0000e+00 1.0000e+00
      994  1    1    2    0    0 -2.2817125498e+00 +4.3546826518e+00 +1.9098005564e+00 1.3110612805e+02 1.3100000000e+02 0.0000e+00 0.0000e+00
      997  1    1    2    0    0 +1.6543261610e+00 +8.8920591548e+00 +4.4389058222e+02 4.4409532140e+02 1.0000000000e+01 0.0000e+00 0.0000e+00
</event>
<event>
 5      1 +4.4770400e-06 2.06856600e+02 7.95774700e-02 4.91724800e-01
       13 -1    0    0    0    0 +0.0000000000e+00 +0.0000000000e+00 +4.9999998884e+02 5.0000000000e+02 1.0566000000e-01 0.0000e+00 -1.0000e+00
      994 -1    0    0    0    0 -0.0000000000e+00 -0.0000000000e+00 +0.0000000000e+00 1.3100000000e+02 1.3100000000e+02 0.0000e+00 0.0000e+00
       13  1    1    2    0    0 -2.6026252701e+01 +7.0036342900e+00 +2.7172457762e+01 3.8272318297e+01 1.0566000000e-01 0.0000e+00 1.0000e+00
      994  1    1    2    0    0 +8.8935963855e+01 -3.5302444477e+01 +5.8302817119e+01 1.7238354544e+02 1.3100000000e+02 0.0000e+00 0.0000e+00
      997  1    1    2    0    0 -6.2909711153e+01 +2.8298810187e+01 +4.1452471396e+02 4.2034413627e+02 1.0000000000e+01 0.0000e+00 0.0000e+00
</event>
<event>
 5      1 +4.4770400e-06 2.13042100e+02 7.95774700e-02 4.81549300e-01
       13 -1    0    0    0    0 +0.0000000000e+00 +0.0000000000e+00 +4.9999998884e+02 5.0000000000e+02 1.0566000000e-01 0.0000e+00 -1.0000e+00
      994 -1    0    0    0    0 -0.0000000000e+00 -0.0000000000e+00 +0.0000000000e+00 1.3100000000e+02 1.3100000000e+02 0.0000e+00 0.0000e+00
       13  1    1    2    0    0 +3.9873766807e+00 -1.6922710976e+01 +8.0469006633e+01 8.2325873892e+01 1.0566000000e-01 0.0000e+00 1.0000e+00
      994  1    1    2    0    0 +1.0627010596e+01 +3.3093213157e+01 +7.2818487719e+00 1.3572810848e+02 1.3100000000e+02 0.0000e+00 0.0000e+00
      997  1    1    2    0    0 -1.4614387277e+01 -1.6170502181e+01 +4.1224913343e+02 4.1294601762e+02 1.0000000000e+01 0.0000e+00 0.0000e+00
</event>
<event>
 5      1 +4.4770400e-06 2.09173000e+02 7.95774700e-02 4.87824800e-01
       13 -1    0    0    0    0 +0.0000000000e+00 +0.0000000000e+00 +4.9999998884e+02 5.0000000000e+02 1.0566000000e-01 0.0000e+00 1.0000e+00
      994 -1    0    0    0    0 -0.0000000000e+00 -0.0000000000e+00 +0.0000000000e+00 1.3100000000e+02 1.3100000000e+02 0.0000e+00 0.0000e+00
       13  1    1    2    0    0 -5.1123101171e+00 -2.5962000060e+01 +7.2832153971e+01 7.7489966950e+01 1.0566000000e-01 0.0000e+00 -1.0000e+00
      994  1    1    2    0    0 +1.4560589762e+00 +2.1801009403e+01 +6.7966624270e+00 1.3298345288e+02 1.3100000000e+02 0.0000e+00 0.0000e+00
      997  1    1    2    0    0 +3.6562511410e+00 +4.1609906567e+00 +4.2037117244e+02 4.2052658017e+02 1.0000000000e+01 0.0000e+00 0.0000e+00
</event>
<event>
 5      1 +4.4770400e-06 2.12418600e+02 7.95774700e-02 4.82541100e-01
       13 -1    0    0    0    0 +0.0000000000e+00 +0.0000000000e+00 +4.9999998884e+02 5.0000000000e+02 1.0566000000e-01 0.0000e+00 1.0000e+00
      994 -1    0    0    0    0 -0.0000000000e+00 -0.0000000000e+00 +0.0000000000e+00 1.3100000000e+02 1.3100000000e+02 0.0000e+00 0.0000e+00
       13  1    1    2    0    0 +4.0204432919e+00 +9.8141158204e+00 +3.1722338458e+01 3.3448449214e+01 1.0566000000e-01 0.0000e+00 -1.0000e+00
      994  1    1    2    0    0 +5.3316614514e-01 -7.7729615585e+00 +2.1084705442e+00 1.3124842416e+02 1.3100000000e+02 0.0000e+00 0.0000e+00
      997  1    1    2    0    0 -4.5536094370e+00 -2.0411542619e+00 +4.6616917983e+02 4.6630312662e+02 1.0000000000e+01 0.0000e+00 0.0000e+00
</event>
<event>
 5      1 +4.4770400e-06 2.13159900e+02 7.95774700e-02 4.81362800e-01
       13 -1    0    0    0    0 +0.0000000000e+00 +0.0000000000e+00 +4.9999998884e+02 5.0000000000e+02 1.0566000000e-01 0.0000e+00 -1.0000e+00
      994 -1    0    0    0    0 -0.0000000000e+00 -0.0000000000e+00 +0.0000000000e+00 1.3100000000e+02 1.3100000000e+02 0.0000e+00 0.0000e+00
       13  1    1    2    0    0 -6.5964995943e+00 +8.3140872980e+00 +4.9529661092e+01 5.0654085190e+01 1.0566000000e-01 0.0000e+00 1.0000e+00
      994  1    1    2    0    0 +8.6737157990e+00 -8.4414878745e-01 +1.6020555301e+00 1.3129932412e+02 1.3100000000e+02 0.0000e+00 0.0000e+00
      997  1    1    2    0    0 -2.0772162047e+00 -7.4699385105e+00 +4.4886827221e+02 4.4904659069e+02 1.0000000000e+01 0.0000e+00 0.0000e+00
</event>
<event>
 5      1 +4.4770400e-06 2.12948100e+02 7.95774700e-02 4.81698500e-01
       13 -1    0    0    0    0 +0.0000000000e+00 +0.0000000000e+00 +4.9999998884e+02 5.0000000000e+02 1.0566000000e-01 0.0000e+00 1.0000e+00
      994 -1    0    0    0    0 -0.0000000000e+00 -0.0000000000e+00 +0.0000000000e+00 1.3100000000e+02 1.3100000000e+02 0.0000e+00 0.0000e+00
       13  1    1    2    0    0 -9.6746987498e+00 +8.0086104707e+00 +7.0487702651e+01 7.1597940100e+01 1.0566000000e-01 0.0000e+00 -1.0000e+00
      994  1    1    2    0    0 -6.1753606082e+00 -9.7434321096e+00 +2.0472205191e+00 1.3152285223e+02 1.3100000000e+02 0.0000e+00 0.0000e+00
      997  1    1    2    0    0 +1.5850059358e+01 +1.7348216390e+00 +4.2746506567e+02 4.2787920767e+02 1.0000000000e+01 0.0000e+00 0.0000e+00
</event>
<event>
 5      1 +4.4770400e-06 2.12615200e+02 7.95774700e-02 4.82227700e-01
       13 -1    0    0    0    0 +0.0000000000e+00 +0.0000000000e+00 +4.9999998884e+02 5.0000000000e+02 1.0566000000e-01 0.0000e+00 1.0000e+00
      994 -1    0    0    0    0 -0.0000000000e+00 -0.0000000000e+00 +0.0000000000e+00 1.3100000000e+02 1.3100000000e+02 0.0000e+00 0.0000e+00
       13  1    1    2    0    0 +1.5326262906e+01 -6.7244377559e+00 +1.0040492355e+02 1.0179033469e+02 1.0566000000e-01 0.0000e+00 -1.0000e+00
      994  1    1    2    0    0 -5.8026534879e+00 +7.1987353783e-02 +1.8217525857e+00 1.3114112533e+02 1.3100000000e+02 0.0000e+00 0.0000e+00
      997  1    1    2    0    0 -9.5236094182e+00 +6.6524504021e+00 +3.9777331270e+02 3.9806853999e+02 1.0000000000e+01 0.0000e+00 0.0000e+00
</event>
<event>
 5      1 +4.4770400e-06 2.12719800e+02 7.95774700e-02 4.82061200e-01
       13 -1    0    0    0    0 +0.0000000000e+00 +0.0000000000e+00 +4.9999998884e+02 5.0000000000e+02 1.0566000000e-01 0.0000e+00 -1.0000e+00
      994 -1    0    0    0    0 -0.0000000000e+00 -0.0000000000e+00 +0.0000000000e+00 1.3100000000e+02 1.3100000000e+02 0.0000e+00 0.0000e+00
       13  1    1    2    0    0 -5.3211016817e+00 +1.4384515022e+01 +6.2749052348e+01 6.4596308952e+01 1.0566000000e-01 0.0000e+00 1.0000e+00
      994  1    1    2    0    0 +2.7297056125e+00 -2.0927638119e+01 +3.7621814782e+00 1.3274250013e+02 1.3100000000e+02 0.0000e+00 0.0000e+00
      997  1    1    2    0    0 +2.5913960692e+00 +6.5431230970e+00 +4.3348875501e+02 4.3366119092e+02 1.0000000000e+01 0.0000e+00 0.0000e+00
</event>
<event>
 5      1 +4.4770400e-06 2.11487500e+02 7.95774700e-02 4.84036000e-01
       13 -1    0    0    0    0 +0.0000000000e+00 +0.0000000000e+00 +4.9999998884e+02 5.0000000000e+02 1.0566000000e-01 0.0000e+00 1.0000e+00
      994 -1    0    0    0    0 -0.0000000000e+00 -0.0000000000e+00 +0.0000000000e+00 1.3100000000e+02 1.3100000000e+02 0.0000e+00 0.0000e+00
       13  1    1    2    0    0 -6.9981738496e-01 -3.3294741423e+01 +1.4104443667e+02 1.4492264775e+02 1.0566000000e-01 0.0000e+00 -1.0000e+00
      994  1    1    2    0    0 +6.1871147858e+01 +6.5958077920e+01 +4.6462097969e+01 1.6582591332e+02 1.3100000000e+02 0.0000e+00 0.0000e+00
      997  1    1    2    0    0 -6.1171330473e+01 -3.2663336497e+01 +3.1249345419e+02 3.2025143893e+02 1.0000000000e+01 0.0000e+00 0.0000e+00
</event>
<event>
 5      1 +4.4770400e-06 2.12514400e+02 7.95774700e-02 4.82388300e-01
       13 -1    0    0    0    0 +0.0000000000e+00 +0.0000000000e+00 +4.9999998884e+02 5.0000000000e+02 1.0566000000e-01 0.0000e+00 -1.0000e+00
      994 -1    0    0    0    0 -0.0000000000e+00 -0.0000000000e+00 +0.0000000000e+00 1.3100000000e+02 1.3100000000e+02 0.0000e+00 0.0000e+00
       13  1    1    2    0    0 +1.6024519337e+01 -2.6523875292e+01 +1.8154521130e+02 1.8417105118e+02 1.0566000000e-01 0.0000e+00 1.0000e+00
      994  1    1    2    0    0 -1.3530532293e+01 +2.9593490500e+01 +6.9722830243e+00 1.3516087716e+02 1.3100000000e+02 0.0000e+00 0.0000e+00
      997  1    1    2    0    0 -2.4939870445e+00 -3.0696152072e+00 +3.1148249451e+02 3.1166807166e+02 1.0000000000e+01 0.0000e+00 0.0000e+00
</event>
<event>
 5      1 +4.4770400e-06 1.67677300e+02 7.95774700e-02 5.80524600e-01
       13 -1    0    0    0    0 +0.0000000000e+00 +0.0000000000e+00 +4.9999998884e+02 5.0000000000e+02 1.0566000000e-01 0.0000e+00 -1.0000e+00
      994 -1    0    0    0    0 -0.0000000000e+00 -0.0000000000e+00 +0.0000000000e+00 1.3100000000e+02 1.3100000000e+02 0.0000e+00 0.0000e+00
       13  1    1    2    0    0 -7.3052867632e+01 +2.0289229352e+01 +2.2210117033e+02 2.3468556693e+02 1.0566000000e-01 0.0000e+00 1.0000e+00
      994  1    1    2    0    0 +2.5389273844e+01 +3.9699507586e+00 +2.2740624917e+01 1.3541976132e+02 1.3100000000e+02 0.0000e+00 0.0000e+00
      997  1    1    2    0    0 +4.7663593789e+01 -2.4259180111e+01 +2.5515819359e+02 2.6089467175e+02 1.0000000000e+01 0.0000e+00 0.0000e+00
</event>
<event>
 5      1 +4.4770400e-06 2.13250400e+02 7.95774700e-02 4.81219700e-01
       13 -1    0    0    0    0 +0.0000000000e+00 +0.0000000000e+00 +4.9999998884e+02 5.0000000000e+02 1.0566000000e-01 0.0000e+00 1.0000e+00
      994 -1    0    0    0    0 -0.0000000000e+00 -0.0000000000e+00 +0.0000000000e+00 1.3100000000e+02 1.3100000000e+02 0.0000e+00 0.0000e+00
       13  1    1    2    0    0 +1.1721294696e+01 +1.4904490036e+01 +6.7979891000e+01 7.0574849040e+01 1.0566000000e-01 0.0000e+00 -1.0000e+00
      994  1    1    2    0    0 -3.1969738474e+01 -4.3652836426e+01 +1.5810916805e+01 1.4261353160e+02 1.3100000000e+02 0.0000e+00 0.0000e+00
      997  1    1    2    0    0 +2.0248443778e+01 +2.8748346390e+01 +4.1620918103e+02 4.1781161936e+02 1.0000000000e+01 0.0000e+00 0.0000e+00
</event>
<event>
 5      1 +4.4770400e-06 2.12827100e+02 7.95774700e-02 4.81890500e-01
       13 -1    0    0    0    0 +0.0000000000e+00 +0.0000000000e+00 +4.9999998884e+02 5.0000000000e+02 1.0566000000e-01 0.0000e+00 1.0000e+00
      994 -1    0    0    0    0 -0.0000000000e+00 -0.0000000000e+00 +0.0000000000e+00 1.3100000000e+02 1.3100000000e+02 0.0000e+00 0.0000e+00
       13  1    1    2    0    0 -5.4825628045e+01 -1.0718704795e+01 +2.9002474060e+02 2.9535588947e+02 1.0566000000e-01 0.0000e+00 -1.0000e+00
      994  1    1    2    0    0 +7.4446534614e+01 +4.0551521823e+01 +3.9195384921e+01 1.6088502304e+02 1.3100000000e+02 0.0000e+00 0.0000e+00
      997  1    1    2    0    0 -1.9620906569e+01 -2.9832817028e+01 +1.7077986332e+02 1.7475908749e+02 1.0000000000e+01 0.0000e+00 0.0000e+00
</event>
<event>
 5      1 +4.4770400e-06 2.12038200e+02 7.95774700e-02 4.83149900e-01
       13 -1    0    0    0    0 +0.0000000000e+00 +0.0000000000e+00 +4.9999998884e+02 5.0000000000e+02 1.0566000000e-01 0.0000e+00 1.0000e+00
      994 -1    0    0    0    0 -0.0000000000e+00 -0.0000000000e+00 +0.0000000000e+00 1.3100000000e+02 1.3100000000e+02 0.0000e+00 0.0000e+00
       13  1    1    2    0    0 +1.2002301101e+01 -1.1216695883e+01 +5.8083330357e+01 6.0361858219e+01 1.0566000000e-01 0.0000e+00 -1.0000e+00
      994  1    1    2    0    0 -1.1009544589e+01 +1.3356904266e+01 +3.5862015778e+00 1.3218728307e+02 1.3100000000e+02 0.0000e+00 0.0000e+00
      997  1    1    2    0    0 -9.9275651223e-01 -2.1402083837e+00 +4.3833045690e+02 4.3845085871e+02 1.0000000000e+01 0.0000e+00 0.0000e+00
</event>
<event>
 5      1 +4.4770400e-06 2.08932600e+02 7.95774700e-02 4.88224500e-01
       13 -1    0    0    0    0 +0.0000000000e+00 +0.0000000000e+00 +4.9999998884e+02 5.0000000000e+02 1.0566000000e-01 0.0000e+00 1.0000e+00
      994 -1    0    0    0    0 -0.0000000000e+00 -0.0000000000e+00 +0.0000000000e+00 1.3100000000e+02 1.3100000000e+02 0.0000e+00 0.0000e+00
       13  1    1    2    0    0 -9.6787016439e+00 +5.3502062774e+00 +1.1592477501e+01 1.6021818604e+01 1.0566000000e-01 0.0000e+00 -1.0000e+00
      994  1    1    2    0    0 +2.3184461372e+00 -1.0111643483e+01 +5.1221689324e+00 1.3150991271e+02 1.3100000000e+02 0.0000e+00 0.0000e+00
      997  1    1    2    0    0 +7.3602555067e+00 +4.7614372055e+00 +4.8328534240e+02 4.8346826869e+02 1.0000000000e+01 0.0000e+00 0.0000e+00
</event>
<event>
 5      1 +4.4770400e-06 2.08110100e+02 7.95774700e-02 4.89600700e-01
       13 -1    0    0    0    0 +0.0000000000e+00 +0.0000000000e+00 +4.9999998884e+02 5.0000000000e+02 1.0566000000e-01 0.0000e+00 1.0000e+00
      994 -1    0    0    0    0 -0.0000000000e+00 -0.0000000000e+00 +0.0000000000e+00 1.3100000000e+02 1.3100000000e+02 0.0000e+00 0.0000e+00
       13  1    1    2    0    0 -1.1288430506e+01 -3.1087819099e+01 +8.9691612325e+01 9.5595385062e+01 1.0566000000e-01 0.0000e+00 -1.0000e+00
      994  1    1    2    0    0 +1.5939214678e+01 +2.5430842612e+01 +9.8501719488e+00 1.3475463706e+02 1.3100000000e+02 0.0000e+00 0.0000e+00
      997  1    1    2    0    0 -4.6507841729e+00 +5.6569764870e+00 +4.0045820456e+02 4.0064997788e+02 1.0000000000e+01 0.0000e+00 0.0000e+00
</event>
<event>
 5      1 +4.4770400e-06 2.12840100e+02 7.95774700e-02 4.81869900e-01
       13 -1    0    0    0    0 +0.0000000000e+00 +0.0000000000e+00 +4.9999998884e+02 5.0000000000e+02 1.0566000000e-01 0.0000e+00 1.0000e+00
      994 -1    0    0    0    0 -0.0000000000e+00 -0.0000000000e+00 +0.0000000000e+00 1.3100000000e+02 1.3100000000e+02 0.0000e+00 0.0000e+00
       13  1    1    2    0    0 -4.9637119457e+00 +9.1610636404e+00 +3.9350208986e+01 4.0706432349e+01 1.0566000000e-01 0.0000e+00 -1.0000e+00
      994  1    1    2    0    0 +4.6956343949e+00 -3.1189058533e+00 +1.6364024976e+00 1.3113143929e+02 1.3100000000e+02 0.0000e+00 0.0000e+00
      997  1    1    2    0    0 +2.6807755076e-01 -6.0421577870e+00 +4.5901337735e+02 4.5916212836e+02 1.0000000000e+01 0.0000e+00 0.0000e+00
</event>
<event>
 5      1 +4.4770400e-06 2.12203300e+02 7.95774700e-02 4.82885300e-01
       13 -1    0    0    0    0 +0.0000000000e+00 +0.0000000000e+00 +4.9999998884e+02 5.0000000000e+02 1.0566000000e-01 0.0000e+00 1.0000e+00
      994 -1    0    0    0    0 -0.0000000000e+00 -0.0000000000e+00 +0.0000000000e+00 1.3100000000e+02 1.3100000000e+02 0.0000e+00 0.0000e+00
       13  1    1    2    0    0 +1.2703482104e+01 +1.0289826936e+01 +6.5682227567e+01 6.7686225911e+01 1.0566000000e-01 0.0000e+00 -1.0000e+00
      994  1    1    2    0    0 -7.6825614318e+00 -1.1057789824e+01 +2.8711999866e+00 1.3172144949e+02 1.3100000000e+02 0.0000e+00 0.0000e+00
      997  1    1    2    0    0 -5.0209206723e+00 +7.6796288841e-01 +4.3144656128e+02 4.3159232460e+02 1.0000000000e+01 0.0000e+00 0.0000e+00
</event>
<event>
 5      1 +4.4770400e-06 2.11084800e+02 7.95774700e-02 4.84687700e-01
       13 -1    0    0    0    0 +0.0000000000e+00 +0.0000000000e+00 +4.9999998884e+02 5.0000000000e+02 1.0566000000e-01 0.0000e+00 -1.0000e+00
      994 -1    0    0    0    0 -0.0000000000e+00 -0.0000000000e+00 +0.0000000000e+00 1.3100000000e+02 1.3100000000e+02 0.0000e+00 0.0000e+00
       13  1    1    2    0    0 +1.7275123510e+01 +1.8377055047e+01 +1.0631404006e+02 1.0926496384e+02 1.0566000000e-01 0.0000e+00 1.0000e+00
      994  1    1    2    0    0 -2.5392621049e+00 -2.3099054912e+01 +5.5487541632e+00 1.3316081579e+02 1.3100000000e+02 0.0000e+00 0.0000e+00
      997  1    1    2    0    0 -1.4735861405e+01 +4.7219998643e+00 +3.8813719461e+02 3.8857422037e+02 1.0000000000e+01 0.0000e+00 0.0000e+00
</event>
<event>
 5      1 +4.4770400e-06 2.12528300e+02 7.95774700e-02 4.82366100e-01
       13 -1    0    0    0    0 +0.0000000000e+00 +0.0000000000e+00 +4.9999998884e+02 5.0000000000e+02 1.0566000000e-01 0.0000e+00 -1.0000e+00
      994 -1    0    0    0    0 -0.0000000000e+00 -0.0000000000e+00 +0.0000000000e+00 1.3100000000e+02 1.3100000000e+02 0.0000e+00 0.0000e+00
       13  1    1    2    0    0 +6.2072088959e+00 +1.2102722868e+01 +6.5618557809e+01 6.7013518309e+01 1.0566000000e-01 0.0000e+00 1.0000e+00
      994  1    1    2    0    0 +3.3133465185e+00 -2.1607599418e+00 +1.8015106055e+00 1.3107208928e+02 1.3100000000e+02 0.0000e+00 0.0000e+00
      997  1    1    2    0    0 -9.5205554144e+00 -9.9419629267e+00 +4.3257992042e+02 4.3291439241e+02 1.0000000000e+01 0.0000e+00 0.0000e+00
</event>
<event>
 5      1 +4.4770400e-06 2.08025000e+02 7.95774700e-02 4.89743800e-01
       13 -1    0    0    0    0 +0.0000000000e+00 +0.0000000000e+00 +4.9999998884e+02 5.0000000000e+02 1.0566000000e-01 0.0000e+00 1.0000e+00
      994 -1    0    0    0    0 -0.0000000000e+00 -0.0000000000e+00 +0.0000000000e+00 1.3100000000e+02 1.3100000000e+02 0.0000e+00 0.0000e+00
       13  1    1    2    0    0 +7.1014287586e+00 -1.0714665169e+01 +1.3447954747e+01 1.8603574684e+01 1.0566000000e-01 0.0000e+00 -1.0000e+00
      994  1    1    2    0    0 -1.2392765872e+01 +1.8256330924e+00 +6.1103255796e+00 1.3173932466e+02 1.3100000000e+02 0.0000e+00 0.0000e+00
      997  1    1    2    0    0 +5.2913371133e+00 +8.8890320770e+00 +4.8044170851e+02 4.8065710066e+02 1.0000000000e+01 0.0000e+00 0.0000e+00
</event>
<event>
 5      1 +4.4770400e-06 2.11228200e+02 7.95774700e-02 4.84455300e-01
       13 -1    0    0    0    0 +0.0000000000e+00 +0.0000000000e+00 +4.9999998884e+02 5.0000000000e+02 1.0566000000e-01 0.0000e+00 1.0000e+00
      994 -1    0    0    0    0 -0.0000000000e+00 -0.0000000000e+00 +0.0000000000e+00 1.3100000000e+02 1.3100000000e+02 0.0000e+00 0.0000e+00
       13  1    1    2    0    0 +3.4699536072e+00 +1.2632586015e+01 +2.8946033036e+01 3.1772736741e+01 1.0566000000e-01 0.0000e+00 -1.0000e+00
      994  1    1    2    0    0 -1.7048690263e+00 -1.4595069812e+01 +3.8179812831e+00 1.3187683505e+02 1.3100000000e+02 0.0000e+00 0.0000e+00
      997  1    1    2    0    0 -1.7650845810e+00 +1.9624837978e+00 +4.6723597452e+02 4.6735042821e+02 1.0000000000e+01 0.0000e+00 0.0000e+00
</event>
<event>
 5      1 +4.4770400e-06 2.04984900e+02 7.95774700e-02 4.94958700e-01
       13 -1    0    0    0    0 +0.0000000000e+00 +0.0000000000e+00 +4.9999998884e+02 5.0000000000e+02 1.0566000000e-01 0.0000e+00 1.0000e+00
      994 -1    0    0    0    0 -0.0000000000e+00 -0.0000000000e+00 +0.0000000000e+00 1.3100000000e+02 1.3100000000e+02 0.0000e+00 0.0000e+00
       13  1    1    2    0    0 +1.9131196950e+00 -2.8665908839e+01 +4.8267334225e+01 5.6170642454e+01 1.0566000000e-01 0.0000e+00 -1.0000e+00
      994  1    1    2    0    0 +1.2404675768e+00 +2.1568696694e+01 +1.0249373343e+01 1.3316454893e+02 1.3100000000e+02 0.0000e+00 0.0000e+00
      997  1    1    2    0    0 -3.1535872718e+00 +7.0972121448e+00 +4.4148328127e+02 4.4166480862e+02 1.0000000000e+01 0.0000e+00 0.0000e+00
</event>
<event>
 5      1 +4.4770400e-06 2.12544300e+02 7.95774700e-02 4.82340600e-01
       13 -1    0    0    0    0 +0.0000000000e+00 +0.0000000000e+00 +4.9999998884e+02 5.0000000000e+02 1.0566000000e-01 0.0000e+00 -1.0000e+00
      994 -1    0    0    0    0 -0.0000000000e+00 -0.0000000000e+00 +0.0000000000e+00 1.3100000000e+02 1.3100000000e+02 0.0000e+00 0.0000e+00
       13  1    1    2    0    0 -4.8645849090e+00 -9.8406516790e+00 +4.7827154679e+01 4.9070872221e+01 1.0566000000e-01 0.0000e+00 1.0000e+00
      994  1    1    2    0    0 +1.7440533570e+01 -1.5878581301e+01 +4.4502724022e+00 1.3318072864e+02 1.3100000000e+02 0.0000e+00 0.0000e+00
      997  1    1    2    0    0 -1.2575948661e+01 +2.5719232980e+01 +4.4772256176e+02 4.4874839914e+02 1.0000000000e+01 0.0000e+00 0.0000e+00
</event>
<event>
 5      1 +4.4770400e-06 2.07034700e+02 7.95774700e-02 4.91421100e-01
       13 -1    0    0    0    0 +0.0000000000e+00 +0.0000000000e+00 +4.9999998884e+02 5.0000000000e+02 1.0566000000e-01 0.0000e+00 1.0000e+00
      994 -1    0    0    0    0 -0.0000000000e+00 -0.0000000000e+00 +0.0000000000e+00 1.3100000000e+02 1.3100000000e+02 0.0000e+00 0.0000e+00
       13  1    1    2    0    0 +1.0390121030e+01 -4.7030913966e+00 +8.1151800667e+00 1.3997892529e+01 1.0566000000e-01 0.0000e+00 -1.0000e+00
      994  1    1    2    0    0 -5.0796921662e+00 +3.3625296261e+00 +6.3098159213e+00 1.3129327346e+02 1.3100000000e+02 0.0000e+00 0.0000e+00
      997  1    1    2    0    0 -5.3104288634e+00 +1.3405617705e+00 +4.8557499285e+02 4.8570883401e+02 1.0000000000e+01 0.0000e+00 0.0000e+00
</event>
<event>
 5      1 +4.4770400e-06 2.12606500e+02 7.95774700e-02 4.82241600e-01
       13 -1    0    0    0    0 +0.0000000000e+00 +0.0000000000e+00 +4.9999998884e+02 5.0000000000e+02 1.0566000000e-01 0.0000e+00 1.0000e+00
      994 -1    0    0    0    0 -0.0000000000e+00 -0.0000000000e+00 +0.0000000000e+00 1.3100000000e+02 1.3100000000e+02 0.0000e+00 0.0000e+00
       13  1    1    2    0    0 +1.6989035100e+01 +1.1903417332e+00 +8.3639921430e+01 8.5356264257e+01 1.0566000000e-01 0.0000e+00 -1.0000e+00
      994  1    1    2    0    0 -1.3638469903e+01 -9.7794081839e+00 +3.0457907733e+00 1.3210572102e+02 1.3100000000e+02 0.0000e+00 0.0000e+00
      997  1    1    2    0    0 -3.3505651971e+00 +8.5890664507e+00 +4.1331427663e+02 4.1353801472e+02 1.0000000000e+01 0.0000e+00 0.0000e+00
</event>
<event>
 5      1 +4.4770400e-06 2.13750900e+02 7.95774700e-02 4.80430800e-01
       13 -1    0    0    0    0 +0.0000000000e+00 +0.0000000000e+00 +4.9999998884e+02 5.0000000000e+02 1.0566000000e-01 0.0000e+00 1.0000e+00
      994 -1    0    0    0    0 -0.0000000000e+00 -0.0000000000e+00 +0.0000000000e+00 1.3100000000e+02 1.3100000000e+02 0.0000e+00 0.0000e+00
       13  1    1    2    0    0 -3.0275589990e+00 +1.6422773263e+01 +9.1344897334e+01 9.2858898486e+01 1.0566000000e-01 0.0000e+00 -1.0000e+00
      994  1    1    2    0    0 +1.5560757475e+01 -3.4890027651e+01 +7.9476527370e+00 1.3668802576e+02 1.3100000000e+02 0.0000e+00 0.0000e+00
      997  1    1    2    0    0 -1.2533198476e+01 +1.8467254389e+01 +4.0070743877e+02 4.0145307575e+02 1.0000000000e+01 0.0000e+00 0.0000e+00
</event>
<event>
 5      1 +4.4770400e-06 2.13483000e+02 7.95774700e-02 4.80852400e-01
       13 -1    0    0    0    0 +0.0000000000e+00 +0.0000000000e+00 +4.9999998884e+02 5.0000000000e+02 1.0566000000e-01 0.0000e+00 1.0000e+00
      994 -1    0    0    0    0 -0.0000000000e+00 -0.0000000000e+00 +0.0000000000e+00 1.3100000000e+02 1.3100000000e+02 0.0000e+00 0.0000e+00
       13  1    1    2    0    0 -5.3732271965e+00 -1.8914853171e+01 +1.0107324124e+02 1.0296822083e+02 1.0566000000e-01 0.0000e+00 -1.0000e+00
      994  1    1    2    0    0 +2.1225603312e+01 +3.4460591804e+01 +9.0636174150e+00 1.3740890722e+02 1.3100000000e+02 0.0000e+00 0.0000e+00
      997  1    1    2    0    0 -1.5852376115e+01 -1.5545738634e+01 +3.8986313018e+02 3.9062287195e+02 1.0000000000e+01 0.0000e+00 0.0000e+00
</event>
<event>
 5      1 +4.4770400e-06 2.13028500e+02 7.95774700e-02 4.81570900e-01
       13 -1    0    0    0    0 +0.0000000000e+00 +0.0000000000e+00 +4.9999998884e+02 5.0000000000e+02 1.0566000000e-01 0.0000e+00 -1.0000e+00
      994 -1    0    0    0    0 -0.0000000000e+00 -0.0000000000e+00 +0.0000000000e+00 1.3100000000e+02 1.3100000000e+02 0.0000e+00 0.0000e+00
       13  1    1    2    0    0 +1.0315973869e+01 +3.5246521567e+00 +4.5621893895e+01 4.6906405280e+01 1.0566000000e-01 0.0000e+00 1.0000e+00
      994  1    1    2    0    0 -7.4665251235e+00 -4.6021021974e+00 +1.7096123955e+00 1.3130442154e+02 1.3100000000e+02 0.0000e+00 0.0000e+00
      997  1    1    2    0    0 -2.8494487454e+00 +1.0774500407e+00 +4.5266848255e+02 4.5278917318e+02 1.0000000000e+01 0.0000e+00 0.0000e+00
</event>
<event>
 5      1 +4.4770400e-06 2.07181300e+02 7.95774700e-02 4.91171400e-01
       13 -1    0    0    0    0 +0.0000000000e+00 +0.0000000000e+00 +4.9999998884e+02 5.0000000000e+02 1.0566000000e-01 0.0000e+00 -1.0000e+00
      994 -1    0    0    0    0 -0.0000000000e+00 -0.0000000000e+00 +0.0000000000e+00 1.3100000000e+02 1.3100000000e+02 0.0000e+00 0.0000e+00
       13  1    1    2    0    0 -7.1540018417e+00 -1.0814327853e+01 +1.2071868437e+01 1.7716393563e+01 1.0566000000e-01 0.0000e+00 1.0000e+00
      994  1    1    2    0    0 -3.2836198577e+00 +4.8085500696e+00 +6.1733147613e+00 1.3127457533e+02 1.3100000000e+02 0.0000e+00 0.0000e+00
      997  1    1    2    0    0 +1.0437621699e+01 +6.0057777836e+00 +4.8175480564e+02 4.8200903111e+02 1.0000000000e+01 0.0000e+00 0.0000e+00
</event>
<event>
 5      1 +4.4770400e-06 2.09666500e+02 7.95774700e-02 4.87008100e-01
       13 -1    0    0    0    0 +0.0000000000e+00 +0.0000000000e+00 +4.9999998884e+02 5.0000000000e+02 1.0566000000e-01 0.0000e+00 -1.0000e+00
      994 -1    0    0    0    0 -0.0000000000e+00 -0.0000000000e+00 +0.0000000000e+00 1.3100000000e+02 1.3100000000e+02 0.0000e+00 0.0000e+00
       13  1    1    2    0    0 +1.0831939452e+01 +1.5445200796e+01 +3.8972650233e+01 4.3298542356e+01 1.0566000000e-01 0.0000e+00 1.0000e+00
      994  1    1    2    0    0 -1.3603434821e+01 -1.7695650466e+01 +6.4964727890e+00 1.3304658448e+02 1.3100000000e+02 0.0000e+00 0.0000e+00
      997  1    1    2    0    0 +2.7714953690e+00 +2.2504496701e+00 +4.5453086581e+02 4.5465487316e+02 1.0000000000e+01 0.0000e+00 0.0000e+00
</event>
<event>
 5      1 +4.4770400e-06 2.11774800e+02 7.95774700e-02 4.83573000e-01
       13 -1    0    0    0    0 +0.0000000000e+00 +0.0000000000e+00 +4.9999998884e+02 5.0000000000e+02 1.0566000000e-01 0.0000e+00 1.0000e+00
      994 -1    0    0    0    0 -0.0000000000e+00 -0.0000000000e+00 +0.0000000000e+00 1.3100000000e+02 1.3100000000e+02 0.0000e+00 0.0000e+00
       13  1    1    2    0    0 +1.9901260697e+01 +1.1976192698e+01 +8.4203182993e+01 8.7348019777e+01 1.0566000000e-01 0.0000e+00 -1.0000e+00
      994  1    1    2    0    0 -4.2326781528e+01 +3.0713528772e+00 +1.1337220915e+01 1.3816845596e+02 1.3100000000e+02 0.0000e+00 0.0000e+00
      997  1    1    2    0    0 +2.2425520831e+01 -1.5047545575e+01 +4.0445958493e+02 4.0548352427e+02 1.0000000000e+01 0.0000e+00 0.0000e+00
</event>
<event>
 5      1 +4.4770400e-06 2.00674200e+02 7.95774700e-02 5.02703100e-01
       13 -1    0    0    0    0 +0.0000000000e+00 +0.0000000000e+00 +4.9999998884e+02 5.0000000000e+02 1.0566000000e-01 0.0000e+00 1.0000e+00
      994 -1    0    0    0    0 -0.0000000000e+00 -0.0000000000e+00 +0.0000000000e+00 1.3100000000e+02 1.3100000000e+02 0.0000e+00 0.0000e+00
       13  1    1    2    0    0 -2.2299785865e+01 +1.0317238055e+00 +1.5647294807e+01 2.7261582904e+01 1.0566000000e-01 0.0000e+00 -1.0000e+00
      994  1    1    2    0    0 +2.5657145860e+01 -8.6661320425e+00 +1.5454767103e+01 1.3465972228e+02 1.3100000000e+02 0.0000e+00 0.0000e+00
      997  1    1    2    0    0 -3.3573599950e+00 +7.6344082369e+00 +4.6889792693e+02 4.6907869482e+02 1.0000000000e+01 0.0000e+00 0.0000e+00
</event>
<event>
 5      1 +4.4770400e-06 2.10299900e+02 7.95774700e-02 4.85967000e-01
       13 -1    0    0    0    0 +0.0000000000e+00 +0.0000000000e+00 +4.9999998884e+02 5.0000000000e+02 1.0566000000e-01 0.0000e+00 -1.0000e+00
      994 -1    0    0    0    0 -0.0000000000e+00 -0.0000000000e+00 +0.0000000000e+00 1.3100000000e+02 1.3100000000e+02 0.0000e+00 0.0000e+00
       13  1    1    2    0    0 -1.3746910645e+01 +1.5867031532e+01 +6.0330921710e+01 6.3879351283e+01 1.0566000000e-01 0.0000e+00 1.0000e+00
      994  1    1    2    0    0 +5.6089326006e+00 -1.6098252201e+01 +4.9363739944e+00 1.3219675350e+02 1.3100000000e+02 0.0000e+00 0.0000e+00
      997  1    1    2    0    0 +8.1379780443e+00 +2.3122066856e-01 +4.3473269313e+02 4.3492389521e+02 1.0000000000e+01 0.0000e+00 0.0000e+00
</event>
<event>
 5      1 +4.4770400e-06 2.12789900e+02 7.95774700e-02 4.81949700e-01
       13 -1    0    0    0    0 +0.0000000000e+00 +0.0000000000e+00 +4.9999998884e+02 5.0000000000e+02 1.0566000000e-01 0.0000e+00 1.0000e+00
      994 -1    0    0    0    0 -0.0000000000e+00 -0.0000000000e+00 +0.0000000000e+00 1.3100000000e+02 1.3100000000e+02 0.0000e+00 0.0000e+00
       13  1    1    2    0    0 -6.7645054124e+00 +1.4460597222e+01 +8.4775576532e+01 8.6265734482e+01 1.0566000000e-01 0.0000e+00 -1.0000e+00
      994  1    1    2    0    0 +3.2824544685e+00 -1.0836677183e+01 +2.1477064397e+00 1.3150597219e+02 1.3100000000e+02 0.0000e+00 0.0000e+00
      997  1    1    2    0    0 +3.4820509439e+00 -3.6239200392e+00 +4.1307670586e+02 4.1322829332e+02 1.0000000000e+01 0.0000e+00 0.0000e+00
</event>
<event>
 5      1 +4.4770400e-06 2.11059600e+02 7.95774700e-02 4.84728600e-01
       13 -1    0    0    0    0 +0.0000000000e+00 +0.0000000000e+00 +4.9999998884e+02 5.0000000000e+02 1.0566000000e-01 0.0000e+00 -1.0000e+00
      994 -1    0    0    0    0 -0.0000000000e+00 -0.0000000000e+00 +0.0000000000e+00 1.3100000000e+02 1.3100000000e+02 0.0000e+00 0.0000e+00
       13  1    1    2    0    0 -8.0228392473e+00 +8.2883535260e+00 +2.1228451643e+01 2.4160320299e+01 1.0566000000e-01 0.0000e+00 1.0000e+00
      994  1    1    2    0    0 +1.0755266291e+01 -8.6124951001e+00 +3.8231890239e+00 1.3177809985e+02 1.3100000000e+02 0.0000e+00 0.0000e+00
      997  1    1    2    0    0 -2.7324270437e+00 +3.2414157409e-01 +4.7494834817e+02 4.7506157985e+02 1.0000000000e+01 0.0000e+00 0.0000e+00
</event>
<event>
 5      1 +4.4770400e-06 2.11934300e+02 7.95774700e-02 4.83316600e-01
       13 -1    0    0    0    0 +0.0000000000e+00 +0.0000000000e+00 +4.9999998884e+02 5.0000000000e+02 1.0566000000e-01 0.0000e+00 1.0000e+00
      994 -1    0    0    0    0 -0.0000000000e+00 -0.0000000000e+00 +0.0000000000e+00 1.3100000000e+02 1.3100000000e+02 0.0000e+00 0.0000e+00
       13  1    1    2    0    0 +1.7820559335e-01 -1.2156277348e+01 +3.5540920845e+01 3.7562947898e+01 1.0566000000e-01 0.0000e+00 -1.0000e+00
      994  1    1    2    0    0 -2.3812228719e+00 +4.4910578150e+00 +2.3180744421e+00 1.3111908058e+02 1.3100000000e+02 0.0000e+00 0.0000e+00
      997  1    1    2    0    0 +2.2030172785e+00 +7.6652195333e+00 +4.6214099355e+02 4.6231797152e+02 1.0000000000e+01 0.0000e+00 0.0000e+00
</event>
<event>
 5      1 +4.4770400e-06 2.10572200e+02 7.95774700e-02 4.85521600e-01
       13 -1    0    0    0    0 +0.0000000000e+00 +0.0000000000e+00 +4.9999998884e+02 5.0000000000e+02 1.0566000000e-01 0.0000e+00 -1.0000e+00
      994 -1    0    0    0    0 -0.0000000000e+00 -0.0000000000e+00 +0.0000000000e+00 1.3100000000e+02 1.3100000000e+02 0.0000e+00 0.0000e+00
       13  1    1    2    0    0 +2.4565623353e+01 +2.5770893788e+00 +1.1406905249e+02 1.1671277197e+02 1.0566000000e-01 0.0000e+00 1.0000e+00
      994  1    1    2    0    0 -5.3647144320e+00 -1.2115179309e+00 +3.4182277171e+00 1.3115994898e+02 1.3100000000e+02 0.0000e+00 0.0000e+00
      997  1    1    2    0    0 -1.9200908921e+01 -1.3655714478e+00 +3.8251270863e+02 3.8312727905e+02 1.0000000000e+01 0.0000e+00 0.0000e+00
</event>
<event>
 5      1 +4.4770400e-06 2.08852800e+02 7.95774700e-02 4.88357300e-01
       13 -1    0    0    0    0 +0.0000000000e+00 +0.0000000000e+00 +4.9999998884e+02 5.0000000000e+02 1.0566000000e-01 0.0000e+00 1.0000e+00
      994 -1    0    0    0    0 -0.0000000000e+00 -0.0000000000e+00 +0.0000000000e+00 1.3100000000e+02 1.3100000000e+02 0.0000e+00 0.0000e+00
       13  1    1    2    0    0 -7.2965437406e+00 -8.2925669189e+00 +1.1583304032e+01 1.6005946176e+01 1.0566000000e-01 0.0000e+00 -1.0000e+00
      994  1    1    2    0    0 -3.4959874101e-01 +5.5641264517e+00 +4.8005583301e+00 1.3120642927e+02 1.3100000000e+02 0.0000e+00 0.0000e+00
      997  1    1    2    0    0 +7.6461424816e+00 +2.7284404672e+00 +4.8361612647e+02 4.8378762455e+02 1.0000000000e+01 0.0000e+00 0.0000e+00
</event>
<event>
 5      1 +4.4770400e-06 2.12901800e+02 7.95774700e-02 4.81771900e-01
       13 -1    0    0    0    0 +0.0000000000e+00 +0.0000000000e+00 +4.9999998884e+02 5.0000000000e+02 1.0566000000e-01 0.0000e+00 -1.0000e+00
      994 -1    0    0    0    0 -0.0000000000e+00 -0.0000000000e+00 +0.0000000000e+00 1.3100000000e+02 1.3100000000e+02 0.0000e+00 0.0000e+00
       13  1    1    2    0    0 +2.0924582344e+01 +4.5211608983e+00 +1.2528869000e+02 1.2710446903e+02 1.0566000000e-01 0.0000e+00 1.0000e+00
      994  1    1    2    0    0 -2.1781194627e+01 -7.2158776026e+00 +4.0163580242e+00 1.3305495279e+02 1.3100000000e+02 0.0000e+00 0.0000e+00
      997  1    1    2    0    0 +8.5661228281e-01 +2.6947167043e+00 +3.7069494082e+02 3.7084057819e+02 1.0000000000e+01 0.0000e+00 0.0000e+00
</event>
<event>
 5      1 +4.4770400e-06 2.05452700e+02 7.95774700e-02 4.94143300e-01
       13 -1    0    0    0    0 +0.0000000000e+00 +0.0000000000e+00 +4.9999998884e+02 5.0000000000e+02 1.0566000000e-01 0.0000e+00 -1.0000e+00
      994 -1    0    0    0    0 -0.0000000000e+00 -0.0000000000e+00 +0.0000000000e+00 1.3100000000e+02 1.3100000000e+02 0.0000e+00 0.0000e+00
       13  1    1    2    0    0 -4.4297860315e+00 +2.0105397922e+01 +2.2388345901e+01 3.0415443875e+01 1.0566000000e-01 0.0000e+00 1.0000e+00
      994  1    1    2    0    0 +1.4270939963e+00 -3.1306594542e+01 +1.2559907482e+01 1.3528078480e+02 1.3100000000e+02 0.0000e+00 0.0000e+00
      997  1    1    2    0    0 +3.0026920352e+00 +1.1201196619e+01 +4.6505173545e+02 4.6530377133e+02 1.0000000000e+01 0.0000e+00 0.0000e+00
</event>
<event>
 5      1 +4.4770400e-06 2.07942200e+02 7.95774700e-02 4.89883300e-01
       13 -1    0    0    0    0 +0.0000000000e+00 +0.0000000000e+00 +4.9999998884e+02 5.0000000000e+02 1.0566000000e-01 0.0000e+00 -1.0000e+00
      994 -1    0    0    0    0 -0.0000000000e+00 -0.0000000000e+00 +0.0000000000e+00 1.3100000000e+02 1.3100000000e+02 0.0000e+00 0.0000e+00
       13  1    1    2    0    0 +1.1126961695e+01 +2.4993092192e+01 +7.8976521194e+01 8.3580894933e+01 1.0566000000e-01 0.0000e+00 1.0000e+00
      994  1    1    2    0    0 -6.6108944157e+00 -3.0896962818e+00 +5.6508856753e+00 1.3132472219e+02 1.3100000000e+02 0.0000e+00 0.0000e+00
      997  1    1    2    0    0 -4.5160672788e+00 -2.1903395910e+01 +4.1537258197e+02 4.1609438288e+02 1.0000000000e+01 0.0000e+00 0.0000e+00
</event>
<event>
 5      1 +4.4770400e-06 2.11112700e+02 7.95774700e-02 4.84642300e-01
       13 -1    0    0    0    0 +0.0000000000e+00 +0.0000000000e+00 +4.9999998884e+02 5.0000000000e+02 1.0566000000e-01 0.0000e+00 -1.0000e+00
      994 -1    0    0    0    0 -0.0000000000e+00 -0.0000000000e+00 +0.0000000000e+00 1.3100000000e+02 1.3100000000e+02 0.0000e+00 0.0000e+00
       13  1    1    2    0    0 +1.2066626016e+01 -9.1656963418e+00 +3.6351266030e+01 3.9383234490e+01 1.0566000000e-01 0.0000e+00 1.0000e+00
      994  1    1    2    0    0 -1.3398758015e+01 +1.2518102086e+01 +4.5089310680e+00 1.3235391968e+02 1.3100000000e+02 0.0000e+00 0.0000e+00
      997  1    1    2    0    0 +1.3321319984e+00 -3.3524057444e+00 +4.5913979174e+02 4.5926284583e+02 1.0000000000e+01 0.0000e+00 0.0000e+00
</event>
<event>
 5      1 +4.4770400e-06 2.08580900e+02 7.95774700e-02 4.88811300e-01
       13 -1    0    0    0    0 +0.0000000000e+00 +0.0000000000e+00 +4.9999998884e+02 5.0000000000e+02 1.0566000000e-01 0.0000e+00 1.0000e+00
      994 -1    0    0    0    0 -0.0000000000e+00 -0.0000000000e+00 +0.0000000000e+00 1.3100000000e+02 1.3100000000e+02 0.0000e+00 0.0000e+00
       13  1    1    2    0    0 -2.8097810838e+01 +2.2426841342e+01 +1.1675858078e+02 1.2216802993e+02 1.0566000000e-01 0.0000e+00 -1.0000e+00
      994  1    1    2    0    0 +1.3607614614e+01 -2.9519627994e+01 +1.0253485123e+01 1.3536140354e+02 1.3100000000e+02 0.0000e+00 0.0000e+00
      997  1    1    2    0    0 +1.4490196224e+01 +7.0927866521e+00 +3.7298792293e+02 3.7347056653e+02 1.0000000000e+01 0.0000e+00 0.0000e+00
</event>
<event>
 5      1 +4.4770400e-06 2.11386200e+02 7.95774700e-02 4.84199500e-01
       13 -1    0    0    0    0 +0.0000000000e+00 +0.0000000000e+00 +4.9999998884e+02 5.0000000000e+02 1.0566000000e-01 0.0000e+00 1.0000e+00
      994 -1    0    0    0    0 -0.0000000000e+00 -0.0000000000e+00 +0.0000000000e+00 1.3100000000e+02 1.3100000000e+02 0.0000e+00 0.0000e+00
       13  1    1    2    0    0 +4.1776850775e+00 +1.1147800145e+01 +2.5061211904e+01 2.7745306032e+01 1.0566000000e-01 0.0000e+00 -1.0000e+00
      994  1    1    2    0    0 -5.3601026598e+00 -1.2801934391e+01 +3.5762043980e+00 1.3178167347e+02 1.3100000000e+02 0.0000e+00 0.0000e+00
      997  1    1    2    0    0 +1.1824175823e+00 +1.6541342455e+00 +4.7136257253e+02 4.7147302050e+02 1.0000000000e+01 0.0000e+00 0.0000e+00
</event>
<event>
 5      1 +4.4770400e-06 2.11787500e+02 7.95774700e-02 4.83552500e-01
       13 -1    0    0    0    0 +0.0000000000e+00 +0.0000000000e+00 +4.9999998884e+02 5.0000000000e+02 1.0566000000e-01 0.0000e+00 1.0000e+00
      994 -1    0    0    0    0 -0.0000000000e+00 -0.0000000000e+00 +0.0000000000e+00 1.3100000000e+02 1.3100000000e+02 0.0000e+00 0.0000e+00
       13  1    1    2    0    0 -4.8049122064e+00 -1.0157794482e+01 +3.3005147108e+01 3.4865726290e+01 1.0566000000e-01 0.0000e+00 -1.0000e+00
      994  1    1    2    0    0 +9.9253915538e+00 -1.2376604352e+01 +3.5489726432e+00 1.3200488226e+02 1.3100000000e+02 0.0000e+00 0.0000e+00
      997  1    1    2    0    0 -5.1204793474e+00 +2.2534398833e+01 +4.6344586908e+02 4.6412939145e+02 1.0000000000e+01 0.0000e+00 0.0000e+00
</event>
<event>
 5      1 +4.4770400e-06 2.11522500e+02 7.95774700e-02 4.83979500e-01
       13 -1    0    0    0    0 +0.0000000000e+00 +0.0000000000e+00 +4.9999998884e+02 5.0000000000e+02 1.0566000000e-01 0.0000e+00 1.0000e+00
      994 -1    0    0    0    0 -0.0000000000e+00 -0.0000000000e+00 +0.0000000000e+00 1.3100000000e+02 1.3100000000e+02 0.0000e+00 0.0000e+00
       13  1    1    2    0    0 +1.6701902024e+01 -7.2678224797e+00 +9.5791855154e+01 9.7508284021e+01 1.0566000000e-01 0.0000e+00 -1.0000e+00
      994  1    1    2    0    0 +5.3131547933e+00 -5.8669324091e-01 +2.6563577657e+00 1.3113592208e+02 1.3100000000e+02 0.0000e+00 0.0000e+00
      997  1    1    2    0    0 -2.2015056817e+01 +7.8545157206e+00 +4.0155177592e+02 4.0235579390e+02 1.0000000000e+01 0.0000e+00 0.0000e+00
</event>
<event>
 5      1 +4.4770400e-06 2.05826200e+02 7.95774700e-02 4.93495900e-01
       13 -1    0    0    0    0 +0.0000000000e+00 +0.0000000000e+00 +4.9999998884e+02 5.0000000000e+02 1.0566000000e-01 0.0000e+00 -1.0000e+00
      994 -1    0    0    0    0 -0.0000000000e+00 -0.0000000000e+00 +0.0000000000e+00 1.3100000000e+02 1.3100000000e+02 0.0000e+00 0.0000e+00
       13  1    1    2    0    0 +3.2003404084e+01 -2.2018095933e+01 +9.8749879615e+01 1.0611580612e+02 1.0566000000e-01 0.0000e+00 1.0000e+00
      994  1    1    2    0    0 -2.2666343462e+01 +1.4018938489e+01 +1.0807101831e+01 1.3411967496e+02 1.3100000000e+02 0.0000e+00 0.0000e+00
      997  1    1    2    0    0 -9.3370606219e+00 +7.9991574438e+00 +3.9044300739e+02 3.9076451891e+02 1.0000000000e+01 0.0000e+00 0.0000e+00
</event>
<event>
 5      1 +4.4770400e-06 1.93890500e+02 7.95774700e-02 5.15807100e-01
       13 -1    0    0    0    0 +0.0000000000e+00 +0.0000000000e+00 +4.9999998884e+02 5.0000000000e+02 1.0566000000e-01 0.0000e+00 -1.0000e+00
      994 -1    0    0    0    0 -0.0000000000e+00 -0.0000000000e+00 +0.0000000000e+00 1.3100000000e+02 1.3100000000e+02 0.0000e+00 0.0000e+00
       13  1    1    2    0    0 -1.8813484801e+01 +1.2753263999e+01 +7.8543338337e+00 2.4047758253e+01 1.0566000000e-01 0.0000e+00 1.0000e+00
      994  1    1    2    0    0 +1.0657424094e+00 -1.5077938501e+01 +1.8846419468e+01 1.3320911216e+02 1.3100000000e+02 0.0000e+00 0.0000e+00
      997  1    1    2    0    0 +1.7747742391e+01 +2.3246745018e+00 +4.7329923553e+02 4.7374312959e+02 1.0000000000e+01 0.0000e+00 0.0000e+00
</event>
<event>
 5      1 +4.4770400e-06 2.11571700e+02 7.95774700e-02 4.83900000e-01
       13 -1    0    0    0    0 +0.0000000000e+00 +0.0000000000e+00 +4.9999998884e+02 5.0000000000e+02 1.0566000000e-01 0.0000e+00 1.0000e+00
      994 -1    0    0    0    0 -0.0000000000e+00 -0.0000000000e+00 +0.0000000000e+00 1.3100000000e+02 1.3100000000e+02 0.0000e+00 0.0000e+00
       13  1    1    2    0    0 -4.1204908898e+01 -4.0208015313e+00 +1.3435760467e+01 4.3526338987e+01 1.0566000000e-01 0.0000e+00 -1.0000e+00
      994  1    1    2    0    0 -2.0591762407e+01 +2.6604402367e+01 +4.7431392426e+01 1.4332673125e+02 1.3100000000e+02 0.0000e+00 0.0000e+00
      997  1    1    2    0    0 +6.1796671305e+01 -2.2583600836e+01 +4.3913283594e+02 4.4414692976e+02 1.0000000000e+01 0.0000e+00 0.0000e+00
</event>
<event>
 5      1 +4.4770400e-06 2.12242900e+02 7.95774700e-02 4.82821900e-01
       13 -1    0    0    0    0 +0.0000000000e+00 +0.0000000000e+00 +4.9999998884e+02 5.0000000000e+02 1.0566000000e-01 0.0000e+00 -1.0000e+00
      994 -1    0    0    0    0 -0.0000000000e+00 -0.0000000000e+00 +0.0000000000e+00 1.3100000000e+02 1.3100000000e+02 0.0000e+00 0.0000e+00
       13  1    1    2    0    0 -1.0087794124e+01 +4.3724285434e+00 +3.1126514540e+01 3.3011403986e+01 1.0566000000e-01 0.0000e+00 1.0000e+00
      994  1    1    2    0    0 +7.6544236447e+00 -2.7187275416e+00 +2.2725670010e+00 1.3127126967e+02 1.3100000000e+02 0.0000e+00 0.0000e+00
      997  1    1    2    0    0 +2.4333704790e+00 -1.6537010018e+00 +4.6660090729e+02 4.6671732634e+02 1.0000000000e+01 0.0000e+00 0.0000e+00
</event>
<event>
 5      1 +4.4770400e-06 2.09524900e+02 7.95774700e-02 4.87241900e-01
       13 -1    0    0    0    0 +0.0000000000e+00 +0.0000000000e+00 +4.9999998884e+02 5.0000000000e+02 1.0566000000e-01 0.0000e+00 1.0000e+00
      994 -1    0    0    0    0 -0.0000000000e+00 -0.0000000000e+00 +0.0000000000e+00 1.3100000000e+02 1.3100000000e+02 0.0000e+00 0.0000e+00
       13  1    1    2    0    0 +1.4437531037e+01 +1.3101179764e+01 +7.6467471986e+01 7.8913678470e+01 1.0566000000e-01 0.0000e+00 -1.0000e+00
      994  1    1    2    0    0 +2.2936233049e+01 +4.5762929325e+00 +6.8598408387e+00 1.3324815443e+02 1.3100000000e+02 0.0000e+00 0.0000e+00
      997  1    1    2    0    0 -3.7373764086e+01 -1.7677472697e+01 +4.1667267601e+02 4.1883816710e+02 1.0000000000e+01 0.0000e+00 0.0000e+00
</event>
<event>
 5      1 +4.4770400e-06 2.10765700e+02 7.95774700e-02 4.85206300e-01
       13 -1    0    0    0    0 +0.0000000000e+00 +0.0000000000e+00 +4.9999998884e+02 5.0000000000e+02 1.0566000000e-01 0.0000e+00 -1.0000e+00
      994 -1    0    0    0    0 -0.0000000000e+00 -0.0000000000e+00 +0.0000000000e+00 1.3100000000e+02 1.3100000000e+02 0.0000e+00 0.0000e+00
       13  1    1    2    0    0 -1.0105731751e+01 -2.5006129078e+00 +1.5864783741e+01 1.8975811085e+01 1.0566000000e-01 0.0000e+00 1.0000e+00
      994  1    1    2    0    0 +1.3182267960e+01 -4.7697014721e+00 +4.0915239261e+00 1.3181146691e+02 1.3100000000e+02 0.0000e+00 0.0000e+00
      997  1    1    2    0    0 -3.0765362087e+00 +7.2703143799e+00 +4.8004368117e+02 4.8021272201e+02 1.0000000000e+01 0.0000e+00 0.0000e+00
</event>
<event>
 5      1 +4.4770400e-06 2.05169200e+02 7.95774700e-02 4.94637000e-01
       13 -1    0    0    0    0 +0.0000000000e+00 +0.0000000000e+00 +4.9999998884e+02 5.0000000000e+02 1.0566000000e-01 0.0000e+00 1.0000e+00
      994 -1    0    0    0    0 -0.0000000000e+00 -0.0000000000e+00 +0.0000000000e+00 1.3100000000e+02 1.3100000000e+02 0.0000e+00 0.0000e+00
       13  1    1    2    0    0 -1.0134798620e+01 -2.6253085887e+01 +5.2959160841e+01 5.9971847918e+01 1.0566000000e-01 0.0000e+00 -1.0000e+00
      994  1    1    2    0    0 -4.6646657495e-01 +1.0217608935e+01 +8.2017277352e+00 1.3165441679e+02 1.3100000000e+02 0.0000e+00 0.0000e+00
      997  1    1    2    0    0 +1.0601265195e+01 +1.6035476952e+01 +4.3883910026e+02 4.3937373529e+02 1.0000000000e+01 0.0000e+00 0.0000e+00
</event>
<event>
 5      1 +4.4770400e-06 2.11437000e+02 7.95774700e-02 4.84117500e-01
       13 -1    0    0    0    0 +0.0000000000e+00 +0.0000000000e+00 +4.9999998884e+02 5.0000000000e+02 1.0566000000e-01 0.0000e+00 -1.0000e+00
      994 -1    0    0    0    0 -0.0000000000e+00 -0.0000000000e+00 +0.0000000000e+00 1.3100000000e+02 1.3100000000e+02 0.0000e+00 0.0000e+00
       13  1    1    2    0    0 +7.7958006306e-01 +1.2906076130e+01 +3.0030762689e+01 3.2696061198e+01 1.0566000000e-01 0.0000e+00 1.0000e+00
      994  1    1    2    0    0 -1.0558913380e+00 -1.4531762800e+01 +3.6332391726e+00 1.3185783050e+02 1.3100000000e+02 0.0000e+00 0.0000e+00
      997  1    1    2    0    0 +2.7631127490e-01 +1.6256866705e+00 +4.6633598697e+02 4.6644610830e+02 1.0000000000e+01 0.0000e+00 0.0000e+00
</event>
<event>
 5      1 +4.4770400e-06 2.09001400e+02 7.95774700e-02 4.88110000e-01
       13 -1    0    0    0    0 +0.0000000000e+00 +0.0000000000e+00 +4.9999998884e+02 5.0000000000e+02 1.0566000000e-01 0.0000e+00 1.0000e+00
      994 -1    0    0    0    0 -0.0000000000e+00 -0.0000000000e+00 +0.0000000000e+00 1.3100000000e+02 1.3100000000e+02 0.0000e+00 0.0000e+00
       13  1    1    2    0    0 -1.9435514072e+01 +2.7175059604e+00 +4.8656863501e+01 5.2465470318e+01 1.0566000000e-01 0.0000e+00 -1.0000e+00
      994  1    1    2    0    0 -4.0072416384e+00 -1.7056410541e+01 +6.0738155252e+00 1.3230597251e+02 1.3100000000e+02 0.0000e+00 0.0000e+00
      997  1    1    2    0    0 +2.3442755710e+01 +1.4338904580e+01 +4.4526930981e+02 4.4622855717e+02 1.0000000000e+01 0.0000e+00 0.0000e+00
</event>
<event>
 5      1 +4.4770400e-06 2.13710900e+02 7.95774700e-02 4.80493500e-01
       13 -1    0    0    0    0 +0.0000000000e+00 +0.0000000000e+00 +4.9999998884e+02 5.0000000000e+02 1.0566000000e-01 0.0000e+00 -1.0000e+00
      994 -1    0    0    0    0 -0.0000000000e+00 -0.0000000000e+00 +0.0000000000e+00 1.3100000000e+02 1.3100000000e+02 0.0000e+00 0.0000e+00
       13  1    1    2    0    0 -1.8025010746e+01 -5.3849645278e+00 -1.3470584409e+01 2.3137991783e+01 1.0566000000e-01 0.0000e+00 1.0000e+00
      994  1    1    2    0    0 +2.6285107831e+01 +2.2286792989e+01 +5.0751033149e+01 1.4465225681e+02 1.3100000000e+02 0.0000e+00 0.0000e+00
      997  1    1    2    0    0 -8.2600970842e+00 -1.6901828461e+01 +4.6271954010e+02 4.6320975140e+02 1.0000000000e+01 0.0000e+00 0.0000e+00
</event>
<event>
 5      1 +4.4770400e-06 2.10879400e+02 7.95774700e-02 4.85021300e-01
       13 -1    0    0    0    0 +0.0000000000e+00 +0.0000000000e+00 +4.9999998884e+02 5.0000000000e+02 1.0566000000e-01 0.0000e+00 1.0000e+00
      994 -1    0    0    0    0 -0.0000000000e+00 -0.0000000000e+00 +0.0000000000e+00 1.3100000000e+02 1.3100000000e+02 0.0000e+00 0.0000e+00
       13  1    1    2    0    0 -1.7038867275e+01 -1.0487731040e+01 +9.5037286577e+01 9.7120608031e+01 1.0566000000e-01 0.0000e+00 -1.0000e+00
      994  1    1    2    0    0 -1.1463330971e+01 +9.6470555142e+00 +4.1396594155e+00 1.3191895397e+02 1.3100000000e+02 0.0000e+00 0.0000e+00
      997  1    1    2    0    0 +2.8502198246e+01 +8.4067552589e-01 +4.0082304284e+02 4.0196043800e+02 1.0000000000e+01 0.0000e+00 0.0000e+00
</event>
<event>
 5      1 +4.4770400e-06 2.05526700e+02 7.95774700e-02 4.94014900e-01
       13 -1    0    0    0    0 +0.0000000000e+00 +0.0000000000e+00 +4.9999998884e+02 5.0000000000e+02 1.0566000000e-01 0.0000e+00 -1.0000e+00
      994 -1    0    0    0    0 -0.0000000000e+00 -0.0000000000e+00 +0.0000000000e+00 1.3100000000e+02 1.3100000000e+02 0.0000e+00 0.0000e+00
       13  1    1    2    0    0 +1.3293091951e-01 +1.1156966952e+01 +5.3508534326e+00 1.2374909239e+01 1.0566000000e-01 0.0000e+00 1.0000e+00
      994  1    1    2    0    0 -6.6846676669e+00 -4.1421047826e+00 +7.6817338252e+00 1.3146045355e+02 1.3100000000e+02 0.0000e+00 0.0000e+00
      997  1    1    2    0    0 +6.5517367474e+00 -7.0148621691e+00 +4.8696740158e+02 4.8716463721e+02 1.0000000000e+01 0.0000e+00 0.0000e+00
</event>
<event>
 5      1 +4.4770400e-06 2.08809000e+02 7.95774700e-02 4.88430400e-01
       13 -1    0    0    0    0 +0.0000000000e+00 +0.0000000000e+00 +4.9999998884e+02 5.0000000000e+02 1.0566000000e-01 0.0000e+00 -1.0000e+00
      994 -1    0    0    0    0 -0.0000000000e+00 -0.0000000000e+00 +0.0000000000e+00 1.3100000000e+02 1.3100000000e+02 0.0000e+00 0.0000e+00
       13  1    1    2    0    0 +4.5567688300e+00 +2.9334002906e+01 +1.4222039032e+02 1.4528557553e+02 1.0566000000e-01 0.0000e+00 1.0000e+00
      994  1    1    2    0    0 +1.4157598695e+00 +1.4976116855e+00 +4.7006118560e+00 1.3110050713e+02 1.3100000000e+02 0.0000e+00 0.0000e+00
      997  1    1    2    0    0 -5.9725286995e+00 -3.0831614592e+01 +3.5307898666e+02 3.5461391735e+02 1.0000000000e+01 0.0000e+00 0.0000e+00
</event>
<event>
 5      1 +4.4770400e-06 2.12041900e+02 7.95774700e-02 4.83143900e-01
       13 -1    0    0    0    0 +0.0000000000e+00 +0.0000000000e+00 +4.9999998884e+02 5.0000000000e+02 1.0566000000e-01 0.0000e+00 1.0000e+00
      994 -1    0    0    0    0 -0.0000000000e+00 -0.0000000000e+00 +0.0000000000e+00 1.3100000000e+02 1.3100000000e+02 0.0000e+00 0.0000e+00
       13  1    1    2    0    0 +1.7162235099e+01 -4.9845838501e+00 +7.9076949468e+01 8.1071348150e+01 1.0566000000e-01 0.0000e+00 -1.0000e+00
      994  1    1    2    0    0 -7.9322030589e+00 +8.8403951827e+00 +2.8007117946e+00 1.3156715555e+02 1.3100000000e+02 0.0000e+00 0.0000e+00
      997  1    1    2    0    0 -9.2300320397e+00 -3.8558113326e+00 +4.1812232757e+02 4.1836149630e+02 1.0000000000e+01 0.0000e+00 0.0000e+00
</event>
<event>
 5      1 +4.4770400e-06 2.11039600e+02 7.95774700e-02 4.84760900e-01
       13 -1    0    0    0    0 +0.0000000000e+00 +0.0000000000e+00 +4.9999998884e+02 5.0000000000e+02 1.0566000000e-01 0.0000e+00 1.0000e+00
      994 -1    0    0    0    0 -0.0000000000e+00 -0.0000000000e+00 +0.0000000000e+00 1.3100000000e+02 1.3100000000e+02 0.0000e+00 0.0000e+00
       13  1    1    2    0    0 -2.9480178088e+01 -6.6294740955e+00 +1.2688023731e+02 1.3042866483e+02 1.0566000000e-01 0.0000e+00 -1.0000e+00
      994  1    1    2    0    0 +2.7012584881e+01 +8.6739981343e+00 +6.9141551636e+00 1.3421521347e+02 1.3100000000e+02 0.0000e+00 0.0000e+00
      997  1    1    2    0    0 +2.4675932063e+00 -2.0445240388e+00 +3.6620559637e+02 3.6635612170e+02 1.0000000000e+01 0.0000e+00 0.0000e+00
</event>
<event>
 5      1 +4.4770400e-06 2.10404200e+02 7.95774700e-02 4.85796200e-01
       13 -1    0    0    0    0 +0.0000000000e+00 +0.0000000000e+00 +4.9999998884e+02 5.0000000000e+02 1.0566000000e-01 0.0000e+00 -1.0000e+00
      994 -1    0    0    0    0 -0.0000000000e+00 -0.0000000000e+00 +0.0000000000e+00 1.3100000000e+02 1.3100000000e+02 0.0000e+00 0.0000e+00
       13  1    1    2    0    0 -8.9940894550e+00 -1.7795511934e+01 +9.1248890956e+01 9.3402061834e+01 1.0566000000e-01 0.0000e+00 1.0000e+00
      994  1    1    2    0    0 -1.4542673163e+01 -4.9964890422e+00 +4.5811902129e+00 1.3197894358e+02 1.3100000000e+02 0.0000e+00 0.0000e+00
      997  1    1    2    0    0 +2.3536762618e+01 +2.2792000976e+01 +4.0416990767e+02 4.0561899458e+02 1.0000000000e+01 0.0000e+00 0.0000e+00
</event>
<event>
 5      1 +4.4770400e-06 2.05335700e+02 7.95774700e-02 4.94346800e-01
       13 -1    0    0    0    0 +0.0000000000e+00 +0.0000000000e+00 +4.9999998884e+02 5.0000000000e+02 1.0566000000e-01 0.0000e+00 1.0000e+00
      994 -1    0    0    0    0 -0.0000000000e+00 -0.0000000000e+00 +0.0000000000e+00 1.3100000000e+02 1.3100000000e+02 0.0000e+00 0.0000e+00
       13  1    1    2    0    0 -2.9945831136e+01 -5.0212555896e+00 +7.8886910449e+01 8.4528821206e+01 1.0566000000e-01 0.0000e+00 -1.0000e+00
      994  1    1    2    0    0 -6.7794336668e+00 +6.0175139404e+00 +7.9460647986e+00 1.3155345355e+02 1.3100000000e+02 0.0000e+00 0.0000e+00
      997  1    1    2    0    0 +3.6725264803e+01 -9.9625835081e-01 +4.1316701359e+02 4.1491772525e+02 1.0000000000e+01 0.0000e+00 0.0000e+00
</event>
<event>
 5      1 +4.4770400e-06 2.12600900e+02 7.95774700e-02 4.82250400e-01
       13 -1    0    0    0    0 +0.0000000000e+00 +0.0000000000e+00 +4.9999998884e+02 5.0000000000e+02 1.0566000000e-01 0.0000e+00 1.0000e+00
      994 -1    0    0    0    0 -0.0000000000e+00 -0.0000000000e+00 +0.0000000000e+00 1.3100000000e+02 1.3100000000e+02 0.0000e+00 0.0000e+00
       13  1    1    2    0    0 -1.1067957969e+00 -1.0978579312e+01 +3.9840331902e+01 4.1340263797e+01 1.0566000000e-01 0.0000e+00 -1.0000e+00
      994  1    1    2    0    0 +5.2330488298e-01 +3.5086144208e+00 +1.7296248708e+00 1.3105943623e+02 1.3100000000e+02 0.0000e+00 0.0000e+00
      997  1    1    2    0    0 +5.8349091390e-01 +7.4699648912e+00 +4.5843003206e+02 4.5860029997e+02 1.0000000000e+01 0.0000e+00 0.0000e+00
</event>
<event>
 5      1 +4.4770400e-06 2.07392000e+02 7.95774700e-02 4.90813500e-01
       13 -1    0    0    0    0 +0.0000000000e+00 +0.0000000000e+00 +4.9999998884e+02 5.0000000000e+02 1.0566000000e-01 0.0000e+00 1.0000e+00
      994 -1    0    0    0    0 -0.0000000000e+00 -0.0000000000e+00 +0.0000000000e+00 1.3100000000e+02 1.3100000000e+02 0.0000e+00 0.0000e+00
       13  1    1    2    0    0 -1.7359777733e+01 +2.4275859652e+01 +5.9973745898e+01 6.6989108114e+01 1.0566000000e-01 0.0000e+00 -1.0000e+00
      994  1    1    2    0    0 +1.1753776112e+01 -3.7821702074e+01 +1.3950144685e+01 1.3756539876e+02 1.3100000000e+02 0.0000e+00 0.0000e+00
      997  1    1    2    0    0 +5.6060016211e+00 +1.3545842422e+01 +4.2607609825e+02 4.2644549312e+02 1.0000000000e+01 0.0000e+00 0.0000e+00
</event>
<event>
 5      1 +4.4770400e-06 2.13038300e+02 7.95774700e-02 4.81555400e-01
       13 -1    0    0    0    0 +0.0000000000e+00 +0.0000000000e+00 +4.9999998884e+02 5.0000000000e+02 1.0566000000e-01 0.0000e+00 -1.0000e+00
      994 -1    0    0    0    0 -0.0000000000e+00 -0.0000000000e+00 +0.0000000000e+00 1.3100000000e+02 1.3100000000e+02 0.0000e+00 0.0000e+00
       13  1    1    2    0    0 +7.1989960507e+00 -7.3135807024e+00 +4.0595104669e+01 4.1872278346e+01 1.0566000000e-01 0.0000e+00 1.0000e+00
      994  1    1    2    0    0 -9.7419957284e+00 +2.2799369801e+00 +1.8152225447e+00 1.3139406237e+02 1.3100000000e+02 0.0000e+00 0.0000e+00
      997  1    1    2    0    0 +2.5429996777e+00 +5.0336437222e+00 +4.5758966162e+02 4.5773365928e+02 1.0000000000e+01 0.0000e+00 0.0000e+00
</event>
<event>
 5      1 +4.4770400e-06 2.09637100e+02 7.95774700e-02 4.87056500e-01
       13 -1    0    0    0    0 +0.0000000000e+00 +0.0000000000e+00 +4.9999998884e+02 5.0000000000e+02 1.0566000000e-01 0.0000e+00 1.0000e+00
      994 -1    0    0    0    0 -0.0000000000e+00 -0.0000000000e+00 +0.0000000000e+00 1.3100000000e+02 1.3100000000e+02 0.0000e+00 0.0000e+00
       13  1    1    2    0    0 +1.9400705596e+01 +2.7356770853e+01 +1.1812197402e+02 1.2279084738e+02 1.0566000000e-01 0.0000e+00 -1.0000e+00
      994  1    1    2    0    0 -3.1549949370e+01 -1.4553271407e+01 +1.0129280228e+01 1.3590731890e+02 1.3100000000e+02 0.0000e+00 0.0000e+00
      997  1    1    2    0    0 +1.2149243774e+01 -1.2803499447e+01 +3.7174873459e+02 3.7230183372e+02 1.0000000000e+01 0.0000e+00 0.0000e+00
</event>
<event>
 5      1 +4.4770400e-06 2.06380300e+02 7.95774700e-02 4.92540700e-01
       13 -1    0    0    0    0 +0.0000000000e+00 +0.0000000000e+00 +4.9999998884e+02 5.0000000000e+02 1.0566000000e-01 0.0000e+00 1.0000e+00
      994 -1    0    0    0    0 -0.0000000000e+00 -0.0000000000e+00 +0.0000000000e+00 1.3100000000e+02 1.3100000000e+02 0.0000e+00 0.0000e+00
       13  1    1    2    0    0 -2.9775550849e+01 -8.2360608552e+00 +8.8147073697e+01 9.3404142799e+01 1.0566000000e-01 0.0000e+00 -1.0000e+00
      994  1    1    2    0    0 +7.4373932211e+00 -1.9616586206e+01 +8.9287968108e+00 1.3296935243e+02 1.3100000000e+02 0.0000e+00 0.0000e+00
      997  1    1    2    0    0 +2.2338157628e+01 +2.7852647061e+01 +4.0292411833e+02 4.0462650477e+02 1.0000000000e+01 0.0000e+00 0.0000e+00
</event>
<event>
 5      1 +4.4770400e-06 2.12202200e+02 7.95774700e-02 4.82887100e-01
       13 -1    0    0    0    0 +0.0000000000e+00 +0.0000000000e+00 +4.9999998884e+02 5.0000000000e+02 1.0566000000e-01 0.0000e+00 1.0000e+00
      994 -1    0    0    0    0 -0.0000000000e+00 -0.0000000000e+00 +0.0000000000e+00 1.3100000000e+02 1.3100000000e+02 0.0000e+00 0.0000e+00
       13  1    1    2    0    0 +1.5567092924e+01 +2.6546357967e-01 +8.3637931914e+01 8.5074788697e+01 1.0566000000e-01 0.0000e+00 -1.0000e+00
      994  1    1    2    0    0 +2.9197880783e+00 +3.4644772270e+00 +2.0812923215e+00 1.3109484941e+02 1.3100000000e+02 0.0000e+00 0.0000e+00
      997  1    1    2    0    0 -1.8486881002e+01 -3.7299408066e+00 +4.1428076460e+02 4.1483036189e+02 1.0000000000e+01 0.0000e+00 0.0000e+00
</event>
<event>
 5      1 +4.4770400e-06 2.11093800e+02 7.95774700e-02 4.84673100e-01
       13 -1    0    0    0    0 +0.0000000000e+00 +0.0000000000e+00 +4.9999998884e+02 5.0000000000e+02 1.0566000000e-01 0.0000e+00 -1.0000e+00
      994 -1    0    0    0    0 -0.0000000000e+00 -0.0000000000e+00 +0.0000000000e+00 1.3100000000e+02 1.3100000000e+02 0.0000e+00 0.0000e+00
       13  1    1    2    0    0 +5.5761369501e+00 -1.6728883433e+01 +5.8366723850e+01 6.0972407376e+01 1.0566000000e-01 0.0000e+00 1.0000e+00
      994  1    1    2    0    0 +9.4714772398e+00 +1.0322394740e+01 +3.8276975593e+00 1.3180254923e+02 1.3100000000e+02 0.0000e+00 0.0000e+00
      997  1    1    2    0    0 -1.5047614190e+01 +6.4064886922e+00 +4.3780556743e+02 4.3822504340e+02 1.0000000000e+01 0.0000e+00 0.0000e+00
</event>
<event>
 5      1 +4.4770400e-06 2.13369800e+02 7.95774700e-02 4.81031000e-01
       13 -1    0    0    0    0 +0.0000000000e+00 +0.0000000000e+00 +4.9999998884e+02 5.0000000000e+02 1.0566000000e-01 0.0000e+00 -1.0000e+00
      994 -1    0    0    0    0 -0.0000000000e+00 -0.0000000000e+00 +0.0000000000e+00 1.3100000000e+02 1.3100000000e+02 0.0000e+00 0.0000e+00
       13  1    1    2    0    0 +1.0237047659e+01 +8.2409495724e+00 +7.8541039082e+01 7.9633010610e+01 1.0566000000e-01 0.0000e+00 1.0000e+00
      994  1    1    2    0    0 -7.4859375117e+00 -1.0128204804e+01 +1.8412644265e+00 1.3161690639e+02 1.3100000000e+02 0.0000e+00 0.0000e+00
      997  1    1    2    0    0 -2.7511101470e+00 +1.8872552315e+00 +4.1961768533e+02 4.1975008300e+02 1.0000000000e+01 0.0000e+00 0.0000e+00
</event>
<event>
 5      1 +4.4770400e-06 2.11421900e+02 7.95774700e-02 4.84141900e-01
       13 -1    0    0    0    0 +0.0000000000e+00 +0.0000000000e+00 +4.9999998884e+02 5.0000000000e+02 1.0566000000e-01 0.0000e+00 -1.0000e+00
      994 -1    0    0    0    0 -0.0000000000e+00 -0.0000000000e+00 +0.0000000000e+00 1.3100000000e+02 1.3100000000e+02 0.0000e+00 0.0000e+00
       13  1    1    2    0    0 -1.1991160207e+01 +9.5092803764e+00 +5.2551529787e+01 5.4734712783e+01 1.0566000000e-01 0.0000e+00 1.0000e+00
      994  1    1    2    0    0 -5.7459302688e+00 -7.1625880486e+00 +3.0115115741e+00 1.3135595755e+02 1.3100000000e+02 0.0000e+00 0.0000e+00
      997  1    1    2    0    0 +1.7737090476e+01 -2.3466923278e+00 +4.4443694747e+02 4.4490932967e+02 1.0000000000e+01 0.0000e+00 0.0000e+00
</event>
<event>
 5      1 +4.4770400e-06 2.11737100e+02 7.95774700e-02 4.83633700e-01
       13 -1    0    0    0    0 +0.0000000000e+00 +0.0000000000e+00 +4.9999998884e+02 5.0000000000e+02 1.0566000000e-01 0.0000e+00 -1.0000e+00
      994 -1    0    0    0    0 -0.0000000000e+00 -0.0000000000e+00 +0.0000000000e+00 1.3100000000e+02 1.3100000000e+02 0.0000e+00 0.0000e+00
       13  1    1    2    0    0 -8.6342092662e-01 -2.5269603982e+01 +1.0550130310e+02 1.0848886810e+02 1.0566000000e-01 0.0000e+00 1.0000e+00
      994  1    1    2    0    0 +6.6362209421e+00 +2.7809633297e+01 +6.4040524667e+00 1.3423645936e+02 1.3100000000e+02 0.0000e+00 0.0000e+00
      997  1    1    2    0    0 -5.7728000155e+00 -2.5400293143e+00 +3.8809463327e+02 3.8827467255e+02 1.0000000000e+01 0.0000e+00 0.0000e+00
</event>
<event>
 5      1 +4.4770400e-06 2.04274100e+02 7.95774700e-02 4.96206800e-01
       13 -1    0    0    0    0 +0.0000000000e+00 +0.0000000000e+00 +4.9999998884e+02 5.0000000000e+02 1.0566000000e-01 0.0000e+00 1.0000e+00
      994 -1    0    0    0    0 -0.0000000000e+00 -0.0000000000e+00 +0.0000000000e+00 1.3100000000e+02 1.3100000000e+02 0.0000e+00 0.0000e+00
       13  1    1    2    0    0 -1.0641431564e+01 -7.4105610187e+01 +1.3850548265e+02 1.5744415332e+02 1.0566000000e-01 0.0000e+00 -1.0000e+00
      994  1    1    2    0    0 -8.0743277392e+00 +1.0185816613e+02 +7.0506797439e+01 1.8047850083e+02 1.3100000000e+02 0.0000e+00 0.0000e+00
      997  1    1    2    0    0 +1.8715759303e+01 -2.7752555947e+01 +2.9098770875e+02 2.9307734585e+02 1.0000000000e+01 0.0000e+00 0.0000e+00
</event>
<event>
 5      1 +4.4770400e-06 2.13380600e+02 7.95774700e-02 4.81013900e-01
       13 -1    0    0    0    0 +0.0000000000e+00 +0.0000000000e+00 +4.9999998884e+02 5.0000000000e+02 1.0566000000e-01 0.0000e+00 -1.0000e+00
      994 -1    0    0    0    0 -0.0000000000e+00 -0.0000000000e+00 +0.0000000000e+00 1.3100000000e+02 1.3100000000e+02 0.0000e+00 0.0000e+00
       13  1    1    2    0    0 +6.1473426769e+00 -9.3462738861e+00 +6.3888830341e+01 6.4860900887e+01 1.0566000000e-01 0.0000e+00 1.0000e+00
      994  1    1    2    0    0 -2.1540612339e+01 -2.9214942205e+00 +3.3689477375e+00 1.3283404276e+02 1.3100000000e+02 0.0000e+00 0.0000e+00
      997  1    1    2    0    0 +1.5393269662e+01 +1.2267768107e+01 +4.3274221076e+02 4.3330505635e+02 1.0000000000e+01 0.0000e+00 0.0000e+00
</event>
<event>
 5      1 +4.4770400e-06 2.09882600e+02 7.95774700e-02 4.86651900e-01
       13 -1    0    0    0    0 +0.0000000000e+00 +0.0000000000e+00 +4.9999998884e+02 5.0000000000e+02 1.0566000000e-01 0.0000e+00 -1.0000e+00
      994 -1    0    0    0    0 -0.0000000000e+00 -0.0000000000e+00 +0.0000000000e+00 1.3100000000e+02 1.3100000000e+02 0.0000e+00 0.0000e+00
       13  1    1    2    0    0 +2.2663031985e+01 +3.1466396662e+01 +1.7149670942e+02 1.7582627689e+02 1.0566000000e-01 0.0000e+00 1.0000e+00
      994  1    1    2    0    0 -3.4834315847e+01 -1.3471916896e+01 +1.0882789118e+01 1.3665415180e+02 1.3100000000e+02 0.0000e+00 0.0000e+00
      997  1    1    2    0    0 +1.2171283861e+01 -1.7994479766e+01 +3.1762049030e+02 3.1851957131e+02 1.0000000000e+01 0.0000e+00 0.0000e+00
</event>
<event>
 5      1 +4.4770400e-06 2.10787100e+02 7.95774700e-02 4.85171400e-01
       13 -1    0    0    0    0 +0.0000000000e+00 +0.0000000000e+00 +4.9999998884e+02 5.0000000000e+02 1.0566000000e-01 0.0000e+00 1.0000e+00
      994 -1    0    0    0    0 -0.0000000000e+00 -0.0000000000e+00 +0.0000000000e+00 1.3100000000e+02 1.3100000000e+02 0.0000e+00 0.0000e+00
       13  1    1    2    0    0 -2.0433698701e+01 -1.6208033352e+00 +9.9758421922e+01 1.0184260874e+02 1.0566000000e-01 0.0000e+00 -1.0000e+00
      994  1    1    2    0    0 -6.3975070486e+00 +6.2703648994e+00 +3.4957540410e+00 1.3135244904e+02 1.3100000000e+02 0.0000e+00 0.0000e+00
      997  1    1    2    0    0 +2.6831205749e+01 -4.6495615642e+00 +3.9674581287e+02 3.9780494222e+02 1.0000000000e+01 0.0000e+00 0.0000e+00
</event>
<event>
 5      1 +4.4770400e-06 2.13240200e+02 7.95774700e-02 4.81235800e-01
       13 -1    0    0    0    0 +0.0000000000e+00 +0.0000000000e+00 +4.9999998884e+02 5.0000000000e+02 1.0566000000e-01 0.0000e+00 -1.0000e+00
      994 -1    0    0    0    0 -0.0000000000e+00 -0.0000000000e+00 +0.0000000000e+00 1.3100000000e+02 1.3100000000e+02 0.0000e+00 0.0000e+00
       13  1    1    2    0    0 +9.8185122587e-01 +1.5434092576e+01 +9.2347171164e+01 9.3633254944e+01 1.0566000000e-01 0.0000e+00 1.0000e+00
      994  1    1    2    0    0 +2.3915191434e+00 -1.5830074618e+01 +2.4205239836e+00 1.3199685437e+02 1.3100000000e+02 0.0000e+00 0.0000e+00
      997  1    1    2    0    0 -3.3733703693e+00 +3.9598204205e-01 +4.0523229369e+02 4.0536989069e+02 1.0000000000e+01 0.0000e+00 0.0000e+00
</event>
<event>
 5      1 +4.4770400e-06 2.09691500e+02 7.95774700e-02 4.86966900e-01
       13 -1    0    0    0    0 +0.0000000000e+00 +0.0000000000e+00 +4.9999998884e+02 5.0000000000e+02 1.0566000000e-01 0.0000e+00 -1.0000e+00
      994 -1    0    0    0    0 -0.0000000000e+00 -0.0000000000e+00 +0.0000000000e+00 1.3100000000e+02 1.3100000000e+02 0.0000e+00 0.0000e+00
       13  1    1    2    0    0 -2.5384305529e+00 +2.9824863155e+01 +8.6028136447e+01 9.1086867969e+01 1.0566000000e-01 0.0000e+00 1.0000e+00
      994  1    1    2    0    0 -1.1616703343e+01 -3.6999304544e+01 +1.1607438137e+01 1.3711173893e+02 1.3100000000e+02 0.0000e+00 0.0000e+00
      997  1    1    2    0    0 +1.4155133896e+01 +7.1744413891e+00 +4.0236441425e+02 4.0280139310e+02 1.0000000000e+01 0.0000e+00 0.0000e+00
</event>
<event>
 5      1 +4.4770400e-06 2.04107300e+02 7.95774700e-02 4.96501300e-01
       13 -1    0    0    0    0 +0.0000000000e+00 +0.0000000000e+00 +4.9999998884e+02 5.0000000000e+02 1.0566000000e-01 0.0000e+00 -1.0000e+00
      994 -1    0    0    0    0 -0.0000000000e+00 -0.0000000000e+00 +0.0000000000e+00 1.3100000000e+02 1.3100000000e+02 0.0000e+00 0.0000e+00
       13  1    1    2    0    0 +2.2371674367e+01 -3.7140575948e+01 +1.6620344719e+02 1.7176586162e+02 1.0566000000e-01 0.0000e+00 1.0000e+00
      994  1    1    2    0    0 -9.9253620829e+00 -2.6528039176e+00 +9.0979679246e+00 1.3171682961e+02 1.3100000000e+02 0.0000e+00 0.0000e+00
      997  1    1    2    0    0 -1.2446312285e+01 +3.9793379866e+01 +3.2469857372e+02 3.2751730878e+02 1.0000000000e+01 0.0000e+00 0.0000e+00
</event>
<event>
 5      1 +4.4770400e-06 2.12266100e+02 7.95774700e-02 4.82784800e-01
       13 -1    0    0    0    0 +0.0000000000e+00 +0.0000000000e+00 +4.9999998884e+02 5.0000000000e+02 1.0566000000e-01 0.0000e+00 -1.0000e+00
      994 -1    0    0    0    0 -0.0000000000e+00 -0.0000000000e+00 +0.0000000000e+00 1.3100000000e+02 1.3100000000e+02 0.0000e+00 0.0000e+00
       13  1    1    2    0    0 -1.5741696054e+01 +5.8788944912e+00 +8.7235832818e+01 8.8839541234e+01 1.0566000000e-01 0.0000e+00 1.0000e+00
      994  1    1    2    0    0 +1.2425607708e+00 -8.3569214427e+00 +2.2808553756e+00 1.3129198146e+02 1.3100000000e+02 0.0000e+00 0.0000e+00
      997  1    1    2    0    0 +1.4499135283e+01 +2.4780269515e+00 +4.1048330064e+02 4.1086847731e+02 1.0000000000e+01 0.0000e+00 0.0000e+00
</event>
<event>
 5      1 +4.4770400e-06 2.06453700e+02 7.95774700e-02 4.92414700e-01
       13 -1    0    0    0    0 +0.0000000000e+00 +0.0000000000e+00 +4.9999998884e+02 5.0000000000e+02 1.0566000000e-01 0.0000e+00 1.0000e+00
      994 -1    0    0    0    0 -0.0000000000e+00 -0.0000000000e+00 +0.0000000000e+00 1.3100000000e+02 1.3100000000e+02 0.0000e+00 0.0000e+00
       13  1    1    2    0    0 +4.6516470577e+00 +9.9665533878e+00 +6.1175004236e+00 1.2585904109e+01 1.0566000000e-01 0.0000e+00 -1.0000e+00
      994  1    1    2    0    0 -1.6310970224e+00 -1.1890705137e+01 +7.3374562057e+00 1.3175313131e+02 1.3100000000e+02 0.0000e+00 0.0000e+00
      997  1    1    2    0    0 -3.0205500353e+00 +1.9241517493e+00 +4.8654503221e+02 4.8666096458e+02 1.0000000000e+01 0.0000e+00 0.0000e+00
</event>
<event>
 5      1 +4.4770400e-06 2.12581500e+02 7.95774700e-02 4.82281300e-01
       13 -1    0    0    0    0 +0.0000000000e+00 +0.0000000000e+00 +4.9999998884e+02 5.0000000000e+02 1.0566000000e-01 0.0000e+00 1.0000e+00
      994 -1    0    0    0    0 -0.0000000000e+00 -0.0000000000e+00 +0.0000000000e+00 1.3100000000e+02 1.3100000000e+02 0.0000e+00 0.0000e+00
       13  1    1    2    0    0 -1.1400618997e+01 -4.0150595870e+00 +6.2706756723e+01 6.3861125262e+01 1.0566000000e-01 0.0000e+00 -1.0000e+00
      994  1    1    2    0    0 -8.1647452256e+00 -1.3941752689e+00 +2.0192966078e+00 1.3127712805e+02 1.3100000000e+02 0.0000e+00 0.0000e+00
      997  1    1    2    0    0 +1.9565364223e+01 +5.4092348559e+00 +4.3527393551e+02 4.3586174669e+02 1.0000000000e+01 0.0000e+00 0.0000e+00
</event>
<event>
 5      1 +4.4770400e-06 2.12734500e+02 7.95774700e-02 4.82037700e-01
       13 -1    0    0    0    0 +0.0000000000e+00 +0.0000000000e+00 +4.9999998884e+02 5.0000000000e+02 1.0566000000e-01 0.0000e+00 1.0000e+00
      994 -1    0    0    0    0 -0.0000000000e+00 -0.0000000000e+00 +0.0000000000e+00 1.3100000000e+02 1.3100000000e+02 0.0000e+00 0.0000e+00
       13  1    1    2    0    0 -6.1732371711e+00 -8.9262683006e+00 +3.4436394011e+01 3.6106280886e+01 1.0566000000e-01 0.0000e+00 -1.0000e+00
      994  1    1    2    0    0 +1.1065672834e+01 +1.1362548051e+01 +2.7964497254e+00 1.3198627483e+02 1.3100000000e+02 0.0000e+00 0.0000e+00
      997  1    1    2    0    0 -4.8924356624e+00 -2.4362797502e+00 +4.6276714510e+02 4.6290744428e+02 1.0000000000e+01 0.0000e+00 0.0000e+00
</event>
<event>
 5      1 +4.4770400e-06 2.06038700e+02 7.95774700e-02 4.93128700e-01
       13 -1    0    0    0    0 +0.0000000000e+00 +0.0000000000e+00 +4.9999998884e+02 5.0000000000e+02 1.0566000000e-01 0.0000e+00 -1.0000e+00
      994 -1    0    0    0    0 -0.0000000000e+00 -0.0000000000e+00 +0.0000000000e+00 1.3100000000e+02 1.3100000000e+02 0.0000e+00 0.0000e+00
       13  1    1    2    0    0 +1.2853808964e+01 -1.9204875615e+00 +9.1258362099e+00 1.5880828943e+01 1.0566000000e-01 0.0000e+00 1.0000e+00
      994  1    1    2    0    0 -9.4998975360e+00 +5.4320157996e+00 +7.5560762149e+00 1.3167326660e+02 1.3100000000e+02 0.0000e+00 0.0000e+00
      997  1    1    2    0    0 -3.3539114276e+00 -3.5115282381e+00 +4.8331807641e+02 4.8344590446e+02 1.0000000000e+01 0.0000e+00 0.0000e+00
</event>
<event>
 5      1 +4.4770400e-06 2.08676500e+02 7.95774700e-02 4.88651500e-01
       13 -1    0    0    0    0 +0.0000000000e+00 +0.0000000000e+00 +4.9999998884e+02 5.0000000000e+02 1.0566000000e-01 0.0000e+00 1.0000e+00
      994 -1    0    0    0    0 -0.0000000000e+00 -0.0000000000e+00 +0.0000000000e+00 1.3100000000e+02 1.3100000000e+02 0.0000e+00 0.0000e+00
       13  1    1    2    0    0 +1.6004536749e+01 +3.9385672253e+00 +2.6082000800e+01 3.0853515814e+01 1.0566000000e-01 0.0000e+00 -1.0000e+00
      994  1    1    2    0    0 -1.3975800512e+01 +5.2611202306e-01 +5.7749340872e+00 1.3187095836e+02 1.3100000000e+02 0.0000e+00 0.0000e+00
      997  1    1    2    0    0 -2.0287362371e+00 -4.4646792484e+00 +4.6814305395e+02 4.6827552583e+02 1.0000000000e+01 0.0000e+00 0.0000e+00
</event>
<event>
 5      1 +4.4770400e-06 2.11920000e+02 7.95774700e-02 4.83339600e-01
       13 -1    0    0    0    0 +0.0000000000e+00 +0.0000000000e+00 +4.9999998884e+02 5.0000000000e+02 1.0566000000e-01 0.0000e+00 1.0000e+00
      994 -1    0    0    0    0 -0.0000000000e+00 -0.0000000000e+00 +0.0000000000e+00 1.3100000000e+02 1.3100000000e+02 0.0000e+00 0.0000e+00
       13  1    1    2    0    0 -1.3077397257e+01 +3.3279787366e+00 +3.7149279577e+01 3.9524345645e+01 1.0566000000e-01 0.0000e+00 -1.0000e+00
      994  1    1    2    0    0 +1.9201597888e+01 +3.3026216184e+00 +4.0764742139e+00 1.3250368415e+02 1.3100000000e+02 0.0000e+00 0.0000e+00
      997  1    1    2    0    0 -6.1242006306e+00 -6.6306003550e+00 +4.5877423504e+02 4.5897197021e+02 1.0000000000e+01 0.0000e+00 0.0000e+00
</event>
<event>
 5      1 +4.4770400e-06 2.08833300e+02 7.95774700e-02 4.88389800e-01
       13 -1    0    0    0    0 +0.0000000000e+00 +0.0000000000e+00 +4.9999998884e+02 5.0000000000e+02 1.0566000000e-01 0.0000e+00 -1.0000e+00
      994 -1    0    0    0    0 -0.0000000000e+00 -0.0000000000e+00 +0.0000000000e+00 1.3100000000e+02 1.3100000000e+02 0.0000e+00 0.0000e+00
       13  1    1    2    0    0 -2.8391111272e+01 -1.6528942652e+01 +8.6633128592e+01 9.2652961519e+01 1.0566000000e-01 0.0000e+00 1.0000e+00
      994  1    1    2    0    0 +3.2535599613e+01 +2.1653050659e+01 +1.2472017597e+01 1.3727334435e+02 1.3100000000e+02 0.0000e+00 0.0000e+00
      997  1    1    2    0    0 -4.1444883406e+00 -5.1241080065e+00 +4.0089484265e+02 4.0107369414e+02 1.0000000000e+01 0.0000e+00 0.0000e+00
</event>
<event>
 5      1 +4.4770400e-06 2.12327200e+02 7.95774700e-02 4.82687200e-01
       13 -1    0    0    0    0 +0.0000000000e+00 +0.0000000000e+00 +4.9999998884e+02 5.0000000000e+02 1.0566000000e-01 0.0000e+00 -1.0000e+00
      994 -1    0    0    0    0 -0.0000000000e+00 -0.0000000000e+00 +0.0000000000e+00 1.3100000000e+02 1.3100000000e+02 0.0000e+00 0.0000e+00
       13  1    1    2    0    0 -2.2323282021e+01 +8.4014128093e+00 +1.2720419158e+02 1.2942113497e+02 1.0566000000e-01 0.0000e+00 1.0000e+00
      994  1    1    2    0    0 +1.5777367947e+01 -2.9634405082e+01 +7.4682195478e+00 1.3543964563e+02 1.3100000000e+02 0.0000e+00 0.0000e+00
      997  1    1    2    0    0 +6.5459140743e+00 +2.1232992273e+01 +3.6532757771e+02 3.6613921940e+02 1.0000000000e+01 0.0000e+00 0.0000e+00
</event>
<event>
 5      1 +4.4770400e-06 2.12774000e+02 7.95774700e-02 4.81974900e-01
       13 -1    0    0    0    0 +0.0000000000e+00 +0.0000000000e+00 +4.9999998884e+02 5.0000000000e+02 1.0566000000e-01 0.0000e+00 -1.0000e+00
      994 -1    0    0    0    0 -0.0000000000e+00 -0.0000000000e+00 +0.0000000000e+00 1.3100000000e+02 1.3100000000e+02 0.0000e+00 0.0000e+00
       13  1    1    2    0    0 -1.0046127374e+01 +2.5095054526e+00 +4.8196726787e+01 4.9296632033e+01 1.0566000000e-01 0.0000e+00 1.0000e+00
      994  1    1    2    0    0 -8.8661873164e+00 -2.1860327095e+00 +1.9406346355e+00 1.3133222788e+02 1.3100000000e+02 0.0000e+00 0.0000e+00
      997  1    1    2    0    0 +1.8912314690e+01 -3.2347274317e-01 +4.4986262741e+02 4.5037114009e+02 1.0000000000e+01 0.0000e+00 0.0000e+00
</event>
<event>
 5      1 +4.4770400e-06 1.96155700e+02 7.95774700e-02 5.11299000e-01
       13 -1    0    0    0    0 +0.0000000000e+00 +0.0000000000e+00 +4.9999998884e+02 5.0000000000e+02 1.0566000000e-01 0.0000e+00 -1.0000e+00
      994 -1    0    0    0    0 -0.0000000000e+00 -0.0000000000e+00 +0.0000000000e+00 1.3100000000e+02 1.3100000000e+02 0.0000e+00 0.0000e+00
       13  1    1    2    0    0 +4.3376521146e+00 +2.5835358736e+01 +1.5794474311e+01 3.0590154783e+01 1.0566000000e-01 0.0000e+00 1.0000e+00
      994  1    1    2    0    0 -2.0303260316e+00 -1.8631469834e+01 +1.7442496248e+01 1.3347844233e+02 1.3100000000e+02 0.0000e+00 0.0000e+00
      997  1    1    2    0    0 -2.3073260829e+00 -7.2038889019e+00 +4.6676301828e+02 4.6693140288e+02 1.0000000000e+01 0.0000e+00 0.0000e+00
</event>
<event>
 5      1 +4.4770400e-06 2.04585300e+02 7.95774700e-02 4.95659000e-01
       13 -1    0    0    0    0 +0.0000000000e+00 +0.0000000000e+00 +4.9999998884e+02 5.0000000000e+02 1.0566000000e-01 0.0000e+00 1.0000e+00
      994 -1    0    0    0    0 -0.0000000000e+00 -0.0000000000e+00 +0.0000000000e+00 1.3100000000e+02 1.3100000000e+02 0.0000e+00 0.0000e+00
       13  1    1    2    0    0 -6.4595051199e+00 +1.4347998082e+01 +1.1473571808e+01 1.9474194962e+01 1.0566000000e-01 0.0000e+00 -1.0000e+00
      994  1    1    2    0    0 +1.4413942727e+01 -8.8595517676e+00 +9.6419941302e+00 1.3243950111e+02 1.3100000000e+02 0.0000e+00 0.0000e+00
      997  1    1    2    0    0 -7.9544376070e+00 -5.4884463145e+00 +4.7888442290e+02 4.7908630393e+02 1.0000000000e+01 0.0000e+00 0.0000e+00
</event>
<event>
 5      1 +4.4770400e-06 1.92750400e+02 7.95774700e-02 5.18129500e-01
       13 -1    0    0    0    0 +0.0000000000e+00 +0.0000000000e+00 +4.9999998884e+02 5.0000000000e+02 1.0566000000e-01 0.0000e+00 1.0000e+00
      994 -1    0    0    0    0 -0.0000000000e+00 -0.0000000000e+00 +0.0000000000e+00 1.3100000000e+02 1.3100000000e+02 0.0000e+00 0.0000e+00
       13  1    1    2    0    0 +3.1471787145e+01 -4.3890351843e+01 +7.0042077879e+01 8.8446256046e+01 1.0566000000e-01 0.0000e+00 -1.0000e+00
      994  1    1    2    0    0 -3.5717064384e+01 +1.4864730976e+01 +2.8038399741e+01 1.3944110146e+02 1.3100000000e+02 0.0000e+00 0.0000e+00
      997  1    1    2    0    0 +4.2452772390e+00 +2.9025620867e+01 +4.0191951122e+02 4.0311264250e+02 1.0000000000e+01 0.0000e+00 0.0000e+00
</event>
<event>
 5      1 +4.4770400e-06 2.11933800e+02 7.95774700e-02 4.83317400e-01
       13 -1    0    0    0    0 +0.0000000000e+00 +0.0000000000e+00 +4.9999998884e+02 5.0000000000e+02 1.0566000000e-01 0.0000e+00 1.0000e+00
      994 -1    0    0    0    0 -0.0000000000e+00 -0.0000000000e+00 +0.0000000000e+00 1.3100000000e+02 1.3100000000e+02 0.0000e+00 0.0000e+00
       13  1    1    2    0    0 +1.3740387466e+00 -1.1943151264e+01 +3.4926975870e+01 3.6938213981e+01 1.0566000000e-01 0.0000e+00 -1.0000e+00
      994  1    1    2    0    0 +1.8479920006e+00 +4.2289723069e+00 +2.2961241618e+00 1.3110137859e+02 1.3100000000e+02 0.0000e+00 0.0000e+00
      997  1    1    2    0    0 -3.2220307472e+00 +7.7141789572e+00 +4.6277688880e+02 4.6296040743e+02 1.0000000000e+01 0.0000e+00 0.0000e+00
</event>
<event>
 5      1 +4.4770400e-06 2.08999000e+02 7.95774700e-02 4.88114000e-01
       13 -1    0    0    0    0 +0.0000000000e+00 +0.0000000000e+00 +4.9999998884e+02 5.0000000000e+02 1.0566000000e-01 0.0000e+00 -1.0000e+00
      994 -1    0    0    0    0 -0.0000000000e+00 -0.0000000000e+00 +0.0000000000e+00 1.3100000000e+02 1.3100000000e+02 0.0000e+00 0.0000e+00
       13  1    1    2    0    0 +9.3572726590e+00 +4.6421673479e+00 +1.0522373499e+01 1.4826994887e+01 1.0566000000e-01 0.0000e+00 1.0000e+00
      994  1    1    2    0    0 -7.2571483745e+00 +7.2268534586e+00 +5.0546474038e+00 1.3149693180e+02 1.3100000000e+02 0.0000e+00 0.0000e+00
      997  1    1    2    0    0 -2.1001242845e+00 -1.1869020807e+01 +4.8442296793e+02 4.8467607331e+02 1.0000000000e+01 0.0000e+00 0.0000e+00
</event>
<event>
 5      1 +4.4770400e-06 2.02819900e+02 7.95774700e-02 4.98795100e-01
       13 -1    0    0    0    0 +0.0000000000e+00 +0.0000000000e+00 +4.9999998884e+02 5.0000000000e+02 1.0566000000e-01 0.0000e+00 -1.0000e+00
      994 -1    0    0    0    0 -0.0000000000e+00 -0.0000000000e+00 +0.0000000000e+00 1.3100000000e+02 1.3100000000e+02 0.0000e+00 0.0000e+00
       13  1    1    2    0    0 +3.9600966856e+01 +2.0065287789e+01 +2.1355814317e+01 4.9263925129e+01 1.0566000000e-01 0.0000e+00 1.0000e+00
      994  1    1    2    0    0 -4.0347123926e+01 -5.3621833788e+00 +4.0221721186e+01 1.4295254553e+02 1.3100000000e+02 0.0000e+00 0.0000e+00
      997  1    1    2    0    0 +7.4615707002e-01 -1.4703104410e+01 +4.3842245333e+02 4.3878352934e+02 1.0000000000e+01 0.0000e+00 0.0000e+00
</event>
<event>
 5      1 +4.4770400e-06 2.08811800e+02 7.95774700e-02 4.88425700e-01
       13 -1    0    0    0    0 +0.0000000000e+00 +0.0000000000e+00 +4.9999998884e+02 5.0000000000e+02 1.0566000000e-01 0.0000e+00 1.0000e+00
      994 -1    0    0    0    0 -0.0000000000e+00 -0.0000000000e+00 +0.0000000000e+00 1.3100000000e+02 1.3100000000e+02 0.0000e+00 0.0000e+00
       13  1    1    2    0    0 +3.2463691396e+01 +1.7332356058e+01 +1.3862882805e+02 1.4343034880e+02 1.0566000000e-01 0.0000e+00 -1.0000e+00
      994  1    1    2    0    0 -2.2431225832e+01 -8.4105052618e+00 +7.5856618232e+00 1.3338830067e+02 1.3100000000e+02 0.0000e+00 0.0000e+00
      997  1    1    2    0    0 -1.0032465564e+01 -8.9218507959e+00 +3.5378549896e+02 3.5418135053e+02 1.0000000000e+01 0.0000e+00 0.0000e+00
</event>
<event>
 5      1 +4.4770400e-06 2.10846700e+02 7.95774700e-02 4.85074400e-01
       13 -1    0    0    0    0 +0.0000000000e+00 +0.0000000000e+00 +4.9999998884e+02 5.0000000000e+02 1.0566000000e-01 0.0000e+00 1.0000e+00
      994 -1    0    0    0    0 -0.0000000000e+00 -0.0000000000e+00 +0.0000000000e+00 1.3100000000e+02 1.3100000000e+02 0.0000e+00 0.0000e+00
       13  1    1    2    0    0 -9.3860522152e-01 +1.2784723087e+01 +2.4726537856e+01 2.7852162619e+01 1.0566000000e-01 0.0000e+00 -1.0000e+00
      994  1    1    2    0    0 +4.3974157357e+00 -1.4356369800e+01 +4.1706534545e+00 1.3192360278e+02 1.3100000000e+02 0.0000e+00 0.0000e+00
      997  1    1    2    0    0 -3.4588105142e+00 +1.5716467134e+00 +4.7110279753e+02 4.7122423461e+02 1.0000000000e+01 0.0000e+00 0.0000e+00
</event>
<event>
 5      1 +4.4770400e-06 2.12405600e+02 7.95774700e-02 4.82561900e-01
       13 -1    0    0    0    0 +0.0000000000e+00 +0.0000000000e+00 +4.9999998884e+02 5.0000000000e+02 1.0566000000e-01 0.0000e+00 -1.0000e+00
      994 -1    0    0    0    0 -0.0000000000e+00 -0.0000000000e+00 +0.0000000000e+00 1.3100000000e+02 1.3100000000e+02 0.0000e+00 0.0000e+00
       13  1    1    2    0    0 +1.5853523051e+01 +3.2380217239e+00 +8.4659859069e+01 8.6192353950e+01 1.0566000000e-01 0.0000e+00 1.0000e+00
      994  1    1    2    0    0 -4.9604133617e+00 +2.8404051361e+00 +1.9811661481e+00 1.3113961500e+02 1.3100000000e+02 0.0000e+00 0.0000e+00
      997  1    1    2    0    0 -1.0893109690e+01 -6.0784268599e+00 +4.1335896362e+02 4.1366803105e+02 1.0000000000e+01 0.0000e+00 0.0000e+00
</event>
<event>
 5      1 +4.4770400e-06 2.12131700e+02 7.95774700e-02 4.83000000e-01
       13 -1    0    0    0    0 +0.0000000000e+00 +0.0000000000e+00 +4.9999998884e+02 5.0000000000e+02 1.0566000000e-01 0.0000e+00 -1.0000e+00
      994 -1    0    0    0    0 -0.0000000000e+00 -0.0000000000e+00 +0.0000000000e+00 1.3100000000e+02 1.3100000000e+02 0.0000e+00 0.0000e+00
       13  1    1    2    0    0 +1.4361434806e+00 -1.5478484358e+01 +7.3734502681e+01 7.5355384915e+01 1.0566000000e-01 0.0000e+00 1.0000e+00
      994  1    1    2    0    0 -4.9781617330e+00 -2.5997660903e-01 +2.1579395966e+00 1.3111257142e+02 1.3100000000e+02 0.0000e+00 0.0000e+00
      997  1    1    2    0    0 +3.5420182523e+00 +1.5738460967e+01 +4.2410754656e+02 4.2453204366e+02 1.0000000000e+01 0.0000e+00 0.0000e+00
</event>
<event>
 5      1 +4.4770400e-06 2.13034000e+02 7.95774700e-02 4.81562200e-01
       13 -1    0    0    0    0 +0.0000000000e+00 +0.0000000000e+00 +4.9999998884e+02 5.0000000000e+02 1.0566000000e-01 0.0000e+00 -1.0000e+00
      994 -1    0    0    0    0 -0.0000000000e+00 -0.0000000000e+00 +0.0000000000e+00 1.3100000000e+02 1.3100000000e+02 0.0000e+00 0.0000e+00
       13  1    1    2    0    0 +1.2169773710e+01 +1.7063654050e+01 +1.1064638373e+02 1.1261396485e+02 1.0566000000e-01 0.0000e+00 1.0000e+00
      994  1    1    2    0    0 -9.6333769248e+00 -2.9538406328e+01 +6.0805386722e+00 1.3477125936e+02 1.3100000000e+02 0.0000e+00 0.0000e+00
      997  1    1    2    0    0 -2.5363967848e+00 +1.2474752278e+01 +3.8327306643e+02 3.8361477579e+02 1.0000000000e+01 0.0000e+00 0.0000e+00
</event>
<event>
 5      1 +4.4770400e-06 2.11429100e+02 7.95774700e-02 4.84130300e-01
       13 -1    0    0    0    0 +0.0000000000e+00 +0.0000000000e+00 +4.9999998884e+02 5.0000000000e+02 1.0566000000e-01 0.0000e+00 1.0000e+00
      994 -1    0    0    0    0 -0.0000000000e+00 -0.0000000000e+00 +0.0000000000e+00 1.3100000000e+02 1.3100000000e+02 0.0000e+00 0.0000e+00
       13  1    1    2    0    0 +2.0121808722e+01 -5.8136129113e+00 +8.5466554093e+01 8.7995615310e+01 1.0566000000e-01 0.0000e+00 -1.0000e+00
      994  1    1    2    0    0 -1.3598739535e+01 -6.9290274160e-01 +3.5063144617e+00 1.3175241961e+02 1.3100000000e+02 0.0000e+00 0.0000e+00
      997  1    1    2    0    0 -6.5230691865e+00 +6.5065156529e+00 +4.1102712028e+02 4.1125196508e+02 1.0000000000e+01 0.0000e+00 0.0000e+00
</event>
<event>
 5      1 +4.4770400e-06 2.12651100e+02 7.95774700e-02 4.82170500e-01
       13 -1    0    0    0    0 +0.0000000000e+00 +0.0000000000e+00 +4.9999998884e+02 5.0000000000e+02 1.0566000000e-01 0.0000e+00 1.0000e+00
      994 -1    0    0    0    0 -0.0000000000e+00 -0.0000000000e+00 +0.0000000000e+00 1.3100000000e+02 1.3100000000e+02 0.0000e+00 0.0000e+00
       13  1    1    2    0    0 -5.9237566466e+00 +1.0961346789e+01 +4.6831903999e+01 4.8461122691e+01 1.0566000000e-01 0.0000e+00 -1.0000e+00
      994  1    1    2    0    0 -4.3449701908e+00 -1.5389556146e+01 +2.8829377593e+00 1.3200389591e+02 1.3100000000e+02 0.0000e+00 0.0000e+00
      997  1    1    2    0    0 +1.0268726837e+01 +4.4282093565e+00 +4.5028514708e+02 4.5053498140e+02 1.0000000000e+01 0.0000e+00 0.0000e+00
</event>
<event>
 5      1 +4.4770400e-06 2.12227600e+02 7.95774700e-02 4.82846500e-01
       13 -1    0    0    0    0 +0.0000000000e+00 +0.0000000000e+00 +4.9999998884e+02 5.0000000000e+02 1.0566000000e-01 0.0000e+00 -1.0000e+00
      994 -1    0    0    0    0 -0.0000000000e+00 -0.0000000000e+00 +0.0000000000e+00 1.3100000000e+02 1.3100000000e+02 0.0000e+00 0.0000e+00
       13  1    1    2    0    0 +8.0223842640e+00 +1.3097877271e+01 +5.9433197928e+01 6.1385904068e+01 1.0566000000e-01 0.0000e+00 1.0000e+00
      994  1    1    2    0    0 +2.9674396567e+00 -1.5933278141e+01 +3.2530806236e+00 1.3203884877e+02 1.3100000000e+02 0.0000e+00 0.0000e+00
      997  1    1    2    0    0 -1.0989823921e+01 +2.8354008702e+00 +4.3731371028e+02 4.3757524716e+02 1.0000000000e+01 0.0000e+00 0.0000e+00
</event>
<event>
 5      1 +4.4770400e-06 2.05027100e+02 7.95774700e-02 4.94885000e-01
       13 -1    0    0    0    0 +0.0000000000e+00 +0.0000000000e+00 +4.9999998884e+02 5.0000000000e+02 1.0566000000e-01 0.0000e+00 -1.0000e+00
      994 -1    0    0    0    0 -0.0000000000e+00 -0.0000000000e+00 +0.0000000000e+00 1.3100000000e+02 1.3100000000e+02 0.0000e+00 0.0000e+00
       13  1    1    2    0    0 -4.6107296714e+00 -2.7626134636e+01 +4.6382223169e+01 5.4182874907e+01 1.0566000000e-01 0.0000e+00 1.0000e+00
      994  1    1    2    0    0 -1.0719998516e+01 +2.2310648143e+01 +1.0980199455e+01 1.3376938427e+02 1.3100000000e+02 0.0000e+00 0.0000e+00
      997  1    1    2    0    0 +1.5330728188e+01 +5.3154864932e+00 +4.4263756621e+02 4.4304774082e+02 1.0000000000e+01 0.0000e+00 0.0000e+00
</event>
<event>
 5      1 +4.4770400e-06 2.08283600e+02 7.95774700e-02 4.89309200e-01
       13 -1    0    0    0    0 +0.0000000000e+00 +0.0000000000e+00 +4.9999998884e+02 5.0000000000e+02 1.0566000000e-01 0.0000e+00 -1.0000e+00
      994 -1    0    0    0    0 -0.0000000000e+00 -0.0000000000e+00 +0.0000000000e+00 1.3100000000e+02 1.3100000000e+02 0.0000e+00 0.0000e+00
       13  1    1    2    0    0 +1.2278697468e+01 +3.0333835734e+01 +9.1345608810e+01 9.7030610710e+01 1.0566000000e-01 0.0000e+00 1.0000e+00
      994  1    1    2    0    0 -1.4465951954e+01 -2.4456549432e+01 +9.2224493012e+00 1.3436309072e+02 1.3100000000e+02 0.0000e+00 0.0000e+00
      997  1    1    2    0    0 +2.1872544856e+00 -5.8772863019e+00 +3.9943193073e+02 3.9960629857e+02 1.0000000000e+01 0.0000e+00 0.0000e+00
</event>
<event>
 5      1 +4.4770400e-06 2.10664700e+02 7.95774700e-02 4.85370700e-01
       13 -1    0    0    0    0 +0.0000000000e+00 +0.0000000000e+00 +4.9999998884e+02 5.0000000000e+02 1.0566000000e-01 0.0000e+00 1.0000e+00
      994 -1    0    0    0    0 -0.0000000000e+00 -0.0000000000e+00 +0.0000000000e+00 1.3100000000e+02 1.3100000000e+02 0.0000e+00 0.0000e+00
       13  1    1    2    0    0 -4.2304202178e+00 +1.2416095530e+01 +2.6806296709e+01 2.9843669190e+01 1.0566000000e-01 0.0000e+00 -1.0000e+00
      994  1    1    2    0    0 -8.1341611664e-01 -6.8252058292e+00 +3.4291284902e+00 1.3122501287e+02 1.3100000000e+02 0.0000e+00 0.0000e+00
      997  1    1    2    0    0 +5.0438363345e+00 -5.5908897007e+00 +4.6976456364e+02 4.6993131794e+02 1.0000000000e+01 0.0000e+00 0.0000e+00
</event>
<event>
 5      1 +4.4770400e-06 2.08790400e+02 7.95774700e-02 4.88461500e-01
       13 -1    0    0    0    0 +0.0000000000e+00 +0.0000000000e+00 +4.9999998884e+02 5.0000000000e+02 1.0566000000e-01 0.0000e+00 1.0000e+00
      994 -1    0    0    0    0 -0.0000000000e+00 -0.0000000000e+00 +0.0000000000e+00 1.3100000000e+02 1.3100000000e+02 0.0000e+00 0.0000e+00
       13  1    1    2    0    0 +1.5475477067e+01 -1.8757749936e+01 +6.1937282087e+01 6.6540075515e+01 1.0566000000e-01 0.0000e+00 -1.0000e+00
      994  1    1    2    0    0 -9.6490065977e+00 +1.0818350519e+01 +5.7557893733e+00 1.3192524075e+02 1.3100000000e+02 0.0000e+00 0.0000e+00
      997  1    1    2    0    0 -5.8264704691e+00 +7.9393994179e+00 +4.3230691738e+02 4.3253468373e+02 1.0000000000e+01 0.0000e+00 0.0000e+00
</event>
<event>
 5      1 +4.4770400e-06 2.10569400e+02 7.95774700e-02 4.85526200e-01
       13 -1    0    0    0    0 +0.0000000000e+00 +0.0000000000e+00 +4.9999998884e+02 5.0000000000e+02 1.0566000000e-01 0.0000e+00 1.0000e+00
      994 -1    0    0    0    0 -0.0000000000e+00 -0.0000000000e+00 +0.0000000000e+00 1.3100000000e+02 1.3100000000e+02 0.0000e+00 0.0000e+00
       13  1    1    2    0    0 +1.0974496318e+01 -2.1801064386e+01 +1.0433002582e+02 1.0714705516e+02 1.0566000000e-01 0.0000e+00 -1.0000e+00
      994  1    1    2    0    0 -4.9575370685e+00 +6.3237404243e+00 +3.5912347576e+00 1.3129533059e+02 1.3100000000e+02 0.0000e+00 0.0000e+00
      997  1    1    2    0    0 -6.0169592496e+00 +1.5477323962e+01 +3.9207872826e+02 3.9255761426e+02 1.0000000000e+01 0.0000e+00 0.0000e+00
</event>
<event>
 5      1 +4.4770400e-06 2.13487500e+02 7.95774700e-02 4.80845300e-01
       13 -1    0    0    0    0 +0.0000000000e+00 +0.0000000000e+00 +4.9999998884e+02 5.0000000000e+02 1.0566000000e-01 0.0000e+00 -1.0000e+00
      994 -1    0    0    0    0 -0.0000000000e+00 -0.0000000000e+00 +0.0000000000e+00 1.3100000000e+02 1.3100000000e+02 0.0000e+00 0.0000e+00
       13  1    1    2    0    0 +1.2418434513e+00 +1.0613906089e+01 +4.6008075403e+01 4.7232947652e+01 1.0566000000e-01 0.0000e+00 1.0000e+00
      994  1    1    2    0    0 -3.3741297118e+00 -2.2481232032e+01 +3.5010660875e+00 1.3300393982e+02 1.3100000000e+02 0.0000e+00 0.0000e+00
      997  1    1    2    0    0 +2.1322862604e+00 +1.1867325942e+01 +4.5049084735e+02 4.5076311252e+02 1.0000000000e+01 0.0000e+00 0.0000e+00
</event>
<event>
 5      1 +4.4770400e-06 2.11396300e+02 7.95774700e-02 4.84183300e-01
       13 -1    0    0    0    0 +0.0000000000e+00 +0.0000000000e+00 +4.9999998884e+02 5.0000000000e+02 1.0566000000e-01 0.0000e+00 -1.0000e+00
      994 -1    0    0    0    0 -0.0000000000e+00 -0.0000000000e+00 +0.0000000000e+00 1.3100000000e+02 1.3100000000e+02 0.0000e+00 0.0000e+00
       13  1    1    2    0    0 -1.9656781095e+00 -1.3781265534e+01 +4.3716353329e+01 4.5879384069e+01 1.0566000000e-01 0.0000e+00 1.0000e+00
      994  1    1    2    0    0 -6.9603148245e-01 -3.2363923594e+00 +2.6690576622e+00 1.3106899925e+02 1.3100000000e+02 0.0000e+00 0.0000e+00
      997  1    1    2    0    0 +2.6617095920e+00 +1.7017657893e+01 +4.5361457784e+02 4.5405161668e+02 1.0000000000e+01 0.0000e+00 0.0000e+00
</event>
<event>
 5      1 +4.4770400e-06 2.11461900e+02 7.95774700e-02 4.84077300e-01
       13 -1    0    0    0    0 +0.0000000000e+00 +0.0000000000e+00 +4.9999998884e+02 5.0000000000e+02 1.0566000000e-01 0.0000e+00 -1.0000e+00
      994 -1    0    0    0    0 -0.0000000000e+00 -0.0000000000e+00 +0.0000000000e+00 1.3100000000e+02 1.3100000000e+02 0.0000e+00 0.0000e+00
       13  1    1    2    0    0 -2.0742182521e+01 +2.1161735290e+00 +6.1343310795e+01 6.4789885549e+01 1.0566000000e-01 0.0000e+00 1.0000e+00
      994  1    1    2    0    0 +3.4930788369e+01 +2.0830406529e-01 +8.6564329885e+00 1.3585336653e+02 1.3100000000e+02 0.0000e+00 0.0000e+00
      997  1    1    2    0    0 -1.4188605848e+01 -2.3244775943e+00 +4.3000024505e+02 4.3035674792e+02 1.0000000000e+01 0.0000e+00 0.0000e+00
</event>
<event>
 5      1 +4.4770400e-06 2.06272200e+02 7.95774700e-02 4.92726600e-01
       13 -1    0    0    0    0 +0.0000000000e+00 +0.0000000000e+00 +4.9999998884e+02 5.0000000000e+02 1.0566000000e-01 0.0000e+00 1.0000e+00
      994 -1    0    0    0    0 -0.0000000000e+00 -0.0000000000e+00 +0.0000000000e+00 1.3100000000e+02 1.3100000000e+02 0.0000e+00 0.0000e+00
       13  1    1    2    0    0 -1.6376597226e+01 +2.0133936822e+01 +4.2510116185e+01 4.9806520564e+01 1.0566000000e-01 0.0000e+00 -1.0000e+00
      994  1    1    2    0    0 +1.6655352180e+01 -2.2476424225e+01 +1.0803151998e+01 1.3438860999e+02 1.3100000000e+02 0.0000e+00 0.0000e+00
      997  1    1    2    0    0 -2.7875495443e-01 +2.3424874029e+00 +4.4668672065e+02 4.4680486944e+02 1.0000000000e+01 0.0000e+00 0.0000e+00
</event>
<event>
 5      1 +4.4770400e-06 2.07887200e+02 7.95774700e-02 4.89976000e-01
       13 -1    0    0    0    0 +0.0000000000e+00 +0.0000000000e+00 +4.9999998884e+02 5.0000000000e+02 1.0566000000e-01 0.0000e+00 1.0000e+00
      994 -1    0    0    0    0 -0.0000000000e+00 -0.0000000000e+00 +0.0000000000e+00 1.3100000000e+02 1.3100000000e+02 0.0000e+00 0.0000e+00
       13  1    1    2    0    0 +2.2445201427e+01 -1.5157255525e+01 +7.7163164776e+01 8.1778326128e+01 1.0566000000e-01 0.0000e+00 -1.0000e+00
      994  1    1    2    0    0 -4.2565335388e+00 +2.0563468775e+00 +5.5386075870e+00 1.3120222107e+02 1.3100000000e+02 0.0000e+00 0.0000e+00
      997  1    1    2    0    0 -1.8188667888e+01 +1.3100908647e+01 +4.1729821647e+02 4.1801945280e+02 1.0000000000e+01 0.0000e+00 0.0000e+00
</event>
<event>
 5      1 +4.4770400e-06 2.12269200e+02 7.95774700e-02 4.82779800e-01
       13 -1    0    0    0    0 +0.0000000000e+00 +0.0000000000e+00 +4.9999998884e+02 5.0000000000e+02 1.0566000000e-01 0.0000e+00 1.0000e+00
      994 -1    0    0    0    0 -0.0000000000e+00 -0.0000000000e+00 +0.0000000000e+00 1.3100000000e+02 1.3100000000e+02 0.0000e+00 0.0000e+00
       13  1    1    2    0    0 +2.5587731179e+01 +2.2336814622e+01 +1.5750963863e+02 1.6113026624e+02 1.0566000000e-01 0.0000e+00 -1.0000e+00
      994  1    1    2    0    0 -3.3167741872e+01 -2.8965027809e+01 +1.1615039700e+01 1.3869023428e+02 1.3100000000e+02 0.0000e+00 0.0000e+00
      997  1    1    2    0    0 +7.5800106929e+00 +6.6282131870e+00 +3.3087531051e+02 3.3117949948e+02 1.0000000000e+01 0.0000e+00 0.0000e+00
</event>
<event>
 5      1 +4.4770400e-06 2.11524100e+02 7.95774700e-02 4.83976900e-01
       13 -1    0    0    0    0 +0.0000000000e+00 +0.0000000000e+00 +4.9999998884e+02 5.0000000000e+02 1.0566000000e-01 0.0000e+00 -1.0000e+00
      994 -1    0    0    0    0 -0.0000000000e+00 -0.0000000000e+00 +0.0000000000e+00 1.3100000000e+02 1.3100000000e+02 0.0000e+00 0.0000e+00
       13  1    1    2    0    0 +4.3812468229e+01 -2.6706115300e+00 +1.9675267545e+02 2.0158941192e+02 1.0566000000e-01 0.0000e+00 1.0000e+00
      994  1    1    2    0    0 -4.9788089082e+01 +1.4458425675e+01 +1.6119952134e+01 1.4180533398e+02 1.3100000000e+02 0.0000e+00 0.0000e+00
      997  1    1    2    0    0 +5.9756208534e+00 -1.1787814145e+01 +2.8712736126e+02 2.8760525411e+02 1.0000000000e+01 0.0000e+00 0.0000e+00
</event>
<event>
 5      1 +4.4770400e-06 2.03264600e+02 7.95774700e-02 4.97998600e-01
       13 -1    0    0    0    0 +0.0000000000e+00 +0.0000000000e+00 +4.9999998884e+02 5.0000000000e+02 1.0566000000e-01 0.0000e+00 1.0000e+00
      994 -1    0    0    0    0 -0.0000000000e+00 -0.0000000000e+00 +0.0000000000e+00 1.3100000000e+02 1.3100000000e+02 0.0000e+00 0.0000e+00
       13  1    1    2    0    0 -1.6053957362e+01 -2.5972499205e+01 +4.4419928702e+01 5.3902147377e+01 1.0566000000e-01 0.0000e+00 -1.0000e+00
      994  1    1    2    0    0 +7.7724116066e+00 +2.4829835634e+01 +1.2849436023e+01 1.3417540433e+02 1.3100000000e+02 0.0000e+00 0.0000e+00
      997  1    1    2    0    0 +8.2815457558e+00 +1.1426635703e+00 +4.4273062411e+02 4.4292244830e+02 1.0000000000e+01 0.0000e+00 0.0000e+00
</event>
<event>
 5      1 +4.4770400e-06 2.12585100e+02 7.95774700e-02 4.82275700e-01
       13 -1    0    0    0    0 +0.0000000000e+00 +0.0000000000e+00 +4.9999998884e+02 5.0000000000e+02 1.0566000000e-01 0.0000e+00 -1.0000e+00
      994 -1    0    0    0    0 -0.0000000000e+00 -0.0000000000e+00 +0.0000000000e+00 1.3100000000e+02 1.3100000000e+02 0.0000e+00 0.0000e+00
       13  1    1    2    0    0 -1.1780000249e+01 +1.2373768870e-01 +4.2257577586e+01 4.3869097830e+01 1.0566000000e-01 0.0000e+00 1.0000e+00
      994  1    1    2    0    0 +1.1644281983e+01 -3.4227049527e+01 +8.1558357037e+00 1.3614183001e+02 1.3100000000e+02 0.0000e+00 0.0000e+00
      997  1    1    2    0    0 +1.3571826680e-01 +3.4103311838e+01 +4.4958657555e+02 4.5098907216e+02 1.0000000000e+01 0.0000e+00 0.0000e+00
</event>
<event>
 5      1 +4.4770400e-06 2.13019700e+02 7.95774700e-02 4.81584900e-01
       13 -1    0    0    0    0 +0.0000000000e+00 +0.0000000000e+00 +4.9999998884e+02 5.0000000000e+02 1.0566000000e-01 0.0000e+00 1.0000e+00
      994 -1    0    0    0    0 -0.0000000000e+00 -0.0000000000e+00 +0.0000000000e+00 1.3100000000e+02 1.3100000000e+02 0.0000e+00 0.0000e+00
       13  1    1    2    0    0 +9.5224318125e+00 +5.3935774772e+00 +4.3270548074e+01 4.4633158977e+01 1.0566000000e-01 0.0000e+00 -1.0000e+00
      994  1    1    2    0    0 -9.2365297477e+00 -7.4862964336e+00 +2.0315698816e+00 1.3155411583e+02 1.3100000000e+02 0.0000e+00 0.0000e+00
      997  1    1    2    0    0 -2.8590206482e-01 +2.0927189564e+00 +4.5469787088e+02 4.5481272519e+02 1.0000000000e+01 0.0000e+00 0.0000e+00
</event>
<event>
 5      1 +4.4770400e-06 2.10086000e+02 7.95774700e-02 4.86317600e-01
       13 -1    0    0    0    0 +0.0000000000e+00 +0.0000000000e+00 +4.9999998884e+02 5.0000000000e+02 1.0566000000e-01 0.0000e+00 -1.0000e+00
      994 -1    0    0    0    0 -0.0000000000e+00 -0.0000000000e+00 +0.0000000000e+00 1.3100000000e+02 1.3100000000e+02 0.0000e+00 0.0000e+00
       13  1    1    2    0    0 -6.7850732882e+00 +9.6429247790e+00 +1.7880166089e+01 2.1418093314e+01 1.0566000000e-01 0.0000e+00 1.0000e+00
      994  1    1    2    0    0 +3.3531454013e+00 -6.7788572549e+00 +3.9406390894e+00 1.3127728336e+02 1.3100000000e+02 0.0000e+00 0.0000e+00
      997  1    1    2    0    0 +3.4319278869e+00 -2.8640675242e+00 +4.7817918366e+02 4.7830462333e+02 1.0000000000e+01 0.0000e+00 0.0000e+00
</event>
<event>
 5      1 +4.4770400e-06 2.12848400e+02 7.95774700e-02 4.81856700e-01
       13 -1    0    0    0    0 +0.0000000000e+00 +0.0000000000e+00 +4.9999998884e+02 5.0000000000e+02 1.0566000000e-01 0.0000e+00 1.0000e+00
      994 -1    0    0    0    0 -0.0000000000e+00 -0.0000000000e+00 +0.0000000000e+00 1.3100000000e+02 1.3100000000e+02 0.0000e+00 0.0000e+00
       13  1    1    2    0    0 -1.1209376921e+01 +6.1761261569e+00 +6.1652079458e+01 6.2966536595e+01 1.0566000000e-01 0.0000e+00 -1.0000e+00
      994  1    1    2    0    0 +4.6285528989e+00 -2.4704042494e+00 +1.6090901747e+00 1.3111489454e+02 1.3100000000e+02 0.0000e+00 0.0000e+00
      997  1    1    2    0    0 +6.5808240219e+00 -3.7057219075e+00 +4.3673881920e+02 4.3691856886e+02 1.0000000000e+01 0.0000e+00 0.0000e+00
</event>
<event>
 5      1 +4.4770400e-06 2.10560800e+02 7.95774700e-02 4.85540300e-01
       13 -1    0    0    0    0 +0.0000000000e+00 +0.0000000000e+00 +4.9999998884e+02 5.0000000000e+02 1.0566000000e-01 0.0000e+00 -1.0000e+00
      994 -1    0    0    0    0 -0.0000000000e+00 -0.0000000000e+00 +0.0000000000e+00 1.3100000000e+02 1.3100000000e+02 0.0000e+00 0.0000e+00
       13  1    1    2    0    0 -2.1478465106e+01 -2.6059613461e+00 +7.0002694600e+01 7.3270075154e+01 1.0566000000e-01 0.0000e+00 1.0000e+00
      994  1    1    2    0    0 +1.3463992531e+01 +9.3014529854e+00 +4.6117208091e+00 1.3209869073e+02 1.3100000000e+02 0.0000e+00 0.0000e+00
      997  1    1    2    0    0 +8.0144725757e+00 -6.6954916394e+00 +4.2538557343e+02 4.2563123412e+02 1.0000000000e+01 0.0000e+00 0.0000e+00
</event>
<event>
 5      1 +4.4770400e-06 2.12500300e+02 7.95774700e-02 4.82410800e-01
       13 -1    0    0    0    0 +0.0000000000e+00 +0.0000000000e+00 +4.9999998884e+02 5.0000000000e+02 1.0566000000e-01 0.0000e+00 -1.0000e+00
      994 -1    0    0    0    0 -0.0000000000e+00 -0.0000000000e+00 +0.0000000000e+00 1.3100000000e+02 1.3100000000e+02 0.0000e+00 0.0000e+00
       13  1    1    2    0    0 -8.3307074782e+00 -8.4725532927e+00 +5.0119720407e+01 5.1509051477e+01 1.0566000000e-01 0.0000e+00 1.0000e+00
      994  1    1    2    0    0 +1.1981224861e-01 -4.0929713437e+00 +1.8289420221e+00 1.3107674011e+02 1.3100000000e+02 0.0000e+00 0.0000e+00
      997  1    1    2    0    0 +8.2108952295e+00 +1.2565524636e+01 +4.4805132641e+02 4.4841420841e+02 1.0000000000e+01 0.0000e+00 0.0000e+00
</event>
<event>
 5      1 +4.4770400e-06 2.11191700e+02 7.95774700e-02 4.84514400e-01
       13 -1    0    0    0    0 +0.0000000000e+00 +0.0000000000e+00 +4.9999998884e+02 5.0000000000e+02 1.0566000000e-01 0.0000e+00 1.0000e+00
      994 -1    0    0    0    0 -0.0000000000e+00 -0.0000000000e+00 +0.0000000000e+00 1.3100000000e+02 1.3100000000e+02 0.0000e+00 0.0000e+00
       13  1    1    2    0    0 +8.4800962683e+00 -1.3073644884e+01 +5.0140683666e+01 5.2506490511e+01 1.0566000000e-01 0.0000e+00 -1.0000e+00
      994  1    1    2    0    0 +1.2447949152e+01 +8.8936785492e+00 +3.9372235755e+00 1.3194904579e+02 1.3100000000e+02 0.0000e+00 0.0000e+00
      997  1    1    2    0    0 -2.0928045421e+01 +4.1799663351e+00 +4.4592208159e+02 4.4654446370e+02 1.0000000000e+01 0.0000e+00 0.0000e+00
</event>
<event>
 5      1 +4.4770400e-06 2.09776600e+02 7.95774700e-02 4.86826600e-01
       13 -1    0    0    0    0 +0.0000000000e+00 +0.0000000000e+00 +4.9999998884e+02 5.0000000000e+02 1.0566000000e-01 0.0000e+00 1.0000e+00
      994 -1    0    0    0    0 -0.0000000000e+00 -0.0000000000e+00 +0.0000000000e+00 1.3100000000e+02 1.3100000000e+02 0.0000e+00 0.0000e+00
       13  1    1    2    0    0 +1.3832636943e+01 -2.5882836935e+01 +1.0653927275e+02 1.1050742461e+02 1.0566000000e-01 0.0000e+00 -1.0000e+00
      994  1    1    2    0    0 +3.3840604811e+00 +2.4500338572e+01 +6.9800888413e+00 1.3349696662e+02 1.3100000000e+02 0.0000e+00 0.0000e+00
      997  1    1    2    0    0 -1.7216697424e+01 +1.3824983631e+00 +3.8648062725e+02 3.8699560877e+02 1.0000000000e+01 0.0000e+00 0.0000e+00
</event>
<event>
 5      1 +4.4770400e-06 2.13583400e+02 7.95774700e-02 4.80694200e-01
       13 -1    0    0    0    0 +0.0000000000e+00 +0.0000000000e+00 +4.9999998884e+02 5.0000000000e+02 1.0566000000e-01 0.0000e+00 -1.0000e+00
      994 -1    0    0    0    0 -0.0000000000e+00 -0.0000000000e+00 +0.0000000000e+00 1.3100000000e+02 1.3100000000e+02 0.0000e+00 0.0000e+00
       13  1    1    2    0    0 -1.0353937876e+01 -5.1980814908e+01 +9.7782425127e+01 1.1122330231e+02 1.0566000000e-01 0.0000e+00 1.0000e+00
      994  1    1    2    0    0 +1.3162424461e+01 +1.4733642203e+02 +1.4450870748e+02 2.4479590930e+02 1.3100000000e+02 0.0000e+00 0.0000e+00
      997  1    1    2    0    0 -2.8084865849e+00 -9.5355607118e+01 +2.5770885623e+02 2.7498078839e+02 1.0000000000e+01 0.0000e+00 0.0000e+00
</event>
<event>
 5      1 +4.4770400e-06 2.10023100e+02 7.95774700e-02 4.86421000e-01
       13 -1    0    0    0    0 +0.0000000000e+00 +0.0000000000e+00 +4.9999998884e+02 5.0000000000e+02 1.0566000000e-01 0.0000e+00 -1.0000e+00
      994 -1    0    0    0    0 -0.0000000000e+00 -0.0000000000e+00 +0.0000000000e+00 1.3100000000e+02 1.3100000000e+02 0.0000e+00 0.0000e+00
       13  1    1    2    0    0 +3.3478405913e+01 +1.8503029229e+01 +1.4013872235e+02 1.4526540682e+02 1.0566000000e-01 0.0000e+00 1.0000e+00
      994  1    1    2    0    0 -7.5810668850e+01 +2.1823700281e+01 +3.6816512166e+01 1.5728950052e+02 1.3100000000e+02 0.0000e+00 0.0000e+00
      997  1    1    2    0    0 +4.2332262937e+01 -4.0326729510e+01 +3.2304475432e+02 3.2844509266e+02 1.0000000000e+01 0.0000e+00 0.0000e+00
</event>
<event>
 5      1 +4.4770400e-06 1.98723100e+02 7.95774700e-02 5.06352200e-01
       13 -1    0    0    0    0 +0.0000000000e+00 +0.0000000000e+00 +4.9999998884e+02 5.0000000000e+02 1.0566000000e-01 0.0000e+00 1.0000e+00
      994 -1    0    0    0    0 -0.0000000000e+00 -0.0000000000e+00 +0.0000000000e+00 1.3100000000e+02 1.3100000000e+02 0.0000e+00 0.0000e+00
       13  1    1    2    0    0 +4.4631336969e+01 +1.9539429005e+01 +9.7133792145e+01 1.0866798179e+02 1.0566000000e-01 0.0000e+00 -1.0000e+00
      994  1    1    2    0    0 -4.6392445115e+01 +4.7713282730e+01 +3.8805778636e+01 1.5197271060e+02 1.3100000000e+02 0.0000e+00 0.0000e+00
      997  1    1    2    0    0 +1.7611081462e+00 -6.7252711735e+01 +3.6406041806e+02 3.7035930761e+02 1.0000000000e+01 0.0000e+00 0.0000e+00
</event>
<event>
 5      1 +4.4770400e-06 2.09445100e+02 7.95774700e-02 4.87373800e-01
       13 -1    0    0    0    0 +0.0000000000e+00 +0.0000000000e+00 +4.9999998884e+02 5.0000000000e+02 1.0566000000e-01 0.0000e+00 1.0000e+00
      994 -1    0    0    0    0 -0.0000000000e+00 -0.0000000000e+00 +0.0000000000e+00 1.3100000000e+02 1.3100000000e+02 0.0000e+00 0.0000e+00
       13  1    1    2    0    0 +3.0155273894e+01 +6.6670295434e+00 +7.9316335283e+01 8.5116872788e+01 1.0566000000e-01 0.0000e+00 -1.0000e+00
      994  1    1    2    0    0 -4.2186396537e+01 -1.1554806269e+01 +1.3941947840e+01 1.3881132342e+02 1.3100000000e+02 0.0000e+00 0.0000e+00
      997  1    1    2    0    0 +1.2031122643e+01 +4.8877767261e+00 +4.0674170571e+02 4.0707180379e+02 1.0000000000e+01 0.0000e+00 0.0000e+00
</event>
<event>
 5      1 +4.4770400e-06 2.03463300e+02 7.95774700e-02 4.97644000e-01
       13 -1    0    0    0    0 +0.0000000000e+00 +0.0000000000e+00 +4.9999998884e+02 5.0000000000e+02 1.0566000000e-01 0.0000e+00 1.0000e+00
      994 -1    0    0    0    0 -0.0000000000e+00 -0.0000000000e+00 +0.0000000000e+00 1.3100000000e+02 1.3100000000e+02 0.0000e+00 0.0000e+00
       13  1    1    2    0    0 +1.8425774712e+01 -9.0844127294e+00 +1.8991728032e+01 2.7977359169e+01 1.0566000000e-01 0.0000e+00 -1.0000e+00
      994  1    1    2    0    0 -1.4616621243e+01 +9.6395570079e+00 +1.0705460822e+01 1.3259778870e+02 1.3100000000e+02 0.0000e+00 0.0000e+00
      997  1    1    2    0    0 -3.8091534685e+00 -5.5514427854e-01 +4.7030279998e+02 4.7042485213e+02 1.0000000000e+01 0.0000e+00 0.0000e+00
</event>
<event>
 5      1 +4.4770400e-06 2.12818500e+02 7.95774700e-02 4.81904200e-01
       13 -1    0    0    0    0 +0.0000000000e+00 +0.0000000000e+00 +4.9999998884e+02 5.0000000000e+02 1.0566000000e-01 0.0000e+00 -1.0000e+00
      994 -1    0    0    0    0 -0.0000000000e+00 -0.0000000000e+00 +0.0000000000e+00 1.3100000000e+02 1.3100000000e+02 0.0000e+00 0.0000e+00
       13  1    1    2    0    0 -1.3446459632e+01 -6.0928787450e+00 +6.1760908287e+01 6.3500798456e+01 1.0566000000e-01 0.0000e+00 1.0000e+00
      994  1    1    2    0    0 +2.0476939771e+01 +2.7867143650e+00 +3.5929967599e+00 1.3266868683e+02 1.3100000000e+02 0.0000e+00 0.0000e+00
      997  1    1    2    0    0 -7.0304801391e+00 +3.3061643800e+00 +4.3464608379e+02 4.3483051471e+02 1.0000000000e+01 0.0000e+00 0.0000e+00
</event>
<event>
 5      1 +4.4770400e-06 2.08779300e+02 7.95774700e-02 4.88480000e-01
       13 -1    0    0    0    0 +0.0000000000e+00 +0.0000000000e+00 +4.9999998884e+02 5.0000000000e+02 1.0566000000e-01 0.0000e+00 1.0000e+00
      994 -1    0    0    0    0 -0.0000000000e+00 -0.0000000000e+00 +0.0000000000e+00 1.3100000000e+02 1.3100000000e+02 0.0000e+00 0.0000e+00
       13  1    1    2    0    0 +4.7259189982e+00 +2.9776453543e+01 +1.3546790874e+02 1.3878233662e+02 1.0566000000e-01 0.0000e+00 -1.0000e+00
      994  1    1    2    0    0 -2.4353278004e+01 +1.3844759510e-01 +7.7105593871e+00 1.3346742690e+02 1.3100000000e+02 0.0000e+00 0.0000e+00
      997  1    1    2    0    0 +1.9627359006e+01 -2.9914901138e+01 +3.5682152071e+02 3.5875023648e+02 1.0000000000e+01 0.0000e+00 0.0000e+00
</event>
<event>
 5      1 +4.4770400e-06 2.06896600e+02 7.95774700e-02 4.91656500e-01
       13 -1    0    0    0    0 +0.0000000000e+00 +0.0000000000e+00 +4.9999998884e+02 5.0000000000e+02 1.0566000000e-01 0.0000e+00 -1.0000e+00
      994 -1    0    0    0    0 -0.0000000000e+00 -0.0000000000e+00 +0.0000000000e+00 1.3100000000e+02 1.3100000000e+02 0.0000e+00 0.0000e+00
       13  1    1    2    0    0 -5.8105955742e+00 -4.4111942201e+01 +1.8820259984e+02 1.9339042431e+02 1.0566000000e-01 0.0000e+00 1.0000e+00
      994  1    1    2    0    0 -2.2776573825e+01 +2.5053571190e+01 +1.2168044788e+01 1.3585107677e+02 1.3100000000e+02 0.0000e+00 0.0000e+00
      997  1    1    2    0    0 +2.8587169399e+01 +1.9058371011e+01 +2.9962934421e+02 3.0175849892e+02 1.0000000000e+01 0.0000e+00 0.0000e+00
</event>
<event>
 5      1 +4.4770400e-06 2.03179400e+02 7.95774700e-02 4.98150800e-01
       13 -1    0    0    0    0 +0.0000000000e+00 +0.0000000000e+00 +4.9999998884e+02 5.0000000000e+02 1.0566000000e-01 0.0000e+00 1.0000e+00
      994 -1    0    0    0    0 -0.0000000000e+00 -0.0000000000e+00 +0.0000000000e+00 1.3100000000e+02 1.3100000000e+02 0.0000e+00 0.0000e+00
       13  1    1    2    0    0 +3.4649229563e+01 -1.6207246709e+01 +1.2182415190e+01 4.0145564625e+01 1.0566000000e-01 0.0000e+00 -1.0000e+00
      994  1    1    2    0    0 -3.0772624130e+01 +1.9351712404e+01 +3.8360645000e+01 1.4125856524e+02 1.3100000000e+02 0.0000e+00 0.0000e+00
      997  1    1    2    0    0 -3.8766054331e+00 -3.1444656953e+00 +4.4945692865e+02 4.4959587014e+02 1.0000000000e+01 0.0000e+00 0.0000e+00
</event>
<event>
 5      1 +4.4770400e-06 2.13755900e+02 7.95774700e-02 4.80422900e-01
       13 -1    0    0    0    0 +0.0000000000e+00 +0.0000000000e+00 +4.9999998884e+02 5.0000000000e+02 1.0566000000e-01 0.0000e+00 1.0000e+00
      994 -1    0    0    0    0 -0.0000000000e+00 -0.0000000000e+00 +0.0000000000e+00 1.3100000000e+02 1.3100000000e+02 0.0000e+00 0.0000e+00
       13  1    1    2    0    0 +1.2385988494e+01 +8.6075611305e-01 +4.0265969401e+01 4.2136837422e+01 1.0566000000e-01 0.0000e+00 -1.0000e+00
      994  1    1    2    0    0 -6.1231464609e+01 -8.1478604292e+00 +1.9948714450e+01 1.4620065354e+02 1.3100000000e+02 0.0000e+00 0.0000e+00
      997  1    1    2    0    0 +4.8845476115e+01 +7.2871043162e+00 +4.3978530498e+02 4.4266250904e+02 1.0000000000e+01 0.0000e+00 0.0000e+00
</event>
<event>
 5      1 +4.4770400e-06 2.11254300e+02 7.95774700e-02 4.84413000e-01
       13 -1    0    0    0    0 +0.0000000000e+00 +0.0000000000e+00 +4.9999998884e+02 5.0000000000e+02 1.0566000000e-01 0.0000e+00 1.0000e+00
      994 -1    0    0    0    0 -0.0000000000e+00 -0.0000000000e+00 +0.0000000000e+00 1.3100000000e+02 1.3100000000e+02 0.0000e+00 0.0000e+00
       13  1    1    2    0    0 +2.6823348852e+01 +1.4003197984e+01 +1.6067635678e+02 1.6350071678e+02 1.0566000000e-01 0.0000e+00 -1.0000e+00
      994  1    1    2    0    0 -1.3542956708e+01 -1.9618015208e+01 +5.5523162732e+00 1.3326704924e+02 1.3100000000e+02 0.0000e+00 0.0000e+00
      997  1    1    2    0    0 -1.3280392144e+01 +5.6148172238e+00 +3.3377131579e+02 3.3423223398e+02 1.0000000000e+01 0.0000e+00 0.0000e+00
</event>
<event>
 5      1 +4.4770400e-06 1.92734000e+02 7.95774700e-02 5.18163200e-01
       13 -1    0    0    0    0 +0.0000000000e+00 +0.0000000000e+00 +4.9999998884e+02 5.0000000000e+02 1.0566000000e-01 0.0000e+00 -1.0000e+00
      994 -1    0    0    0    0 -0.0000000000e+00 -0.0000000000e+00 +0.0000000000e+00 1.3100000000e+02 1.3100000000e+02 0.0000e+00 0.0000e+00
       13  1    1    2    0    0 -9.2534372657e+00 -2.4007125803e+01 +9.5219321898e+00 2.7434404444e+01 1.0566000000e-01 0.0000e+00 1.0000e+00
      994  1    1    2    0    0 +2.5665416409e+01 +7.2911485969e+00 +2.3313303359e+01 1.3570698052e+02 1.3100000000e+02 0.0000e+00 0.0000e+00
      997  1    1    2    0    0 -1.6411979143e+01 +1.6715977206e+01 +4.6716475329e+02 4.6785861504e+02 1.0000000000e+01 0.0000e+00 0.0000e+00
</event>
<event>
 5      1 +4.4770400e-06 2.12772200e+02 7.95774700e-02 4.81977700e-01
       13 -1    0    0    0    0 +0.0000000000e+00 +0.0000000000e+00 +4.9999998884e+02 5.0000000000e+02 1.0566000000e-01 0.0000e+00 -1.0000e+00
      994 -1    0    0    0    0 -0.0000000000e+00 -0.0000000000e+00 +0.0000000000e+00 1.3100000000e+02 1.3100000000e+02 0.0000e+00 0.0000e+00
       13  1    1    2    0    0 +1.1047127742e+01 +1.2840618095e+01 +4.4605672819e+01 4.7713705746e+01 1.0566000000e-01 0.0000e+00 1.0000e+00
      994  1    1    2    0    0 -5.2481942481e+01 -3.6824296331e+01 +2.2422275471e+01 1.4756063677e+02 1.3100000000e+02 0.0000e+00 0.0000e+00
      997  1    1    2    0    0 +4.1434814739e+01 +2.3983678237e+01 +4.3297204055e+02 4.3572565748e+02 1.0000000000e+01 0.0000e+00 0.0000e+00
</event>
<event>
 5      1 +4.4770400e-06 2.13063300e+02 7.95774700e-02 4.81515700e-01
       13 -1    0    0    0    0 +0.0000000000e+00 +0.0000000000e+00 +4.9999998884e+02 5.0000000000e+02 1.0566000000e-01 0.0000e+00 -1.0000e+00
      994 -1    0    0    0    0 -0.0000000000e+00 -0.0000000000e+00 +0.0000000000e+00 1.3100000000e+02 1.3100000000e+02 0.0000e+00 0.0000e+00
       13  1    1    2    0    0 +3.0841070472e+00 +1.2185844602e+01 +5.8686370474e+01 6.0017562166e+01 1.0566000000e-01 0.0000e+00 1.0000e+00
      994  1    1    2    0    0 -3.4809998572e-01 -1.2284585277e+01 +2.0446017517e+00 1.3159108103e+02 1.3100000000e+02 0.0000e+00 0.0000e+00
      997  1    1    2    0    0 -2.7360070615e+00 +9.8740675817e-02 +4.3926901661e+02 4.3939135681e+02 1.0000000000e+01 0.0000e+00 0.0000e+00
</event>
<event>
 5      1 +4.4770400e-06 2.12710300e+02 7.95774700e-02 4.82076200e-01
       13 -1    0    0    0    0 +0.0000000000e+00 +0.0000000000e+00 +4.9999998884e+02 5.0000000000e+02 1.0566000000e-01 0.0000e+00 -1.0000e+00
      994 -1    0    0    0    0 -0.0000000000e+00 -0.0000000000e+00 +0.0000000000e+00 1.3100000000e+02 1.3100000000e+02 0.0000e+00 0.0000e+00
       13  1    1    2    0    0 -1.2609444685e+01 -8.9647674372e+00 +7.5029284952e+01 7.6607897210e+01 1.0566000000e-01 0.0000e+00 1.0000e+00
      994  1    1    2    0    0 +2.0577234347e+00 +1.9237903708e+01 +3.4194588614e+00 1.3246517982e+02 1.3100000000e+02 0.0000e+00 0.0000e+00
      997  1    1    2    0    0 +1.0551721250e+01 -1.0273136271e+01 +4.2155124502e+02 4.2192692297e+02 1.0000000000e+01 0.0000e+00 0.0000e+00
</event>
<event>
 5      1 +4.4770400e-06 2.10373700e+02 7.95774700e-02 4.85846000e-01
       13 -1    0    0    0    0 +0.0000000000e+00 +0.0000000000e+00 +4.9999998884e+02 5.0000000000e+02 1.0566000000e-01 0.0000e+00 -1.0000e+00
      994 -1    0    0    0    0 -0.0000000000e+00 -0.0000000000e+00 +0.0000000000e+00 1.3100000000e+02 1.3100000000e+02 0.0000e+00 0.0000e+00
       13  1    1    2    0    0 +1.5091638798e+01 -1.1943749706e+01 +5.0847195137e+01 5.4367813419e+01 1.0566000000e-01 0.0000e+00 1.0000e+00
      994  1    1    2    0    0 -1.3821492792e+01 +8.2828337749e+00 +4.7216821938e+00 1.3207169750e+02 1.3100000000e+02 0.0000e+00 0.0000e+00
      997  1    1    2    0    0 -1.2701460058e+00 +3.6609159308e+00 +4.4443111151e+02 4.4456048908e+02 1.0000000000e+01 0.0000e+00 0.0000e+00
</event>
<event>
 5      1 +4.4770400e-06 1.92555400e+02 7.95774700e-02 5.18530200e-01
       13 -1    0    0    0    0 +0.0000000000e+00 +0.0000000000e+00 +4.9999998884e+02 5.0000000000e+02 1.0566000000e-01 0.0000e+00 -1.0000e+00
      994 -1    0    0    0    0 -0.0000000000e+00 -0.0000000000e+00 +0.0000000000e+00 1.3100000000e+02 1.3100000000e+02 0.0000e+00 0.0000e+00
       13  1    1    2    0    0 -1.3021665022e+01 -1.2576062761e+01 -4.7719715716e-02 1.8103440439e+01 1.0566000000e-01 0.0000e+00 1.0000e+00
      994  1    1    2    0    0 +2.7872577809e+01 +9.6092110312e+00 +2.3880493314e+01 1.3638363352e+02 1.3100000000e+02 0.0000e+00 0.0000e+00
      997  1    1    2    0    0 -1.4850912787e+01 +2.9668517298e+00 +4.7616721524e+02 4.7651292604e+02 1.0000000000e+01 0.0000e+00 0.0000e+00
</event>
<event>
 5      1 +4.4770400e-06 2.11034100e+02 7.95774700e-02 4.84769900e-01
       13 -1    0    0    0    0 +0.0000000000e+00 +0.0000000000e+00 +4.9999998884e+02 5.0000000000e+02 1.0566000000e-01 0.0000e+00 -1.0000e+00
      994 -1    0    0    0    0 -0.0000000000e+00 -0.0000000000e+00 +0.0000000000e+00 1.3100000000e+02 1.3100000000e+02 0.0000e+00 0.0000e+00
       13  1    1    2    0    0 -5.3756880254e+00 +8.9266959260e+00 +1.9273418382e+01 2.1910265678e+01 1.0566000000e-01 0.0000e+00 1.0000e+00
      994  1    1    2    0    0 +2.5942206507e+00 +2.3081056117e+00 +2.9610806807e+00 1.3107946190e+02 1.3100000000e+02 0.0000e+00 0.0000e+00
      997  1    1    2    0    0 +2.7814673747e+00 -1.1234801538e+01 +4.7776548977e+02 4.7801027243e+02 1.0000000000e+01 0.0000e+00 0.0000e+00
</event>
<event>
 5      1 +4.4770400e-06 2.03249200e+02 7.95774700e-02 4.98026100e-01
       13 -1    0    0    0    0 +0.0000000000e+00 +0.0000000000e+00 +4.9999998884e+02 5.0000000000e+02 1.0566000000e-01 0.0000e+00 1.0000e+00
      994 -1    0    0    0    0 -0.0000000000e+00 -0.0000000000e+00 +0.0000000000e+00 1.3100000000e+02 1.3100000000e+02 0.0000e+00 0.0000e+00
       13  1    1    2    0    0 -3.0364743463e+01 +3.9857133445e+01 +1.0685577747e+02 1.1802024011e+02 1.0566000000e-01 0.0000e+00 -1.0000e+00
      994  1    1    2    0    0 +2.5545616487e+01 -3.8509769785e+01 +2.0791857784e+01 1.4045953951e+02 1.3100000000e+02 0.0000e+00 0.0000e+00
      997  1    1    2    0    0 +4.8191269763e+00 -1.3473636599e+00 +3.7235235358e+02 3.7252022037e+02 1.0000000000e+01 0.0000e+00 0.0000e+00
</event>
<event>
 5      1 +4.4770400e-06 2.08117600e+02 7.95774700e-02 4.89588000e-01
       13 -1    0    0    0    0 +0.0000000000e+00 +0.0000000000e+00 +4.9999998884e+02 5.0000000000e+02 1.0566000000e-01 0.0000e+00 1.0000e+00
      994 -1    0    0    0    0 -0.0000000000e+00 -0.0000000000e+00 +0.0000000000e+00 1.3100000000e+02 1.3100000000e+02 0.0000e+00 0.0000e+00
       13  1    1    2    0    0 +7.9832866716e+00 -1.2068409475e+01 +2.0098239175e+01 2.4765495257e+01 1.0566000000e-01 0.0000e+00 -1.0000e+00
      994  1    1    2    0    0 +3.6609226614e+00 -3.1008820731e+00 +5.3548135995e+00 1.3119714880e+02 1.3100000000e+02 0.0000e+00 0.0000e+00
      997  1    1    2    0    0 -1.1644209333e+01 +1.5169291548e+01 +4.7454693606e+02 4.7503735594e+02 1.0000000000e+01 0.0000e+00 0.0000e+00
</event>
<event>
 5      1 +4.4770400e-06 2.04122000e+02 7.95774700e-02 4.96475300e-01
       13 -1    0    0    0    0 +0.0000000000e+00 +0.0000000000e+00 +4.9999998884e+02 5.0000000000e+02 1.0566000000e-01 0.0000e+00 1.0000e+00
      994 -1    0    0    0    0 -0.0000000000e+00 -0.0000000000e+00 +0.0000000000e+00 1.3100000000e+02 1.3100000000e+02 0.0000e+00 0.0000e+00
       13  1    1    2    0    0 -1.8986040817e+01 +3.1765677860e+00 +1.8562291568e+01 2.6741917678e+01 1.0566000000e-01 0.0000e+00 -1.0000e+00
      994  1    1    2    0    0 +1.0715885426e+01 +1.6751108198e+00 +9.1490011408e+00 1.3176623399e+02 1.3100000000e+02 0.0000e+00 0.0000e+00
      997  1    1    2    0    0 +8.2701553906e+00 -4.8516786058e+00 +4.7228869613e+02 4.7249184834e+02 1.0000000000e+01 0.0000e+00 0.0000e+00
</event>
<event>
 5      1 +4.4770400e-06 2.13259800e+02 7.95774700e-02 4.81204700e-01
       13 -1    0    0    0    0 +0.0000000000e+00 +0.0000000000e+00 +4.9999998884e+02 5.0000000000e+02 1.0566000000e-01 0.0000e+00 -1.0000e+00
      994 -1    0    0    0    0 -0.0000000000e+00 -0.0000000000e+00 +0.0000000000e+00 1.3100000000e+02 1.3100000000e+02 0.0000e+00 0.0000e+00
       13  1    1    2    0    0 +1.1636426841e+01 -1.1198295267e+00 +5.6263445927e+01 5.7465180409e+01 1.0566000000e-01 0.0000e+00 1.0000e+00
      994  1    1    2    0    0 -1.4478890172e+01 -9.6606228345e+00 +2.6334318558e+00 1.3217753537e+02 1.3100000000e+02 0.0000e+00 0.0000e+00
      997  1    1    2    0    0 +2.8424633310e+00 +1.0780452361e+01 +4.4110311105e+02 4.4135728422e+02 1.0000000000e+01 0.0000e+00 0.0000e+00
</event>
<event>
 5      1 +4.4770400e-06 2.00911800e+02 7.95774700e-02 5.02265100e-01
       13 -1    0    0    0    0 +0.0000000000e+00 +0.0000000000e+00 +4.9999998884e+02 5.0000000000e+02 1.0566000000e-01 0.0000e+00 1.0000e+00
      994 -1    0    0    0    0 -0.0000000000e+00 -0.0000000000e+00 +0.0000000000e+00 1.3100000000e+02 1.3100000000e+02 0.0000e+00 0.0000e+00
       13  1    1    2    0    0 +4.5330954934e+01 -1.4049334507e+01 +1.3111744437e+02 1.3944201181e+02 1.0566000000e-01 0.0000e+00 -1.0000e+00
      994  1    1    2    0    0 -1.1578014341e+01 -1.3787902354e+01 +1.3013606353e+01 1.3287027741e+02 1.3100000000e+02 0.0000e+00 0.0000e+00
      997  1    1    2    0    0 -3.3752940593e+01 +2.7837236861e+01 +3.5586893811e+02 3.5868771078e+02 1.0000000000e+01 0.0000e+00 0.0000e+00
</event>
<event>
 5      1 +4.4770400e-06 2.11163200e+02 7.95774700e-02 4.84560500e-01
       13 -1    0    0    0    0 +0.0000000000e+00 +0.0000000000e+00 +4.9999998884e+02 5.0000000000e+02 1.0566000000e-01 0.0000e+00 1.0000e+00
      994 -1    0    0    0    0 -0.0000000000e+00 -0.0000000000e+00 +0.0000000000e+00 1.3100000000e+02 1.3100000000e+02 0.0000e+00 0.0000e+00
       13  1    1    2    0    0 -4.7715162223e-01 +2.1543408121e+01 +1.1223002274e+02 1.1428007383e+02 1.0566000000e-01 0.0000e+00 -1.0000e+00
      994  1    1    2    0    0 -4.1412896607e+00 -4.1202871424e-01 +2.8848776102e+00 1.3109783586e+02 1.3100000000e+02 0.0000e+00 0.0000e+00
      997  1    1    2    0    0 +4.6184412829e+00 -2.1131379407e+01 +3.8488508849e+02 3.8562209031e+02 1.0000000000e+01 0.0000e+00 0.0000e+00
</event>
<event>
 5      1 +4.4770400e-06 1.95595800e+02 7.95774700e-02 5.12400500e-01
       13 -1    0    0    0    0 +0.0000000000e+00 +0.0000000000e+00 +4.9999998884e+02 5.0000000000e+02 1.0566000000e-01 0.0000e+00 -1.0000e+00
      994 -1    0    0    0    0 -0.0000000000e+00 -0.0000000000e+00 +0.0000000000e+00 1.3100000000e+02 1.3100000000e+02 0.0000e+00 0.0000e+00
       13  1    1    2    0    0 +5.4484576428e+00 +2.5955035367e+01 +2.0829962301e+01 3.3723108473e+01 1.0566000000e-01 0.0000e+00 1.0000e+00
      994  1    1    2    0    0 +1.9295366839e+01 +1.9109091055e+01 +2.0168336714e+01 1.3529682313e+02 1.3100000000e+02 0.0000e+00 0.0000e+00
      997  1    1    2    0    0 -2.4743824482e+01 -4.5064126422e+01 +4.5900168982e+02 4.6198006840e+02 1.0000000000e+01 0.0000e+00 0.0000e+00
</event>
<event>
 5      1 +4.4770400e-06 2.08110800e+02 7.95774700e-02 4.89599500e-01
       13 -1    0    0    0    0 +0.0000000000e+00 +0.0000000000e+00 +4.9999998884e+02 5.0000000000e+02 1.0566000000e-01 0.0000e+00 -1.0000e+00
      994 -1    0    0    0    0 -0.0000000000e+00 -0.0000000000e+00 +0.0000000000e+00 1.3100000000e+02 1.3100000000e+02 0.0000e+00 0.0000e+00
       13  1    1    2    0    0 +1.1935931117e+01 -2.5562928639e+01 +6.6895807600e+01 7.2601584078e+01 1.0566000000e-01 0.0000e+00 1.0000e+00
      994  1    1    2    0    0 -2.0523761609e+01 +1.8880054722e+01 +9.2153306662e+00 1.3425201517e+02 1.3100000000e+02 0.0000e+00 0.0000e+00
      997  1    1    2    0    0 +8.5878304917e+00 +6.6828739174e+00 +4.2388885057e+02 4.2414640076e+02 1.0000000000e+01 0.0000e+00 0.0000e+00
</event>
<event>
 5      1 +4.4770400e-06 2.12365200e+02 7.95774700e-02 4.82626500e-01
       13 -1    0    0    0    0 +0.0000000000e+00 +0.0000000000e+00 +4.9999998884e+02 5.0000000000e+02 1.0566000000e-01 0.0000e+00 1.0000e+00
      994 -1    0    0    0    0 -0.0000000000e+00 -0.0000000000e+00 +0.0000000000e+00 1.3100000000e+02 1.3100000000e+02 0.0000e+00 0.0000e+00
       13  1    1    2    0    0 -5.7980180239e+00 -1.7664927921e+01 +1.0878806191e+02 1.1036539435e+02 1.0566000000e-01 0.0000e+00 -1.0000e+00
      994  1    1    2    0    0 +2.2030107898e+00 +6.3793849333e+00 +2.0761114924e+00 1.3119016750e+02 1.3100000000e+02 0.0000e+00 0.0000e+00
      997  1    1    2    0    0 +3.5950072341e+00 +1.1285542988e+01 +3.8913581543e+02 3.8944443815e+02 1.0000000000e+01 0.0000e+00 0.0000e+00
</event>
<event>
 5      1 +4.4770400e-06 2.12904600e+02 7.95774700e-02 4.81767400e-01
       13 -1    0    0    0    0 +0.0000000000e+00 +0.0000000000e+00 +4.9999998884e+02 5.0000000000e+02 1.0566000000e-01 0.0000e+00 -1.0000e+00
      994 -1    0    0    0    0 -0.0000000000e+00 -0.0000000000e+00 +0.0000000000e+00 1.3100000000e+02 1.3100000000e+02 0.0000e+00 0.0000e+00
       13  1    1    2    0    0 +1.1677263804e+01 +4.6173496937e+00 +5.7912508000e+01 5.9258317180e+01 1.0566000000e-01 0.0000e+00 1.0000e+00
      994  1    1    2    0    0 -8.4960554497e+00 +1.0297692189e-01 +1.7834982639e+00 1.3128737345e+02 1.3100000000e+02 0.0000e+00 0.0000e+00
      997  1    1    2    0    0 -3.1812083541e+00 -4.7203266156e+00 +4.4030398257e+02 4.4045430937e+02 1.0000000000e+01 0.0000e+00 0.0000e+00
</event>
<event>
 5      1 +4.4770400e-06 2.10896800e+02 7.95774700e-02 4.84993000e-01
       13 -1    0    0    0    0 +0.0000000000e+00 +0.0000000000e+00 +4.9999998884e+02 5.0000000000e+02 1.0566000000e-01 0.0000e+00 -1.0000e+00
      994 -1    0    0    0    0 -0.0000000000e+00 -0.0000000000e+00 +0.0000000000e+00 1.3100000000e+02 1.3100000000e+02 0.0000e+00 0.0000e+00
       13  1    1    2    0    0 +2.0698358762e+01 +1.5990423344e+01 +1.1309697345e+02 1.1608209277e+02 1.0566000000e-01 0.0000e+00 1.0000e+00
      994  1    1    2    0    0 -1.8208048875e+01 -3.4327278386e+00 +4.7181832235e+00 1.3238798253e+02 1.3100000000e+02 0.0000e+00 0.0000e+00
      997  1    1    2    0    0 -2.4903098875e+00 -1.2557695506e+01 +3.8218483216e+02 3.8252992470e+02 1.0000000000e+01 0.0000e+00 0.0000e+00
</event>
<event>
 5      1 +4.4770400e-06 2.02084200e+02 7.95774700e-02 5.00123100e-01
       13 -1    0    0    0    0 +0.0000000000e+00 +0.0000000000e+00 +4.9999998884e+02 5.0000000000e+02 1.0566000000e-01 0.0000e+00 -1.0000e+00
      994 -1    0    0    0    0 -0.0000000000e+00 -0.0000000000e+00 +0.0000000000e+00 1.3100000000e+02 1.3100000000e+02 0.0000e+00 0.0000e+00
       13  1    1    2    0    0 -1.0967948990e+00 -1.2312539009e+01 +1.8909339199e+00 1.2505533616e+01 1.0566000000e-01 0.0000e+00 1.0000e+00
      994  1    1    2    0    0 -1.8434934260e+01 +3.6136638254e+01 +1.9181004385e+01 1.3847243175e+02 1.3100000000e+02 0.0000e+00 0.0000e+00
      997  1    1    2    0    0 +1.9531729159e+01 -2.3824099245e+01 +4.7892805053e+02 4.8002203463e+02 1.0000000000e+01 0.0000e+00 0.0000e+00
</event>
<event>
 5      1 +4.4770400e-06 2.11532400e+02 7.95774700e-02 4.83963500e-01
       13 -1    0    0    0    0 +0.0000000000e+00 +0.0000000000e+00 +4.9999998884e+02 5.0000000000e+02 1.0566000000e-01 0.0000e+00 1.0000e+00
      994 -1    0    0    0    0 -0.0000000000e+00 -0.0000000000e+00 +0.0000000000e+00 1.3100000000e+02 1.3100000000e+02 0.0000e+00 0.0000e+00
       13  1    1    2    0    0 +1.6444775534e+01 +1.4897574507e+01 +9.8160644743e+01 1.0063742698e+02 1.0566000000e-01 0.0000e+00 -1.0000e+00
      994  1    1    2    0    0 -1.9074547859e+01 -8.7677136927e-01 +4.3128724078e+00 1.3245455059e+02 1.3100000000e+02 0.0000e+00 0.0000e+00
      997  1    1    2    0    0 +2.6297723256e+00 -1.4020803138e+01 +3.9752647169e+02 3.9790802243e+02 1.0000000000e+01 0.0000e+00 0.0000e+00
</event>
<event>
 5      1 +4.4770400e-06 2.10716100e+02 7.95774700e-02 4.85287100e-01
       13 -1    0    0    0    0 +0.0000000000e+00 +0.0000000000e+00 +4.9999998884e+02 5.0000000000e+02 1.0566000000e-01 0.0000e+00 1.0000e+00
      994 -1    0    0    0    0 -0.0000000000e+00 -0.0000000000e+00 +0.0000000000e+00 1.3100000000e+02 1.3100000000e+02 0.0000e+00 0.0000e+00
       13  1    1    2    0    0 +5.3044659636e+00 +4.9650870804e+01 +1.9321070801e+02 1.9955885143e+02 1.0566000000e-01 0.0000e+00 -1.0000e+00
      994  1    1    2    0    0 -2.4881360939e+00 -5.7522868134e+01 +2.0150842555e+01 1.4450649686e+02 1.3100000000e+02 0.0000e+00 0.0000e+00
      997  1    1    2    0    0 -2.8163298697e+00 +7.8719973299e+00 +2.8663843827e+02 2.8693465171e+02 1.0000000000e+01 0.0000e+00 0.0000e+00
</event>
<event>
 5      1 +4.4770400e-06 1.99542800e+02 7.95774700e-02 5.04807800e-01
       13 -1    0    0    0    0 +0.0000000000e+00 +0.0000000000e+00 +4.9999998884e+02 5.0000000000e+02 1.0566000000e-01 0.0000e+00 -1.0000e+00
      994 -1    0    0    0    0 -0.0000000000e+00 -0.0000000000e+00 +0.0000000000e+00 1.3100000000e+02 1.3100000000e+02 0.0000e+00 0.0000e+00
       13  1    1    2    0    0 -6.6213123605e+00 +1.9921647758e+01 +1.2104488796e+01 2.4233110404e+01 1.0566000000e-01 0.0000e+00 1.0000e+00
      994  1    1    2    0    0 +5.6797639009e+00 -1.7394742739e+01 +1.4282545396e+01 1.3304070015e+02 1.3100000000e+02 0.0000e+00 0.0000e+00
      997  1    1    2    0    0 +9.4154845959e-01 -2.5269050198e+00 +4.7361295464e+02 4.7372618945e+02 1.0000000000e+01 0.0000e+00 0.0000e+00
</event>
<event>
 5      1 +4.4770400e-06 2.08554700e+02 7.95774700e-02 4.88855000e-01
       13 -1    0    0    0    0 +0.0000000000e+00 +0.0000000000e+00 +4.9999998884e+02 5.0000000000e+02 1.0566000000e-01 0.0000e+00 1.0000e+00
      994 -1    0    0    0    0 -0.0000000000e+00 -0.0000000000e+00 +0.0000000000e+00 1.3100000000e+02 1.3100000000e+02 0.0000e+00 0.0000e+00
       13  1    1    2    0    0 -1.0446880530e+01 -9.7560570335e+00 +1.6519309631e+01 2.1845290485e+01 1.0566000000e-01 0.0000e+00 -1.0000e+00
      994  1    1    2    0    0 +1.7770077674e+01 +2.2343810049e+01 +9.0334030964e+00 1.3437865857e+02 1.3100000000e+02 0.0000e+00 0.0000e+00
      997  1    1    2    0    0 -7.3231971443e+00 -1.2587753016e+01 +4.7444727611e+02 4.7477605094e+02 1.0000000000e+01 0.0000e+00 0.0000e+00
</event>
<event>
 5      1 +4.4770400e-06 2.09708300e+02 7.95774700e-02 4.86939200e-01
       13 -1    0    0    0    0 +0.0000000000e+00 +0.0000000000e+00 +4.9999998884e+02 5.0000000000e+02 1.0566000000e-01 0.0000e+00 -1.0000e+00
      994 -1    0    0    0    0 -0.0000000000e+00 -0.0000000000e+00 +0.0000000000e+00 1.3100000000e+02 1.3100000000e+02 0.0000e+00 0.0000e+00
       13  1    1    2    0    0 -1.2228638459e+01 +8.0309816124e-01 +1.7536654161e+01 2.1394624755e+01 1.0566000000e-01 0.0000e+00 1.0000e+00
      994  1    1    2    0    0 +8.5105044143e+00 -3.1171652538e+00 +4.3683820537e+00 1.3138579895e+02 1.3100000000e+02 0.0000e+00 0.0000e+00
      997  1    1    2    0    0 +3.7181340446e+00 +2.3140670926e+00 +4.7809495262e+02 4.7821957629e+02 1.0000000000e+01 0.0000e+00 0.0000e+00
</event>
<event>
 5      1 +4.4770400e-06 2.12673300e+02 7.95774700e-02 4.82135200e-01
       13 -1    0    0    0    0 +0.0000000000e+00 +0.0000000000e+00 +4.9999998884e+02 5.0000000000e+02 1.0566000000e-01 0.0000e+00 -1.0000e+00
      994 -1    0    0    0    0 -0.0000000000e+00 -0.0000000000e+00 +0.0000000000e+00 1.3100000000e+02 1.3100000000e+02 0.0000e+00 0.0000e+00
       13  1    1    2    0    0 +7.5239170312e+00 -8.7696059934e+00 +4.9330823248e+01 5.0666128756e+01 1.0566000000e-01 0.0000e+00 1.0000e+00
      994  1    1    2    0    0 -3.1563816922e+00 -2.9357385219e+00 +1.7023601444e+00 1.3108195656e+02 1.3100000000e+02 0.0000e+00 0.0000e+00
      997  1    1    2    0    0 -4.3675353390e+00 +1.1705344515e+01 +4.4896680544e+02 4.4925191468e+02 1.0000000000e+01 0.0000e+00 0.0000e+00
</event>
<event>
 5      1 +4.4770400e-06 1.38396100e+02 7.95774700e-02 6.99981600e-01
       13 -1    0    0    0    0 +0.0000000000e+00 +0.0000000000e+00 +4.9999998884e+02 5.0000000000e+02 1.0566000000e-01 0.0000e+00 -1.0000e+00
      994 -1    0    0    0    0 -0.0000000000e+00 -0.0000000000e+00 +0.0000000000e+00 1.3100000000e+02 1.3100000000e+02 0.0000e+00 0.0000e+00
       13  1    1    2    0    0 -3.0144705955e+01 +1.8051618924e+01 -1.2809381666e+01 3.7398605129e+01 1.0566000000e-01 0.0000e+00 1.0000e+00
      994  1    1    2    0    0 +3.4226864650e+01 -1.8515057692e+01 +7.5438509220e+01 1.5609693879e+02 1.3100000000e+02 0.0000e+00 0.0000e+00
      997  1    1    2    0    0 -4.0821586952e+00 +4.6343876810e-01 +4.3737086128e+02 4.3750445609e+02 1.0000000000e+01 0.0000e+00 0.0000e+00
</event>
<event>
 5      1 +4.4770400e-06 2.08827800e+02 7.95774700e-02 4.88399100e-01
       13 -1    0    0    0    0 +0.0000000000e+00 +0.0000000000e+00 +4.9999998884e+02 5.0000000000e+02 1.0566000000e-01 0.0000e+00 1.0000e+00
      994 -1    0    0    0    0 -0.0000000000e+00 -0.0000000000e+00 +0.0000000000e+00 1.3100000000e+02 1.3100000000e+02 0.0000e+00 0.0000e+00
       13  1    1    2    0    0 +5.6534633803e+00 -1.7230305186e+01 +3.2168992607e+01 3.6928313181e+01 1.0566000000e-01 0.0000e+00 -1.0000e+00
      994  1    1    2    0    0 -2.1815029737e+01 +1.0579897093e+01 +7.6434115454e+00 1.3344381396e+02 1.3100000000e+02 0.0000e+00 0.0000e+00
      997  1    1    2    0    0 +1.6161566357e+01 +6.6504080938e+00 +4.6018758468e+02 4.6062787286e+02 1.0000000000e+01 0.0000e+00 0.0000e+00
</event>
<event>
 5      1 +4.4770400e-06 2.12836100e+02 7.95774700e-02 4.81876300e-01
       13 -1    0    0    0    0 +0.0000000000e+00 +0.0000000000e+00 +4.9999998884e+02 5.0000000000e+02 1.0566000000e-01 0.0000e+00 -1.0000e+00
      994 -1    0    0    0    0 -0.0000000000e+00 -0.0000000000e+00 +0.0000000000e+00 1.3100000000e+02 1.3100000000e+02 0.0000e+00 0.0000e+00
       13  1    1    2    0    0 +9.7657541230e+00 -4.0212291646e+00 +4.0044245184e+01 4.1413681001e+01 1.0566000000e-01 0.0000e+00 1.0000e+00
      994  1    1    2    0    0 -4.0570530871e+00 +4.6533330969e+00 +1.6705242449e+00 1.3115602861e+02 1.3100000000e+02 0.0000e+00 0.0000e+00
      997  1    1    2    0    0 -5.7087010359e+00 -6.3210393229e-01 +4.5828521941e+02 4.5843029039e+02 1.0000000000e+01 0.0000e+00 0.0000e+00
</event>
<event>
 5      1 +4.4770400e-06 2.10726900e+02 7.95774700e-02 4.85269400e-01
       13 -1    0    0    0    0 +0.0000000000e+00 +0.0000000000e+00 +4.9999998884e+02 5.0000000000e+02 1.0566000000e-01 0.0000e+00 1.0000e+00
      994 -1    0    0    0    0 -0.0000000000e+00 -0.0000000000e+00 +0.0000000000e+00 1.3100000000e+02 1.3100000000e+02 0.0000e+00 0.0000e+00
       13  1    1    2    0    0 -1.0609986956e+01 -4.5331896189e+00 +2.1290188845e+01 2.4215799314e+01 1.0566000000e-01 0.0000e+00 -1.0000e+00
      994  1    1    2    0    0 -3.5110920518e+00 +1.5457582774e+01 +4.3955476509e+00 1.3202872972e+02 1.3100000000e+02 0.0000e+00 0.0000e+00
      997  1    1    2    0    0 +1.4121079008e+01 -1.0924393155e+01 +4.7431425234e+02 4.7475547097e+02 1.0000000000e+01 0.0000e+00 0.0000e+00
</event>
<event>
 5      1 +4.4770400e-06 2.06094500e+02 7.95774700e-02 4.93032600e-01
       13 -1    0    0    0    0 +0.0000000000e+00 +0.0000000000e+00 +4.9999998884e+02 5.0000000000e+02 1.0566000000e-01 0.0000e+00 1.0000e+00
      994 -1    0    0    0    0 -0.0000000000e+00 -0.0000000000e+00 +0.0000000000e+00 1.3100000000e+02 1.3100000000e+02 0.0000e+00 0.0000e+00
       13  1    1    2    0    0 +2.0251207082e+01 -1.6459449439e+01 +4.6906937092e+01 5.3677712093e+01 1.0566000000e-01 0.0000e+00 -1.0000e+00
      994  1    1    2    0    0 -8.6041140273e+00 +1.5177434663e+01 +8.4650315922e+00 1.3242749738e+02 1.3100000000e+02 0.0000e+00 0.0000e+00
      997  1    1    2    0    0 -1.1647093055e+01 +1.2820147760e+00 +4.4462802015e+02 4.4489479053e+02 1.0000000000e+01 0.0000e+00 0.0000e+00
</event>
<event>
 5      1 +4.4770400e-06 2.08770500e+02 7.95774700e-02 4.88494600e-01
       13 -1    0    0    0    0 +0.0000000000e+00 +0.0000000000e+00 +4.9999998884e+02 5.0000000000e+02 1.0566000000e-01 0.0000e+00 -1.0000e+00
      994 -1    0    0    0    0 -0.0000000000e+00 -0.0000000000e+00 +0.0000000000e+00 1.3100000000e+02 1.3100000000e+02 0.0000e+00 0.0000e+00
       13  1    1    2    0    0 +2.9446547537e+01 -6.4979467537e-01 +9.3817632932e+01 9.8332501280e+01 1.0566000000e-01 0.0000e+00 1.0000e+00
      994  1    1    2    0    0 -1.5804282742e+01 -5.5084069765e+00 +6.1264917090e+00 1.3220685232e+02 1.3100000000e+02 0.0000e+00 0.0000e+00
      997  1    1    2    0    0 -1.3642264794e+01 +6.1582016518e+00 +4.0005586419e+02 4.0046064640e+02 1.0000000000e+01 0.0000e+00 0.0000e+00
</event>
<event>
 5      1 +4.4770400e-06 2.07645700e+02 7.95774700e-02 4.90383800e-01
       13 -1    0    0    0    0 +0.0000000000e+00 +0.0000000000e+00 +4.9999998884e+02 5.0000000000e+02 1.0566000000e-01 0.0000e+00 -1.0000e+00
      994 -1    0    0    0    0 -0.0000000000e+00 -0.0000000000e+00 +0.0000000000e+00 1.3100000000e+02 1.3100000000e+02 0.0000e+00 0.0000e+00
       13  1    1    2    0    0 +1.1969044495e+01 -6.1831536307e-01 +1.0050078463e+01 1.5641469917e+01 1.0566000000e-01 0.0000e+00 1.0000e+00
      994  1    1    2    0    0 -1.3758986447e+01 -2.2059506803e+00 +6.6112088711e+00 1.3190482936e+02 1.3100000000e+02 0.0000e+00 0.0000e+00
      997  1    1    2    0    0 +1.7899419516e+00 +2.8242660434e+00 +4.8333870150e+02 4.8345370072e+02 1.0000000000e+01 0.0000e+00 0.0000e+00
</event>
<event>
 5      1 +4.4770400e-06 2.11349300e+02 7.95774700e-02 4.84259200e-01
       13 -1    0    0    0    0 +0.0000000000e+00 +0.0000000000e+00 +4.9999998884e+02 5.0000000000e+02 1.0566000000e-01 0.0000e+00 1.0000e+00
      994 -1    0    0    0    0 -0.0000000000e+00 -0.0000000000e+00 +0.0000000000e+00 1.3100000000e+02 1.3100000000e+02 0.0000e+00 0.0000e+00
       13  1    1    2    0    0 +1.6544270811e+01 +7.5566804142e+00 +5.4918306086e+01 5.7851947443e+01 1.0566000000e-01 0.0000e+00 -1.0000e+00
      994  1    1    2    0    0 -1.3258644403e+01 -2.1284916559e+01 +5.7777441383e+00 1.3350363910e+02 1.3100000000e+02 0.0000e+00 0.0000e+00
      997  1    1    2    0    0 -3.2856264076e+00 +1.3728236145e+01 +4.3930393861e+02 4.3964441346e+02 1.0000000000e+01 0.0000e+00 0.0000e+00
</event>
<event>
 5      1 +4.4770400e-06 2.08643900e+02 7.95774700e-02 4.88705900e-01
       13 -1    0    0    0    0 +0.0000000000e+00 +0.0000000000e+00 +4.9999998884e+02 5.0000000000e+02 1.0566000000e-01 0.0000e+00 1.0000e+00
      994 -1    0    0    0    0 -0.0000000000e+00 -0.0000000000e+00 +0.0000000000e+00 1.3100000000e+02 1.3100000000e+02 0.0000e+00 0.0000e+00
       13  1    1    2    0    0 +2.0916583221e+01 -2.9303583447e+01 +1.5285959689e+02 1.5704225858e+02 1.0566000000e-01 0.0000e+00 -1.0000e+00
      994  1    1    2    0    0 -1.8300591685e+00 +1.7751144139e+01 +6.4246143532e+00 1.3236588648e+02 1.3100000000e+02 0.0000e+00 0.0000e+00
      997  1    1    2    0    0 -1.9086524052e+01 +1.1552439308e+01 +3.4071577759e+02 3.4159185493e+02 1.0000000000e+01 0.0000e+00 0.0000e+00
</event>
<event>
 5      1 +4.4770400e-06 2.09167900e+02 7.95774700e-02 4.87833300e-01
       13 -1    0    0    0    0 +0.0000000000e+00 +0.0000000000e+00 +4.9999998884e+02 5.0000000000e+02 1.0566000000e-01 0.0000e+00 -1.0000e+00
      994 -1    0    0    0    0 -0.0000000000e+00 -0.0000000000e+00 +0.0000000000e+00 1.3100000000e+02 1.3100000000e+02 0.0000e+00 0.0000e+00
       13  1    1    2    0    0 +4.1780362127e+00 -1.0113009793e+01 +1.2902264233e+01 1.6917699017e+01 1.0566000000e-01 0.0000e+00 1.0000e+00
      994  1    1    2    0    0 -1.5586267927e+01 -1.0049989733e+01 +6.1247519689e+00 1.3244790156e+02 1.3100000000e+02 0.0000e+00 0.0000e+00
      997  1    1    2    0    0 +1.1408231715e+01 +2.0162999526e+01 +4.8097297263e+02 4.8163439942e+02 1.0000000000e+01 0.0000e+00 0.0000e+00
</event>
<event>
 5      1 +4.4770400e-06 2.12936800e+02 7.95774700e-02 4.81716400e-01
       13 -1    0    0    0    0 +0.0000000000e+00 +0.0000000000e+00 +4.9999998884e+02 5.0000000000e+02 1.0566000000e-01 0.0000e+00 -1.0000e+00
      994 -1    0    0    0    0 -0.0000000000e+00 -0.0000000000e+00 +0.0000000000e+00 1.3100000000e+02 1.3100000000e+02 0.0000e+00 0.0000e+00
       13  1    1    2    0    0 -3.6934300290e+00 -1.0409937434e+01 +4.6133871420e+01 4.7437890752e+01 1.0566000000e-01 0.0000e+00 1.0000e+00
      994  1    1    2    0    0 -2.1668273864e+00 +7.5947921375e+00 +1.7103067138e+00 1.3124900441e+02 1.3100000000e+02 0.0000e+00 0.0000e+00
      997  1    1    2    0    0 +5.8602574154e+00 +2.8151452965e+00 +4.5215581070e+02 4.5231310484e+02 1.0000000000e+01 0.0000e+00 0.0000e+00
</event>
<event>
 5      1 +4.4770400e-06 1.96069100e+02 7.95774700e-02 5.11468800e-01
       13 -1    0    0    0    0 +0.0000000000e+00 +0.0000000000e+00 +4.9999998884e+02 5.0000000000e+02 1.0566000000e-01 0.0000e+00 1.0000e+00
      994 -1    0    0    0    0 -0.0000000000e+00 -0.0000000000e+00 +0.0000000000e+00 1.3100000000e+02 1.3100000000e+02 0.0000e+00 0.0000e+00
       13  1    1    2    0    0 -1.2115536934e+01 +2.2550854258e+01 +4.6311781440e+00 2.6015115567e+01 1.0566000000e-01 0.0000e+00 -1.0000e+00
      994  1    1    2    0    0 +2.0720083952e+01 -2.1615644747e+01 +2.7793514890e+01 1.3722258359e+02 1.3100000000e+02 0.0000e+00 0.0000e+00
      997  1    1    2    0    0 -8.6045470183e+00 -9.3520951086e-01 +4.6757529580e+02 4.6776230084e+02 1.0000000000e+01 0.0000e+00 0.0000e+00
</event>
<event>
 5      1 +4.4770400e-06 2.07706600e+02 7.95774700e-02 4.90280800e-01
       13 -1    0    0    0    0 +0.0000000000e+00 +0.0000000000e+00 +4.9999998884e+02 5.0000000000e+02 1.0566000000e-01 0.0000e+00 1.0000e+00
      994 -1    0    0    0    0 -0.0000000000e+00 -0.0000000000e+00 +0.0000000000e+00 1.3100000000e+02 1.3100000000e+02 0.0000e+00 0.0000e+00
       13  1    1    2    0    0 +1.0195714160e+01 +1.7540116761e+00 +7.4181923866e+00 1.2730667167e+01 1.0566000000e-01 0.0000e+00 -1.0000e+00
      994  1    1    2    0    0 -5.6682871318e+00 +1.5104622082e+01 +6.8987880727e+00 1.3216986178e+02 1.3100000000e+02 0.0000e+00 0.0000e+00
      997  1    1    2    0    0 -4.5274270287e+00 -1.6858633758e+01 +4.8568300838e+02 4.8609947105e+02 1.0000000000e+01 0.0000e+00 0.0000e+00
</event>
<event>
 5      1 +4.4770400e-06 2.09458600e+02 7.95774700e-02 4.87351600e-01
       13 -1    0    0    0    0 +0.0000000000e+00 +0.0000000000e+00 +4.9999998884e+02 5.0000000000e+02 1.0566000000e-01 0.0000e+00 1.0000e+00
      994 -1    0    0    0    0 -0.0000000000e+00 -0.0000000000e+00 +0.0000000000e+00 1.3100000000e+02 1.3100000000e+02 0.0000e+00 0.0000e+00
       13  1    1    2    0    0 +1.0909483973e+01 -1.3724608935e+01 +3.2614581689e+01 3.7028419271e+01 1.0566000000e-01 0.0000e+00 -1.0000e+00
      994  1    1    2    0    0 -9.1378216294e+00 +1.9003909510e+01 +6.3962580431e+00 1.3284035711e+02 1.3100000000e+02 0.0000e+00 0.0000e+00
      997  1    1    2    0    0 -1.7716623437e+00 -5.2793005747e+00 +4.6098914910e+02 4.6113122362e+02 1.0000000000e+01 0.0000e+00 0.0000e+00
</event>
<event>
 5      1 +4.4770400e-06 2.05830000e+02 7.95774700e-02 4.93489200e-01
       13 -1    0    0    0    0 +0.0000000000e+00 +0.0000000000e+00 +4.9999998884e+02 5.0000000000e+02 1.0566000000e-01 0.0000e+00 1.0000e+00
      994 -1    0    0    0    0 -0.0000000000e+00 -0.0000000000e+00 +0.0000000000e+00 1.3100000000e+02 1.3100000000e+02 0.0000e+00 0.0000e+00
       13  1    1    2    0    0 -1.8666625092e+01 -3.0434742346e+01 +5.6747557733e+01 6.7044857422e+01 1.0566000000e-01 0.0000e+00 -1.0000e+00
      994  1    1    2    0    0 +4.7769632214e+01 +4.4255331201e+01 +3.0010871710e+01 1.4933895849e+02 1.3100000000e+02 0.0000e+00 0.0000e+00
      997  1    1    2    0    0 -2.9103007122e+01 -1.3820588855e+01 +4.1324155939e+02 4.1461618409e+02 1.0000000000e+01 0.0000e+00 0.0000e+00
</event>
<event>
 5      1 +4.4770400e-06 2.13253100e+02 7.95774700e-02 4.81215500e-01
       13 -1    0    0    0    0 +0.0000000000e+00 +0.0000000000e+00 +4.9999998884e+02 5.0000000000e+02 1.0566000000e-01 0.0000e+00 1.0000e+00
      994 -1    0    0    0    0 -0.0000000000e+00 -0.0000000000e+00 +0.0000000000e+00 1.3100000000e+02 1.3100000000e+02 0.0000e+00 0.0000e+00
       13  1    1    2    0    0 -1.4882442315e+01 -1.7237799766e+01 +1.3020996140e+02 1.3218651233e+02 1.0566000000e-01 0.0000e+00 -1.0000e+00
      994  1    1    2    0    0 +2.0559637693e+01 +2.5597627219e+01 +6.4606332898e+00 1.3520605387e+02 1.3100000000e+02 0.0000e+00 0.0000e+00
      997  1    1    2    0    0 -5.6771953779e+00 -8.3598274523e+00 +3.6332939415e+02 3.6360743380e+02 1.0000000000e+01 0.0000e+00 0.0000e+00
</event>
<event>
 5      1 +4.4770400e-06 2.06104800e+02 7.95774700e-02 4.93014800e-01
       13 -1    0    0    0    0 +0.0000000000e+00 +0.0000000000e+00 +4.9999998884e+02 5.0000000000e+02 1.0566000000e-01 0.0000e+00 1.0000e+00
      994 -1    0    0    0    0 -0.0000000000e+00 -0.0000000000e+00 +0.0000000000e+00 1.3100000000e+02 1.3100000000e+02 0.0000e+00 0.0000e+00
       13  1    1    2    0    0 -2.2106565733e+01 +1.6773200711e+00 +9.2807048496e+01 9.5418410518e+01 1.0566000000e-01 0.0000e+00 -1.0000e+00
      994  1    1    2    0    0 -4.9949599782e+01 -2.5875236983e+01 +2.3728828287e+01 1.4452870891e+02 1.3100000000e+02 0.0000e+00 0.0000e+00
      997  1    1    2    0    0 +7.2056165515e+01 +2.4197916912e+01 +3.8346411205e+02 3.9105288057e+02 1.0000000000e+01 0.0000e+00 0.0000e+00
</event>
<event>
 5      1 +4.4770400e-06 2.11116100e+02 7.95774700e-02 4.84636900e-01
       13 -1    0    0    0    0 +0.0000000000e+00 +0.0000000000e+00 +4.9999998884e+02 5.0000000000e+02 1.0566000000e-01 0.0000e+00 1.0000e+00
      994 -1    0    0    0    0 -0.0000000000e+00 -0.0000000000e+00 +0.0000000000e+00 1.3100000000e+02 1.3100000000e+02 0.0000e+00 0.0000e+00
       13  1    1    2    0    0 -3.6353825042e+00 +2.6185157976e+01 +1.3146486708e+02 1.3409661049e+02 1.0566000000e-01 0.0000e+00 -1.0000e+00
      994  1    1    2    0    0 +6.6921784812e+00 -1.2903430148e+01 +3.8845224888e+00 1.3186118943e+02 1.3100000000e+02 0.0000e+00 0.0000e+00
      997  1    1    2    0    0 -3.0567959770e+00 -1.3281727828e+01 +3.6465059927e+02 3.6504220008e+02 1.0000000000e+01 0.0000e+00 0.0000e+00
</event>
<event>
 5      1 +4.4770400e-06 2.06762200e+02 7.95774700e-02 4.91886200e-01
       13 -1    0    0    0    0 +0.0000000000e+00 +0.0000000000e+00 +4.9999998884e+02 5.0000000000e+02 1.0566000000e-01 0.0000e+00 -1.0000e+00
      994 -1    0    0    0    0 -0.0000000000e+00 -0.0000000000e+00 +0.0000000000e+00 1.3100000000e+02 1.3100000000e+02 0.0000e+00 0.0000e+00
       13  1    1    2    0    0 +1.0138729541e+01 -1.8659220730e+01 +3.5604109379e+01 4.1456291725e+01 1.0566000000e-01 0.0000e+00 1.0000e+00
      994  1    1    2    0    0 -9.7581184605e+00 +1.2459097204e+00 +6.8395120999e+00 1.3154676770e+02 1.3100000000e+02 0.0000e+00 0.0000e+00
      997  1    1    2    0    0 -3.8061108041e-01 +1.7413311009e+01 +4.5755636736e+02 4.5799694057e+02 1.0000000000e+01 0.0000e+00 0.0000e+00
</event>
<event>
 5      1 +4.4770400e-06 1.98731500e+02 7.95774700e-02 5.06336400e-01
       13 -1    0    0    0    0 +0.0000000000e+00 +0.0000000000e+00 +4.9999998884e+02 5.0000000000e+02 1.0566000000e-01 0.0000e+00 1.0000e+00
      994 -1    0    0    0    0 -0.0000000000e+00 -0.0000000000e+00 +0.0000000000e+00 1.3100000000e+02 1.3100000000e+02 0.0000e+00 0.0000e+00
       13  1    1    2    0    0 +1.8383667353e+01 +1.3902532632e+01 +1.4811903908e+01 2.7397870361e+01 1.0566000000e-01 0.0000e+00 -1.0000e+00
      994  1    1    2    0    0 -1.0447816390e+01 -1.1017369458e+01 +1.4432206511e+01 1.3266434292e+02 1.3100000000e+02 0.0000e+00 0.0000e+00
      997  1    1    2    0    0 -7.9358509621e+00 -2.8851631737e+00 +4.7075587842e+02 4.7093778672e+02 1.0000000000e+01 0.0000e+00 0.0000e+00
</event>
<event>
 5      1 +4.4770400e-06 2.12190300e+02 7.95774700e-02 4.82906200e-01
       13 -1    0    0    0    0 +0.0000000000e+00 +0.0000000000e+00 +4.9999998884e+02 5.0000000000e+02 1.0566000000e-01 0.0000e+00 -1.0000e+00
      994 -1    0    0    0    0 -0.0000000000e+00 -0.0000000000e+00 +0.0000000000e+00 1.3100000000e+02 1.3100000000e+02 0.0000e+00 0.0000e+00
       13  1    1    2    0    0 -1.2225825056e+01 +9.6863301098e-01 +3.6950013786e+01 3.8932296760e+01 1.0566000000e-01 0.0000e+00 1.0000e+00
      994  1    1    2    0    0 +1.0934216772e+01 +1.3931754216e+00 +2.5870804448e+00 1.3148836838e+02 1.3100000000e+02 0.0000e+00 0.0000e+00
      997  1    1    2    0    0 +1.2916082837e+00 -2.3618084325e+00 +4.6046289461e+02 4.6057933486e+02 1.0000000000e+01 0.0000e+00 0.0000e+00
</event>
<event>
 5      1 +4.4770400e-06 2.13623000e+02 7.95774700e-02 4.80631900e-01
       13 -1    0    0    0    0 +0.0000000000e+00 +0.0000000000e+00 +4.9999998884e+02 5.0000000000e+02 1.0566000000e-01 0.0000e+00 1.0000e+00
      994 -1    0    0    0    0 -0.0000000000e+00 -0.0000000000e+00 +0.0000000000e+00 1.3100000000e+02 1.3100000000e+02 0.0000e+00 0.0000e+00
       13  1    1    2    0    0 +1.0202262807e+01 -1.1802348447e+00 +5.8530784438e+01 5.9425104220e+01 1.0566000000e-01 0.0000e+00 -1.0000e+00
      994  1    1    2    0    0 -1.1840703232e+01 +9.5786597710e-01 +1.5578062692e+00 1.3154674652e+02 1.3100000000e+02 0.0000e+00 0.0000e+00
      997  1    1    2    0    0 +1.6384404252e+00 +2.2236886758e-01 +4.3991139813e+02 4.4002814926e+02 1.0000000000e+01 0.0000e+00 0.0000e+00
</event>
<event>
 5      1 +4.4770400e-06 2.10673300e+02 7.95774700e-02 4.85356800e-01
       13 -1    0    0    0    0 +0.0000000000e+00 +0.0000000000e+00 +4.9999998884e+02 5.0000000000e+02 1.0566000000e-01 0.0000e+00 -1.0000e+00
      994 -1    0    0    0    0 -0.0000000000e+00 -0.0000000000e+00 +0.0000000000e+00 1.3100000000e+02 1.3100000000e+02 0.0000e+00 0.0000e+00
       13  1    1    2    0    0 -2.4076871553e+01 -1.1561136382e+01 +1.2445802292e+02 1.2729165822e+02 1.0566000000e-01 0.0000e+00 1.0000e+00
      994  1    1    2    0    0 +1.2346187427e+01 +8.6713126348e-01 +3.9495394365e+00 1.3164261894e+02 1.3100000000e+02 0.0000e+00 0.0000e+00
      997  1    1    2    0    0 +1.1730684127e+01 +1.0694005119e+01 +3.7159242648e+02 3.7206572284e+02 1.0000000000e+01 0.0000e+00 0.0000e+00
</event>
<event>
 5      1 +4.4770400e-06 2.04786000e+02 7.95774700e-02 4.95306700e-01
       13 -1    0    0    0    0 +0.0000000000e+00 +0.0000000000e+00 +4.9999998884e+02 5.0000000000e+02 1.0566000000e-01 0.0000e+00 1.0000e+00
      994 -1    0    0    0    0 -0.0000000000e+00 -0.0000000000e+00 +0.0000000000e+00 1.3100000000e+02 1.3100000000e+02 0.0000e+00 0.0000e+00
       13  1    1    2    0    0 -1.2865921073e+01 +5.0239160530e+01 +1.0999845500e+02 1.2161075792e+02 1.0566000000e-01 0.0000e+00 -1.0000e+00
      994  1    1    2    0    0 +8.5488190344e+00 -6.0380983903e+01 +2.8129701298e+01 1.4721149962e+02 1.3100000000e+02 0.0000e+00 0.0000e+00
      997  1    1    2    0    0 +4.3171020390e+00 +1.0141823372e+01 +3.6187183254e+02 3.6217774246e+02 1.0000000000e+01 0.0000e+00 0.0000e+00
</event>
<event>
 5      1 +4.4770400e-06 2.07882300e+02 7.95774700e-02 4.89984200e-01
       13 -1    0    0    0    0 +0.0000000000e+00 +0.0000000000e+00 +4.9999998884e+02 5.0000000000e+02 1.0566000000e-01 0.0000e+00 1.0000e+00
      994 -1    0    0    0    0 -0.0000000000e+00 -0.0000000000e+00 +0.0000000000e+00 1.3100000000e+02 1.3100000000e+02 0.0000e+00 0.0000e+00
       13  1    1    2    0    0 -1.8227340420e+01 +1.2871153038e+00 +2.8522833789e+01 3.3874117198e+01 1.0566000000e-01 0.0000e+00 -1.0000e+00
      994  1    1    2    0    0 +1.2099489200e+01 -1.1620672948e+01 +6.8621117919e+00 1.3224797260e+02 1.3100000000e+02 0.0000e+00 0.0000e+00
      997  1    1    2    0    0 +6.1278512191e+00 +1.0333557644e+01 +4.6461504326e+02 4.6487791020e+02 1.0000000000e+01 0.0000e+00 0.0000e+00
</event>
<event>
 5      1 +4.4770400e-06 2.10903300e+02 7.95774700e-02 4.84982400e-01
       13 -1    0    0    0    0 +0.0000000000e+00 +0.0000000000e+00 +4.9999998884e+02 5.0000000000e+02 1.0566000000e-01 0.0000e+00 1.0000e+00
      994 -1    0    0    0    0 -0.0000000000e+00 -0.0000000000e+00 +0.0000000000e+00 1.3100000000e+02 1.3100000000e+02 0.0000e+00 0.0000e+00
       13  1    1    2    0    0 -3.1761059772e+00 +2.8140324791e+01 +1.6540798673e+02 1.6781471558e+02 1.0566000000e-01 0.0000e+00 -1.0000e+00
      994  1    1    2    0    0 +3.9097650847e+00 -9.5442380255e+00 +3.5330471690e+00 1.3145288572e+02 1.3100000000e+02 0.0000e+00 0.0000e+00
      997  1    1    2    0    0 -7.3365910750e-01 -1.8596086766e+01 +3.3105895494e+02 3.3173239869e+02 1.0000000000e+01 0.0000e+00 0.0000e+00
</event>
<event>
 5      1 +4.4770400e-06 2.07007700e+02 7.95774700e-02 4.91467000e-01
       13 -1    0    0    0    0 +0.0000000000e+00 +0.0000000000e+00 +4.9999998884e+02 5.0000000000e+02 1.0566000000e-01 0.0000e+00 -1.0000e+00
      994 -1    0    0    0    0 -0.0000000000e+00 -0.0000000000e+00 +0.0000000000e+00 1.3100000000e+02 1.3100000000e+02 0.0000e+00 0.0000e+00
       13  1    1    2    0    0 -1.0858445450e+01 +1.7724486176e+01 +3.2646393376e+01 3.8702214566e+01 1.0566000000e-01 0.0000e+00 1.0000e+00
      994  1    1    2    0    0 +8.9519861724e+00 -1.1142093488e+01 +7.1888100702e+00 1.3197334312e+02 1.3100000000e+02 0.0000e+00 0.0000e+00
      997  1    1    2    0    0 +1.9064592777e+00 -6.5823926880e+00 +4.6016478539e+02 4.6032444232e+02 1.0000000000e+01 0.0000e+00 0.0000e+00
</event>
<event>
 5      1 +4.4770400e-06 2.09830200e+02 7.95774700e-02 4.86738300e-01
       13 -1    0    0    0    0 +0.0000000000e+00 +0.0000000000e+00 +4.9999998884e+02 5.0000000000e+02 1.0566000000e-01 0.0000e+00 -1.0000e+00
      994 -1    0    0    0    0 -0.0000000000e+00 -0.0000000000e+00 +0.0000000000e+00 1.3100000000e+02 1.3100000000e+02 0.0000e+00 0.0000e+00
       13  1    1    2    0    0 +8.2346648311e+00 +1.0917349547e+01 +2.1704990221e+01 2.5653771468e+01 1.0566000000e-01 0.0000e+00 1.0000e+00
      994  1    1    2    0    0 -7.3616395562e+00 -1.4104861187e+01 +5.1282246487e+00 1.3206225628e+02 1.3100000000e+02 0.0000e+00 0.0000e+00
      997  1    1    2    0    0 -8.7302527483e-01 +3.1875116404e+00 +4.7316677397e+02 4.7328397225e+02 1.0000000000e+01 0.0000e+00 0.0000e+00
</event>
<event>
 5      1 +4.4770400e-06 2.09913400e+02 7.95774700e-02 4.86601200e-01
       13 -1    0    0    0    0 +0.0000000000e+00 +0.0000000000e+00 +4.9999998884e+02 5.0000000000e+02 1.0566000000e-01 0.0000e+00 1.0000e+00
      994 -1    0    0    0    0 -0.0000000000e+00 -0.0000000000e+00 +0.0000000000e+00 1.3100000000e+02 1.3100000000e+02 0.0000e+00 0.0000e+00
       13  1    1    2    0    0 +7.7340862183e+00 +1.9517892829e+01 +3.8293106939e+01 4.3670784664e+01 1.0566000000e-01 0.0000e+00 -1.0000e+00
      994  1    1    2    0    0 -5.1614888466e+01 -3.5665846115e+01 +2.4240419950e+01 1.4725741832e+02 1.3100000000e+02 0.0000e+00 0.0000e+00
      997  1    1    2    0    0 +4.3880802248e+01 +1.6147953285e+01 +4.3746646195e+02 4.4007179702e+02 1.0000000000e+01 0.0000e+00 0.0000e+00
</event>
<event>
 5      1 +4.4770400e-06 2.08610800e+02 7.95774700e-02 4.88761200e-01
       13 -1    0    0    0    0 +0.0000000000e+00 +0.0000000000e+00 +4.9999998884e+02 5.0000000000e+02 1.0566000000e-01 0.0000e+00 -1.0000e+00
      994 -1    0    0    0    0 -0.0000000000e+00 -0.0000000000e+00 +0.0000000000e+00 1.3100000000e+02 1.3100000000e+02 0.0000e+00 0.0000e+00
       13  1    1    2    0    0 +1.8554388388e+01 +9.2004541962e+00 +5.1552727152e+01 5.5557254493e+01 1.0566000000e-01 0.0000e+00 1.0000e+00
      994  1    1    2    0    0 -1.6857939167e+00 +1.0178100746e+01 +5.3770074411e+00 1.3151558024e+02 1.3100000000e+02 0.0000e+00 0.0000e+00
      997  1    1    2    0    0 -1.6868594471e+01 -1.9378554942e+01 +4.4307025424e+02 4.4392716527e+02 1.0000000000e+01 0.0000e+00 0.0000e+00
</event>
<event>
 5      1 +4.4770400e-06 2.13564200e+02 7.95774700e-02 4.80724500e-01
       13 -1    0    0    0    0 +0.0000000000e+00 +0.0000000000e+00 +4.9999998884e+02 5.0000000000e+02 1.0566000000e-01 0.0000e+00 1.0000e+00
      994 -1    0    0    0    0 -0.0000000000e+00 -0.0000000000e+00 +0.0000000000e+00 1.3100000000e+02 1.3100000000e+02 0.0000e+00 0.0000e+00
       13  1    1    2    0    0 -6.0262001241e+00 -9.0559879077e+00 +6.3167793479e+01 6.4097638817e+01 1.0566000000e-01 0.0000e+00 -1.0000e+00
      994  1    1    2    0    0 +5.3207919446e+00 +1.0152721882e+01 +1.5563783803e+00 1.3150973691e+02 1.3100000000e+02 0.0000e+00 0.0000e+00
      997  1    1    2    0    0 +7.0540817950e-01 -1.0967339747e+00 +4.3527581698e+02 4.3539262427e+02 1.0000000000e+01 0.0000e+00 0.0000e+00
</event>
<event>
 5      1 +4.4770400e-06 2.13319200e+02 7.95774700e-02 4.81111000e-01
       13 -1    0    0    0    0 +0.0000000000e+00 +0.0000000000e+00 +4.9999998884e+02 5.0000000000e+02 1.0566000000e-01 0.0000e+00 1.0000e+00
      994 -1    0    0    0    0 -0.0000000000e+00 -0.0000000000e+00 +0.0000000000e+00 1.3100000000e+02 1.3100000000e+02 0.0000e+00 0.0000e+00
       13  1    1    2    0    0 +5.5517732781e+00 -1.3154089066e+01 +6.8425722975e+01 6.9899520559e+01 1.0566000000e-01 0.0000e+00 -1.0000e+00
      994  1    1    2    0    0 -1.7428303282e+01 +1.9680090571e+01 +4.4928124517e+00 1.3368708645e+02 1.3100000000e+02 0.0000e+00 0.0000e+00
      997  1    1    2    0    0 +1.1876530004e+01 -6.5260015048e+00 +4.2708145341e+02 4.2741339299e+02 1.0000000000e+01 0.0000e+00 0.0000e+00
</event>
<event>
 5      1 +4.4770400e-06 2.09824500e+02 7.95774700e-02 4.86747600e-01
       13 -1    0    0    0    0 +0.0000000000e+00 +0.0000000000e+00 +4.9999998884e+02 5.0000000000e+02 1.0566000000e-01 0.0000e+00 -1.0000e+00
      994 -1    0    0    0    0 -0.0000000000e+00 -0.0000000000e+00 +0.0000000000e+00 1.3100000000e+02 1.3100000000e+02 0.0000e+00 0.0000e+00
       13  1    1    2    0    0 +5.2825995281e+00 +5.2895161213e+01 +1.8219237464e+02 1.8978903150e+02 1.0566000000e-01 0.0000e+00 1.0000e+00
      994  1    1    2    0    0 +1.5470860112e+01 -6.6042129586e+01 +2.7951689125e+01 1.5014395532e+02 1.3100000000e+02 0.0000e+00 0.0000e+00
      997  1    1    2    0    0 -2.0753459640e+01 +1.3146968373e+01 +2.8985592507e+02 2.9106701318e+02 1.0000000000e+01 0.0000e+00 0.0000e+00
</event>
<event>
 5      1 +4.4770400e-06 2.12052600e+02 7.95774700e-02 4.83126700e-01
       13 -1    0    0    0    0 +0.0000000000e+00 +0.0000000000e+00 +4.9999998884e+02 5.0000000000e+02 1.0566000000e-01 0.0000e+00 -1.0000e+00
      994 -1    0    0    0    0 -0.0000000000e+00 -0.0000000000e+00 +0.0000000000e+00 1.3100000000e+02 1.3100000000e+02 0.0000e+00 0.0000e+00
       13  1    1    2    0    0 +8.2909219980e-01 -1.1810757192e+01 +3.6507155311e+01 3.8379225269e+01 1.0566000000e-01 0.0000e+00 1.0000e+00
      994  1    1    2    0    0 +3.9540256517e+00 +2.3296160926e+00 +2.2014736353e+00 1.3109884788e+02 1.3100000000e+02 0.0000e+00 0.0000e+00
      997  1    1    2    0    0 -4.7831178515e+00 +9.4811410991e+00 +4.6129135989e+02 4.6152192685e+02 1.0000000000e+01 0.0000e+00 0.0000e+00
</event>
<event>
 5      1 +4.4770400e-06 2.13497200e+02 7.95774700e-02 4.80830000e-01
       13 -1    0    0    0    0 +0.0000000000e+00 +0.0000000000e+00 +4.9999998884e+02 5.0000000000e+02 1.0566000000e-01 0.0000e+00 1.0000e+00
      994 -1    0    0    0    0 -0.0000000000e+00 -0.0000000000e+00 +0.0000000000e+00 1.3100000000e+02 1.3100000000e+02 0.0000e+00 0.0000e+00
       13  1    1    2    0    0 +2.3169044074e+00 -1.0011518914e+01 +6.1499732848e+01 6.2352440702e+01 1.0566000000e-01 0.0000e+00 -1.0000e+00
      994  1    1    2    0    0 +5.5119988525e+00 +7.0835040124e+00 +1.3611134891e+00 1.3131416828e+02 1.3100000000e+02 0.0000e+00 0.0000e+00
      997  1    1    2    0    0 -7.8289032599e+00 +2.9280149020e+00 +4.3713914250e+02 4.3733339102e+02 1.0000000000e+01 0.0000e+00 0.0000e+00
</event>
<event>
 5      1 +4.4770400e-06 2.13089700e+02 7.95774700e-02 4.81474000e-01
       13 -1    0    0    0    0 +0.0000000000e+00 +0.0000000000e+00 +4.9999998884e+02 5.0000000000e+02 1.0566000000e-01 0.0000e+00 -1.0000e+00
      994 -1    0    0    0    0 -0.0000000000e+00 -0.0000000000e+00 +0.0000000000e+00 1.3100000000e+02 1.3100000000e+02 0.0000e+00 0.0000e+00
       13  1    1    2    0    0 +1.0128745009e+01 -2.2179733952e+00 +4.3263018055e+01 4.4488321802e+01 1.0566000000e-01 0.0000e+00 1.0000e+00
      994  1    1    2    0    0 -7.5699810880e+00 +2.0566691579e+00 +1.5865971407e+00 1.3124424480e+02 1.3100000000e+02 0.0000e+00 0.0000e+00
      997  1    1    2    0    0 -2.5587639207e+00 +1.6130423723e-01 +4.5515037364e+02 4.5526743340e+02 1.0000000000e+01 0.0000e+00 0.0000e+00
</event>
<event>
 5      1 +4.4770400e-06 1.92476200e+02 7.95774700e-02 5.18693400e-01
       13 -1    0    0    0    0 +0.0000000000e+00 +0.0000000000e+00 +4.9999998884e+02 5.0000000000e+02 1.0566000000e-01 0.0000e+00 1.0000e+00
      994 -1    0    0    0    0 -0.0000000000e+00 -0.0000000000e+00 +0.0000000000e+00 1.3100000000e+02 1.3100000000e+02 0.0000e+00 0.0000e+00
       13  1    1    2    0    0 -4.0710837878e+01 -5.0499442105e+00 +5.2854531856e+01 6.6906553931e+01 1.0566000000e-01 0.0000e+00 -1.0000e+00
      994  1    1    2    0    0 -1.3056651935e+01 -1.4386924094e+01 +2.1088643424e+01 1.3410141918e+02 1.3100000000e+02 0.0000e+00 0.0000e+00
      997  1    1    2    0    0 +5.3767489813e+01 +1.9436868304e+01 +4.2605681356e+02 4.2999202689e+02 1.0000000000e+01 0.0000e+00 0.0000e+00
</event>
<event>
 5      1 +4.4770400e-06 1.99006600e+02 7.95774700e-02 5.05816200e-01
       13 -1    0    0    0    0 +0.0000000000e+00 +0.0000000000e+00 +4.9999998884e+02 5.0000000000e+02 1.0566000000e-01 0.0000e+00 -1.0000e+00
      994 -1    0    0    0    0 -0.0000000000e+00 -0.0000000000e+00 +0.0000000000e+00 1.3100000000e+02 1.3100000000e+02 0.0000e+00 0.0000e+00
       13  1    1    2    0    0 -3.8338378592e+00 +6.5766484884e+01 +1.2504558939e+02 1.4133767876e+02 1.0566000000e-01 0.0000e+00 1.0000e+00
      994  1    1    2    0    0 +9.0672727571e+00 -5.9220986181e+01 +3.3416059724e+01 1.4787485820e+02 1.3100000000e+02 0.0000e+00 0.0000e+00
      997  1    1    2    0    0 -5.2334348979e+00 -6.5454987024e+00 +3.4153833972e+02 3.4178746305e+02 1.0000000000e+01 0.0000e+00 0.0000e+00
</event>
<event>
 5      1 +4.4770400e-06 2.12687500e+02 7.95774700e-02 4.82112600e-01
       13 -1    0    0    0    0 +0.0000000000e+00 +0.0000000000e+00 +4.9999998884e+02 5.0000000000e+02 1.0566000000e-01 0.0000e+00 1.0000e+00
      994 -1    0    0    0    0 -0.0000000000e+00 -0.0000000000e+00 +0.0000000000e+00 1.3100000000e+02 1.3100000000e+02 0.0000e+00 0.0000e+00
       13  1    1    2    0    0 +6.0553396054e+00 +1.0956355247e+01 +6.6550417671e+01 6.7717635179e+01 1.0566000000e-01 0.0000e+00 -1.0000e+00
      994  1    1    2    0    0 +1.8669228954e+00 +3.8426791606e+00 +1.6896276823e+00 1.3108053412e+02 1.3100000000e+02 0.0000e+00 0.0000e+00
      997  1    1    2    0    0 -7.9222625008e+00 -1.4799034408e+01 +4.3175994348e+02 4.3220183070e+02 1.0000000000e+01 0.0000e+00 0.0000e+00
</event>
<event>
 5      1 +4.4770400e-06 2.00184400e+02 7.95774700e-02 5.03610600e-01
       13 -1    0    0    0    0 +0.0000000000e+00 +0.0000000000e+00 +4.9999998884e+02 5.0000000000e+02 1.0566000000e-01 0.0000e+00 1.0000e+00
      994 -1    0    0    0    0 -0.0000000000e+00 -0.0000000000e+00 +0.0000000000e+00 1.3100000000e+02 1.3100000000e+02 0.0000e+00 0.0000e+00
       13  1    1    2    0    0 +4.2096250931e+01 -1.0241987203e+01 +6.7353924288e+01 8.0084673474e+01 1.0566000000e-01 0.0000e+00 -1.0000e+00
      994  1    1    2    0    0 -3.7350004608e+01 +2.3757657378e+00 +1.9597367906e+01 1.3764346674e+02 1.3100000000e+02 0.0000e+00 0.0000e+00
      997  1    1    2    0    0 -4.7462463232e+00 +7.8662214649e+00 +4.1304869664e+02 4.1327185979e+02 1.0000000000e+01 0.0000e+00 0.0000e+00
</event>
<event>
 5      1 +4.4770400e-06 2.05953700e+02 7.95774700e-02 4.93275400e-01
       13 -1    0    0    0    0 +0.0000000000e+00 +0.0000000000e+00 +4.9999998884e+02 5.0000000000e+02 1.0566000000e-01 0.0000e+00 1.0000e+00
      994 -1    0    0    0    0 -0.0000000000e+00 -0.0000000000e+00 +0.0000000000e+00 1.3100000000e+02 1.3100000000e+02 0.0000e+00 0.0000e+00
       13  1    1    2    0    0 +2.4264374522e+01 -3.5288486686e+01 +1.0075257314e+02 1.0947661541e+02 1.0566000000e-01 0.0000e+00 -1.0000e+00
      994  1    1    2    0    0 -2.1065541527e+01 +3.7951656482e+01 +1.6914007173e+01 1.3903657399e+02 1.3100000000e+02 0.0000e+00 0.0000e+00
      997  1    1    2    0    0 -3.1988329944e+00 -2.6631697956e+00 +3.8233340852e+02 3.8248681059e+02 1.0000000000e+01 0.0000e+00 0.0000e+00
</event>
<event>
 5      1 +4.4770400e-06 2.08908800e+02 7.95774700e-02 4.88264000e-01
       13 -1    0    0    0    0 +0.0000000000e+00 +0.0000000000e+00 +4.9999998884e+02 5.0000000000e+02 1.0566000000e-01 0.0000e+00 1.0000e+00
      994 -1    0    0    0    0 -0.0000000000e+00 -0.0000000000e+00 +0.0000000000e+00 1.3100000000e+02 1.3100000000e+02 0.0000e+00 0.0000e+00
       13  1    1    2    0    0 -3.0916457762e+01 +2.8930374289e+00 +8.9703085126e+01 9.4925505905e+01 1.0566000000e-01 0.0000e+00 -1.0000e+00
      994  1    1    2    0    0 +2.7472967278e+01 -2.7055011675e+01 +1.2195372523e+01 1.3710019948e+02 1.3100000000e+02 0.0000e+00 0.0000e+00
      997  1    1    2    0    0 +3.4434904849e+00 +2.4161974246e+01 +3.9810153119e+02 3.9897429461e+02 1.0000000000e+01 0.0000e+00 0.0000e+00
</event>
<event>
 5      1 +4.4770400e-06 2.09160000e+02 7.95774700e-02 4.87846300e-01
       13 -1    0    0    0    0 +0.0000000000e+00 +0.0000000000e+00 +4.9999998884e+02 5.0000000000e+02 1.0566000000e-01 0.0000e+00 -1.0000e+00
      994 -1    0    0    0    0 -0.0000000000e+00 -0.0000000000e+00 +0.0000000000e+00 1.3100000000e+02 1.3100000000e+02 0.0000e+00 0.0000e+00
       13  1    1    2    0    0 -1.4473254082e-01 +2.2459888441e+01 +4.9238963995e+01 5.4119814076e+01 1.0566000000e-01 0.0000e+00 1.0000e+00
      994  1    1    2    0    0 -8.5323635755e+00 -2.5639352450e+01 +8.0927001973e+00 1.3400249781e+02 1.3100000000e+02 0.0000e+00 0.0000e+00
      997  1    1    2    0    0 +8.6770961163e+00 +3.1794640095e+00 +4.4266832464e+02 4.4287768812e+02 1.0000000000e+01 0.0000e+00 0.0000e+00
</event>
<event>
 5      1 +4.4770400e-06 2.11882600e+02 7.95774700e-02 4.83399700e-01
       13 -1    0    0    0    0 +0.0000000000e+00 +0.0000000000e+00 +4.9999998884e+02 5.0000000000e+02 1.0566000000e-01 0.0000e+00 -1.0000e+00
      994 -1    0    0    0    0 -0.0000000000e+00 -0.0000000000e+00 +0.0000000000e+00 1.3100000000e+02 1.3100000000e+02 0.0000e+00 0.0000e+00
       13  1    1    2    0    0 +1.0595305318e+01 +4.5118823920e+01 +2.0373977440e+02 2.0894467116e+02 1.0566000000e-01 0.0000e+00 1.0000e+00
      994  1    1    2    0    0 -1.1593856802e+01 -5.5281074563e+01 +1.8414147189e+01 1.4384191162e+02 1.3100000000e+02 0.0000e+00 0.0000e+00
      997  1    1    2    0    0 +9.9855148415e-01 +1.0162250643e+01 +2.7784606724e+02 2.7821341723e+02 1.0000000000e+01 0.0000e+00 0.0000e+00
</event>
<event>
 5      1 +4.4770400e-06 2.10290800e+02 7.95774700e-02 4.85981700e-01
       13 -1    0    0    0    0 +0.0000000000e+00 +0.0000000000e+00 +4.9999998884e+02 5.0000000000e+02 1.0566000000e-01 0.0000e+00 -1.0000e+00
      994 -1    0    0    0    0 -0.0000000000e+00 -0.0000000000e+00 +0.0000000000e+00 1.3100000000e+02 1.3100000000e+02 0.0000e+00 0.0000e+00
       13  1    1    2    0    0 -1.0394877486e+01 +9.2852565177e+00 +2.8941430302e+01 3.2122998280e+01 1.0566000000e-01 0.0000e+00 1.0000e+00
      994  1    1    2    0    0 -1.0897509293e+01 -1.5436930087e+01 +5.2766966182e+00 1.3246093026e+02 1.3100000000e+02 0.0000e+00 0.0000e+00
      997  1    1    2    0    0 +2.1292386779e+01 +6.1516735689e+00 +4.6578186192e+02 4.6641607146e+02 1.0000000000e+01 0.0000e+00 0.0000e+00
</event>
<event>
 5      1 +4.4770400e-06 2.12416200e+02 7.95774700e-02 4.82545000e-01
       13 -1    0    0    0    0 +0.0000000000e+00 +0.0000000000e+00 +4.9999998884e+02 5.0000000000e+02 1.0566000000e-01 0.0000e+00 -1.0000e+00
      994 -1    0    0    0    0 -0.0000000000e+00 -0.0000000000e+00 +0.0000000000e+00 1.3100000000e+02 1.3100000000e+02 0.0000e+00 0.0000e+00
       13  1    1    2    0    0 -1.0104504525e+01 -7.7253449264e+00 +6.1064097338e+01 6.2374811532e+01 1.0566000000e-01 0.0000e+00 1.0000e+00
      994  1    1    2    0    0 -1.0557443961e+01 +3.9842503472e+00 +2.4375692830e+00 1.3150770174e+02 1.3100000000e+02 0.0000e+00 0.0000e+00
      997  1    1    2    0    0 +2.0661948486e+01 +3.7410945791e+00 +4.3649832221e+02 4.3711748672e+02 1.0000000000e+01 0.0000e+00 0.0000e+00
</event>
<event>
 5      1 +4.4770400e-06 2.10841400e+02 7.95774700e-02 4.85083100e-01
       13 -1    0    0    0    0 +0.0000000000e+00 +0.0000000000e+00 +4.9999998884e+02 5.0000000000e+02 1.0566000000e-01 0.0000e+00 1.0000e+00
      994 -1    0    0    0    0 -0.0000000000e+00 -0.0000000000e+00 +0.0000000000e+00 1.3100000000e+02 1.3100000000e+02 0.0000e+00 0.0000e+00
       13  1    1    2    0    0 -5.1678297114e+00 +9.6714316423e+00 +1.8939792709e+01 2.1885382469e+01 1.0566000000e-01 0.0000e+00 -1.0000e+00
      994  1    1    2    0    0 -9.7720513343e-01 -8.3613520730e+00 +3.4059436903e+00 1.3131438455e+02 1.3100000000e+02 0.0000e+00 0.0000e+00
      997  1    1    2    0    0 +6.1450348449e+00 -1.3100795692e+00 +4.7765425244e+02 4.7780023298e+02 1.0000000000e+01 0.0000e+00 0.0000e+00
</event>
<event>
 5      1 +4.4770400e-06 2.11553500e+02 7.95774700e-02 4.83929500e-01
       13 -1    0    0    0    0 +0.0000000000e+00 +0.0000000000e+00 +4.9999998884e+02 5.0000000000e+02 1.0566000000e-01 0.0000e+00 1.0000e+00
      994 -1    0    0    0    0 -0.0000000000e+00 -0.0000000000e+00 +0.0000000000e+00 1.3100000000e+02 1.3100000000e+02 0.0000e+00 0.0000e+00
       13  1    1    2    0    0 -7.8593202264e+00 -1.5593908710e+01 +3.2180300614e+01 3.6613137190e+01 1.0566000000e-01 0.0000e+00 -1.0000e+00
      994  1    1    2    0    0 -7.3041519658e+00 +8.2578533347e+01 +3.8826409620e+01 1.5981569037e+02 1.3100000000e+02 0.0000e+00 0.0000e+00
      997  1    1    2    0    0 +1.5163472192e+01 -6.6984624637e+01 +4.2899327860e+02 4.3457117244e+02 1.0000000000e+01 0.0000e+00 0.0000e+00
</event>
<event>
 5      1 +4.4770400e-06 2.10530600e+02 7.95774700e-02 4.85589600e-01
       13 -1    0    0    0    0 +0.0000000000e+00 +0.0000000000e+00 +4.9999998884e+02 5.0000000000e+02 1.0566000000e-01 0.0000e+00 1.0000e+00
      994 -1    0    0    0    0 -0.0000000000e+00 -0.0000000000e+00 +0.0000000000e+00 1.3100000000e+02 1.3100000000e+02 0.0000e+00 0.0000e+00
       13  1    1    2    0    0 +1.3754435188e+01 +1.6817657495e+01 +8.5524859589e+01 8.8241321742e+01 1.0566000000e-01 0.0000e+00 -1.0000e+00
      994  1    1    2    0    0 -8.5714189835e+00 +2.9066995956e+00 +3.7086134892e+00 1.3136465255e+02 1.3100000000e+02 0.0000e+00 0.0000e+00
      997  1    1    2    0    0 -5.1830162040e+00 -1.9724357091e+01 +4.1076651576e+02 4.1139402571e+02 1.0000000000e+01 0.0000e+00 0.0000e+00
</event>
<event>
 5      1 +4.4770400e-06 2.09437300e+02 7.95774700e-02 4.87386700e-01
       13 -1    0    0    0    0 +0.0000000000e+00 +0.0000000000e+00 +4.9999998884e+02 5.0000000000e+02 1.0566000000e-01 0.0000e+00 -1.0000e+00
      994 -1    0    0    0    0 -0.0000000000e+00 -0.0000000000e+00 +0.0000000000e+00 1.3100000000e+02 1.3100000000e+02 0.0000e+00 0.0000e+00
       13  1    1    2    0    0 -2.3274306556e+01 +2.1170487419e+01 +7.4807262261e+01 8.1154300775e+01 1.0566000000e-01 0.0000e+00 1.0000e+00
      994  1    1    2    0    0 +3.1686952843e+01 -4.2513881330e+01 +1.8668375135e+01 1.4255174961e+02 1.3100000000e+02 0.0000e+00 0.0000e+00
      997  1    1    2    0    0 -8.4126462877e+00 +2.1343393911e+01 +4.0652435144e+02 4.0729394962e+02 1.0000000000e+01 0.0000e+00 0.0000e+00
</event>
<event>
 5      1 +4.4770400e-06 2.12172400e+02 7.95774700e-02 4.82934700e-01
       13 -1    0    0    0    0 +0.0000000000e+00 +0.0000000000e+00 +4.9999998884e+02 5.0000000000e+02 1.0566000000e-01 0.0000e+00 1.0000e+00
      994 -1    0    0    0    0 -0.0000000000e+00 -0.0000000000e+00 +0.0000000000e+00 1.3100000000e+02 1.3100000000e+02 0.0000e+00 0.0000e+00
       13  1    1    2    0    0 +1.1531791339e+01 -7.2559029019e+00 +4.5594309427e+01 4.7586579564e+01 1.0566000000e-01 0.0000e+00 -1.0000e+00
      994  1    1    2    0    0 -7.7681743247e+00 +8.2578197373e+00 +2.6358010654e+00 1.3151609623e+02 1.3100000000e+02 0.0000e+00 0.0000e+00
      997  1    1    2    0    0 -3.7636170139e+00 -1.0019168354e+00 +4.5176987834e+02 4.5189732421e+02 1.0000000000e+01 0.0000e+00 0.0000e+00
</event>
<event>
 5      1 +4.4770400e-06 2.12839000e+02 7.95774700e-02 4.81871700e-01
       13 -1    0    0    0    0 +0.0000000000e+00 +0.0000000000e+00 +4.9999998884e+02 5.0000000000e+02 1.0566000000e-01 0.0000e+00 -1.0000e+00
      994 -1    0    0    0    0 -0.0000000000e+00 -0.0000000000e+00 +0.0000000000e+00 1.3100000000e+02 1.3100000000e+02 0.0000e+00 0.0000e+00
       13  1    1    2    0    0 +5.8269246591e+00 -9.0544722857e+00 +3.9449023955e+01 4.0892214104e+01 1.0566000000e-01 0.0000e+00 1.0000e+00
      994  1    1    2    0    0 -1.5788815637e+01 +1.1784813117e+00 +2.7095429157e+00 1.3198112418e+02 1.3100000000e+02 0.0000e+00 0.0000e+00
      997  1    1    2    0    0 +9.9618909778e+00 +7.8759909740e+00 +4.5784142197e+02 4.5812666171e+02 1.0000000000e+01 0.0000e+00 0.0000e+00
</event>
<event>
 5      1 +4.4770400e-06 2.12282200e+02 7.95774700e-02 4.82759100e-01
       13 -1    0    0    0    0 +0.0000000000e+00 +0.0000000000e+00 +4.9999998884e+02 5.0000000000e+02 1.0566000000e-01 0.0000e+00 1.0000e+00
      994 -1    0    0    0    0 -0.0000000000e+00 -0.0000000000e+00 +0.0000000000e+00 1.3100000000e+02 1.3100000000e+02 0.0000e+00 0.0000e+00
       13  1    1    2    0    0 -1.5488038014e+01 +8.9912857605e+00 +8.2677370689e+01 8.4594806751e+01 1.0566000000e-01 0.0000e+00 -1.0000e+00
      994  1    1    2    0    0 +1.2636679146e+01 -3.7508353007e+00 +2.7716182873e+00 1.3169068416e+02 1.3100000000e+02 0.0000e+00 0.0000e+00
      997  1    1    2    0    0 +2.8513588673e+00 -5.2404504598e+00 +4.1455099986e+02 4.1471450909e+02 1.0000000000e+01 0.0000e+00 0.0000e+00
</event>
<event>
 5      1 +4.4770400e-06 2.12184600e+02 7.95774700e-02 4.82915200e-01
       13 -1    0    0    0    0 +0.0000000000e+00 +0.0000000000e+00 +4.9999998884e+02 5.0000000000e+02 1.0566000000e-01 0.0000e+00 -1.0000e+00
      994 -1    0    0    0    0 -0.0000000000e+00 -0.0000000000e+00 +0.0000000000e+00 1.3100000000e+02 1.3100000000e+02 0.0000e+00 0.0000e+00
       13  1    1    2    0    0 +1.1848200045e+01 +5.0352723900e+00 +4.2755955711e+01 4.4652174920e+01 1.0566000000e-01 0.0000e+00 1.0000e+00
      994  1    1    2    0    0 -5.1540773199e+00 -7.3456724580e+00 +2.3899602092e+00 1.3132873001e+02 1.3100000000e+02 0.0000e+00 0.0000e+00
      997  1    1    2    0    0 -6.6941227248e+00 +2.3104000681e+00 +4.5485407292e+02 4.5501909507e+02 1.0000000000e+01 0.0000e+00 0.0000e+00
</event>
<event>
 5      1 +4.4770400e-06 2.10622700e+02 7.95774700e-02 4.85439300e-01
       13 -1    0    0    0    0 +0.0000000000e+00 +0.0000000000e+00 +4.9999998884e+02 5.0000000000e+02 1.0566000000e-01 0.0000e+00 1.0000e+00
      994 -1    0    0    0    0 -0.0000000000e+00 -0.0000000000e+00 +0.0000000000e+00 1.3100000000e+02 1.3100000000e+02 0.0000e+00 0.0000e+00
       13  1    1    2    0    0 -8.4051706843e+00 +2.5727870846e+01 +1.1330917356e+02 1.1649699657e+02 1.0566000000e-01 0.0000e+00 -1.0000e+00
      994  1    1    2    0    0 +3.2131334931e+00 -1.6243944315e+01 +4.5938029792e+00 1.3212226527e+02 1.3100000000e+02 0.0000e+00 0.0000e+00
      997  1    1    2    0    0 +5.1920371912e+00 -9.4839265306e+00 +3.8209701230e+02 3.8238073816e+02 1.0000000000e+01 0.0000e+00 0.0000e+00
</event>
<event>
 5      1 +4.4770400e-06 2.12767300e+02 7.95774700e-02 4.81985500e-01
       13 -1    0    0    0    0 +0.0000000000e+00 +0.0000000000e+00 +4.9999998884e+02 5.0000000000e+02 1.0566000000e-01 0.0000e+00 1.0000e+00
      994 -1    0    0    0    0 -0.0000000000e+00 -0.0000000000e+00 +0.0000000000e+00 1.3100000000e+02 1.3100000000e+02 0.0000e+00 0.0000e+00
       13  1    1    2    0    0 +9.7910675095e+00 -1.0507096174e+01 +5.9371079002e+01 6.1083551460e+01 1.0566000000e-01 0.0000e+00 -1.0000e+00
      994  1    1    2    0    0 -7.8656168969e+00 +1.6651015490e+01 +3.2008750818e+00 1.3232675409e+02 1.3100000000e+02 0.0000e+00 0.0000e+00
      997  1    1    2    0    0 -1.9254506125e+00 -6.1439193164e+00 +4.3742803475e+02 4.3758969445e+02 1.0000000000e+01 0.0000e+00 0.0000e+00
</event>
<event>
 5      1 +4.4770400e-06 2.11710500e+02 7.95774700e-02 4.83676400e-01
       13 -1    0    0    0    0 +0.0000000000e+00 +0.0000000000e+00 +4.9999998884e+02 5.0000000000e+02 1.0566000000e-01 0.0000e+00 1.0000e+00
      994 -1    0    0    0    0 -0.0000000000e+00 -0.0000000000e+00 +0.0000000000e+00 1.3100000000e+02 1.3100000000e+02 0.0000e+00 0.0000e+00
       13  1    1    2    0    0 -2.9181791198e+00 +4.6270491430e+01 +1.6261676666e+02 1.6909671229e+02 1.0566000000e-01 0.0000e+00 -1.0000e+00
      994  1    1    2    0    0 +3.8056435607e+00 -6.9123620195e+01 +2.7109277959e+01 1.5062692569e+02 1.3100000000e+02 0.0000e+00 0.0000e+00
      997  1    1    2    0    0 -8.8746444088e-01 +2.2853128765e+01 +3.1027394422e+02 3.1127636202e+02 1.0000000000e+01 0.0000e+00 0.0000e+00
</event>
<event>
 5      1 +4.4770400e-06 2.12695200e+02 7.95774700e-02 4.82100200e-01
       13 -1    0    0    0    0 +0.0000000000e+00 +0.0000000000e+00 +4.9999998884e+02 5.0000000000e+02 1.0566000000e-01 0.0000e+00 1.0000e+00
      994 -1    0    0    0    0 -0.0000000000e+00 -0.0000000000e+00 +0.0000000000e+00 1.3100000000e+02 1.3100000000e+02 0.0000e+00 0.0000e+00
       13  1    1    2    0    0 +2.0059871467e+01 -6.1956804443e+00 +8.9538036837e+01 9.1966603200e+01 1.0566000000e-01 0.0000e+00 -1.0000e+00
      994  1    1    2    0    0 -3.7591219848e+01 -3.4366910503e+00 +8.6550393225e+00 1.3660461325e+02 1.3100000000e+02 0.0000e+00 0.0000e+00
      997  1    1    2    0    0 +1.7531348381e+01 +9.6323714946e+00 +4.0180691268e+02 4.0242878355e+02 1.0000000000e+01 0.0000e+00 0.0000e+00
</event>
<event>
 5      1 +4.4770400e-06 2.12708600e+02 7.95774700e-02 4.82078900e-01
       13 -1    0    0    0    0 +0.0000000000e+00 +0.0000000000e+00 +4.9999998884e+02 5.0000000000e+02 1.0566000000e-01 0.0000e+00 1.0000e+00
      994 -1    0    0    0    0 -0.0000000000e+00 -0.0000000000e+00 +0.0000000000e+00 1.3100000000e+02 1.3100000000e+02 0.0000e+00 0.0000e+00
       13  1    1    2    0    0 +5.8235558849e+00 -1.0632049329e+01 +4.8994956749e+01 5.0472479897e+01 1.0566000000e-01 0.0000e+00 -1.0000e+00
      994  1    1    2    0    0 +1.6754599948e+00 +8.7730698288e+00 +1.9742633391e+00 1.3131896906e+02 1.3100000000e+02 0.0000e+00 0.0000e+00
      997  1    1    2    0    0 -7.4990158797e+00 +1.8589794999e+00 +4.4903076875e+02 4.4920855104e+02 1.0000000000e+01 0.0000e+00 0.0000e+00
</event>
<event>
 5      1 +4.4770400e-06 2.09233300e+02 7.95774700e-02 4.87724700e-01
       13 -1    0    0    0    0 +0.0000000000e+00 +0.0000000000e+00 +4.9999998884e+02 5.0000000000e+02 1.0566000000e-01 0.0000e+00 1.0000e+00
      994 -1    0    0    0    0 -0.0000000000e+00 -0.0000000000e+00 +0.0000000000e+00 1.3100000000e+02 1.3100000000e+02 0.0000e+00 0.0000e+00
       13  1    1    2    0    0 +8.4506973178e+00 +1.4635813535e+01 +6.9660012891e+01 7.1680889245e+01 1.0566000000e-01 0.0000e+00 -1.0000e+00
      994  1    1    2    0    0 +5.3370429379e+01 +8.2779153323e+00 +1.9417411049e+01 1.4302084626e+02 1.3100000000e+02 0.0000e+00 0.0000e+00
      997  1    1    2    0    0 -6.1821126697e+01 -2.2913728867e+01 +4.1092256490e+02 4.1629826449e+02 1.0000000000e+01 0.0000e+00 0.0000e+00
</event>
<event>
 5      1 +4.4770400e-06 2.12373200e+02 7.95774700e-02 4.82613700e-01
       13 -1    0    0    0    0 +0.0000000000e+00 +0.0000000000e+00 +4.9999998884e+02 5.0000000000e+02 1.0566000000e-01 0.0000e+00 1.0000e+00
      994 -1    0    0    0    0 -0.0000000000e+00 -0.0000000000e+00 +0.0000000000e+00 1.3100000000e+02 1.3100000000e+02 0.0000e+00 0.0000e+00
       13  1    1    2    0    0 -7.2003534071e+00 -1.0793455824e+01 +5.0726587515e+01 5.2359732837e+01 1.0566000000e-01 0.0000e+00 -1.0000e+00
      994  1    1    2    0    0 +8.4265414598e+00 -1.1880350101e+00 +2.2016974750e+00 1.3129457529e+02 1.3100000000e+02 0.0000e+00 0.0000e+00
      997  1    1    2    0    0 -1.2261880527e+00 +1.1981490834e+01 +4.4707170385e+02 4.4734569188e+02 1.0000000000e+01 0.0000e+00 0.0000e+00
</event>
<event>
 5      1 +4.4770400e-06 2.10444400e+02 7.95774700e-02 4.85730400e-01
       13 -1    0    0    0    0 +0.0000000000e+00 +0.0000000000e+00 +4.9999998884e+02 5.0000000000e+02 1.0566000000e-01 0.0000e+00 1.0000e+00
      994 -1    0    0    0    0 -0.0000000000e+00 -0.0000000000e+00 +0.0000000000e+00 1.3100000000e+02 1.3100000000e+02 0.0000e+00 0.0000e+00
       13  1    1    2    0    0 -4.5391896795e+00 -2.2637657470e+01 +7.7426621220e+01 8.0795795783e+01 1.0566000000e-01 0.0000e+00 -1.0000e+00
      994  1    1    2    0    0 +2.1074240106e+01 +1.2319572752e+01 +6.3515111408e+00 1.3340628607e+02 1.3100000000e+02 0.0000e+00 0.0000e+00
      997  1    1    2    0    0 -1.6535050427e+01 +1.0318084718e+01 +4.1622185648e+02 4.1679791815e+02 1.0000000000e+01 0.0000e+00 0.0000e+00
</event>
<event>
 5      1 +4.4770400e-06 2.10593100e+02 7.95774700e-02 4.85487600e-01
       13 -1    0    0    0    0 +0.0000000000e+00 +0.0000000000e+00 +4.9999998884e+02 5.0000000000e+02 1.0566000000e-01 0.0000e+00 -1.0000e+00
      994 -1    0    0    0    0 -0.0000000000e+00 -0.0000000000e+00 +0.0000000000e+00 1.3100000000e+02 1.3100000000e+02 0.0000e+00 0.0000e+00
       13  1    1    2    0    0 -7.4121367742e+00 +1.4410832365e+01 +3.5681419952e+01 3.9189115259e+01 1.0566000000e-01 0.0000e+00 1.0000e+00
      994  1    1    2    0    0 -9.5927125163e+00 -2.8459646065e+01 +7.7727221706e+00 1.3462312876e+02 1.3100000000e+02 0.0000e+00 0.0000e+00
      997  1    1    2    0    0 +1.7004849290e+01 +1.4048813700e+01 +4.5654584671e+02 4.5718775598e+02 1.0000000000e+01 0.0000e+00 0.0000e+00
</event>
<event>
 5      1 +4.4770400e-06 2.02715900e+02 7.95774700e-02 4.98982000e-01
       13 -1    0    0    0    0 +0.0000000000e+00 +0.0000000000e+00 +4.9999998884e+02 5.0000000000e+02 1.0566000000e-01 0.0000e+00 -1.0000e+00
      994 -1    0    0    0    0 -0.0000000000e+00 -0.0000000000e+00 +0.0000000000e+00 1.3100000000e+02 1.3100000000e+02 0.0000e+00 0.0000e+00
       13  1    1    2    0    0 +1.0544464170e+01 -3.4073683126e+01 +6.0468189477e+01 7.0204093250e+01 1.0566000000e-01 0.0000e+00 1.0000e+00
      994  1    1    2    0    0 -9.5593691416e+00 +2.2381421987e+01 +1.2876648386e+01 1.3386230859e+02 1.3100000000e+02 0.0000e+00 0.0000e+00
      997  1    1    2    0    0 -9.8509502890e-01 +1.1692261138e+01 +4.2665515097e+02 4.2693359816e+02 1.0000000000e+01 0.0000e+00 0.0000e+00
</event>
<event>
 5      1 +4.4770400e-06 2.07835600e+02 7.95774700e-02 4.90063000e-01
       13 -1    0    0    0    0 +0.0000000000e+00 +0.0000000000e+00 +4.9999998884e+02 5.0000000000e+02 1.0566000000e-01 0.0000e+00 1.0000e+00
      994 -1    0    0    0    0 -0.0000000000e+00 -0.0000000000e+00 +0.0000000000e+00 1.3100000000e+02 1.3100000000e+02 0.0000e+00 0.0000e+00
       13  1    1    2    0    0 +3.6632192506e+01 -2.0781563277e+01 +1.1089711397e+02 1.1862534279e+02 1.0566000000e-01 0.0000e+00 -1.0000e+00
      994  1    1    2    0    0 -5.8028482868e+01 +9.0195227759e-01 +2.3169113639e+01 1.4514105611e+02 1.3100000000e+02 0.0000e+00 0.0000e+00
      997  1    1    2    0    0 +2.1396290362e+01 +1.9879611000e+01 +3.6593376122e+02 3.6723360110e+02 1.0000000000e+01 0.0000e+00 0.0000e+00
</event>
<event>
 5      1 +4.4770400e-06 2.10413800e+02 7.95774700e-02 4.85780500e-01
       13 -1    0    0    0    0 +0.0000000000e+00 +0.0000000000e+00 +4.9999998884e+02 5.0000000000e+02 1.0566000000e-01 0.0000e+00 -1.0000e+00
      994 -1    0    0    0    0 -0.0000000000e+00 -0.0000000000e+00 +0.0000000000e+00 1.3100000000e+02 1.3100000000e+02 0.0000e+00 0.0000e+00
       13  1    1    2    0    0 -1.8204272545e+01 -8.5512866362e+00 +5.6664069644e+01 6.0127763925e+01 1.0566000000e-01 0.0000e+00 1.0000e+00
      994  1    1    2    0    0 +1.1183901969e+01 +1.3108351206e+01 +4.8758748683e+00 1.3221831450e+02 1.3100000000e+02 0.0000e+00 0.0000e+00
      997  1    1    2    0    0 +7.0203705760e+00 -4.5570645702e+00 +4.3846004432e+02 4.3865392157e+02 1.0000000000e+01 0.0000e+00 0.0000e+00
</event>
<event>
 5      1 +4.4770400e-06 2.12200500e+02 7.95774700e-02 4.82889900e-01
       13 -1    0    0    0    0 +0.0000000000e+00 +0.0000000000e+00 +4.9999998884e+02 5.0000000000e+02 1.0566000000e-01 0.0000e+00 -1.0000e+00
      994 -1    0    0    0    0 -0.0000000000e+00 -0.0000000000e+00 +0.0000000000e+00 1.3100000000e+02 1.3100000000e+02 0.0000e+00 0.0000e+00
       13  1    1    2    0    0 -1.6290772665e+01 -8.6264187912e+00 +6.1895260060e+01 6.4582031225e+01 1.0566000000e-01 0.0000e+00 1.0000e+00
      994  1    1    2    0    0 +3.2018848078e+01 +8.1161071731e+00 +7.3924792780e+00 1.3530235245e+02 1.3100000000e+02 0.0000e+00 0.0000e+00
      997  1    1    2    0    0 -1.5728075413e+01 +5.1031161811e-01 +4.3071224950e+02 4.3111561633e+02 1.0000000000e+01 0.0000e+00 0.0000e+00
</event>
<event>
 5      1 +4.4770400e-06 2.13167800e+02 7.95774700e-02 4.81350300e-01
       13 -1    0    0    0    0 +0.0000000000e+00 +0.0000000000e+00 +4.9999998884e+02 5.0000000000e+02 1.0566000000e-01 0.0000e+00 1.0000e+00
      994 -1    0    0    0    0 -0.0000000000e+00 -0.0000000000e+00 +0.0000000000e+00 1.3100000000e+02 1.3100000000e+02 0.0000e+00 0.0000e+00
       13  1    1    2    0    0 -1.1064489058e+01 +3.7627659280e+00 +6.2251935669e+01 6.3339529396e+01 1.0566000000e-01 0.0000e+00 -1.0000e+00
      994  1    1    2    0    0 +7.1176185438e+00 +3.8043908057e+00 +1.5430930221e+00 1.3125743796e+02 1.3100000000e+02 0.0000e+00 0.0000e+00
      997  1    1    2    0    0 +3.9468705140e+00 -7.5671567338e+00 +4.3620496015e+02 4.3640303265e+02 1.0000000000e+01 0.0000e+00 0.0000e+00
</event>
<event>
 5      1 +4.4770400e-06 2.11265600e+02 7.95774700e-02 4.84394700e-01
       13 -1    0    0    0    0 +0.0000000000e+00 +0.0000000000e+00 +4.9999998884e+02 5.0000000000e+02 1.0566000000e-01 0.0000e+00 -1.0000e+00
      994 -1    0    0    0    0 -0.0000000000e+00 -0.0000000000e+00 +0.0000000000e+00 1.3100000000e+02 1.3100000000e+02 0.0000e+00 0.0000e+00
       13  1    1    2    0    0 -1.4061408458e+01 -2.3154265373e+01 +9.6980629500e+01 1.0069308256e+02 1.0566000000e-01 0.0000e+00 1.0000e+00
      994  1    1    2    0    0 +1.8884778706e+01 +2.8538508148e+01 +8.5725200289e+00 1.3566712724e+02 1.3100000000e+02 0.0000e+00 0.0000e+00
      997  1    1    2    0    0 -4.8233702476e+00 -5.3842427752e+00 +3.9444683931e+02 3.9463979020e+02 1.0000000000e+01 0.0000e+00 0.0000e+00
</event>
<event>
 5      1 +4.4770400e-06 2.01722000e+02 7.95774700e-02 5.00781300e-01
       13 -1    0    0    0    0 +0.0000000000e+00 +0.0000000000e+00 +4.9999998884e+02 5.0000000000e+02 1.0566000000e-01 0.0000e+00 1.0000e+00
      994 -1    0    0    0    0 -0.0000000000e+00 -0.0000000000e+00 +0.0000000000e+00 1.3100000000e+02 1.3100000000e+02 0.0000e+00 0.0000e+00
       13  1    1    2    0    0 -2.4975351387e+01 +3.3489759122e+01 +1.1796914300e+02 1.2514816022e+02 1.0566000000e-01 0.0000e+00 -1.0000e+00
      994  1    1    2    0    0 +2.8425331830e+01 +2.2617661942e+01 +1.7719104259e+01 1.3709312447e+02 1.3100000000e+02 0.0000e+00 0.0000e+00
      997  1    1    2    0    0 -3.4499804432e+00 -5.6107421064e+01 +3.6431174158e+02 3.6875871531e+02 1.0000000000e+01 0.0000e+00 0.0000e+00
</event>
<event>
 5      1 +4.4770400e-06 2.00701000e+02 7.95774700e-02 5.02653700e-01
       13 -1    0    0    0    0 +0.0000000000e+00 +0.0000000000e+00 +4.9999998884e+02 5.0000000000e+02 1.0566000000e-01 0.0000e+00 -1.0000e+00
      994 -1    0    0    0    0 -0.0000000000e+00 -0.0000000000e+00 +0.0000000000e+00 1.3100000000e+02 1.3100000000e+02 0.0000e+00 0.0000e+00
       13  1    1    2    0    0 +2.9191463110e+01 -1.6812848489e+01 +4.2635441110e+01 5.4337881772e+01 1.0566000000e-01 0.0000e+00 1.0000e+00
      994  1    1    2    0    0 -2.4258154832e+01 +1.4531116157e+01 +1.5793719738e+01 1.3494462937e+02 1.3100000000e+02 0.0000e+00 0.0000e+00
      997  1    1    2    0    0 -4.9333082785e+00 +2.2817323324e+00 +4.4157082799e+02 4.4171748886e+02 1.0000000000e+01 0.0000e+00 0.0000e+00
</event>
<event>
 5      1 +4.4770400e-06 2.07299600e+02 7.95774700e-02 4.90970300e-01
       13 -1    0    0    0    0 +0.0000000000e+00 +0.0000000000e+00 +4.9999998884e+02 5.0000000000e+02 1.0566000000e-01 0.0000e+00 -1.0000e+00
      994 -1    0    0    0    0 -0.0000000000e+00 -0.0000000000e+00 +0.0000000000e+00 1.3100000000e+02 1.3100000000e+02 0.0000e+00 0.0000e+00
       13  1    1    2    0    0 +1.7315605401e+01 +1.3382815664e+01 +3.5904463168e+01 4.2048443312e+01 1.0566000000e-01 0.0000e+00 1.0000e+00
      994  1    1    2    0    0 -1.8689036128e+01 -1.0686527200e+01 +8.2788042215e+00 1.3301511393e+02 1.3100000000e+02 0.0000e+00 0.0000e+00
      997  1    1    2    0    0 +1.3734307263e+00 -2.6962884638e+00 +4.5581672145e+02 4.5593644276e+02 1.0000000000e+01 0.0000e+00 0.0000e+00
</event>
<event>
 5      1 +4.4770400e-06 2.13164100e+02 7.95774700e-02 4.81356200e-01
       13 -1    0    0    0    0 +0.0000000000e+00 +0.0000000000e+00 +4.9999998884e+02 5.0000000000e+02 1.0566000000e-01 0.0000e+00 -1.0000e+00
      994 -1    0    0    0    0 -0.0000000000e+00 -0.0000000000e+00 +0.0000000000e+00 1.3100000000e+02 1.3100000000e+02 0.0000e+00 0.0000e+00
       13  1    1    2    0    0 +8.3222619221e+00 +5.6183329718e+00 +4.4642899845e+01 4.5758336722e+01 1.0566000000e-01 0.0000e+00 1.0000e+00
      994  1    1    2    0    0 -3.6589509823e+00 -4.0010927612e+00 +1.3717001454e+00 1.3111932820e+02 1.3100000000e+02 0.0000e+00 0.0000e+00
      997  1    1    2    0    0 -4.6633109397e+00 -1.6172402105e+00 +4.5398538885e+02 4.5412233508e+02 1.0000000000e+01 0.0000e+00 0.0000e+00
</event>
<event>
 5      1 +4.4770400e-06 2.00046200e+02 7.95774700e-02 5.03867700e-01
       13 -1    0    0    0    0 +0.0000000000e+00 +0.0000000000e+00 +4.9999998884e+02 5.0000000000e+02 1.0566000000e-01 0.0000e+00 -1.0000e+00
      994 -1    0    0    0    0 -0.0000000000e+00 -0.0000000000e+00 +0.0000000000e+00 1.3100000000e+02 1.3100000000e+02 0.0000e+00 0.0000e+00
       13  1    1    2    0    0 +3.9374379438e+00 +1.7407021669e+01 +7.8630362926e+00 1.9502469708e+01 1.0566000000e-01 0.0000e+00 1.0000e+00
      994  1    1    2    0    0 -6.3243852206e+00 -1.4820277518e+01 +1.3425068558e+01 1.3266827405e+02 1.3100000000e+02 0.0000e+00 0.0000e+00
      997  1    1    2    0    0 +2.3869472769e+00 -2.5867441509e+00 +4.7871188399e+02 4.7882925624e+02 1.0000000000e+01 0.0000e+00 0.0000e+00
</event>
<event>
 5      1 +4.4770400e-06 2.11318900e+02 7.95774700e-02 4.84308500e-01
       13 -1    0    0    0    0 +0.0000000000e+00 +0.0000000000e+00 +4.9999998884e+02 5.0000000000e+02 1.0566000000e-01 0.0000e+00 -1.0000e+00
      994 -1    0    0    0    0 -0.0000000000e+00 -0.0000000000e+00 +0.0000000000e+00 1.3100000000e+02 1.3100000000e+02 0.0000e+00 0.0000e+00
       13  1    1    2    0    0 +7.5603935563e+00 +1.1041184901e+01 +3.2850472001e+01 3.5471565929e+01 1.0566000000e-01 0.0000e+00 1.0000e+00
      994  1    1    2    0    0 -2.3263787500e+00 -1.0109003713e+01 +3.2085195208e+00 1.3144922439e+02 1.3100000000e+02 0.0000e+00 0.0000e+00
      997  1    1    2    0    0 -5.2340148064e+00 -9.3218118850e-01 +4.6394099731e+02 4.6407920968e+02 1.0000000000e+01 0.0000e+00 0.0000e+00
</event>
<event>
 5      1 +4.4770400e-06 2.08567900e+02 7.95774700e-02 4.88833000e-01
       13 -1    0    0    0    0 +0.0000000000e+00 +0.0000000000e+00 +4.9999998884e+02 5.0000000000e+02 1.0566000000e-01 0.0000e+00 1.0000e+00
      994 -1    0    0    0    0 -0.0000000000e+00 -0.0000000000e+00 +0.0000000000e+00 1.3100000000e+02 1.3100000000e+02 0.0000e+00 0.0000e+00
       13  1    1    2    0    0 -1.6519710170e+01 -1.2515166326e+01 +4.1457161487e+01 4.6349084294e+01 1.0566000000e-01 0.0000e+00 -1.0000e+00
      994  1    1    2    0    0 +8.0064912496e+00 +1.5087008802e+01 +6.3512233246e+00 1.3226133137e+02 1.3100000000e+02 0.0000e+00 0.0000e+00
      997  1    1    2    0    0 +8.5132189207e+00 -2.5718424758e+00 +4.5219160402e+02 4.5238958434e+02 1.0000000000e+01 0.0000e+00 0.0000e+00
</event>
<event>
 5      1 +4.4770400e-06 2.12849200e+02 7.95774700e-02 4.81855400e-01
       13 -1    0    0    0    0 +0.0000000000e+00 +0.0000000000e+00 +4.9999998884e+02 5.0000000000e+02 1.0566000000e-01 0.0000e+00 -1.0000e+00
      994 -1    0    0    0    0 -0.0000000000e+00 -0.0000000000e+00 +0.0000000000e+00 1.3100000000e+02 1.3100000000e+02 0.0000e+00 0.0000e+00
       13  1    1    2    0    0 -2.4243120228e+01 -2.2858342957e+01 +1.5921785221e+02 1.6266704752e+02 1.0566000000e-01 0.0000e+00 1.0000e+00
      994  1    1    2    0    0 +4.1595150689e+01 +2.8634866773e+01 +1.4229226639e+01 1.4111549542e+02 1.3100000000e+02 0.0000e+00 0.0000e+00
      997  1    1    2    0    0 -1.7352030461e+01 -5.7765238165e+00 +3.2655290999e+02 3.2721745707e+02 1.0000000000e+01 0.0000e+00 0.0000e+00
</event>
<event>
 5      1 +4.4770400e-06 2.07898800e+02 7.95774700e-02 4.89956500e-01
       13 -1    0    0    0    0 +0.0000000000e+00 +0.0000000000e+00 +4.9999998884e+02 5.0000000000e+02 1.0566000000e-01 0.0000e+00 -1.0000e+00
      994 -1    0    0    0    0 -0.0000000000e+00 -0.0000000000e+00 +0.0000000000e+00 1.3100000000e+02 1.3100000000e+02 0.0000e+00 0.0000e+00
       13  1    1    2    0    0 +1.0184182296e+01 -7.9527565174e+00 +1.2744974539e+01 1.8149640362e+01 1.0566000000e-01 0.0000e+00 1.0000e+00
      994  1    1    2    0    0 -8.4874210754e+00 +1.1804136655e+01 +6.4911030300e+00 1.3196404199e+02 1.3100000000e+02 0.0000e+00 0.0000e+00
      997  1    1    2    0    0 -1.6967612204e+00 -3.8513801373e+00 +4.8076391127e+02 4.8088631765e+02 1.0000000000e+01 0.0000e+00 0.0000e+00
</event>
<event>
 5      1 +4.4770400e-06 2.13071200e+02 7.95774700e-02 4.81503300e-01
       13 -1    0    0    0    0 +0.0000000000e+00 +0.0000000000e+00 +4.9999998884e+02 5.0000000000e+02 1.0566000000e-01 0.0000e+00 -1.0000e+00
      994 -1    0    0    0    0 -0.0000000000e+00 -0.0000000000e+00 +0.0000000000e+00 1.3100000000e+02 1.3100000000e+02 0.0000e+00 0.0000e+00
       13  1    1    2    0    0 -1.0049335550e+01 +2.4414895890e+00 +3.9330340068e+01 4.0667392716e+01 1.0566000000e-01 0.0000e+00 1.0000e+00
      994  1    1    2    0    0 +1.1785719523e+01 -4.1256179823e+00 +2.0623759403e+00 1.3160994378e+02 1.3100000000e+02 0.0000e+00 0.0000e+00
      997  1    1    2    0    0 -1.7363839725e+00 +1.6841283933e+00 +4.5860727283e+02 4.5872266350e+02 1.0000000000e+01 0.0000e+00 0.0000e+00
</event>
<event>
 5      1 +4.4770400e-06 2.10038700e+02 7.95774700e-02 4.86395300e-01
       13 -1    0    0    0    0 +0.0000000000e+00 +0.0000000000e+00 +4.9999998884e+02 5.0000000000e+02 1.0566000000e-01 0.0000e+00 1.0000e+00
      994 -1    0    0    0    0 -0.0000000000e+00 -0.0000000000e+00 +0.0000000000e+00 1.3100000000e+02 1.3100000000e+02 0.0000e+00 0.0000e+00
       13  1    1    2    0    0 -1.6356499478e+01 +3.0312128799e+00 +4.4139001867e+01 4.7169757011e+01 1.0566000000e-01 0.0000e+00 -1.0000e+00
      994  1    1    2    0    0 -2.8153023367e+00 +1.2022775668e+01 +4.4550694459e+00 1.3165606976e+02 1.3100000000e+02 0.0000e+00 0.0000e+00
      997  1    1    2    0    0 +1.9171801814e+01 -1.5053988547e+01 +4.5140591752e+02 4.5217417322e+02 1.0000000000e+01 0.0000e+00 0.0000e+00
</event>
<event>
 5      1 +4.4770400e-06 2.12058800e+02 7.95774700e-02 4.83116800e-01
       13 -1    0    0    0    0 +0.0000000000e+00 +0.0000000000e+00 +4.9999998884e+02 5.0000000000e+02 1.0566000000e-01 0.0000e+00 1.0000e+00
      994 -1    0    0    0    0 -0.0000000000e+00 -0.0000000000e+00 +0.0000000000e+00 1.3100000000e+02 1.3100000000e+02 0.0000e+00 0.0000e+00
       13  1    1    2    0    0 +1.0989436869e+01 -1.3416476325e+01 +7.5614424272e+01 7.7577844013e+01 1.0566000000e-01 0.0000e+00 -1.0000e+00
      994  1    1    2    0    0 -3.4378934593e-01 +1.1824953730e+01 +2.7818130749e+00 1.3156248024e+02 1.3100000000e+02 0.0000e+00 0.0000e+00
      997  1    1    2    0    0 -1.0645647523e+01 +1.5915225942e+00 +4.2160375149e+02 4.2185967575e+02 1.0000000000e+01 0.0000e+00 0.0000e+00
</event>
<event>
 5      1 +4.4770400e-06 2.09417700e+02 7.95774700e-02 4.87419200e-01
       13 -1    0    0    0    0 +0.0000000000e+00 +0.0000000000e+00 +4.9999998884e+02 5.0000000000e+02 1.0566000000e-01 0.0000e+00 -1.0000e+00
      994 -1    0    0    0    0 -0.0000000000e+00 -0.0000000000e+00 +0.0000000000e+00 1.3100000000e+02 1.3100000000e+02 0.0000e+00 0.0000e+00
       13  1    1    2    0    0 -4.0535972142e+00 -1.8692278893e+01 +4.8427619247e+01 5.2068017156e+01 1.0566000000e-01 0.0000e+00 1.0000e+00
      994  1    1    2    0    0 -1.3644929076e+01 +4.2633271107e+00 +5.2168785931e+00 1.3188091549e+02 1.3100000000e+02 0.0000e+00 0.0000e+00
      997  1    1    2    0    0 +1.7698526290e+01 +1.4428951783e+01 +4.4635549100e+02 4.4705106736e+02 1.0000000000e+01 0.0000e+00 0.0000e+00
</event>
<event>
 5      1 +4.4770400e-06 2.11629300e+02 7.95774700e-02 4.83807300e-01
       13 -1    0    0    0    0 +0.0000000000e+00 +0.0000000000e+00 +4.9999998884e+02 5.0000000000e+02 1.0566000000e-01 0.0000e+00 1.0000e+00
      994 -1    0    0    0    0 -0.0000000000e+00 -0.0000000000e+00 +0.0000000000e+00 1.3100000000e+02 1.3100000000e+02 0.0000e+00 0.0000e+00
       13  1    1    2    0    0 -6.2351415128e+00 +1.2368794762e+01 +4.2800933627e+01 4.4986610863e+01 1.0566000000e-01 0.0000e+00 -1.0000e+00
      994  1    1    2    0    0 -2.3713559749e-01 -3.7620418797e+00 +2.5011753555e+00 1.3107808768e+02 1.3100000000e+02 0.0000e+00 0.0000e+00
      997  1    1    2    0    0 +6.4722771103e+00 -8.6067528825e+00 +4.5469787985e+02 4.5493530145e+02 1.0000000000e+01 0.0000e+00 0.0000e+00
</event>
<event>
 5      1 +4.4770400e-06 1.95578400e+02 7.95774700e-02 5.12434800e-01
       13 -1    0    0    0    0 +0.0000000000e+00 +0.0000000000e+00 +4.9999998884e+02 5.0000000000e+02 1.0566000000e-01 0.0000e+00 -1.0000e+00
      994 -1    0    0    0    0 -0.0000000000e+00 -0.0000000000e+00 +0.0000000000e+00 1.3100000000e+02 1.3100000000e+02 0.0000e+00 0.0000e+00
       13  1    1    2    0    0 +2.0207257591e+01 +3.0274563172e+00 +6.0789401411e+00 2.1318147865e+01 1.0566000000e-01 0.0000e+00 1.0000e+00
      994  1    1    2    0    0 -1.6584333398e+01 -4.4038855820e+00 +1.7653090605e+01 1.3329315785e+02 1.3100000000e+02 0.0000e+00 0.0000e+00
      997  1    1    2    0    0 -3.6229241927e+00 +1.3764292648e+00 +4.7626795809e+02 4.7638869428e+02 1.0000000000e+01 0.0000e+00 0.0000e+00
</event>
<event>
 5      1 +4.4770400e-06 2.12699500e+02 7.95774700e-02 4.82093400e-01
       13 -1    0    0    0    0 +0.0000000000e+00 +0.0000000000e+00 +4.9999998884e+02 5.0000000000e+02 1.0566000000e-01 0.0000e+00 -1.0000e+00
      994 -1    0    0    0    0 -0.0000000000e+00 -0.0000000000e+00 +0.0000000000e+00 1.3100000000e+02 1.3100000000e+02 0.0000e+00 0.0000e+00
       13  1    1    2    0    0 -1.6526137378e+00 -1.1312900081e+01 +4.2813966100e+01 4.4314328356e+01 1.0566000000e-01 0.0000e+00 1.0000e+00
      994  1    1    2    0    0 +2.1639200967e+00 +6.7923872606e+00 +1.8395835037e+00 1.3120671912e+02 1.3100000000e+02 0.0000e+00 0.0000e+00
      997  1    1    2    0    0 -5.1130635890e-01 +4.5205128202e+00 +4.5534643923e+02 4.5547895252e+02 1.0000000000e+01 0.0000e+00 0.0000e+00
</event>
<event>
 5      1 +4.4770400e-06 2.11699300e+02 7.95774700e-02 4.83694500e-01
       13 -1    0    0    0    0 +0.0000000000e+00 +0.0000000000e+00 +4.9999998884e+02 5.0000000000e+02 1.0566000000e-01 0.0000e+00 -1.0000e+00
      994 -1    0    0    0    0 -0.0000000000e+00 -0.0000000000e+00 +0.0000000000e+00 1.3100000000e+02 1.3100000000e+02 0.0000e+00 0.0000e+00
       13  1    1    2    0    0 +3.3613591902e+00 +1.6234695904e+01 +5.6457834893e+01 5.8841842013e+01 1.0566000000e-01 0.0000e+00 1.0000e+00
      994  1    1    2    0    0 -4.2597024701e+00 -1.1949238114e+01 +3.1702613715e+00 1.3165097764e+02 1.3100000000e+02 0.0000e+00 0.0000e+00
      997  1    1    2    0    0 +8.9834327993e-01 -4.2854577899e+00 +4.4037189257e+02 4.4050718035e+02 1.0000000000e+01 0.0000e+00 0.0000e+00
</event>
<event>
 5      1 +4.4770400e-06 2.08621700e+02 7.95774700e-02 4.88743000e-01
       13 -1    0    0    0    0 +0.0000000000e+00 +0.0000000000e+00 +4.9999998884e+02 5.0000000000e+02 1.0566000000e-01 0.0000e+00 -1.0000e+00
      994 -1    0    0    0    0 -0.0000000000e+00 -0.0000000000e+00 +0.0000000000e+00 1.3100000000e+02 1.3100000000e+02 0.0000e+00 0.0000e+00
       13  1    1    2    0    0 +1.3047179520e+01 -2.2221793239e+01 +6.6946701859e+01 7.1734991755e+01 1.0566000000e-01 0.0000e+00 1.0000e+00
      994  1    1    2    0    0 -8.3091187014e+00 +1.3816240598e+01 +6.1457583833e+00 1.3213137517e+02 1.3100000000e+02 0.0000e+00 0.0000e+00
      997  1    1    2    0    0 -4.7380608181e+00 +8.4055526406e+00 +4.2690752859e+02 4.2713363308e+02 1.0000000000e+01 0.0000e+00 0.0000e+00
</event>
<event>
 5      1 +4.4770400e-06 2.01551200e+02 7.95774700e-02 5.01092800e-01
       13 -1    0    0    0    0 +0.0000000000e+00 +0.0000000000e+00 +4.9999998884e+02 5.0000000000e+02 1.0566000000e-01 0.0000e+00 1.0000e+00
      994 -1    0    0    0    0 -0.0000000000e+00 -0.0000000000e+00 +0.0000000000e+00 1.3100000000e+02 1.3100000000e+02 0.0000e+00 0.0000e+00
       13  1    1    2    0    0 +2.4939851215e+01 +1.9253660898e+01 +3.8613835785e+01 4.9837125867e+01 1.0566000000e-01 0.0000e+00 -1.0000e+00
      994  1    1    2    0    0 -2.5551065115e+01 -1.7203874138e+01 +1.5842732499e+01 1.3550211211e+02 1.3100000000e+02 0.0000e+00 0.0000e+00
      997  1    1    2    0    0 +6.1121389994e-01 -2.0497867597e+00 +4.4554342055e+02 4.4566076202e+02 1.0000000000e+01 0.0000e+00 0.0000e+00
</event>
<event>
 5      1 +4.4770400e-06 2.09330600e+02 7.95774700e-02 4.87563400e-01
       13 -1    0    0    0    0 +0.0000000000e+00 +0.0000000000e+00 +4.9999998884e+02 5.0000000000e+02 1.0566000000e-01 0.0000e+00 1.0000e+00
      994 -1    0    0    0    0 -0.0000000000e+00 -0.0000000000e+00 +0.0000000000e+00 1.3100000000e+02 1.3100000000e+02 0.0000e+00 0.0000e+00
       13  1    1    2    0    0 -1.0734001756e+01 +1.3935798586e+01 +4.2036956217e+01 4.5569091805e+01 1.0566000000e-01 0.0000e+00 -1.0000e+00
      994  1    1    2    0    0 +5.1435724672e+00 +1.0428078051e+01 +4.9391713284e+00 1.3160773747e+02 1.3100000000e+02 0.0000e+00 0.0000e+00
      997  1    1    2    0    0 +5.5904292888e+00 -2.4363876638e+01 +4.5302386129e+02 4.5382317072e+02 1.0000000000e+01 0.0000e+00 0.0000e+00
</event>
<event>
 5      1 +4.4770400e-06 2.11242000e+02 7.95774700e-02 4.84432800e-01
       13 -1    0    0    0    0 +0.0000000000e+00 +0.0000000000e+00 +4.9999998884e+02 5.0000000000e+02 1.0566000000e-01 0.0000e+00 1.0000e+00
      994 -1    0    0    0    0 -0.0000000000e+00 -0.0000000000e+00 +0.0000000000e+00 1.3100000000e+02 1.3100000000e+02 0.0000e+00 0.0000e+00
       13  1    1    2    0    0 -2.4652380521e+00 -1.2979271740e+01 +3.4418107282e+01 3.6866735229e+01 1.0566000000e-01 0.0000e+00 -1.0000e+00
      994  1    1    2    0    0 +1.3220363171e+01 -8.4678027544e-01 +3.6062255481e+00 1.3171750036e+02 1.3100000000e+02 0.0000e+00 0.0000e+00
      997  1    1    2    0    0 -1.0755125118e+01 +1.3826052015e+01 +4.6197565601e+02 4.6241576441e+02 1.0000000000e+01 0.0000e+00 0.0000e+00
</event>
<event>
 5      1 +4.4770400e-06 2.09272500e+02 7.95774700e-02 4.87659700e-01
       13 -1    0    0    0    0 +0.0000000000e+00 +0.0000000000e+00 +4.9999998884e+02 5.0000000000e+02 1.0566000000e-01 0.0000e+00 -1.0000e+00
      994 -1    0    0    0    0 -0.0000000000e+00 -0.0000000000e+00 +0.0000000000e+00 1.3100000000e+02 1.3100000000e+02 0.0000e+00 0.0000e+00
       13  1    1    2    0    0 -7.1634286695e+00 +1.8051199072e+01 +4.6632023761e+01 5.0514525657e+01 1.0566000000e-01 0.0000e+00 1.0000e+00
      994  1    1    2    0    0 -1.7198752206e+01 -1.2071277567e+01 +6.5330021232e+00 1.3283520970e+02 1.3100000000e+02 0.0000e+00 0.0000e+00
      997  1    1    2    0    0 +2.4362180876e+01 -5.9799215048e+00 +4.4683496295e+02 4.4765026464e+02 1.0000000000e+01 0.0000e+00 0.0000e+00
</event>
<event>
 5      1 +4.4770400e-06 2.10632400e+02 7.95774700e-02 4.85423500e-01
       13 -1    0    0    0    0 +0.0000000000e+00 +0.0000000000e+00 +4.9999998884e+02 5.0000000000e+02 1.0566000000e-01 0.0000e+00 1.0000e+00
      994 -1    0    0    0    0 -0.0000000000e+00 -0.0000000000e+00 +0.0000000000e+00 1.3100000000e+02 1.3100000000e+02 0.0000e+00 0.0000e+00
       13  1    1    2    0    0 +2.4857247948e+01 -1.5653924202e+00 +1.1870488869e+02 1.2128971511e+02 1.0566000000e-01 0.0000e+00 -1.0000e+00
      994  1    1    2    0    0 -5.4776022094e+00 +1.4360761085e+00 +3.3793913216e+00 1.3116587485e+02 1.3100000000e+02 0.0000e+00 0.0000e+00
      997  1    1    2    0    0 -1.9379645739e+01 +1.2931631167e-01 +3.7791570882e+02 3.7854441003e+02 1.0000000000e+01 0.0000e+00 0.0000e+00
</event>
<event>
 5      1 +4.4770400e-06 2.11064700e+02 7.95774700e-02 4.84720300e-01
       13 -1    0    0    0    0 +0.0000000000e+00 +0.0000000000e+00 +4.9999998884e+02 5.0000000000e+02 1.0566000000e-01 0.0000e+00 1.0000e+00
      994 -1    0    0    0    0 -0.0000000000e+00 -0.0000000000e+00 +0.0000000000e+00 1.3100000000e+02 1.3100000000e+02 0.0000e+00 0.0000e+00
       13  1    1    2    0    0 -3.4100976996e+00 -2.3500561808e+01 +1.0417266522e+02 1.0684503037e+02 1.0566000000e-01 0.0000e+00 -1.0000e+00
      994  1    1    2    0    0 -3.8211644851e+00 +1.2484943307e+01 +3.7228175356e+00 1.3170168745e+02 1.3100000000e+02 0.0000e+00 0.0000e+00
      997  1    1    2    0    0 +7.2312621848e+00 +1.1015618501e+01 +3.9210450608e+02 3.9245328218e+02 1.0000000000e+01 0.0000e+00 0.0000e+00
</event>
<event>
 5      1 +4.4770400e-06 2.08384100e+02 7.95774700e-02 4.89140700e-01
       13 -1    0    0    0    0 +0.0000000000e+00 +0.0000000000e+00 +4.9999998884e+02 5.0000000000e+02 1.0566000000e-01 0.0000e+00 1.0000e+00
      994 -1    0    0    0    0 -0.0000000000e+00 -0.0000000000e+00 +0.0000000000e+00 1.3100000000e+02 1.3100000000e+02 0.0000e+00 0.0000e+00
       13  1    1    2    0    0 +1.6885753808e+01 -1.2230536694e+00 +2.4402778516e+01 2.9700695367e+01 1.0566000000e-01 0.0000e+00 -1.0000e+00
      994  1    1    2    0    0 -2.1312942858e+01 +8.7067510303e+00 +7.7169054961e+00 1.3323137647e+02 1.3100000000e+02 0.0000e+00 0.0000e+00
      997  1    1    2    0    0 +4.4271890502e+00 -7.4836973609e+00 +4.6788030482e+02 4.6806792816e+02 1.0000000000e+01 0.0000e+00 0.0000e+00
</event>
<event>
 5      1 +4.4770400e-06 2.13374400e+02 7.95774700e-02 4.81023800e-01
       13 -1    0    0    0    0 +0.0000000000e+00 +0.0000000000e+00 +4.9999998884e+02 5.0000000000e+02 1.0566000000e-01 0.0000e+00 -1.0000e+00
      994 -1    0    0    0    0 -0.0000000000e+00 -0.0000000000e+00 +0.0000000000e+00 1.3100000000e+02 1.3100000000e+02 0.0000e+00 0.0000e+00
       13  1    1    2    0    0 +1.0328518337e+01 +2.4705004626e+00 +5.8934609696e+01 5.9883896397e+01 1.0566000000e-01 0.0000e+00 1.0000e+00
      994  1    1    2    0    0 -5.8260227197e+00 +3.0383359366e-01 +1.2303372248e+00 1.3113561143e+02 1.3100000000e+02 0.0000e+00 0.0000e+00
      997  1    1    2    0    0 -4.5024956170e+00 -2.7743340562e+00 +4.3983504191e+02 4.3998049217e+02 1.0000000000e+01 0.0000e+00 0.0000e+00
</event>
<event>
 5      1 +4.4770400e-06 2.07100200e+02 7.95774700e-02 4.91309400e-01
       13 -1    0    0    0    0 +0.0000000000e+00 +0.0000000000e+00 +4.9999998884e+02 5.0000000000e+02 1.0566000000e-01 0.0000e+00 -1.0000e+00
      994 -1    0    0    0    0 -0.0000000000e+00 -0.0000000000e+00 +0.0000000000e+00 1.3100000000e+02 1.3100000000e+02 0.0000e+00 0.0000e+00
       13  1    1    2    0    0 +2.8332944502e+01 +1.0035299255e+01 +1.0749185333e+02 1.1161528870e+02 1.0566000000e-01 0.0000e+00 1.0000e+00
      994  1    1    2    0    0 +5.2507023067e+00 +4.3081683137e+00 +6.3022430494e+00 1.3132725710e+02 1.3100000000e+02 0.0000e+00 0.0000e+00
      997  1    1    2    0    0 -3.3583646809e+01 -1.4343467569e+01 +3.8620589245e+02 3.8805745420e+02 1.0000000000e+01 0.0000e+00 0.0000e+00
</event>
<event>
 5      1 +4.4770400e-06 2.10289500e+02 7.95774700e-02 4.85983900e-01
       13 -1    0    0    0    0 +0.0000000000e+00 +0.0000000000e+00 +4.9999998884e+02 5.0000000000e+02 1.0566000000e-01 0.0000e+00 1.0000e+00
      994 -1    0    0    0    0 -0.0000000000e+00 -0.0000000000e+00 +0.0000000000e+00 1.3100000000e+02 1.3100000000e+02 0.0000e+00 0.0000e+00
       13  1    1    2    0    0 -6.5289782163e+00 +1.6690689271e+01 +5.0380765815e+01 5.3473726193e+01 1.0566000000e-01 0.0000e+00 -1.0000e+00
      994  1    1    2    0    0 -2.5063204437e+01 -1.5034463474e+01 +7.7831015242e+00 1.3444618246e+02 1.3100000000e+02 0.0000e+00 0.0000e+00
      997  1    1    2    0    0 +3.1592182653e+01 -1.6562257979e+00 +4.4183612150e+02 4.4308009135e+02 1.0000000000e+01 0.0000e+00 0.0000e+00
</event>
<event>
 5      1 +4.4770400e-06 2.13218600e+02 7.95774700e-02 4.81269900e-01
       13 -1    0    0    0    0 +0.0000000000e+00 +0.0000000000e+00 +4.9999998884e+02 5.0000000000e+02 1.0566000000e-01 0.0000e+00 1.0000e+00
      994 -1    0    0    0    0 -0.0000000000e+00 -0.0000000000e+00 +0.0000000000e+00 1.3100000000e+02 1.3100000000e+02 0.0000e+00 0.0000e+00
       13  1    1    2    0    0 +1.3981918728e+01 +2.2003593474e+00 +6.9238363451e+01 7.0670345761e+01 1.0566000000e-01 0.0000e+00 -1.0000e+00
      994  1    1    2    0    0 -1.8770611915e+01 -1.5715204578e+01 +4.1214515793e+00 1.3333150374e+02 1.3100000000e+02 0.0000e+00 0.0000e+00
      997  1    1    2    0    0 +4.7886931870e+00 +1.3514845230e+01 +4.2664017381e+02 4.2699815050e+02 1.0000000000e+01 0.0000e+00 0.0000e+00
</event>
<event>
 5      1 +4.4770400e-06 2.12414800e+02 7.95774700e-02 4.82547200e-01
       13 -1    0    0    0    0 +0.0000000000e+00 +0.0000000000e+00 +4.9999998884e+02 5.0000000000e+02 1.0566000000e-01 0.0000e+00 -1.0000e+00
      994 -1    0    0    0    0 -0.0000000000e+00 -0.0000000000e+00 +0.0000000000e+00 1.3100000000e+02 1.3100000000e+02 0.0000e+00 0.0000e+00
       13  1    1    2    0    0 -1.5625982440e+00 +1.1184500027e+01 +3.6494344358e+01 3.8201872837e+01 1.0566000000e-01 0.0000e+00 1.0000e+00
      994  1    1    2    0    0 -5.5232444166e+00 -7.3061620646e+00 +2.2252426687e+00 1.3133863840e+02 1.3100000000e+02 0.0000e+00 0.0000e+00
      997  1    1    2    0    0 +7.0858426605e+00 -3.8783379627e+00 +4.6128040181e+02 4.6145948876e+02 1.0000000000e+01 0.0000e+00 0.0000e+00
</event>
<event>
 5      1 +4.4770400e-06 1.98467100e+02 7.95774700e-02 5.06837900e-01
       13 -1    0    0    0    0 +0.0000000000e+00 +0.0000000000e+00 +4.9999998884e+02 5.0000000000e+02 1.0566000000e-01 0.0000e+00 -1.0000e+00
      994 -1    0    0    0    0 -0.0000000000e+00 -0.0000000000e+00 +0.0000000000e+00 1.3100000000e+02 1.3100000000e+02 0.0000e+00 0.0000e+00
       13  1    1    2    0    0 +3.3934551141e+01 +2.3675777968e+01 +6.6411549765e+01 7.8247053170e+01 1.0566000000e-01 0.0000e+00 1.0000e+00
      994  1    1    2    0    0 -2.3798940157e+01 +1.0752004278e+01 +1.7176253871e+01 1.3467746228e+02 1.3100000000e+02 0.0000e+00 0.0000e+00
      997  1    1    2    0    0 -1.0135610984e+01 -3.4427782246e+01 +4.1641218520e+02 4.1807548455e+02 1.0000000000e+01 0.0000e+00 0.0000e+00
</event>
<event>
 5      1 +4.4770400e-06 1.96796400e+02 7.95774700e-02 5.10048600e-01
       13 -1    0    0    0    0 +0.0000000000e+00 +0.0000000000e+00 +4.9999998884e+02 5.0000000000e+02 1.0566000000e-01 0.0000e+00 -1.0000e+00
      994 -1    0    0    0    0 -0.0000000000e+00 -0.0000000000e+00 +0.0000000000e+00 1.3100000000e+02 1.3100000000e+02 0.0000e+00 0.0000e+00
       13  1    1    2    0    0 +1.3090315230e+01 +1.7999513264e+01 +1.3846884108e+01 2.6212329047e+01 1.0566000000e-01 0.0000e+00 1.0000e+00
      994  1    1    2    0    0 +2.0984402429e+01 +1.3532691322e+01 +1.8390609281e+01 1.3462055337e+02 1.3100000000e+02 0.0000e+00 0.0000e+00
      997  1    1    2    0    0 -3.4074717658e+01 -3.1532204586e+01 +4.6776249545e+02 4.7016711758e+02 1.0000000000e+01 0.0000e+00 0.0000e+00
</event>
<event>
 5      1 +4.4770400e-06 2.13017600e+02 7.95774700e-02 4.81588200e-01
       13 -1    0    0    0    0 +0.0000000000e+00 +0.0000000000e+00 +4.9999998884e+02 5.0000000000e+02 1.0566000000e-01 0.0000e+00 1.0000e+00
      994 -1    0    0    0    0 -0.0000000000e+00 -0.0000000000e+00 +0.0000000000e+00 1.3100000000e+02 1.3100000000e+02 0.0000e+00 0.0000e+00
       13  1    1    2    0    0 +1.9198031580e+00 +1.6249694219e+01 +9.2514804738e+01 9.3950723606e+01 1.0566000000e-01 0.0000e+00 -1.0000e+00
      994  1    1    2    0    0 -7.0649907633e+00 -1.4382461605e+01 +2.5983367365e+00 1.3200197214e+02 1.3100000000e+02 0.0000e+00 0.0000e+00
      997  1    1    2    0    0 +5.1451876052e+00 -1.8672326140e+00 +4.0488684736e+02 4.0504730425e+02 1.0000000000e+01 0.0000e+00 0.0000e+00
</event>
<event>
 5      1 +4.4770400e-06 2.08428300e+02 7.95774700e-02 4.89066600e-01
       13 -1    0    0    0    0 +0.0000000000e+00 +0.0000000000e+00 +4.9999998884e+02 5.0000000000e+02 1.0566000000e-01 0.0000e+00 -1.0000e+00
      994 -1    0    0    0    0 -0.0000000000e+00 -0.0000000000e+00 +0.0000000000e+00 1.3100000000e+02 1.3100000000e+02 0.0000e+00 0.0000e+00
       13  1    1    2    0    0 +1.1648739235e+00 +2.6341529614e+01 +7.1113746946e+01 7.5844639115e+01 1.0566000000e-01 0.0000e+00 1.0000e+00
      994  1    1    2    0    0 -1.0820309944e-01 -1.2850836497e+01 +5.8229397183e+00 1.3175758928e+02 1.3100000000e+02 0.0000e+00 0.0000e+00
      997  1    1    2    0    0 -1.0566708241e+00 -1.3490693117e+01 +4.2306330217e+02 4.2339777160e+02 1.0000000000e+01 0.0000e+00 0.0000e+00
</event>
<event>
 5      1 +4.4770400e-06 2.09729100e+02 7.95774700e-02 4.86904800e-01
       13 -1    0    0    0    0 +0.0000000000e+00 +0.0000000000e+00 +4.9999998884e+02 5.0000000000e+02 1.0566000000e-01 0.0000e+00 1.0000e+00
      994 -1    0    0    0    0 -0.0000000000e+00 -0.0000000000e+00 +0.0000000000e+00 1.3100000000e+02 1.3100000000e+02 0.0000e+00 0.0000e+00
       13  1    1    2    0    0 +1.9696454209e+01 +9.8306482408e+00 +6.7894685442e+01 7.1374305101e+01 1.0566000000e-01 0.0000e+00 -1.0000e+00
      994  1    1    2    0    0 -4.8071987024e+00 -2.7903199746e+00 +4.0948830150e+00 1.3118179413e+02 1.3100000000e+02 0.0000e+00 0.0000e+00
      997  1    1    2    0    0 -1.4889255507e+01 -7.0403282661e+00 +4.2801042038e+02 4.2844390077e+02 1.0000000000e+01 0.0000e+00 0.0000e+00
</event>
<event>
 5      1 +4.4770400e-06 2.09023800e+02 7.95774700e-02 4.88072800e-01
       13 -1    0    0    0    0 +0.0000000000e+00 +0.0000000000e+00 +4.9999998884e+02 5.0000000000e+02 1.0566000000e-01 0.0000e+00 -1.0000e+00
      994 -1    0    0    0    0 -0.0000000000e+00 -0.0000000000e+00 +0.0000000000e+00 1.3100000000e+02 1.3100000000e+02 0.0000e+00 0.0000e+00
       13  1    1    2    0    0 +1.5368659086e+01 +1.5720545496e+01 +6.5263614122e+01 6.8867130949e+01 1.0566000000e-01 0.0000e+00 1.0000e+00
      994  1    1    2    0    0 +4.2909694653e+00 -2.0461797581e-01 +4.5991220941e+00 1.3115108163e+02 1.3100000000e+02 0.0000e+00 0.0000e+00
      997  1    1    2    0    0 -1.9659628552e+01 -1.5515927520e+01 +4.3013725262e+02 4.3098178743e+02 1.0000000000e+01 0.0000e+00 0.0000e+00
</event>
<event>
 5      1 +4.4770400e-06 2.13185400e+02 7.95774700e-02 4.81322500e-01
       13 -1    0    0    0    0 +0.0000000000e+00 +0.0000000000e+00 +4.9999998884e+02 5.0000000000e+02 1.0566000000e-01 0.0000e+00 -1.0000e+00
      994 -1    0    0    0    0 -0.0000000000e+00 -0.0000000000e+00 +0.0000000000e+00 1.3100000000e+02 1.3100000000e+02 0.0000e+00 0.0000e+00
       13  1    1    2    0    0 +7.2233033235e+00 -8.0962780418e+00 +5.9856440023e+01 6.0831985051e+01 1.0566000000e-01 0.0000e+00 1.0000e+00
      994  1    1    2    0    0 +4.8259194878e+00 +5.6308883819e+00 +1.4799230167e+00 1.3121808783e+02 1.3100000000e+02 0.0000e+00 0.0000e+00
      997  1    1    2    0    0 -1.2049222811e+01 +2.4653896599e+00 +4.3866362580e+02 4.3894992711e+02 1.0000000000e+01 0.0000e+00 0.0000e+00
</event>
<event>
 5      1 +4.4770400e-06 2.05258500e+02 7.95774700e-02 4.94481300e-01
       13 -1    0    0    0    0 +0.0000000000e+00 +0.0000000000e+00 +4.9999998884e+02 5.0000000000e+02 1.0566000000e-01 0.0000e+00 -1.0000e+00
      994 -1    0    0    0    0 -0.0000000000e+00 -0.0000000000e+00 +0.0000000000e+00 1.3100000000e+02 1.3100000000e+02 0.0000e+00 0.0000e+00
       13  1    1    2    0    0 -2.0029859501e+01 -1.9844964103e+01 +4.5118561982e+01 5.3204451611e+01 1.0566000000e-01 0.0000e+00 1.0000e+00
      994  1    1    2    0    0 +2.7521479409e+01 +1.1715837498e+01 +1.2267079658e+01 1.3493025576e+02 1.3100000000e+02 0.0000e+00 0.0000e+00
      997  1    1    2    0    0 -7.4916199081e+00 +8.1291266058e+00 +4.4261434720e+02 4.4286529263e+02 1.0000000000e+01 0.0000e+00 0.0000e+00
</event>
<event>
 5      1 +4.4770400e-06 2.08085900e+02 7.95774700e-02 4.89641400e-01
       13 -1    0    0    0    0 +0.0000000000e+00 +0.0000000000e+00 +4.9999998884e+02 5.0000000000e+02 1.0566000000e-01 0.0000e+00 1.0000e+00
      994 -1    0    0    0    0 -0.0000000000e+00 -0.0000000000e+00 +0.0000000000e+00 1.3100000000e+02 1.3100000000e+02 0.0000e+00 0.0000e+00
       13  1    1    2    0    0 +1.0025493179e+01 -7.2509973694e+00 +1.2204087590e+01 1.7379251833e+01 1.0566000000e-01 0.0000e+00 -1.0000e+00
      994  1    1    2    0    0 -5.8937051926e+00 +1.0280780870e+01 +5.9767697962e+00 1.3167061932e+02 1.3100000000e+02 0.0000e+00 0.0000e+00
      997  1    1    2    0    0 -4.1317879865e+00 -3.0297835004e+00 +4.8181913145e+02 4.8195012884e+02 1.0000000000e+01 0.0000e+00 0.0000e+00
</event>
<event>
 5      1 +4.4770400e-06 2.14275800e+02 7.95774700e-02 4.79608300e-01
       13 -1    0    0    0    0 +0.0000000000e+00 +0.0000000000e+00 +4.9999998884e+02 5.0000000000e+02 1.0566000000e-01 0.0000e+00 -1.0000e+00
      994 -1    0    0    0    0 -0.0000000000e+00 -0.0000000000e+00 +0.0000000000e+00 1.3100000000e+02 1.3100000000e+02 0.0000e+00 0.0000e+00
       13  1    1    2    0    0 -4.0401819556e+01 -2.5310501723e+01 +2.5644268221e+02 2.6083670935e+02 1.0566000000e-01 0.0000e+00 1.0000e+00
      994  1    1    2    0    0 +6.4724854216e+01 +5.2473561859e+01 +3.6241011538e+01 1.5942770263e+02 1.3100000000e+02 0.0000e+00 0.0000e+00
      997  1    1    2    0    0 -2.4323034660e+01 -2.7163060136e+01 +2.0731629508e+02 2.1073558802e+02 1.0000000000e+01 0.0000e+00 0.0000e+00
</event>
<event>
 5      1 +4.4770400e-06 2.04847600e+02 7.95774700e-02 4.95198900e-01
       13 -1    0    0    0    0 +0.0000000000e+00 +0.0000000000e+00 +4.9999998884e+02 5.0000000000e+02 1.0566000000e-01 0.0000e+00 1.0000e+00
      994 -1    0    0    0    0 -0.0000000000e+00 -0.0000000000e+00 +0.0000000000e+00 1.3100000000e+02 1.3100000000e+02 0.0000e+00 0.0000e+00
       13  1    1    2    0    0 +3.9487259055e+01 +9.4120963155e+00 +7.1828248268e+01 8.2505391327e+01 1.0566000000e-01 0.0000e+00 -1.0000e+00
      994  1    1    2    0    0 -5.3766824571e+01 -1.1483018474e+01 +2.4169001981e+01 1.4411062346e+02 1.3100000000e+02 0.0000e+00 0.0000e+00
      997  1    1    2    0    0 +1.4279565517e+01 +2.0709221582e+00 +4.0400273859e+02 4.0438398521e+02 1.0000000000e+01 0.0000e+00 0.0000e+00
</event>
<event>
 5      1 +4.4770400e-06 2.06780800e+02 7.95774700e-02 4.91854500e-01
       13 -1    0    0    0    0 +0.0000000000e+00 +0.0000000000e+00 +4.9999998884e+02 5.0000000000e+02 1.0566000000e-01 0.0000e+00 -1.0000e+00
      994 -1    0    0    0    0 -0.0000000000e+00 -0.0000000000e+00 +0.0000000000e+00 1.3100000000e+02 1.3100000000e+02 0.0000e+00 0.0000e+00
       13  1    1    2    0    0 -1.1388294846e+01 +3.5380239598e+00 +8.6099200002e+00 1.4708934682e+01 1.0566000000e-01 0.0000e+00 1.0000e+00
      994  1    1    2    0    0 +6.7263122186e+00 -1.9140467393e+00 +6.5786353594e+00 1.3135138101e+02 1.3100000000e+02 0.0000e+00 0.0000e+00
      997  1    1    2    0    0 +4.6619826270e+00 -1.6239772204e+00 +4.8481143348e+02 4.8493968430e+02 1.0000000000e+01 0.0000e+00 0.0000e+00
</event>
<event>
 5      1 +4.4770400e-06 2.13463700e+02 7.95774700e-02 4.80882800e-01
       13 -1    0    0    0    0 +0.0000000000e+00 +0.0000000000e+00 +4.9999998884e+02 5.0000000000e+02 1.0566000000e-01 0.0000e+00 1.0000e+00
      994 -1    0    0    0    0 -0.0000000000e+00 -0.0000000000e+00 +0.0000000000e+00 1.3100000000e+02 1.3100000000e+02 0.0000e+00 0.0000e+00
       13  1    1    2    0    0 +1.1333120190e+01 -5.0534317510e-01 +6.3782864989e+01 6.4783948747e+01 1.0566000000e-01 0.0000e+00 -1.0000e+00
      994  1    1    2    0    0 -1.1200985014e+01 -1.3412217830e+00 +1.6147940454e+00 1.3149474705e+02 1.3100000000e+02 0.0000e+00 0.0000e+00
      997  1    1    2    0    0 -1.3213517553e-01 +1.8465649581e+00 +4.3460232980e+02 4.3472130421e+02 1.0000000000e+01 0.0000e+00 0.0000e+00
</event>
<event>
 5      1 +4.4770400e-06 2.05756500e+02 7.95774700e-02 4.93616500e-01
       13 -1    0    0    0    0 +0.0000000000e+00 +0.0000000000e+00 +4.9999998884e+02 5.0000000000e+02 1.0566000000e-01 0.0000e+00 -1.0000e+00
      994 -1    0    0    0    0 -0.0000000000e+00 -0.0000000000e+00 +0.0000000000e+00 1.3100000000e+02 1.3100000000e+02 0.0000e+00 0.0000e+00
       13  1    1    2    0    0 -7.5550291063e-02 -1.0870406782e+01 +4.4365780721e+00 1.1741628528e+01 1.0566000000e-01 0.0000e+00 1.0000e+00
      994  1    1    2    0    0 -1.7206284549e+01 +2.3044237194e+01 +1.1479640437e+01 1.3461008595e+02 1.3100000000e+02 0.0000e+00 0.0000e+00
      997  1    1    2    0    0 +1.7281834840e+01 -1.2173830411e+01 +4.8408377033e+02 4.8464828552e+02 1.0000000000e+01 0.0000e+00 0.0000e+00
</event>
<event>
 5      1 +4.4770400e-06 2.07578200e+02 7.95774700e-02 4.90498100e-01
       13 -1    0    0    0    0 +0.0000000000e+00 +0.0000000000e+00 +4.9999998884e+02 5.0000000000e+02 1.0566000000e-01 0.0000e+00 -1.0000e+00
      994 -1    0    0    0    0 -0.0000000000e+00 -0.0000000000e+00 +0.0000000000e+00 1.3100000000e+02 1.3100000000e+02 0.0000e+00 0.0000e+00
       13  1    1    2    0    0 -8.6187664877e+00 -1.0737848250e+01 +1.4351313176e+01 1.9888586544e+01 1.0566000000e-01 0.0000e+00 1.0000e+00
      994  1    1    2    0    0 +2.5864674711e+00 +1.0602576283e+01 +6.2834170287e+00 1.3160389723e+02 1.3100000000e+02 0.0000e+00 0.0000e+00
      997  1    1    2    0    0 +6.0322990166e+00 +1.3527196727e-01 +4.7936525863e+02 4.7950751622e+02 1.0000000000e+01 0.0000e+00 0.0000e+00
</event>
<event>
 5      1 +4.4770400e-06 2.13123600e+02 7.95774700e-02 4.81420300e-01
       13 -1    0    0    0    0 +0.0000000000e+00 +0.0000000000e+00 +4.9999998884e+02 5.0000000000e+02 1.0566000000e-01 0.0000e+00 1.0000e+00
      994 -1    0    0    0    0 -0.0000000000e+00 -0.0000000000e+00 +0.0000000000e+00 1.3100000000e+02 1.3100000000e+02 0.0000e+00 0.0000e+00
       13  1    1    2    0    0 +1.2629635203e+00 -1.0738191227e+01 +4.6188190473e+01 4.7436946897e+01 1.0566000000e-01 0.0000e+00 -1.0000e+00
      994  1    1    2    0    0 -1.0895228500e-01 +1.0283975502e+01 +1.7761363623e+00 1.3141509306e+02 1.3100000000e+02 0.0000e+00 0.0000e+00
      997  1    1    2    0    0 -1.1540112353e+00 +4.5421572549e-01 +4.5203566200e+02 4.5214796005e+02 1.0000000000e+01 0.0000e+00 0.0000e+00
</event>
<event>
 5      1 +4.4770400e-06 2.08530100e+02 7.95774700e-02 4.88896100e-01
       13 -1    0    0    0    0 +0.0000000000e+00 +0.0000000000e+00 +4.9999998884e+02 5.0000000000e+02 1.0566000000e-01 0.0000e+00 1.0000e+00
      994 -1    0    0    0    0 -0.0000000000e+00 -0.0000000000e+00 +0.0000000000e+00 1.3100000000e+02 1.3100000000e+02 0.0000e+00 0.0000e+00
       13  1    1    2    0    0 +3.6770128071e+01 +1.9225512788e+01 +1.1883549806e+02 1.2587116200e+02 1.0566000000e-01 0.0000e+00 -1.0000e+00
      994  1    1    2    0    0 -3.7107641861e+01 -3.2183839503e+01 +1.7386355107e+01 1.4098248811e+02 1.3100000000e+02 0.0000e+00 0.0000e+00
      997  1    1    2    0    0 +3.3751378969e-01 +1.2958326715e+01 +3.6377813567e+02 3.6414634989e+02 1.0000000000e+01 0.0000e+00 0.0000e+00
</event>
<event>
 5      1 +4.4770400e-06 2.10975100e+02 7.95774700e-02 4.84865600e-01
       13 -1    0    0    0    0 +0.0000000000e+00 +0.0000000000e+00 +4.9999998884e+02 5.0000000000e+02 1.0566000000e-01 0.0000e+00 1.0000e+00
      994 -1    0    0    0    0 -0.0000000000e+00 -0.0000000000e+00 +0.0000000000e+00 1.3100000000e+02 1.3100000000e+02 0.0000e+00 0.0000e+00
       13  1    1    2    0    0 +1.4232439824e+01 -5.8526922360e+00 +3.8584809588e+01 4.1540522923e+01 1.0566000000e-01 0.0000e+00 -1.0000e+00
      994  1    1    2    0    0 -9.1663497514e+00 +1.0627130239e+01 +3.9260149003e+00 1.3180808571e+02 1.3100000000e+02 0.0000e+00 0.0000e+00
      997  1    1    2    0    0 -5.0660900723e+00 -4.7744380027e+00 +4.5748916435e+02 4.5765139137e+02 1.0000000000e+01 0.0000e+00 0.0000e+00
</event>
<event>
 5      1 +4.4770400e-06 2.11464300e+02 7.95774700e-02 4.84073400e-01
       13 -1    0    0    0    0 +0.0000000000e+00 +0.0000000000e+00 +4.9999998884e+02 5.0000000000e+02 1.0566000000e-01 0.0000e+00 1.0000e+00
      994 -1    0    0    0    0 -0.0000000000e+00 -0.0000000000e+00 +0.0000000000e+00 1.3100000000e+02 1.3100000000e+02 0.0000e+00 0.0000e+00
       13  1    1    2    0    0 +3.0170070972e+00 +1.3183362627e+01 +4.2903057892e+01 4.4984296399e+01 1.0566000000e-01 0.0000e+00 -1.0000e+00
      994  1    1    2    0    0 +1.2039854451e+01 +1.8055276809e+00 +3.2940598375e+00 1.3160573261e+02 1.3100000000e+02 0.0000e+00 0.0000e+00
      997  1    1    2    0    0 -1.5056861548e+01 -1.4988890308e+01 +4.5380287111e+02 4.5440997099e+02 1.0000000000e+01 0.0000e+00 0.0000e+00
</event>
<event>
 5      1 +4.4770400e-06 2.09261100e+02 7.95774700e-02 4.87678600e-01
       13 -1    0    0    0    0 +0.0000000000e+00 +0.0000000000e+00 +4.9999998884e+02 5.0000000000e+02 1.0566000000e-01 0.0000e+00 -1.0000e+00
      994 -1    0    0    0    0 -0.0000000000e+00 -0.0000000000e+00 +0.0000000000e+00 1.3100000000e+02 1.3100000000e+02 0.0000e+00 0.0000e+00
       13  1    1    2    0    0 -1.0606804417e+01 +6.2672674344e+00 +1.6088949312e+01 2.0264461380e+01 1.0566000000e-01 0.0000e+00 1.0000e+00
      994  1    1    2    0    0 +6.2736553597e+00 -4.2026550138e+00 +4.6019646505e+00 1.3129813075e+02 1.3100000000e+02 0.0000e+00 0.0000e+00
      997  1    1    2    0    0 +4.3331490573e+00 -2.0646124205e+00 +4.7930907487e+02 4.7943740787e+02 1.0000000000e+01 0.0000e+00 0.0000e+00
</event>
<event>
 5      1 +4.4770400e-06 2.00431900e+02 7.95774700e-02 5.03151300e-01
       13 -1    0    0    0    0 +0.0000000000e+00 +0.0000000000e+00 +4.9999998884e+02 5.0000000000e+02 1.0566000000e-01 0.0000e+00 -1.0000e+00
      994 -1    0    0    0    0 -0.0000000000e+00 -0.0000000000e+00 +0.0000000000e+00 1.3100000000e+02 1.3100000000e+02 0.0000e+00 0.0000e+00
       13  1    1    2    0    0 +4.2653498107e+01 +1.0029839606e+01 +1.9329777437e+01 4.7891231380e+01 1.0566000000e-01 0.0000e+00 1.0000e+00
      994  1    1    2    0    0 -5.6813638992e+01 -1.9497477880e+01 +5.0831056000e+01 1.5281602492e+02 1.3100000000e+02 0.0000e+00 0.0000e+00
      997  1    1    2    0    0 +1.4160140885e+01 +9.4676382735e+00 +4.2983915540e+02 4.3029274370e+02 1.0000000000e+01 0.0000e+00 0.0000e+00
</event>
<event>
 5      1 +4.4770400e-06 2.13434300e+02 7.95774700e-02 4.80929300e-01
       13 -1    0    0    0    0 +0.0000000000e+00 +0.0000000000e+00 +4.9999998884e+02 5.0000000000e+02 1.0566000000e-01 0.0000e+00 -1.0000e+00
      994 -1    0    0    0    0 -0.0000000000e+00 -0.0000000000e+00 +0.0000000000e+00 1.3100000000e+02 1.3100000000e+02 0.0000e+00 0.0000e+00
       13  1    1    2    0    0 -1.1667588011e+01 +6.2690233575e+00 +7.6178291341e+01 7.7321255160e+01 1.0566000000e-01 0.0000e+00 1.0000e+00
      994  1    1    2    0    0 +1.2142199993e+01 -1.1229646600e+01 +2.3518736529e+00 1.3206085451e+02 1.3100000000e+02 0.0000e+00 0.0000e+00
      997  1    1    2    0    0 -4.7461198200e-01 +4.9606232424e+00 +4.2146982384e+02 4.2161789033e+02 1.0000000000e+01 0.0000e+00 0.0000e+00
</event>
<event>
 5      1 +4.4770400e-06 2.11073500e+02 7.95774700e-02 4.84706000e-01
       13 -1    0    0    0    0 +0.0000000000e+00 +0.0000000000e+00 +4.9999998884e+02 5.0000000000e+02 1.0566000000e-01 0.0000e+00 1.0000e+00
      994 -1    0    0    0    0 -0.0000000000e+00 -0.0000000000e+00 +0.0000000000e+00 1.3100000000e+02 1.3100000000e+02 0.0000e+00 0.0000e+00
       13  1    1    2    0    0 +6.9097846819e+00 +8.2435761735e+00 +2.2662149460e+01 2.5085570646e+01 1.0566000000e-01 0.0000e+00 -1.0000e+00
      994  1    1    2    0    0 +2.5368262931e-01 +1.0436541081e+01 +3.4104640761e+00 1.3145956416e+02 1.3100000000e+02 0.0000e+00 0.0000e+00
      997  1    1    2    0    0 -7.1634673113e+00 -1.8680117255e+01 +4.7392737530e+02 4.7445486519e+02 1.0000000000e+01 0.0000e+00 0.0000e+00
</event>
<event>
 5      1 +4.4770400e-06 2.07792600e+02 7.95774700e-02 4.90135600e-01
       13 -1    0    0    0    0 +0.0000000000e+00 +0.0000000000e+00 +4.9999998884e+02 5.0000000000e+02 1.0566000000e-01 0.0000e+00 -1.0000e+00
      994 -1    0    0    0    0 -0.0000000000e+00 -0.0000000000e+00 +0.0000000000e+00 1.3100000000e+02 1.3100000000e+02 0.0000e+00 0.0000e+00
       13  1    1    2    0    0 +7.8953385465e+00 -1.3790417272e+01 +2.0577884414e+01 2.5999470577e+01 1.0566000000e-01 0.0000e+00 1.0000e+00
      994  1    1    2    0    0 -4.7216382949e+00 +1.1282554353e+01 +6.2632293286e+00 1.3171870764e+02 1.3100000000e+02 0.0000e+00 0.0000e+00
      997  1    1    2    0    0 -3.1737002516e+00 +2.5078629196e+00 +4.7315887509e+02 4.7328182178e+02 1.0000000000e+01 0.0000e+00 0.0000e+00
</event>
<event>
 5      1 +4.4770400e-06 2.13620800e+02 7.95774700e-02 4.80635400e-01
       13 -1    0    0    0    0 +0.0000000000e+00 +0.0000000000e+00 +4.9999998884e+02 5.0000000000e+02 1.0566000000e-01 0.0000e+00 1.0000e+00
      994 -1    0    0    0    0 -0.0000000000e+00 -0.0000000000e+00 +0.0000000000e+00 1.3100000000e+02 1.3100000000e+02 0.0000e+00 0.0000e+00
       13  1    1    2    0    0 -6.9605614885e+00 -7.7679555761e+00 +6.1632464164e+01 6.2508898191e+01 1.0566000000e-01 0.0000e+00 -1.0000e+00
      994  1    1    2    0    0 +4.7862131480e+00 +1.0507783040e+01 +1.5215413310e+00 1.3151667738e+02 1.3100000000e+02 0.0000e+00 0.0000e+00
      997  1    1    2    0    0 +2.1743483405e+00 -2.7398274636e+00 +4.3684598334e+02 4.3697442443e+02 1.0000000000e+01 0.0000e+00 0.0000e+00
</event>
<event>
 5      1 +4.4770400e-06 2.12578600e+02 7.95774700e-02 4.82285900e-01
       13 -1    0    0    0    0 +0.0000000000e+00 +0.0000000000e+00 +4.9999998884e+02 5.0000000000e+02 1.0566000000e-01 0.0000e+00 -1.0000e+00
      994 -1    0    0    0    0 -0.0000000000e+00 -0.0000000000e+00 +0.0000000000e+00 1.3100000000e+02 1.3100000000e+02 0.0000e+00 0.0000e+00
       13  1    1    2    0    0 +1.0805647911e+01 -9.2974788131e+00 +5.4717543345e+01 5.6544016950e+01 1.0566000000e-01 0.0000e+00 1.0000e+00
      994  1    1    2    0    0 -6.4998453198e+00 +1.7892414261e+01 +3.4654419477e+00 1.3242128139e+02 1.3100000000e+02 0.0000e+00 0.0000e+00
      997  1    1    2    0    0 -4.3058025911e+00 -8.5949354482e+00 +4.4181700354e+02 4.4203470166e+02 1.0000000000e+01 0.0000e+00 0.0000e+00
</event>
<event>
 5      1 +4.4770400e-06 2.08484800e+02 7.95774700e-02 4.88972000e-01
       13 -1    0    0    0    0 +0.0000000000e+00 +0.0000000000e+00 +4.9999998884e+02 5.0000000000e+02 1.0566000000e-01 0.0000e+00 -1.0000e+00
      994 -1    0    0    0    0 -0.0000000000e+00 -0.0000000000e+00 +0.0000000000e+00 1.3100000000e+02 1.3100000000e+02 0.0000e+00 0.0000e+00
       13  1    1    2    0    0 +2.2796274687e+01 +2.3145066587e+00 +5.1238428271e+01 5.6128555802e+01 1.0566000000e-01 0.0000e+00 1.0000e+00
      994  1    1    2    0    0 -1.3605596361e+01 -1.5397340422e+01 +7.0831910010e+00 1.3279066962e+02 1.3100000000e+02 0.0000e+00 0.0000e+00
      997  1    1    2    0    0 -9.1906783260e+00 +1.3082833763e+01 +4.4167836956e+02 4.4208077457e+02 1.0000000000e+01 0.0000e+00 0.0000e+00
</event>
<event>
 5      1 +4.4770400e-06 2.07109900e+02 7.95774700e-02 4.91293000e-01
       13 -1    0    0    0    0 +0.0000000000e+00 +0.0000000000e+00 +4.9999998884e+02 5.0000000000e+02 1.0566000000e-01 0.0000e+00 -1.0000e+00
      994 -1    0    0    0    0 -0.0000000000e+00 -0.0000000000e+00 +0.0000000000e+00 1.3100000000e+02 1.3100000000e+02 0.0000e+00 0.0000e+00
       13  1    1    2    0    0 +7.9782449126e-01 +2.0511948164e+01 +3.0361425570e+01 3.6649745812e+01 1.0566000000e-01 0.0000e+00 1.0000e+00
      994  1    1    2    0    0 +4.4725063588e+00 -2.1395764625e+01 +8.5112001517e+00 1.3308351733e+02 1.3100000000e+02 0.0000e+00 0.0000e+00
      997  1    1    2    0    0 -5.2703308501e+00 +8.8381646098e-01 +4.6112736311e+02 4.6126673686e+02 1.0000000000e+01 0.0000e+00 0.0000e+00
</event>
<event>
 5      1 +4.4770400e-06 2.07009700e+02 7.95774700e-02 4.91463700e-01
       13 -1    0    0    0    0 +0.0000000000e+00 +0.0000000000e+00 +4.9999998884e+02 5.0000000000e+02 1.0566000000e-01 0.0000e+00 -1.0000e+00
      994 -1    0    0    0    0 -0.0000000000e+00 -0.0000000000e+00 +0.0000000000e+00 1.3100000000e+02 1.3100000000e+02 0.0000e+00 0.0000e+00
       13  1    1    2    0    0 +4.1335374762e-01 +1.0628402685e+01 +6.1948572339e+00 1.2309395808e+01 1.0566000000e-01 0.0000e+00 1.0000e+00
      994  1    1    2    0    0 -4.2884043058e+00 -1.4858727087e+01 +7.3663607905e+00 1.3211523551e+02 1.3100000000e+02 0.0000e+00 0.0000e+00
      997  1    1    2    0    0 +3.8750505581e+00 +4.2303244017e+00 +4.8643877081e+02 4.8657536868e+02 1.0000000000e+01 0.0000e+00 0.0000e+00
</event>
<event>
 5      1 +4.4770400e-06 2.09969000e+02 7.95774700e-02 4.86509800e-01
       13 -1    0    0    0    0 +0.0000000000e+00 +0.0000000000e+00 +4.9999998884e+02 5.0000000000e+02 1.0566000000e-01 0.0000e+00 1.0000e+00
      994 -1    0    0    0    0 -0.0000000000e+00 -0.0000000000e+00 +0.0000000000e+00 1.3100000000e+02 1.3100000000e+02 0.0000e+00 0.0000e+00
       13  1    1    2    0    0 +9.5784563212e+00 -4.2545941762e+00 +3.1503918587e+01 3.3201753680e+01 1.0566000000e-01 0.0000e+00 -1.0000e+00
      994  1    1    2    0    0 +2.7302379007e+01 -8.2564772380e+01 +4.4629957210e+01 1.6344783455e+02 1.3100000000e+02 0.0000e+00 0.0000e+00
      997  1    1    2    0    0 -3.6880835329e+01 +8.6819366556e+01 +4.2386611304e+02 4.3435041177e+02 1.0000000000e+01 0.0000e+00 0.0000e+00
</event>
<event>
 5      1 +4.4770400e-06 2.07376300e+02 7.95774700e-02 4.90840100e-01
       13 -1    0    0    0    0 +0.0000000000e+00 +0.0000000000e+00 +4.9999998884e+02 5.0000000000e+02 1.0566000000e-01 0.0000e+00 -1.0000e+00
      994 -1    0    0    0    0 -0.0000000000e+00 -0.0000000000e+00 +0.0000000000e+00 1.3100000000e+02 1.3100000000e+02 0.0000e+00 0.0000e+00
       13  1    1    2    0    0 -1.0471494268e+01 -2.2541164803e+01 +5.2089323898e+01 5.7715380369e+01 1.0566000000e-01 0.0000e+00 1.0000e+00
      994  1    1    2    0    0 +1.6512129668e+01 +7.0532082713e+00 +7.4898825508e+00 1.3243676421e+02 1.3100000000e+02 0.0000e+00 0.0000e+00
      997  1    1    2    0    0 -6.0406354009e+00 +1.5487956532e+01 +4.4042078239e+02 4.4084785542e+02 1.0000000000e+01 0.0000e+00 0.0000e+00
</event>
<event>
 5      1 +4.4770400e-06 2.12098000e+02 7.95774700e-02 4.83054000e-01
       13 -1    0    0    0    0 +0.0000000000e+00 +0.0000000000e+00 +4.9999998884e+02 5.0000000000e+02 1.0566000000e-01 0.0000e+00 -1.0000e+00
      994 -1    0    0    0    0 -0.0000000000e+00 -0.0000000000e+00 +0.0000000000e+00 1.3100000000e+02 1.3100000000e+02 0.0000e+00 0.0000e+00
       13  1    1    2    0    0 -3.3525708883e+01 -4.3662947233e-01 +1.5639486835e+02 1.5994852238e+02 1.0566000000e-01 0.0000e+00 1.0000e+00
      994  1    1    2    0    0 +4.0987462432e+01 +1.3073919719e+00 +1.0454527943e+01 1.3766618505e+02 1.3100000000e+02 0.0000e+00 0.0000e+00
      997  1    1    2    0    0 -7.4617535490e+00 -8.7076249962e-01 +3.3315059254e+02 3.3338529257e+02 1.0000000000e+01 0.0000e+00 0.0000e+00
</event>
<event>
 5      1 +4.4770400e-06 2.12342200e+02 7.95774700e-02 4.82663200e-01
       13 -1    0    0    0    0 +0.0000000000e+00 +0.0000000000e+00 +4.9999998884e+02 5.0000000000e+02 1.0566000000e-01 0.0000e+00 1.0000e+00
      994 -1    0    0    0    0 -0.0000000000e+00 -0.0000000000e+00 +0.0000000000e+00 1.3100000000e+02 1.3100000000e+02 0.0000e+00 0.0000e+00
       13  1    1    2    0    0 -1.8877531989e+00 -1.8112219773e+01 +7.6956535728e+01 7.9081828966e+01 1.0566000000e-01 0.0000e+00 -1.0000e+00
      994  1    1    2    0    0 -1.6546797383e+00 +1.9859654735e+01 +3.8254941005e+00 1.3256235611e+02 1.3100000000e+02 0.0000e+00 0.0000e+00
      997  1    1    2    0    0 +3.5424329372e+00 -1.7474349625e+00 +4.1921795901e+02 4.1935581493e+02 1.0000000000e+01 0.0000e+00 0.0000e+00
</event>
<event>
 5      1 +4.4770400e-06 2.12571400e+02 7.95774700e-02 4.82297400e-01
       13 -1    0    0    0    0 +0.0000000000e+00 +0.0000000000e+00 +4.9999998884e+02 5.0000000000e+02 1.0566000000e-01 0.0000e+00 1.0000e+00
      994 -1    0    0    0    0 -0.0000000000e+00 -0.0000000000e+00 +0.0000000000e+00 1.3100000000e+02 1.3100000000e+02 0.0000e+00 0.0000e+00
       13  1    1    2    0    0 -8.7459868905e+00 +1.1796513109e+01 +6.0349199153e+01 6.2110281038e+01 1.0566000000e-01 0.0000e+00 -1.0000e+00
      994  1    1    2    0    0 +1.4610532854e+01 -6.7484645633e+00 +2.9622073647e+00 1.3201812041e+02 1.3100000000e+02 0.0000e+00 0.0000e+00
      997  1    1    2    0    0 -5.8645459637e+00 -5.0480485459e+00 +4.3668858232e+02 4.3687159855e+02 1.0000000000e+01 0.0000e+00 0.0000e+00
</event>
<event>
 5      1 +4.4770400e-06 2.12910900e+02 7.95774700e-02 4.81757500e-01
       13 -1    0    0    0    0 +0.0000000000e+00 +0.0000000000e+00 +4.9999998884e+02 5.0000000000e+02 1.0566000000e-01 0.0000e+00 -1.0000e+00
      994 -1    0    0    0    0 -0.0000000000e+00 -0.0000000000e+00 +0.0000000000e+00 1.3100000000e+02 1.3100000000e+02 0.0000e+00 0.0000e+00
       13  1    1    2    0    0 +9.3812708338e+00 +6.3669966249e+00 +4.2162288806e+01 4.3660241065e+01 1.0566000000e-01 0.0000e+00 1.0000e+00
      994  1    1    2    0    0 -1.4287478881e+01 -3.8987308889e+00 +2.4990197605e+00 1.3185817098e+02 1.3100000000e+02 0.0000e+00 0.0000e+00
      997  1    1    2    0    0 +4.9062080475e+00 -2.4682657360e+00 +4.5533868027e+02 4.5548158795e+02 1.0000000000e+01 0.0000e+00 0.0000e+00
</event>
<event>
 5      1 +4.4770400e-06 2.07279100e+02 7.95774700e-02 4.91005300e-01
       13 -1    0    0    0    0 +0.0000000000e+00 +0.0000000000e+00 +4.9999998884e+02 5.0000000000e+02 1.0566000000e-01 0.0000e+00 1.0000e+00
      994 -1    0    0    0    0 -0.0000000000e+00 -0.0000000000e+00 +0.0000000000e+00 1.3100000000e+02 1.3100000000e+02 0.0000e+00 0.0000e+00
       13  1    1    2    0    0 +8.8199739662e+00 -1.2333122406e+01 +1.6719892688e+01 2.2571305336e+01 1.0566000000e-01 0.0000e+00 -1.0000e+00
      994  1    1    2    0    0 +1.0201769601e+00 +1.6480235744e+01 +7.3151742438e+00 1.3223899087e+02 1.3100000000e+02 0.0000e+00 0.0000e+00
      997  1    1    2    0    0 -9.8401509263e+00 -4.1471133376e+00 +4.7596492190e+02 4.7618970380e+02 1.0000000000e+01 0.0000e+00 0.0000e+00
</event>
<event>
 5      1 +4.4770400e-06 2.13264200e+02 7.95774700e-02 4.81197800e-01
       13 -1    0    0    0    0 +0.0000000000e+00 +0.0000000000e+00 +4.9999998884e+02 5.0000000000e+02 1.0566000000e-01 0.0000e+00 1.0000e+00
      994 -1    0    0    0    0 -0.0000000000e+00 -0.0000000000e+00 +0.0000000000e+00 1.3100000000e+02 1.3100000000e+02 0.0000e+00 0.0000e+00
       13  1    1    2    0    0 -4.3007730987e-01 -1.3532568240e+01 +7.1241426524e+01 7.2516669717e+01 1.0566000000e-01 0.0000e+00 -1.0000e+00
      994  1    1    2    0    0 -3.8365549627e+00 +1.6047160959e+01 +2.4795091956e+00 1.3205823903e+02 1.3100000000e+02 0.0000e+00 0.0000e+00
      997  1    1    2    0    0 +4.2666322726e+00 -2.5145927191e+00 +4.2627905312e+02 4.2642509126e+02 1.0000000000e+01 0.0000e+00 0.0000e+00
</event>
<event>
 5      1 +4.4770400e-06 2.00579300e+02 7.95774700e-02 5.02878500e-01
       13 -1    0    0    0    0 +0.0000000000e+00 +0.0000000000e+00 +4.9999998884e+02 5.0000000000e+02 1.0566000000e-01 0.0000e+00 1.0000e+00
      994 -1    0    0    0    0 -0.0000000000e+00 -0.0000000000e+00 +0.0000000000e+00 1.3100000000e+02 1.3100000000e+02 0.0000e+00 0.0000e+00
       13  1    1    2    0    0 +1.7504290747e+01 +1.5452523390e+00 +7.7577757296e+00 1.9208910632e+01 1.0566000000e-01 0.0000e+00 -1.0000e+00
      994  1    1    2    0    0 -2.1519071005e+01 -3.1955649437e+00 +1.4117876413e+01 1.3354248944e+02 1.3100000000e+02 0.0000e+00 0.0000e+00
      997  1    1    2    0    0 +4.0147802579e+00 +1.6503126047e+00 +4.7812433669e+02 4.7824859993e+02 1.0000000000e+01 0.0000e+00 0.0000e+00
</event>
<event>
 5      1 +4.4770400e-06 2.12992200e+02 7.95774700e-02 4.81628500e-01
       13 -1    0    0    0    0 +0.0000000000e+00 +0.0000000000e+00 +4.9999998884e+02 5.0000000000e+02 1.0566000000e-01 0.0000e+00 -1.0000e+00
      994 -1    0    0    0    0 -0.0000000000e+00 -0.0000000000e+00 +0.0000000000e+00 1.3100000000e+02 1.3100000000e+02 0.0000e+00 0.0000e+00
       13  1    1    2    0    0 +7.7392217766e+00 +1.3085230357e+01 +8.0940929569e+01 8.2356323684e+01 1.0566000000e-01 0.0000e+00 1.0000e+00
      994  1    1    2    0    0 -2.5738150219e+00 -1.4281940375e+01 +2.3921568749e+00 1.3182306611e+02 1.3100000000e+02 0.0000e+00 0.0000e+00
      997  1    1    2    0    0 -5.1654067547e+00 +1.1967100179e+00 +4.1666690239e+02 4.1682061020e+02 1.0000000000e+01 0.0000e+00 0.0000e+00
</event>
<event>
 5      1 +4.4770400e-06 1.97073100e+02 7.95774700e-02 5.09512000e-01
       13 -1    0    0    0    0 +0.0000000000e+00 +0.0000000000e+00 +4.9999998884e+02 5.0000000000e+02 1.0566000000e-01 0.0000e+00 1.0000e+00
      994 -1    0    0    0    0 -0.0000000000e+00 -0.0000000000e+00 +0.0000000000e+00 1.3100000000e+02 1.3100000000e+02 0.0000e+00 0.0000e+00
       13  1    1    2    0    0 -1.0220839083e+01 -4.2425420852e+01 +6.4021943980e+01 7.7480335318e+01 1.0566000000e-01 0.0000e+00 -1.0000e+00
      994  1    1    2    0    0 +2.0727353298e+01 +1.5245487175e+01 +1.8351593499e+01 1.3475840990e+02 1.3100000000e+02 0.0000e+00 0.0000e+00
      997  1    1    2    0    0 -1.0506514214e+01 +2.7179933677e+01 +4.1762645136e+02 4.1876125479e+02 1.0000000000e+01 0.0000e+00 0.0000e+00
</event>
<event>
 5      1 +4.4770400e-06 2.11578100e+02 7.95774700e-02 4.83889800e-01
       13 -1    0    0    0    0 +0.0000000000e+00 +0.0000000000e+00 +4.9999998884e+02 5.0000000000e+02 1.0566000000e-01 0.0000e+00 -1.0000e+00
      994 -1    0    0    0    0 -0.0000000000e+00 -0.0000000000e+00 +0.0000000000e+00 1.3100000000e+02 1.3100000000e+02 0.0000e+00 0.0000e+00
       13  1    1    2    0    0 -1.1465102794e+01 -1.3659380145e+01 +5.9785479846e+01 6.2388636886e+01 1.0566000000e-01 0.0000e+00 1.0000e+00
      994  1    1    2    0    0 +8.6484227488e+00 +1.4027432292e+01 +3.8144722604e+00 1.3208752504e+02 1.3100000000e+02 0.0000e+00 0.0000e+00
      997  1    1    2    0    0 +2.8166800455e+00 -3.6805214775e-01 +4.3640003673e+02 4.3652383807e+02 1.0000000000e+01 0.0000e+00 0.0000e+00
</event>
<event>
 5      1 +4.4770400e-06 2.12760000e+02 7.95774700e-02 4.81997200e-01
       13 -1    0    0    0    0 +0.0000000000e+00 +0.0000000000e+00 +4.9999998884e+02 5.0000000000e+02 1.0566000000e-01 0.0000e+00 -1.0000e+00
      994 -1    0    0    0    0 -0.0000000000e+00 -0.0000000000e+00 +0.0000000000e+00 1.3100000000e+02 1.3100000000e+02 0.0000e+00 0.0000e+00
       13  1    1    2    0    0 -1.1846642173e+01 -7.2516215609e+00 +8.1651239473e+01 8.2824302095e+01 1.0566000000e-01 0.0000e+00 1.0000e+00
      994  1    1    2    0    0 +1.9434111404e+00 -3.5847407370e+00 +1.6249487508e+00 1.3107352010e+02 1.3100000000e+02 0.0000e+00 0.0000e+00
      997  1    1    2    0    0 +9.9032310323e+00 +1.0836362298e+01 +4.1672380061e+02 4.1710217781e+02 1.0000000000e+01 0.0000e+00 0.0000e+00
</event>
<event>
 5      1 +4.4770400e-06 2.09418600e+02 7.95774700e-02 4.87417700e-01
       13 -1    0    0    0    0 +0.0000000000e+00 +0.0000000000e+00 +4.9999998884e+02 5.0000000000e+02 1.0566000000e-01 0.0000e+00 -1.0000e+00
      994 -1    0    0    0    0 -0.0000000000e+00 -0.0000000000e+00 +0.0000000000e+00 1.3100000000e+02 1.3100000000e+02 0.0000e+00 0.0000e+00
       13  1    1    2    0    0 -6.0777920529e+00 +1.4948606540e+01 +3.2062322845e+01 3.5894346407e+01 1.0566000000e-01 0.0000e+00 1.0000e+00
      994  1    1    2    0    0 -3.1685697893e+00 -4.3789392548e+00 +4.3355737138e+00 1.3118312446e+02 1.3100000000e+02 0.0000e+00 0.0000e+00
      997  1    1    2    0    0 +9.2463618421e+00 -1.0569667286e+01 +4.6360209228e+02 4.6392252913e+02 1.0000000000e+01 0.0000e+00 0.0000e+00
</event>
<event>
 5      1 +4.4770400e-06 2.12283000e+02 7.95774700e-02 4.82757900e-01
       13 -1    0    0    0    0 +0.0000000000e+00 +0.0000000000e+00 +4.9999998884e+02 5.0000000000e+02 1.0566000000e-01 0.0000e+00 1.0000e+00
      994 -1    0    0    0    0 -0.0000000000e+00 -0.0000000000e+00 +0.0000000000e+00 1.3100000000e+02 1.3100000000e+02 0.0000e+00 0.0000e+00
       13  1    1    2    0    0 +4.4488059852e+01 -1.3975274878e+01 +2.0660740010e+02 2.1180444924e+02 1.0566000000e-01 0.0000e+00 -1.0000e+00
      994  1    1    2    0    0 -7.0482269634e+01 -3.5466254182e+00 +2.7555229188e+01 1.5132950651e+02 1.3100000000e+02 0.0000e+00 0.0000e+00
      997  1    1    2    0    0 +2.5994209782e+01 +1.7521900297e+01 +2.6583735954e+02 2.6786604425e+02 1.0000000000e+01 0.0000e+00 0.0000e+00
</event>
<event>
 5      1 +4.4770400e-06 2.09401500e+02 7.95774700e-02 4.87446000e-01
       13 -1    0    0    0    0 +0.0000000000e+00 +0.0000000000e+00 +4.9999998884e+02 5.0000000000e+02 1.0566000000e-01 0.0000e+00 1.0000e+00
      994 -1    0    0    0    0 -0.0000000000e+00 -0.0000000000e+00 +0.0000000000e+00 1.3100000000e+02 1.3100000000e+02 0.0000e+00 0.0000e+00
       13  1    1    2    0    0 -1.5905333519e+00 +9.8765999602e+00 +1.0544450398e+01 1.4535254430e+01 1.0566000000e-01 0.0000e+00 -1.0000e+00
      994  1    1    2    0    0 -5.8958625994e+00 -3.9528993689e+00 +4.4556151425e+00 1.3126781447e+02 1.3100000000e+02 0.0000e+00 0.0000e+00
      997  1    1    2    0    0 +7.4863959513e+00 -5.9237005913e+00 +4.8499992330e+02 4.8519693110e+02 1.0000000000e+01 0.0000e+00 0.0000e+00
</event>
<event>
 5      1 +4.4770400e-06 2.11183000e+02 7.95774700e-02 4.84528500e-01
       13 -1    0    0    0    0 +0.0000000000e+00 +0.0000000000e+00 +4.9999998884e+02 5.0000000000e+02 1.0566000000e-01 0.0000e+00 1.0000e+00
      994 -1    0    0    0    0 -0.0000000000e+00 -0.0000000000e+00 +0.0000000000e+00 1.3100000000e+02 1.3100000000e+02 0.0000e+00 0.0000e+00
       13  1    1    2    0    0 -1.8190668086e+01 +6.3684428860e+00 +6.7964998770e+01 7.0644955178e+01 1.0566000000e-01 0.0000e+00 -1.0000e+00
      994  1    1    2    0    0 +1.0480063415e+01 -3.2106238633e+00 +3.3786843507e+00 1.3150116099e+02 1.3100000000e+02 0.0000e+00 0.0000e+00
      997  1    1    2    0    0 +7.7106046714e+00 -3.1578190227e+00 +4.2865630572e+02 4.2885388383e+02 1.0000000000e+01 0.0000e+00 0.0000e+00
</event>
<event>
 5      1 +4.4770400e-06 2.09722200e+02 7.95774700e-02 4.86916200e-01
       13 -1    0    0    0    0 +0.0000000000e+00 +0.0000000000e+00 +4.9999998884e+02 5.0000000000e+02 1.0566000000e-01 0.0000e+00 1.0000e+00
      994 -1    0    0    0    0 -0.0000000000e+00 -0.0000000000e+00 +0.0000000000e+00 1.3100000000e+02 1.3100000000e+02 0.0000e+00 0.0000e+00
       13  1    1    2    0    0 -1.6125139410e+01 -3.5934515439e+00 +2.7287972437e+01 3.1899492453e+01 1.0566000000e-01 0.0000e+00 -1.0000e+00
      994  1    1    2    0    0 +2.8665019674e+01 +2.1415482085e+01 +1.0431722524e+01 1.3619885117e+02 1.3100000000e+02 0.0000e+00 0.0000e+00
      997  1    1    2    0    0 -1.2539880264e+01 -1.7822030541e+01 +4.6228029387e+02 4.6290165637e+02 1.0000000000e+01 0.0000e+00 0.0000e+00
</event>
<event>
 5      1 +4.4770400e-06 2.13371500e+02 7.95774700e-02 4.81028400e-01
       13 -1    0    0    0    0 +0.0000000000e+00 +0.0000000000e+00 +4.9999998884e+02 5.0000000000e+02 1.0566000000e-01 0.0000e+00 1.0000e+00
      994 -1    0    0    0    0 -0.0000000000e+00 -0.0000000000e+00 +0.0000000000e+00 1.3100000000e+02 1.3100000000e+02 0.0000e+00 0.0000e+00
       13  1    1    2    0    0 +6.9434839201e+00 +8.3822757572e+00 +5.9497670655e+01 6.0485192347e+01 1.0566000000e-01 0.0000e+00 -1.0000e+00
      994  1    1    2    0    0 -6.7189168040e+00 -3.9393334173e+00 +1.3622825254e+00 1.3123840141e+02 1.3100000000e+02 0.0000e+00 0.0000e+00
      997  1    1    2    0    0 -2.2456711609e-01 -4.4429423399e+00 +4.3914003566e+02 4.3927640624e+02 1.0000000000e+01 0.0000e+00 0.0000e+00
</event>
<event>
 5      1 +4.4770400e-06 2.01605300e+02 7.95774700e-02 5.00994100e-01
       13 -1    0    0    0    0 +0.0000000000e+00 +0.0000000000e+00 +4.9999998884e+02 5.0000000000e+02 1.0566000000e-01 0.0000e+00 1.0000e+00
      994 -1    0    0    0    0 -0.0000000000e+00 -0.0000000000e+00 +0.0000000000e+00 1.3100000000e+02 1.3100000000e+02 0.0000e+00 0.0000e+00
       13  1    1    2    0    0 +2.7502047075e+01 +7.2515522621e+00 +3.3283599654e+01 4.3780780869e+01 1.0566000000e-01 0.0000e+00 -1.0000e+00
      994  1    1    2    0    0 -1.9637777201e+01 -4.3789809203e+00 +1.2841248548e+01 1.3315673258e+02 1.3100000000e+02 0.0000e+00 0.0000e+00
      997  1    1    2    0    0 -7.8642698743e+00 -2.8725713418e+00 +4.5387514063e+02 4.5406248655e+02 1.0000000000e+01 0.0000e+00 0.0000e+00
</event>
<event>
 5      1 +4.4770400e-06 2.09359000e+02 7.95774700e-02 4.87516300e-01
       13 -1    0    0    0    0 +0.0000000000e+00 +0.0000000000e+00 +4.9999998884e+02 5.0000000000e+02 1.0566000000e-01 0.0000e+00 -1.0000e+00
      994 -1    0    0    0    0 -0.0000000000e+00 -0.0000000000e+00 +0.0000000000e+00 1.3100000000e+02 1.3100000000e+02 0.0000e+00 0.0000e+00
       13  1    1    2    0    0 -4.6217900979e+00 -1.1971306955e+01 +1.7518493294e+01 2.1715936665e+01 1.0566000000e-01 0.0000e+00 1.0000e+00
      994  1    1    2    0    0 +7.3016446096e+00 +9.4180749846e+00 +4.9505125852e+00 1.3163404470e+02 1.3100000000e+02 0.0000e+00 0.0000e+00
      997  1    1    2    0    0 -2.6798545118e+00 +2.5532319705e+00 +4.7753098296e+02 4.7765001863e+02 1.0000000000e+01 0.0000e+00 0.0000e+00
</event>
<event>
 5      1 +4.4770400e-06 2.10188900e+02 7.95774700e-02 4.86148800e-01
       13 -1    0    0    0    0 +0.0000000000e+00 +0.0000000000e+00 +4.9999998884e+02 5.0000000000e+02 1.0566000000e-01 0.0000e+00 1.0000e+00
      994 -1    0    0    0    0 -0.0000000000e+00 -0.0000000000e+00 +0.0000000000e+00 1.3100000000e+02 1.3100000000e+02 0.0000e+00 0.0000e+00
       13  1    1    2    0    0 +1.8408699498e+01 -2.2571209315e+01 +1.0289311468e+02 1.0693616750e+02 1.0566000000e-01 0.0000e+00 -1.0000e+00
      994  1    1    2    0    0 -8.2745750183e+00 +2.6388622585e+01 +7.4142171924e+00 1.3409250020e+02 1.3100000000e+02 0.0000e+00 0.0000e+00
      997  1    1    2    0    0 -1.0134124480e+01 -3.8174132693e+00 +3.8969265696e+02 3.8997133229e+02 1.0000000000e+01 0.0000e+00 0.0000e+00
</event>
<event>
 5      1 +4.4770400e-06 2.09375700e+02 7.95774700e-02 4.87488800e-01
       13 -1    0    0    0    0 +0.0000000000e+00 +0.0000000000e+00 +4.9999998884e+02 5.0000000000e+02 1.0566000000e-01 0.0000e+00 -1.0000e+00
      994 -1    0    0    0    0 -0.0000000000e+00 -0.0000000000e+00 +0.0000000000e+00 1.3100000000e+02 1.3100000000e+02 0.0000e+00 0.0000e+00
       13  1    1    2    0    0 +1.2961457909e+01 -1.4586100190e+01 +4.8407456568e+01 5.2192401030e+01 1.0566000000e-01 0.0000e+00 1.0000e+00
      994  1    1    2    0    0 -4.7053509375e+00 +9.8885489678e-01 +4.3394577225e+00 1.3116001317e+02 1.3100000000e+02 0.0000e+00 0.0000e+00
      997  1    1    2    0    0 -8.2561069713e+00 +1.3597245293e+01 +4.4725307455e+02 4.4764758580e+02 1.0000000000e+01 0.0000e+00 0.0000e+00
</event>
<event>
 5      1 +4.4770400e-06 2.12994200e+02 7.95774700e-02 4.81625400e-01
       13 -1    0    0    0    0 +0.0000000000e+00 +0.0000000000e+00 +4.9999998884e+02 5.0000000000e+02 1.0566000000e-01 0.0000e+00 -1.0000e+00
      994 -1    0    0    0    0 -0.0000000000e+00 -0.0000000000e+00 +0.0000000000e+00 1.3100000000e+02 1.3100000000e+02 0.0000e+00 0.0000e+00
       13  1    1    2    0    0 +5.2204654875e+00 -1.0475649984e+01 +4.9603915355e+01 5.0966185703e+01 1.0566000000e-01 0.0000e+00 1.0000e+00
      994  1    1    2    0    0 -2.5958202030e+00 +1.0924913321e+01 +1.9768999443e+00 1.3149524762e+02 1.3100000000e+02 0.0000e+00 0.0000e+00
      997  1    1    2    0    0 -2.6246452844e+00 -4.4926333698e-01 +4.4841917354e+02 4.4853856668e+02 1.0000000000e+01 0.0000e+00 0.0000e+00
</event>
<event>
 5      1 +4.4770400e-06 2.12501400e+02 7.95774700e-02 4.82409100e-01
       13 -1    0    0    0    0 +0.0000000000e+00 +0.0000000000e+00 +4.9999998884e+02 5.0000000000e+02 1.0566000000e-01 0.0000e+00 1.0000e+00
      994 -1    0    0    0    0 -0.0000000000e+00 -0.0000000000e+00 +0.0000000000e+00 1.3100000000e+02 1.3100000000e+02 0.0000e+00 0.0000e+00
       13  1    1    2    0    0 -1.1839937567e+01 +8.5739155948e-01 +4.9076200711e+01 5.0491621900e+01 1.0566000000e-01 0.0000e+00 -1.0000e+00
      994  1    1    2    0    0 -2.2590715365e+00 -9.5870817844e+00 +2.2216261906e+00 1.3138855035e+02 1.3100000000e+02 0.0000e+00 0.0000e+00
      997  1    1    2    0    0 +1.4099009103e+01 +8.7296902249e+00 +4.4870216193e+02 4.4911982775e+02 1.0000000000e+01 0.0000e+00 0.0000e+00
</event>
<event>
 5      1 +4.4770400e-06 2.07020800e+02 7.95774700e-02 4.91444700e-01
       13 -1    0    0    0    0 +0.0000000000e+00 +0.0000000000e+00 +4.9999998884e+02 5.0000000000e+02 1.0566000000e-01 0.0000e+00 -1.0000e+00
      994 -1    0    0    0    0 -0.0000000000e+00 -0.0000000000e+00 +0.0000000000e+00 1.3100000000e+02 1.3100000000e+02 0.0000e+00 0.0000e+00
       13  1    1    2    0    0 -3.0416326620e+01 +1.1626726335e+01 +9.7663211309e+01 1.0294876249e+02 1.0566000000e-01 0.0000e+00 1.0000e+00
      994  1    1    2    0    0 +5.0252017871e+00 -1.4456752116e+01 +7.3318784414e+00 1.3209468868e+02 1.3100000000e+02 0.0000e+00 0.0000e+00
      997  1    1    2    0    0 +2.5391124833e+01 +2.8300257811e+00 +3.9500489909e+02 3.9595654884e+02 1.0000000000e+01 0.0000e+00 0.0000e+00
</event>
<event>
 5      1 +4.4770400e-06 2.09458400e+02 7.95774700e-02 4.87351900e-01
       13 -1    0    0    0    0 +0.0000000000e+00 +0.0000000000e+00 +4.9999998884e+02 5.0000000000e+02 1.0566000000e-01 0.0000e+00 -1.0000e+00
      994 -1    0    0    0    0 -0.0000000000e+00 -0.0000000000e+00 +0.0000000000e+00 1.3100000000e+02 1.3100000000e+02 0.0000e+00 0.0000e+00
       13  1    1    2    0    0 -3.8942189735e+00 +1.3063470969e+01 +1.9487922814e+01 2.3782546432e+01 1.0566000000e-01 0.0000e+00 1.0000e+00
      994  1    1    2    0    0 +4.3303974174e-01 -1.8312135997e+01 +5.8450638541e+00 1.3240349927e+02 1.3100000000e+02 0.0000e+00 0.0000e+00
      997  1    1    2    0    0 +3.4611792317e+00 +5.2486650288e+00 +4.7466700217e+02 4.7481395430e+02 1.0000000000e+01 0.0000e+00 0.0000e+00
</event>
<event>
 5      1 +4.4770400e-06 2.07582200e+02 7.95774700e-02 4.90491200e-01
       13 -1    0    0    0    0 +0.0000000000e+00 +0.0000000000e+00 +4.9999998884e+02 5.0000000000e+02 1.0566000000e-01 0.0000e+00 1.0000e+00
      994 -1    0    0    0    0 -0.0000000000e+00 -0.0000000000e+00 +0.0000000000e+00 1.3100000000e+02 1.3100000000e+02 0.0000e+00 0.0000e+00
       13  1    1    2    0    0 -4.5940814687e+00 +3.7585595052e+01 +1.2866059086e+02 1.3411689433e+02 1.0566000000e-01 0.0000e+00 -1.0000e+00
      994  1    1    2    0    0 -7.8756768288e+00 -2.2133501392e+01 +8.4976474200e+00 1.3336089450e+02 1.3100000000e+02 0.0000e+00 0.0000e+00
      997  1    1    2    0    0 +1.2469758298e+01 -1.5452093660e+01 +3.6284175055e+02 3.6352221117e+02 1.0000000000e+01 0.0000e+00 0.0000e+00
</event>
<event>
 5      1 +4.4770400e-06 2.13312300e+02 7.95774700e-02 4.81121800e-01
       13 -1    0    0    0    0 +0.0000000000e+00 +0.0000000000e+00 +4.9999998884e+02 5.0000000000e+02 1.0566000000e-01 0.0000e+00 1.0000e+00
      994 -1    0    0    0    0 -0.0000000000e+00 -0.0000000000e+00 +0.0000000000e+00 1.3100000000e+02 1.3100000000e+02 0.0000e+00 0.0000e+00
       13  1    1    2    0    0 +1.5119799968e+01 -6.2944219133e+00 +9.8281357675e+01 9.9636662574e+01 1.0566000000e-01 0.0000e+00 -1.0000e+00
      994  1    1    2    0    0 -2.1609152301e+01 +7.5088614029e-02 +3.3959250823e+00 1.3281375459e+02 1.3100000000e+02 0.0000e+00 0.0000e+00
      997  1    1    2    0    0 +6.4893523331e+00 +6.2193332993e+00 +3.9832270608e+02 3.9854958283e+02 1.0000000000e+01 0.0000e+00 0.0000e+00
</event>
<event>
 5      1 +4.4770400e-06 2.11564200e+02 7.95774700e-02 4.83912300e-01
       13 -1    0    0    0    0 +0.0000000000e+00 +0.0000000000e+00 +4.9999998884e+02 5.0000000000e+02 1.0566000000e-01 0.0000e+00 1.0000e+00
      994 -1    0    0    0    0 -0.0000000000e+00 -0.0000000000e+00 +0.0000000000e+00 1.3100000000e+02 1.3100000000e+02 0.0000e+00 0.0000e+00
       13  1    1    2    0    0 -3.6175819099e+00 +1.6643790803e+01 +5.1058885521e+01 5.3824934983e+01 1.0566000000e-01 0.0000e+00 -1.0000e+00
      994  1    1    2    0    0 -6.9716727597e+01 -5.7113403969e+01 +4.6040817165e+01 1.6553887720e+02 1.3100000000e+02 0.0000e+00 0.0000e+00
      997  1    1    2    0    0 +7.3334309507e+01 +4.0469613166e+01 +4.0290028615e+02 4.1163618782e+02 1.0000000000e+01 0.0000e+00 0.0000e+00
</event>
<event>
 5      1 +4.4770400e-06 2.12080300e+02 7.95774700e-02 4.83082400e-01
       13 -1    0    0    0    0 +0.0000000000e+00 +0.0000000000e+00 +4.9999998884e+02 5.0000000000e+02 1.0566000000e-01 0.0000e+00 -1.0000e+00
      994 -1    0    0    0    0 -0.0000000000e+00 -0.0000000000e+00 +0.0000000000e+00 1.3100000000e+02 1.3100000000e+02 0.0000e+00 0.0000e+00
       13  1    1    2    0    0 -7.2944044399e+00 -1.9983871699e+01 +8.6805260196e+01 8.9374089232e+01 1.0566000000e-01 0.0000e+00 1.0000e+00
      994  1    1    2    0    0 +1.1729341910e+01 +2.2568269533e+01 +5.2740978348e+00 1.3355044125e+02 1.3100000000e+02 0.0000e+00 0.0000e+00
      997  1    1    2    0    0 -4.4349374701e+00 -2.5843978338e+00 +4.0792063081e+02 4.0807546951e+02 1.0000000000e+01 0.0000e+00 0.0000e+00
</event>
<event>
 5      1 +4.4770400e-06 2.12209000e+02 7.95774700e-02 4.82876200e-01
       13 -1    0    0    0    0 +0.0000000000e+00 +0.0000000000e+00 +4.9999998884e+02 5.0000000000e+02 1.0566000000e-01 0.0000e+00 1.0000e+00
      994 -1    0    0    0    0 -0.0000000000e+00 -0.0000000000e+00 +0.0000000000e+00 1.3100000000e+02 1.3100000000e+02 0.0000e+00 0.0000e+00
       13  1    1    2    0    0 -5.2177325737e+00 -2.4628292535e+01 +1.2679453023e+02 1.2926964681e+02 1.0566000000e-01 0.0000e+00 -1.0000e+00
      994  1    1    2    0    0 +2.5164311138e+01 +2.3033731646e+01 +7.7498679420e+00 1.3559076592e+02 1.3100000000e+02 0.0000e+00 0.0000e+00
      997  1    1    2    0    0 -1.9946578564e+01 +1.5945608887e+00 +3.6545559066e+02 3.6613958727e+02 1.0000000000e+01 0.0000e+00 0.0000e+00
</event>
<event>
 5      1 +4.4770400e-06 2.13252700e+02 7.95774700e-02 4.81216000e-01
       13 -1    0    0    0    0 +0.0000000000e+00 +0.0000000000e+00 +4.9999998884e+02 5.0000000000e+02 1.0566000000e-01 0.0000e+00 -1.0000e+00
      994 -1    0    0    0    0 -0.0000000000e+00 -0.0000000000e+00 +0.0000000000e+00 1.3100000000e+02 1.3100000000e+02 0.0000e+00 0.0000e+00
       13  1    1    2    0    0 +1.2789403499e+01 -3.9907156852e+00 +7.1394978055e+01 7.2641232843e+01 1.0566000000e-01 0.0000e+00 1.0000e+00
      994  1    1    2    0    0 -1.2904355905e+01 +7.2209352521e+00 +2.2264971428e+00 1.3185075501e+02 1.3100000000e+02 0.0000e+00 0.0000e+00
      997  1    1    2    0    0 +1.1495240537e-01 -3.2302195669e+00 +4.2637851364e+02 4.2650801215e+02 1.0000000000e+01 0.0000e+00 0.0000e+00
</event>
<event>
 5      1 +4.4770400e-06 2.01770600e+02 7.95774700e-02 5.00692800e-01
       13 -1    0    0    0    0 +0.0000000000e+00 +0.0000000000e+00 +4.9999998884e+02 5.0000000000e+02 1.0566000000e-01 0.0000e+00 -1.0000e+00
      994 -1    0    0    0    0 -0.0000000000e+00 -0.0000000000e+00 +0.0000000000e+00 1.3100000000e+02 1.3100000000e+02 0.0000e+00 0.0000e+00
       13  1    1    2    0    0 -5.6068865751e+00 -1.0611911660e+01 +2.1952942889e+00 1.2201652642e+01 1.0566000000e-01 0.0000e+00 1.0000e+00
      994  1    1    2    0    0 -1.6141190793e+00 +7.6912786173e+00 +1.0854978828e+01 1.3168368051e+02 1.3100000000e+02 0.0000e+00 0.0000e+00
      997  1    1    2    0    0 +7.2210056544e+00 +2.9206330431e+00 +4.8694971572e+02 4.8711466685e+02 1.0000000000e+01 0.0000e+00 0.0000e+00
</event>
<event>
 5      1 +4.4770400e-06 2.12653600e+02 7.95774700e-02 4.82166500e-01
       13 -1    0    0    0    0 +0.0000000000e+00 +0.0000000000e+00 +4.9999998884e+02 5.0000000000e+02 1.0566000000e-01 0.0000e+00 -1.0000e+00
      994 -1    0    0    0    0 -0.0000000000e+00 -0.0000000000e+00 +0.0000000000e+00 1.3100000000e+02 1.3100000000e+02 0.0000e+00 0.0000e+00
       13  1    1    2    0    0 -1.2431233758e+01 -3.2753301282e+00 +4.7753690416e+01 4.9453912611e+01 1.0566000000e-01 0.0000e+00 1.0000e+00
      994  1    1    2    0    0 +1.4936084998e+01 -1.8065582170e+00 +2.7366216337e+00 1.3188949687e+02 1.3100000000e+02 0.0000e+00 0.0000e+00
      997  1    1    2    0    0 -2.5048512399e+00 +5.0818883453e+00 +4.4950967679e+02 4.4965659051e+02 1.0000000000e+01 0.0000e+00 0.0000e+00
</event>
<event>
 5      1 +4.4770400e-06 2.10650900e+02 7.95774700e-02 4.85393200e-01
       13 -1    0    0    0    0 +0.0000000000e+00 +0.0000000000e+00 +4.9999998884e+02 5.0000000000e+02 1.0566000000e-01 0.0000e+00 -1.0000e+00
      994 -1    0    0    0    0 -0.0000000000e+00 -0.0000000000e+00 +0.0000000000e+00 1.3100000000e+02 1.3100000000e+02 0.0000e+00 0.0000e+00
       13  1    1    2    0    0 +1.3991034836e+01 -2.9110424788e+01 +1.1438915096e+02 1.1886149464e+02 1.0566000000e-01 0.0000e+00 1.0000e+00
      994  1    1    2    0    0 -1.4870962159e+01 +3.4566459054e+01 +1.0334903187e+01 1.3668868216e+02 1.3100000000e+02 0.0000e+00 0.0000e+00
      997  1    1    2    0    0 +8.7992732294e-01 -5.4560342656e+00 +3.7527593469e+02 3.7544982320e+02 1.0000000000e+01 0.0000e+00 0.0000e+00
</event>
<event>
 5      1 +4.4770400e-06 2.10358600e+02 7.95774700e-02 4.85870800e-01
       13 -1    0    0    0    0 +0.0000000000e+00 +0.0000000000e+00 +4.9999998884e+02 5.0000000000e+02 1.0566000000e-01 0.0000e+00 -1.0000e+00
      994 -1    0    0    0    0 -0.0000000000e+00 -0.0000000000e+00 +0.0000000000e+00 1.3100000000e+02 1.3100000000e+02 0.0000e+00 0.0000e+00
       13  1    1    2    0    0 -9.9839293341e+00 +7.7649863763e+00 +1.9807902939e+01 2.3501873143e+01 1.0566000000e-01 0.0000e+00 1.0000e+00
      994  1    1    2    0    0 +2.1300738781e+01 -8.2434283137e+00 +6.0483505169e+00 1.3311370375e+02 1.3100000000e+02 0.0000e+00 0.0000e+00
      997  1    1    2    0    0 -1.1316809447e+01 +4.7844193742e-01 +4.7414373538e+02 4.7438442310e+02 1.0000000000e+01 0.0000e+00 0.0000e+00
</event>
<event>
 5      1 +4.4770400e-06 2.08961800e+02 7.95774700e-02 4.88175800e-01
       13 -1    0    0    0    0 +0.0000000000e+00 +0.0000000000e+00 +4.9999998884e+02 5.0000000000e+02 1.0566000000e-01 0.0000e+00 -1.0000e+00
      994 -1    0    0    0    0 -0.0000000000e+00 -0.0000000000e+00 +0.0000000000e+00 1.3100000000e+02 1.3100000000e+02 0.0000e+00 0.0000e+00
       13  1    1    2    0    0 -5.2100224326e+00 +4.1021768114e+01 +1.6151027106e+02 1.6671985070e+02 1.0566000000e-01 0.0000e+00 1.0000e+00
      994  1    1    2    0    0 -8.7052454894e+00 -3.3496548557e+01 +1.0656400349e+01 1.3591305652e+02 1.3100000000e+02 0.0000e+00 0.0000e+00
      997  1    1    2    0    0 +1.3915267922e+01 -7.5252195569e+00 +3.2783331742e+02 3.2836709278e+02 1.0000000000e+01 0.0000e+00 0.0000e+00
</event>
<event>
 5      1 +4.4770400e-06 2.13522400e+02 7.95774700e-02 4.80790400e-01
       13 -1    0    0    0    0 +0.0000000000e+00 +0.0000000000e+00 +4.9999998884e+02 5.0000000000e+02 1.0566000000e-01 0.0000e+00 -1.0000e+00
      994 -1    0    0    0    0 -0.0000000000e+00 -0.0000000000e+00 +0.0000000000e+00 1.3100000000e+02 1.3100000000e+02 0.0000e+00 0.0000e+00
       13  1    1    2    0    0 +9.0927662384e+00 +7.9687750878e+00 +7.1215877474e+01 7.2234978664e+01 1.0566000000e-01 0.0000e+00 1.0000e+00
      994  1    1    2    0    0 -1.1662175248e+01 -7.7247348303e+00 +1.9024836137e+00 1.3175848096e+02 1.3100000000e+02 0.0000e+00 0.0000e+00
      997  1    1    2    0    0 +2.5694090101e+00 -2.4404025746e-01 +4.2688162775e+02 4.2700654038e+02 1.0000000000e+01 0.0000e+00 0.0000e+00
</event>
<event>
 5      1 +4.4770400e-06 2.10465100e+02 7.95774700e-02 4.85696700e-01
       13 -1    0    0    0    0 +0.0000000000e+00 +0.0000000000e+00 +4.9999998884e+02 5.0000000000e+02 1.0566000000e-01 0.0000e+00 -1.0000e+00
      994 -1    0    0    0    0 -0.0000000000e+00 -0.0000000000e+00 +0.0000000000e+00 1.3100000000e+02 1.3100000000e+02 0.0000e+00 0.0000e+00
       13  1    1    2    0    0 -1.2633906612e+01 +1.0162623898e+01 +4.3853047879e+01 4.6754630713e+01 1.0566000000e-01 0.0000e+00 1.0000e+00
      994  1    1    2    0    0 +4.0724924083e+00 +5.2719946967e+00 +3.5739512844e+00 1.3121795704e+02 1.3100000000e+02 0.0000e+00 0.0000e+00
      997  1    1    2    0    0 +8.5614142041e+00 -1.5434618595e+01 +4.5257298967e+02 4.5302741225e+02 1.0000000000e+01 0.0000e+00 0.0000e+00
</event>
<event>
 5      1 +4.4770400e-06 1.99557000e+02 7.95774700e-02 5.04781300e-01
       13 -1    0    0    0    0 +0.0000000000e+00 +0.0000000000e+00 +4.9999998884e+02 5.0000000000e+02 1.0566000000e-01 0.0000e+00 1.0000e+00
      994 -1    0    0    0    0 -0.0000000000e+00 -0.0000000000e+00 +0.0000000000e+00 1.3100000000e+02 1.3100000000e+02 0.0000e+00 0.0000e+00
       13  1    1    2    0    0 -1.0026671327e+01 -2.4983884996e+01 +2.1779522748e+01 3.4627841725e+01 1.0566000000e-01 0.0000e+00 -1.0000e+00
      994  1    1    2    0    0 +3.5108476896e+00 +3.2352646384e+01 +1.8275229589e+01 1.3621308232e+02 1.3100000000e+02 0.0000e+00 0.0000e+00
      997  1    1    2    0    0 +6.5158236375e+00 -7.3687613880e+00 +4.5994523650e+02 4.6015907595e+02 1.0000000000e+01 0.0000e+00 0.0000e+00
</event>
<event>
 5      1 +4.4770400e-06 2.09379000e+02 7.95774700e-02 4.87483200e-01
       13 -1    0    0    0    0 +0.0000000000e+00 +0.0000000000e+00 +4.9999998884e+02 5.0000000000e+02 1.0566000000e-01 0.0000e+00 1.0000e+00
      994 -1    0    0    0    0 -0.0000000000e+00 -0.0000000000e+00 +0.0000000000e+00 1.3100000000e+02 1.3100000000e+02 0.0000e+00 0.0000e+00
       13  1    1    2    0    0 +9.8240007267e+00 +8.3188276008e+00 +1.7428989223e+01 2.1667826663e+01 1.0566000000e-01 0.0000e+00 -1.0000e+00
      994  1    1    2    0    0 -2.1074373721e+01 +3.8956153920e+00 +6.5356364439e+00 1.3290229340e+02 1.3100000000e+02 0.0000e+00 0.0000e+00
      997  1    1    2    0    0 +1.1250372994e+01 -1.2214442993e+01 +4.7603536317e+02 4.7642987994e+02 1.0000000000e+01 0.0000e+00 0.0000e+00
</event>
<event>
 5      1 +4.4770400e-06 2.09307800e+02 7.95774700e-02 4.87601200e-01
       13 -1    0    0    0    0 +0.0000000000e+00 +0.0000000000e+00 +4.9999998884e+02 5.0000000000e+02 1.0566000000e-01 0.0000e+00 1.0000e+00
      994 -1    0    0    0    0 -0.0000000000e+00 -0.0000000000e+00 +0.0000000000e+00 1.3100000000e+02 1.3100000000e+02 0.0000e+00 0.0000e+00
       13  1    1    2    0    0 -6.1771767350e+00 -1.2717318878e+01 +2.0322914047e+01 2.4757215337e+01 1.0566000000e-01 0.0000e+00 -1.0000e+00
      994  1    1    2    0    0 +1.3064094518e+01 +1.4001954650e+01 +6.1256226873e+00 1.3253395245e+02 1.3100000000e+02 0.0000e+00 0.0000e+00
      997  1    1    2    0    0 -6.8869177830e+00 -1.2846357722e+00 +4.7355145210e+02 4.7370883221e+02 1.0000000000e+01 0.0000e+00 0.0000e+00
</event>
<event>
 5      1 +4.4770400e-06 1.93902800e+02 7.95774700e-02 5.15782400e-01
       13 -1    0    0    0    0 +0.0000000000e+00 +0.0000000000e+00 +4.9999998884e+02 5.0000000000e+02 1.0566000000e-01 0.0000e+00 1.0000e+00
      994 -1    0    0    0    0 -0.0000000000e+00 -0.0000000000e+00 +0.0000000000e+00 1.3100000000e+02 1.3100000000e+02 0.0000e+00 0.0000e+00
       13  1    1    2    0    0 -1.8173910585e+01 -1.5195286853e+01 +7.6867254616e+00 2.4905515069e+01 1.0566000000e-01 0.0000e+00 -1.0000e+00
      994  1    1    2    0    0 +1.7620663205e+01 +2.3656787806e+01 +2.2564431139e+01 1.3616271492e+02 1.3100000000e+02 0.0000e+00 0.0000e+00
      997  1    1    2    0    0 +5.5324738010e-01 -8.4615009524e+00 +4.6974883224e+02 4.6993177001e+02 1.0000000000e+01 0.0000e+00 0.0000e+00
</event>
<event>
 5      1 +4.4770400e-06 2.11133800e+02 7.95774700e-02 4.84608300e-01
       13 -1    0    0    0    0 +0.0000000000e+00 +0.0000000000e+00 +4.9999998884e+02 5.0000000000e+02 1.0566000000e-01 0.0000e+00 -1.0000e+00
      994 -1    0    0    0    0 -0.0000000000e+00 -0.0000000000e+00 +0.0000000000e+00 1.3100000000e+02 1.3100000000e+02 0.0000e+00 0.0000e+00
       13  1    1    2    0    0 -6.4058855957e+00 +1.8613070274e+01 +6.5052705357e+01 6.7965781049e+01 1.0566000000e-01 0.0000e+00 1.0000e+00
      994  1    1    2    0    0 +6.4498041902e+00 -1.4429659642e+01 +4.0619476660e+00 1.3201255421e+02 1.3100000000e+02 0.0000e+00 0.0000e+00
      997  1    1    2    0    0 -4.3918594434e-02 -4.1834106319e+00 +4.3088533581e+02 4.3102166474e+02 1.0000000000e+01 0.0000e+00 0.0000e+00
</event>
<event>
 5      1 +4.4770400e-06 2.13439500e+02 7.95774700e-02 4.80921000e-01
       13 -1    0    0    0    0 +0.0000000000e+00 +0.0000000000e+00 +4.9999998884e+02 5.0000000000e+02 1.0566000000e-01 0.0000e+00 -1.0000e+00
      994 -1    0    0    0    0 -0.0000000000e+00 -0.0000000000e+00 +0.0000000000e+00 1.3100000000e+02 1.3100000000e+02 0.0000e+00 0.0000e+00
       13  1    1    2    0    0 +1.3404483426e+01 -4.7595815316e+00 +7.8712528353e+01 7.9987543255e+01 1.0566000000e-01 0.0000e+00 1.0000e+00
      994  1    1    2    0    0 -1.8056963705e+01 +1.1502282146e+01 +3.2525997697e+00 1.3277776861e+02 1.3100000000e+02 0.0000e+00 0.0000e+00
      997  1    1    2    0    0 +4.6524802788e+00 -6.7427006141e+00 +4.1803486071e+02 4.1823468813e+02 1.0000000000e+01 0.0000e+00 0.0000e+00
</event>
<event>
 5      1 +4.4770400e-06 2.10335100e+02 7.95774700e-02 4.85909200e-01
       13 -1    0    0    0    0 +0.0000000000e+00 +0.0000000000e+00 +4.9999998884e+02 5.0000000000e+02 1.0566000000e-01 0.0000e+00 1.0000e+00
      994 -1    0    0    0    0 -0.0000000000e+00 -0.0000000000e+00 +0.0000000000e+00 1.3100000000e+02 1.3100000000e+02 0.0000e+00 0.0000e+00
       13  1    1    2    0    0 +1.9812268296e+01 -1.4660427682e-01 +7.0802412127e+01 7.3522378871e+01 1.0566000000e-01 0.0000e+00 -1.0000e+00
      994  1    1    2    0    0 +5.9020008837e-01 +2.5257874470e+01 +6.6547668673e+00 1.3357991796e+02 1.3100000000e+02 0.0000e+00 0.0000e+00
      997  1    1    2    0    0 -2.0402468384e+01 -2.5111270194e+01 +4.2254280984e+02 4.2389770317e+02 1.0000000000e+01 0.0000e+00 0.0000e+00
</event>
<event>
 5      1 +4.4770400e-06 2.11406600e+02 7.95774700e-02 4.84166600e-01
       13 -1    0    0    0    0 +0.0000000000e+00 +0.0000000000e+00 +4.9999998884e+02 5.0000000000e+02 1.0566000000e-01 0.0000e+00 -1.0000e+00
      994 -1    0    0    0    0 -0.0000000000e+00 -0.0000000000e+00 +0.0000000000e+00 1.3100000000e+02 1.3100000000e+02 0.0000e+00 0.0000e+00
       13  1    1    2    0    0 -9.7791386754e+00 +4.3903163430e+00 +2.1335061673e+01 2.3876818286e+01 1.0566000000e-01 0.0000e+00 1.0000e+00
      994  1    1    2    0    0 +7.7912967185e+00 -3.0700954701e+00 +2.9534426951e+00 1.3130061925e+02 1.3100000000e+02 0.0000e+00 0.0000e+00
      997  1    1    2    0    0 +1.9878419569e+00 -1.3202208729e+00 +4.7571148447e+02 4.7582256247e+02 1.0000000000e+01 0.0000e+00 0.0000e+00
</event>
<event>
 5      1 +4.4770400e-06 2.11291600e+02 7.95774700e-02 4.84352600e-01
       13 -1    0    0    0    0 +0.0000000000e+00 +0.0000000000e+00 +4.9999998884e+02 5.0000000000e+02 1.0566000000e-01 0.0000e+00 -1.0000e+00
      994 -1    0    0    0    0 -0.0000000000e+00 -0.0000000000e+00 +0.0000000000e+00 1.3100000000e+02 1.3100000000e+02 0.0000e+00 0.0000e+00
       13  1    1    2    0    0 +4.1895510007e+00 +2.0648219452e+01 +9.3475920985e+01 9.5820980334e+01 1.0566000000e-01 0.0000e+00 1.0000e+00
      994  1    1    2    0    0 +1.1999034054e-01 -7.0492171076e+00 +2.9434855737e+00 1.3122259701e+02 1.3100000000e+02 0.0000e+00 0.0000e+00
      997  1    1    2    0    0 -4.3095413413e+00 -1.3599002345e+01 +4.0358058228e+02 4.0395642265e+02 1.0000000000e+01 0.0000e+00 0.0000e+00
</event>
<event>
 5      1 +4.4770400e-06 2.08790100e+02 7.95774700e-02 4.88461800e-01
       13 -1    0    0    0    0 +0.0000000000e+00 +0.0000000000e+00 +4.9999998884e+02 5.0000000000e+02 1.0566000000e-01 0.0000e+00 1.0000e+00
      994 -1    0    0    0    0 -0.0000000000e+00 -0.0000000000e+00 +0.0000000000e+00 1.3100000000e+02 1.3100000000e+02 0.0000e+00 0.0000e+00
       13  1    1    2    0    0 -4.0472740856e-02 -3.6996509696e+01 +2.2259407440e+02 2.2564768222e+02 1.0566000000e-01 0.0000e+00 -1.0000e+00
      994  1    1    2    0    0 -2.2621647477e+00 +8.8417939318e+00 +5.1146876172e+00 1.3141710215e+02 1.3100000000e+02 0.0000e+00 0.0000e+00
      997  1    1    2    0    0 +2.3026374886e+00 +2.8154715764e+01 +2.7229122682e+02 2.7393521563e+02 1.0000000000e+01 0.0000e+00 0.0000e+00
</event>
<event>
 5      1 +4.4770400e-06 2.08824800e+02 7.95774700e-02 4.88404100e-01
       13 -1    0    0    0    0 +0.0000000000e+00 +0.0000000000e+00 +4.9999998884e+02 5.0000000000e+02 1.0566000000e-01 0.0000e+00 -1.0000e+00
      994 -1    0    0    0    0 -0.0000000000e+00 -0.0000000000e+00 +0.0000000000e+00 1.3100000000e+02 1.3100000000e+02 0.0000e+00 0.0000e+00
       13  1    1    2    0    0 -1.5476641205e+01 -3.4534322944e+01 +1.0899430279e+02 1.1537727284e+02 1.0566000000e-01 0.0000e+00 1.0000e+00
      994  1    1    2    0    0 +1.1624081599e+01 +4.2024629471e+01 +1.4427522490e+01 1.3881765796e+02 1.3100000000e+02 0.0000e+00 0.0000e+00
      997  1    1    2    0    0 +3.8525596057e+00 -7.4903065263e+00 +3.7657816356e+02 3.7680506920e+02 1.0000000000e+01 0.0000e+00 0.0000e+00
</event>
<event>
 5      1 +4.4770400e-06 2.11010200e+02 7.95774700e-02 4.84808700e-01
       13 -1    0    0    0    0 +0.0000000000e+00 +0.0000000000e+00 +4.9999998884e+02 5.0000000000e+02 1.0566000000e-01 0.0000e+00 1.0000e+00
      994 -1    0    0    0    0 -0.0000000000e+00 -0.0000000000e+00 +0.0000000000e+00 1.3100000000e+02 1.3100000000e+02 0.0000e+00 0.0000e+00
       13  1    1    2    0    0 +1.1906233205e+01 -8.2939528588e+00 +3.8782357692e+01 4.1408096737e+01 1.0566000000e-01 0.0000e+00 -1.0000e+00
      994  1    1    2    0    0 -1.3391535802e+01 -1.3673645121e+01 +4.7414110790e+00 1.3247559315e+02 1.3100000000e+02 0.0000e+00 0.0000e+00
      997  1    1    2    0    0 +1.4853025967e+00 +2.1967597980e+01 +4.5647622006e+02 4.5711631011e+02 1.0000000000e+01 0.0000e+00 0.0000e+00
</event>
<event>
 5      1 +4.4770400e-06 2.12072200e+02 7.95774700e-02 4.83095400e-01
       13 -1    0    0    0    0 +0.0000000000e+00 +0.0000000000e+00 +4.9999998884e+02 5.0000000000e+02 1.0566000000e-01 0.0000e+00 -1.0000e+00
      994 -1    0    0    0    0 -0.0000000000e+00 -0.0000000000e+00 +0.0000000000e+00 1.3100000000e+02 1.3100000000e+02 0.0000e+00 0.0000e+00
       13  1    1    2    0    0 -1.3410471782e+01 +3.8000371559e+00 +5.2703790506e+01 5.4515885149e+01 1.0566000000e-01 0.0000e+00 1.0000e+00
      994  1    1    2    0    0 +9.7160625471e-01 -5.9864048720e+00 +2.2633871935e+00 1.3115984135e+02 1.3100000000e+02 0.0000e+00 0.0000e+00
      997  1    1    2    0    0 +1.2438865527e+01 +2.1863677160e+00 +4.4503281114e+02 4.4532427350e+02 1.0000000000e+01 0.0000e+00 0.0000e+00
</event>
<event>
 5      1 +4.4770400e-06 2.09195300e+02 7.95774700e-02 4.87787700e-01
       13 -1    0    0    0    0 +0.0000000000e+00 +0.0000000000e+00 +4.9999998884e+02 5.0000000000e+02 1.0566000000e-01 0.0000e+00 1.0000e+00
      994 -1    0    0    0    0 -0.0000000000e+00 -0.0000000000e+00 +0.0000000000e+00 1.3100000000e+02 1.3100000000e+02 0.0000e+00 0.0000e+00
       13  1    1    2    0    0 +1.0351592688e+01 -1.3149145299e+01 +3.2450033287e+01 3.6511249193e+01 1.0566000000e-01 0.0000e+00 -1.0000e+00
      994  1    1    2    0    0 -4.1868089681e+00 +2.9379990577e+00 +4.4997492239e+00 1.3117701381e+02 1.3100000000e+02 0.0000e+00 0.0000e+00
      997  1    1    2    0    0 -6.1647837194e+00 +1.0211146242e+01 +4.6305020632e+02 4.6331173700e+02 1.0000000000e+01 0.0000e+00 0.0000e+00
</event>
<event>
 5      1 +4.4770400e-06 2.08958300e+02 7.95774700e-02 4.88181600e-01
       13 -1    0    0    0    0 +0.0000000000e+00 +0.0000000000e+00 +4.9999998884e+02 5.0000000000e+02 1.0566000000e-01 0.0000e+00 1.0000e+00
      994 -1    0    0    0    0 -0.0000000000e+00 -0.0000000000e+00 +0.0000000000e+00 1.3100000000e+02 1.3100000000e+02 0.0000e+00 0.0000e+00
       13  1    1    2    0    0 -1.1855714850e+01 +5.6771818363e+00 +1.8729165290e+01 2.2881896003e+01 1.0566000000e-01 0.0000e+00 -1.0000e+00
      994  1    1    2    0    0 -8.2373526378e-01 +1.7103202550e+00 +4.5770467038e+00 1.3109368059e+02 1.3100000000e+02 0.0000e+00 0.0000e+00
      997  1    1    2    0    0 +1.2679450114e+01 -7.3875020913e+00 +4.7669377684e+02 4.7702442340e+02 1.0000000000e+01 0.0000e+00 0.0000e+00
</event>
<event>
 5      1 +4.4770400e-06 2.10446500e+02 7.95774700e-02 4.85727000e-01
       13 -1    0    0    0    0 +0.0000000000e+00 +0.0000000000e+00 +4.9999998884e+02 5.0000000000e+02 1.0566000000e-01 0.0000e+00 -1.0000e+00
      994 -1    0    0    0    0 -0.0000000000e+00 -0.0000000000e+00 +0.0000000000e+00 1.3100000000e+02 1.3100000000e+02 0.0000e+00 0.0000e+00
       13  1    1    2    0    0 +1.9847442410e+01 -3.3750371674e+01 +1.5374507250e+02 1.5865234647e+02 1.0566000000e-01 0.0000e+00 1.0000e+00
      994  1    1    2    0    0 -2.5563404731e+01 +3.2339528374e+01 +1.1961470747e+01 1.3785285467e+02 1.3100000000e+02 0.0000e+00 0.0000e+00
      997  1    1    2    0    0 +5.7159623206e+00 +1.4108433006e+00 +3.3429344559e+02 3.3449479886e+02 1.0000000000e+01 0.0000e+00 0.0000e+00
</event>
<event>
 5      1 +4.4770400e-06 2.02312300e+02 7.95774700e-02 4.99710000e-01
       13 -1    0    0    0    0 +0.0000000000e+00 +0.0000000000e+00 +4.9999998884e+02 5.0000000000e+02 1.0566000000e-01 0.0000e+00 -1.0000e+00
      994 -1    0    0    0    0 -0.0000000000e+00 -0.0000000000e+00 +0.0000000000e+00 1.3100000000e+02 1.3100000000e+02 0.0000e+00 0.0000e+00
       13  1    1    2    0    0 -2.4436620913e+01 +5.8095531252e+00 +2.2943439080e+01 3.4019287324e+01 1.0566000000e-01 0.0000e+00 1.0000e+00
      994  1    1    2    0    0 +3.6773672308e+01 -1.4700425685e+01 +1.8542824946e+01 1.3810590808e+02 1.3100000000e+02 0.0000e+00 0.0000e+00
      997  1    1    2    0    0 -1.2337051395e+01 +8.8908725594e+00 +4.5851372481e+02 4.5887480459e+02 1.0000000000e+01 0.0000e+00 0.0000e+00
</event>
<event>
 5      1 +4.4770400e-06 2.12309200e+02 7.95774700e-02 4.82716000e-01
       13 -1    0    0    0    0 +0.0000000000e+00 +0.0000000000e+00 +4.9999998884e+02 5.0000000000e+02 1.0566000000e-01 0.0000e+00 1.0000e+00
      994 -1    0    0    0    0 -0.0000000000e+00 -0.0000000000e+00 +0.0000000000e+00 1.3100000000e+02 1.3100000000e+02 0.0000e+00 0.0000e+00
       13  1    1    2    0    0 -6.2612948519e+00 -1.0678786967e+01 +3.5469810898e+01 3.7568057622e+01 1.0566000000e-01 0.0000e+00 -1.0000e+00
      994  1    1    2    0    0 +1.0465973439e+01 +1.6011599233e+01 +3.6976008297e+00 1.3244085534e+02 1.3100000000e+02 0.0000e+00 0.0000e+00
      997  1    1    2    0    0 -4.2046785874e+00 -5.3328122658e+00 +4.6083257711e+02 4.6099108704e+02 1.0000000000e+01 0.0000e+00 0.0000e+00
</event>
<event>
 5      1 +4.4770400e-06 2.12507300e+02 7.95774700e-02 4.82399600e-01
       13 -1    0    0    0    0 +0.0000000000e+00 +0.0000000000e+00 +4.9999998884e+02 5.0000000000e+02 1.0566000000e-01 0.0000e+00 1.0000e+00
      994 -1    0    0    0    0 -0.0000000000e+00 -0.0000000000e+00 +0.0000000000e+00 1.3100000000e+02 1.3100000000e+02 0.0000e+00 0.0000e+00
       13  1    1    2    0    0 -1.2788525986e+01 -7.4243974456e+00 +6.7767894663e+01 6.9362574819e+01 1.0566000000e-01 0.0000e+00 -1.0000e+00
      994  1    1    2    0    0 -1.3290109872e+00 +1.8989795194e+01 +3.5221981912e+00 1.3242274907e+02 1.3100000000e+02 0.0000e+00 0.0000e+00
      997  1    1    2    0    0 +1.4117536973e+01 -1.1565397748e+01 +4.2870989598e+02 4.2921467611e+02 1.0000000000e+01 0.0000e+00 0.0000e+00
</event>
<event>
 5      1 +4.4770400e-06 2.10603500e+02 7.95774700e-02 4.85470600e-01
       13 -1    0    0    0    0 +0.0000000000e+00 +0.0000000000e+00 +4.9999998884e+02 5.0000000000e+02 1.0566000000e-01 0.0000e+00 -1.0000e+00
      994 -1    0    0    0    0 -0.0000000000e+00 -0.0000000000e+00 +0.0000000000e+00 1.3100000000e+02 1.3100000000e+02 0.0000e+00 0.0000e+00
       13  1    1    2    0    0 +7.3796877707e+00 +1.7481168621e+01 +7.0256869850e+01 7.2774239763e+01 1.0566000000e-01 0.0000e+00 1.0000e+00
      994  1    1    2    0    0 +3.6529062476e+01 -1.7852944009e+01 +1.1588620957e+01 1.3765317341e+02 1.3100000000e+02 0.0000e+00 0.0000e+00
      997  1    1    2    0    0 -4.3908750247e+01 +3.7177538844e-01 +4.1815449803e+02 4.2057258682e+02 1.0000000000e+01 0.0000e+00 0.0000e+00
</event>
<event>
 5      1 +4.4770400e-06 2.10860900e+02 7.95774700e-02 4.85051300e-01
       13 -1    0    0    0    0 +0.0000000000e+00 +0.0000000000e+00 +4.9999998884e+02 5.0000000000e+02 1.0566000000e-01 0.0000e+00 -1.0000e+00
      994 -1    0    0    0    0 -0.0000000000e+00 -0.0000000000e+00 +0.0000000000e+00 1.3100000000e+02 1.3100000000e+02 0.0000e+00 0.0000e+00
       13  1    1    2    0    0 -2.1442464640e+01 -9.4426752950e-01 +1.1804506625e+02 1.1998049742e+02 1.0566000000e-01 0.0000e+00 1.0000e+00
      994  1    1    2    0    0 -4.4150306867e+00 +2.0304070098e+01 +5.1888938818e+00 1.3273911397e+02 1.3100000000e+02 0.0000e+00 0.0000e+00
      997  1    1    2    0    0 +2.5857495326e+01 -1.9359802568e+01 +3.7676602870e+02 3.7828038861e+02 1.0000000000e+01 0.0000e+00 0.0000e+00
</event>
<event>
 5      1 +4.4770400e-06 2.12350300e+02 7.95774700e-02 4.82650200e-01
       13 -1    0    0    0    0 +0.0000000000e+00 +0.0000000000e+00 +4.9999998884e+02 5.0000000000e+02 1.0566000000e-01 0.0000e+00 -1.0000e+00
      994 -1    0    0    0    0 -0.0000000000e+00 -0.0000000000e+00 +0.0000000000e+00 1.3100000000e+02 1.3100000000e+02 0.0000e+00 0.0000e+00
       13  1    1    2    0    0 -1.0084518804e+00 +1.3547534387e+01 +5.8140886718e+01 5.9707005749e+01 1.0566000000e-01 0.0000e+00 1.0000e+00
      994  1    1    2    0    0 +6.2060479249e+00 -9.3847710759e-01 +2.0575565744e+00 1.3116641837e+02 1.3100000000e+02 0.0000e+00 0.0000e+00
      997  1    1    2    0    0 -5.1975960445e+00 -1.2609057279e+01 +4.3980154554e+02 4.4012657588e+02 1.0000000000e+01 0.0000e+00 0.0000e+00
</event>
<event>
 5      1 +4.4770400e-06 2.07920000e+02 7.95774700e-02 4.89920800e-01
       13 -1    0    0    0    0 +0.0000000000e+00 +0.0000000000e+00 +4.9999998884e+02 5.0000000000e+02 1.0566000000e-01 0.0000e+00 -1.0000e+00
      994 -1    0    0    0    0 -0.0000000000e+00 -0.0000000000e+00 +0.0000000000e+00 1.3100000000e+02 1.3100000000e+02 0.0000e+00 0.0000e+00
       13  1    1    2    0    0 -2.0716488138e+01 -2.2669729039e+01 +9.8791904633e+01 1.0345501960e+02 1.0566000000e-01 0.0000e+00 1.0000e+00
      994  1    1    2    0    0 -1.9695472816e+01 +3.6759052940e+01 +1.4379615280e+01 1.3822775755e+02 1.3100000000e+02 0.0000e+00 0.0000e+00
      997  1    1    2    0    0 +4.0411960954e+01 -1.4089323901e+01 +3.8682846892e+02 3.8931722285e+02 1.0000000000e+01 0.0000e+00 0.0000e+00
</event>
<event>
 5      1 +4.4770400e-06 2.13004300e+02 7.95774700e-02 4.81609200e-01
       13 -1    0    0    0    0 +0.0000000000e+00 +0.0000000000e+00 +4.9999998884e+02 5.0000000000e+02 1.0566000000e-01 0.0000e+00 -1.0000e+00
      994 -1    0    0    0    0 -0.0000000000e+00 -0.0000000000e+00 +0.0000000000e+00 1.3100000000e+02 1.3100000000e+02 0.0000e+00 0.0000e+00
       13  1    1    2    0    0 +1.3138124079e+01 -9.1547611917e+00 +8.9960244040e+01 9.1374376214e+01 1.0566000000e-01 0.0000e+00 1.0000e+00
      994  1    1    2    0    0 -8.5564990137e+00 +1.2349268841e+01 +2.4566207337e+00 1.3188158742e+02 1.3100000000e+02 0.0000e+00 0.0000e+00
      997  1    1    2    0    0 -4.5816250653e+00 -3.1945076498e+00 +4.0758312406e+02 4.0774403636e+02 1.0000000000e+01 0.0000e+00 0.0000e+00
</event>
<event>
 5      1 +4.4770400e-06 2.01907000e+02 7.95774700e-02 5.00444700e-01
       13 -1    0    0    0    0 +0.0000000000e+00 +0.0000000000e+00 +4.9999998884e+02 5.0000000000e+02 1.0566000000e-01 0.0000e+00 -1.0000e+00
      994 -1    0    0    0    0 -0.0000000000e+00 -0.0000000000e+00 +0.0000000000e+00 1.3100000000e+02 1.3100000000e+02 0.0000e+00 0.0000e+00
       13  1    1    2    0    0 +2.4522854456e+01 +2.7058203666e+01 +6.9244263411e+01 7.8283433469e+01 1.0566000000e-01 0.0000e+00 1.0000e+00
      994  1    1    2    0    0 -1.0772553110e+00 -1.0809863504e+01 +1.1038560199e+01 1.3191233240e+02 1.3100000000e+02 0.0000e+00 0.0000e+00
      997  1    1    2    0    0 -2.3445599145e+01 -1.6248340163e+01 +4.1971716523e+02 4.2080423413e+02 1.0000000000e+01 0.0000e+00 0.0000e+00
</event>
<event>
 5      1 +4.4770400e-06 2.12428300e+02 7.95774700e-02 4.82525700e-01
       13 -1    0    0    0    0 +0.0000000000e+00 +0.0000000000e+00 +4.9999998884e+02 5.0000000000e+02 1.0566000000e-01 0.0000e+00 -1.0000e+00
      994 -1    0    0    0    0 -0.0000000000e+00 -0.0000000000e+00 +0.0000000000e+00 1.3100000000e+02 1.3100000000e+02 0.0000e+00 0.0000e+00
       13  1    1    2    0    0 +5.9820276889e+00 -8.1528477643e+00 +3.3444427844e+01 3.4939869774e+01 1.0566000000e-01 0.0000e+00 1.0000e+00
      994  1    1    2    0    0 +1.4208349014e+00 -3.3485304219e+00 +1.8680332735e+00 1.3106380498e+02 1.3100000000e+02 0.0000e+00 0.0000e+00
      997  1    1    2    0    0 -7.4028625903e+00 +1.1501378186e+01 +4.6468752772e+02 4.6499632525e+02 1.0000000000e+01 0.0000e+00 0.0000e+00
</event>
<event>
 5      1 +4.4770400e-06 2.14068500e+02 7.95774700e-02 4.79932400e-01
       13 -1    0    0    0    0 +0.0000000000e+00 +0.0000000000e+00 +4.9999998884e+02 5.0000000000e+02 1.0566000000e-01 0.0000e+00 1.0000e+00
      994 -1    0    0    0    0 -0.0000000000e+00 -0.0000000000e+00 +0.0000000000e+00 1.3100000000e+02 1.3100000000e+02 0.0000e+00 0.0000e+00
       13  1    1    2    0    0 -9.6480221459e+00 +3.1360592077e+00 +3.3992729581e+01 3.5474441885e+01 1.0566000000e-01 0.0000e+00 -1.0000e+00
      994  1    1    2    0    0 +9.0122333156e+01 +1.9198016294e+01 +4.5232172826e+01 1.6642580395e+02 1.3100000000e+02 0.0000e+00 0.0000e+00
      997  1    1    2    0    0 -8.0474311010e+01 -2.2334075502e+01 +4.2077508643e+02 4.2909975416e+02 1.0000000000e+01 0.0000e+00 0.0000e+00
</event>
<event>
 5      1 +4.4770400e-06 2.08425000e+02 7.95774700e-02 4.89072100e-01
       13 -1    0    0    0    0 +0.0000000000e+00 +0.0000000000e+00 +4.9999998884e+02 5.0000000000e+02 1.0566000000e-01 0.0000e+00 1.0000e+00
      994 -1    0    0    0    0 -0.0000000000e+00 -0.0000000000e+00 +0.0000000000e+00 1.3100000000e+02 1.3100000000e+02 0.0000e+00 0.0000e+00
       13  1    1    2    0    0 +1.3705293242e+01 +1.7527629100e+01 +4.7391375760e+01 5.2354622577e+01 1.0566000000e-01 0.0000e+00 -1.0000e+00
      994  1    1    2    0    0 -1.5910478538e+01 -6.8063923218e+00 +6.5077617154e+00 1.3229822851e+02 1.3100000000e+02 0.0000e+00 0.0000e+00
      997  1    1    2    0    0 +2.2051852954e+00 -1.0721236778e+01 +4.4610085136e+02 4.4634714892e+02 1.0000000000e+01 0.0000e+00 0.0000e+00
</event>
<event>
 5      1 +4.4770400e-06 2.10564100e+02 7.95774700e-02 4.85535000e-01
       13 -1    0    0    0    0 +0.0000000000e+00 +0.0000000000e+00 +4.9999998884e+02 5.0000000000e+02 1.0566000000e-01 0.0000e+00 1.0000e+00
      994 -1    0    0    0    0 -0.0000000000e+00 -0.0000000000e+00 +0.0000000000e+00 1.3100000000e+02 1.3100000000e+02 0.0000e+00 0.0000e+00
       13  1    1    2    0    0 -4.4843427421e+00 -1.0272215758e+01 +1.7398006121e+01 2.0696123488e+01 1.0566000000e-01 0.0000e+00 -1.0000e+00
      994  1    1    2    0    0 +3.0447239643e+00 +1.2756130558e+01 +4.1308045225e+00 1.3171959899e+02 1.3100000000e+02 0.0000e+00 0.0000e+00
      997  1    1    2    0    0 +1.4396187778e+00 -2.4839148003e+00 +4.7847117819e+02 4.7858427753e+02 1.0000000000e+01 0.0000e+00 0.0000e+00
</event>
<event>
 5      1 +4.4770400e-06 2.06292100e+02 7.95774700e-02 4.92692300e-01
       13 -1    0    0    0    0 +0.0000000000e+00 +0.0000000000e+00 +4.9999998884e+02 5.0000000000e+02 1.0566000000e-01 0.0000e+00 1.0000e+00
      994 -1    0    0    0    0 -0.0000000000e+00 -0.0000000000e+00 +0.0000000000e+00 1.3100000000e+02 1.3100000000e+02 0.0000e+00 0.0000e+00
       13  1    1    2    0    0 -5.5043117798e+00 -1.9844574496e+01 +2.8326488718e+01 3.5021503568e+01 1.0566000000e-01 0.0000e+00 -1.0000e+00
      994  1    1    2    0    0 +8.7769443081e+00 +1.4053404435e+01 +8.1452380811e+00 1.3229466290e+02 1.3100000000e+02 0.0000e+00 0.0000e+00
      997  1    1    2    0    0 -3.2726325284e+00 +5.7911700604e+00 +4.6352826204e+02 4.6368383353e+02 1.0000000000e+01 0.0000e+00 0.0000e+00
</event>
<event>
 5      1 +4.4770400e-06 2.12771500e+02 7.95774700e-02 4.81978900e-01
       13 -1    0    0    0    0 +0.0000000000e+00 +0.0000000000e+00 +4.9999998884e+02 5.0000000000e+02 1.0566000000e-01 0.0000e+00 1.0000e+00
      994 -1    0    0    0    0 -0.0000000000e+00 -0.0000000000e+00 +0.0000000000e+00 1.3100000000e+02 1.3100000000e+02 0.0000e+00 0.0000e+00
       13  1    1    2    0    0 -3.9924552911e+00 +9.5980971455e+00 +3.3208241969e+01 3.4797437647e+01 1.0566000000e-01 0.0000e+00 -1.0000e+00
      994  1    1    2    0    0 +4.6528526216e+00 -1.2494148805e+01 +2.4049975836e+00 1.3169865909e+02 1.3100000000e+02 0.0000e+00 0.0000e+00
      997  1    1    2    0    0 -6.6039733052e-01 +2.8960516597e+00 +4.6438674928e+02 4.6450390327e+02 1.0000000000e+01 0.0000e+00 0.0000e+00
</event>
<event>
 5      1 +4.4770400e-06 2.05746900e+02 7.95774700e-02 4.93633100e-01
       13 -1    0    0    0    0 +0.0000000000e+00 +0.0000000000e+00 +4.9999998884e+02 5.0000000000e+02 1.0566000000e-01 0.0000e+00 1.0000e+00
      994 -1    0    0    0    0 -0.0000000000e+00 -0.0000000000e+00 +0.0000000000e+00 1.3100000000e+02 1.3100000000e+02 0.0000e+00 0.0000e+00
       13  1    1    2    0    0 +3.1380961112e+00 -1.9994672940e+01 +2.6620451699e+01 3.3440906175e+01 1.0566000000e-01 0.0000e+00 -1.0000e+00
      994  1    1    2    0    0 +1.2985222605e+01 +1.1009949374e+01 +8.6808940113e+00 1.3238652844e+02 1.3100000000e+02 0.0000e+00 0.0000e+00
      997  1    1    2    0    0 -1.6123318717e+01 +8.9847235655e+00 +4.6469864313e+02 4.6517256539e+02 1.0000000000e+01 0.0000e+00 0.0000e+00
</event>
<event>
 5      1 +4.4770400e-06 2.13584100e+02 7.95774700e-02 4.80693100e-01
       13 -1    0    0    0    0 +0.0000000000e+00 +0.0000000000e+00 +4.9999998884e+02 5.0000000000e+02 1.0566000000e-01 0.0000e+00 1.0000e+00
      994 -1    0    0    0    0 -0.0000000000e+00 -0.0000000000e+00 +0.0000000000e+00 1.3100000000e+02 1.3100000000e+02 0.0000e+00 0.0000e+00
       13  1    1    2    0    0 -1.7639572985e+01 -4.2171641264e+01 +6.4450047138e+01 7.9015325109e+01 1.0566000000e-01 0.0000e+00 -1.0000e+00
      994  1    1    2    0    0 +5.3510308640e+01 +1.5037770733e+02 +1.8794723578e+02 2.7921671051e+02 1.3100000000e+02 0.0000e+00 0.0000e+00
      997  1    1    2    0    0 -3.5870735655e+01 -1.0820606607e+02 +2.4760270592e+02 2.7276796438e+02 1.0000000000e+01 0.0000e+00 0.0000e+00
</event>
<event>
 5      1 +4.4770400e-06 2.12616500e+02 7.95774700e-02 4.82225600e-01
       13 -1    0    0    0    0 +0.0000000000e+00 +0.0000000000e+00 +4.9999998884e+02 5.0000000000e+02 1.0566000000e-01 0.0000e+00 1.0000e+00
      994 -1    0    0    0    0 -0.0000000000e+00 -0.0000000000e+00 +0.0000000000e+00 1.3100000000e+02 1.3100000000e+02 0.0000e+00 0.0000e+00
       13  1    1    2    0    0 -7.9843145638e+00 -1.6735986457e+01 +7.2114923403e+01 7.4460834425e+01 1.0566000000e-01 0.0000e+00 -1.0000e+00
      994  1    1    2    0    0 +4.3282927737e+01 +1.9215431842e+01 +1.2861138805e+01 1.3988943329e+02 1.3100000000e+02 0.0000e+00 0.0000e+00
      997  1    1    2    0    0 -3.5298613173e+01 -2.4794453856e+00 +4.1502392663e+02 4.1664973229e+02 1.0000000000e+01 0.0000e+00 0.0000e+00
</event>
<event>
 5      1 +4.4770400e-06 2.09881000e+02 7.95774700e-02 4.86654600e-01
       13 -1    0    0    0    0 +0.0000000000e+00 +0.0000000000e+00 +4.9999998884e+02 5.0000000000e+02 1.0566000000e-01 0.0000e+00 1.0000e+00
      994 -1    0    0    0    0 -0.0000000000e+00 -0.0000000000e+00 +0.0000000000e+00 1.3100000000e+02 1.3100000000e+02 0.0000e+00 0.0000e+00
       13  1    1    2    0    0 +8.8004293903e+00 +1.4068887867e+01 +3.3138835599e+01 3.7061769415e+01 1.0566000000e-01 0.0000e+00 -1.0000e+00
      994  1    1    2    0    0 -3.6748974978e+00 -1.6693802743e+01 +5.2832596445e+00 1.3221611382e+02 1.3100000000e+02 0.0000e+00 0.0000e+00
      997  1    1    2    0    0 -5.1255318926e+00 +2.6249148766e+00 +4.6157789359e+02 4.6172211676e+02 1.0000000000e+01 0.0000e+00 0.0000e+00
</event>
<event>
 5      1 +4.4770400e-06 1.44119500e+02 7.95774700e-02 6.70399700e-01
       13 -1    0    0    0    0 +0.0000000000e+00 +0.0000000000e+00 +4.9999998884e+02 5.0000000000e+02 1.0566000000e-01 0.0000e+00 1.0000e+00
      994 -1    0    0    0    0 -0.0000000000e+00 -0.0000000000e+00 +0.0000000000e+00 1.3100000000e+02 1.3100000000e+02 0.0000e+00 0.0000e+00
       13  1    1    2    0    0 +5.2719084080e+01 +1.3925269374e+01 +1.0628452130e+01 5.5553488748e+01 1.0566000000e-01 0.0000e+00 -1.0000e+00
      994  1    1    2    0    0 -5.1392388648e+01 -5.2902782253e+01 +9.2448739255e+01 1.7648697224e+02 1.3100000000e+02 0.0000e+00 0.0000e+00
      997  1    1    2    0    0 -1.3266954317e+00 +3.8977512878e+01 +3.9692279745e+02 3.9895953901e+02 1.0000000000e+01 0.0000e+00 0.0000e+00
</event>
<event>
 5      1 +4.4770400e-06 2.11811400e+02 7.95774700e-02 4.83514000e-01
       13 -1    0    0    0    0 +0.0000000000e+00 +0.0000000000e+00 +4.9999998884e+02 5.0000000000e+02 1.0566000000e-01 0.0000e+00 1.0000e+00
      994 -1    0    0    0    0 -0.0000000000e+00 -0.0000000000e+00 +0.0000000000e+00 1.3100000000e+02 1.3100000000e+02 0.0000e+00 0.0000e+00
       13  1    1    2    0    0 +8.3840376146e+00 -1.0774047614e+01 +3.5522256616e+01 3.8055407866e+01 1.0566000000e-01 0.0000e+00 -1.0000e+00
      994  1    1    2    0    0 -1.1271856203e+01 +1.6923155289e+01 +4.3313135481e+00 1.3263939160e+02 1.3100000000e+02 0.0000e+00 0.0000e+00
      997  1    1    2    0    0 +2.8878185882e+00 -6.1491076747e+00 +4.6014641867e+02 4.6030520053e+02 1.0000000000e+01 0.0000e+00 0.0000e+00
</event>
<event>
 5      1 +4.4770400e-06 2.12929200e+02 7.95774700e-02 4.81728400e-01
       13 -1    0    0    0    0 +0.0000000000e+00 +0.0000000000e+00 +4.9999998884e+02 5.0000000000e+02 1.0566000000e-01 0.0000e+00 1.0000e+00
      994 -1    0    0    0    0 -0.0000000000e+00 -0.0000000000e+00 +0.0000000000e+00 1.3100000000e+02 1.3100000000e+02 0.0000e+00 0.0000e+00
       13  1    1    2    0    0 -1.1207646316e+01 +3.3241562096e+00 +4.9943859033e+01 5.1293874581e+01 1.0566000000e-01 0.0000e+00 -1.0000e+00
      994  1    1    2    0    0 +7.0144011808e+00 -5.8060887551e+00 +1.8166597416e+00 1.3132864403e+02 1.3100000000e+02 0.0000e+00 0.0000e+00
      997  1    1    2    0    0 +4.1932451348e+00 +2.4819325455e+00 +4.4823947006e+02 4.4837748139e+02 1.0000000000e+01 0.0000e+00 0.0000e+00
</event>
<event>
 5      1 +4.4770400e-06 2.10015100e+02 7.95774700e-02 4.86434000e-01
       13 -1    0    0    0    0 +0.0000000000e+00 +0.0000000000e+00 +4.9999998884e+02 5.0000000000e+02 1.0566000000e-01 0.0000e+00 1.0000e+00
      994 -1    0    0    0    0 -0.0000000000e+00 -0.0000000000e+00 +0.0000000000e+00 1.3100000000e+02 1.3100000000e+02 0.0000e+00 0.0000e+00
       13  1    1    2    0    0 +1.7801590827e+01 +2.0299919184e+01 +1.6267961438e+02 1.6490497704e+02 1.0566000000e-01 0.0000e+00 -1.0000e+00
      994  1    1    2    0    0 -1.9161741985e+00 +4.6728906720e+00 +3.8390057844e+00 1.3115351919e+02 1.3100000000e+02 0.0000e+00 0.0000e+00
      997  1    1    2    0    0 -1.5885416628e+01 -2.4972809856e+01 +3.3348136867e+02 3.3494150377e+02 1.0000000000e+01 0.0000e+00 0.0000e+00
</event>
<event>
 5      1 +4.4770400e-06 2.09346900e+02 7.95774700e-02 4.87536500e-01
       13 -1    0    0    0    0 +0.0000000000e+00 +0.0000000000e+00 +4.9999998884e+02 5.0000000000e+02 1.0566000000e-01 0.0000e+00 -1.0000e+00
      994 -1    0    0    0    0 -0.0000000000e+00 -0.0000000000e+00 +0.0000000000e+00 1.3100000000e+02 1.3100000000e+02 0.0000e+00 0.0000e+00
       13  1    1    2    0    0 +1.7649124475e+01 -7.6279323397e+00 +4.5567915194e+01 4.9458295621e+01 1.0566000000e-01 0.0000e+00 1.0000e+00
      994  1    1    2    0    0 -7.0905704847e+00 -2.3495348634e+00 +4.5267541477e+00 1.3129085272e+02 1.3100000000e+02 0.0000e+00 0.0000e+00
      997  1    1    2    0    0 -1.0558553991e+01 +9.9774672031e+00 +4.4990531949e+02 4.5025085166e+02 1.0000000000e+01 0.0000e+00 0.0000e+00
</event>
<event>
 5      1 +4.4770400e-06 2.00766500e+02 7.95774700e-02 5.02532900e-01
       13 -1    0    0    0    0 +0.0000000000e+00 +0.0000000000e+00 +4.9999998884e+02 5.0000000000e+02 1.0566000000e-01 0.0000e+00 1.0000e+00
      994 -1    0    0    0    0 -0.0000000000e+00 -0.0000000000e+00 +0.0000000000e+00 1.3100000000e+02 1.3100000000e+02 0.0000e+00 0.0000e+00
       13  1    1    2    0    0 +2.8988024330e+01 -5.0183017175e+00 +7.2449723975e+00 3.0298344769e+01 1.0566000000e-01 0.0000e+00 -1.0000e+00
      994  1    1    2    0    0 +8.7090046839e+00 +2.1239519558e+01 +3.0406563269e+01 1.3642772095e+02 1.3100000000e+02 0.0000e+00 0.0000e+00
      997  1    1    2    0    0 -3.7697029014e+01 -1.6221217840e+01 +4.6234845317e+02 4.6427393428e+02 1.0000000000e+01 0.0000e+00 0.0000e+00
</event>
<event>
 5      1 +4.4770400e-06 2.08987400e+02 7.95774700e-02 4.88133300e-01
       13 -1    0    0    0    0 +0.0000000000e+00 +0.0000000000e+00 +4.9999998884e+02 5.0000000000e+02 1.0566000000e-01 0.0000e+00 -1.0000e+00
      994 -1    0    0    0    0 -0.0000000000e+00 -0.0000000000e+00 +0.0000000000e+00 1.3100000000e+02 1.3100000000e+02 0.0000e+00 0.0000e+00
       13  1    1    2    0    0 -6.7115423008e+00 -9.8344961821e+00 +1.4304406327e+01 1.8611537272e+01 1.0566000000e-01 0.0000e+00 1.0000e+00
      994  1    1    2    0    0 +5.6154434521e+00 +1.1167418362e+00 +4.7005686408e+00 1.3120928192e+02 1.3100000000e+02 0.0000e+00 0.0000e+00
      997  1    1    2    0    0 +1.0960988486e+00 +8.7177543459e+00 +4.8099501387e+02 4.8117918080e+02 1.0000000000e+01 0.0000e+00 0.0000e+00
</event>
<event>
 5      1 +4.4770400e-06 2.12580400e+02 7.95774700e-02 4.82283100e-01
       13 -1    0    0    0    0 +0.0000000000e+00 +0.0000000000e+00 +4.9999998884e+02 5.0000000000e+02 1.0566000000e-01 0.0000e+00 1.0000e+00
      994 -1    0    0    0    0 -0.0000000000e+00 -0.0000000000e+00 +0.0000000000e+00 1.3100000000e+02 1.3100000000e+02 0.0000e+00 0.0000e+00
       13  1    1    2    0    0 -1.2852222846e+00 +1.4229652177e+01 +7.9360184678e+01 8.0636126355e+01 1.0566000000e-01 0.0000e+00 -1.0000e+00
      994  1    1    2    0    0 +1.1880418074e+01 +1.3295990606e+00 +2.3846744561e+00 1.3156594863e+02 1.3100000000e+02 0.0000e+00 0.0000e+00
      997  1    1    2    0    0 -1.0595195790e+01 -1.5559251237e+01 +4.1825512970e+02 4.1879792501e+02 1.0000000000e+01 0.0000e+00 0.0000e+00
</event>
<event>
 5      1 +4.4770400e-06 2.08369000e+02 7.95774700e-02 4.89165900e-01
       13 -1    0    0    0    0 +0.0000000000e+00 +0.0000000000e+00 +4.9999998884e+02 5.0000000000e+02 1.0566000000e-01 0.0000e+00 1.0000e+00
      994 -1    0    0    0    0 -0.0000000000e+00 -0.0000000000e+00 +0.0000000000e+00 1.3100000000e+02 1.3100000000e+02 0.0000e+00 0.0000e+00
       13  1    1    2    0    0 -8.4935516025e+00 -8.1722234057e+00 +1.1281818046e+01 1.6316134244e+01 1.0566000000e-01 0.0000e+00 -1.0000e+00
      994  1    1    2    0    0 +7.1925729652e+00 +1.2637014095e+01 +6.1061671938e+00 1.3194586962e+02 1.3100000000e+02 0.0000e+00 0.0000e+00
      997  1    1    2    0    0 +1.3009786374e+00 -4.4647906898e+00 +4.8261200360e+02 4.8273799614e+02 1.0000000000e+01 0.0000e+00 0.0000e+00
</event>
<event>
 5      1 +4.4770400e-06 2.12331500e+02 7.95774700e-02 4.82680200e-01
       13 -1    0    0    0    0 +0.0000000000e+00 +0.0000000000e+00 +4.9999998884e+02 5.0000000000e+02 1.0566000000e-01 0.0000e+00 -1.0000e+00
      994 -1    0    0    0    0 -0.0000000000e+00 -0.0000000000e+00 +0.0000000000e+00 1.3100000000e+02 1.3100000000e+02 0.0000e+00 0.0000e+00
       13  1    1    2    0    0 -8.1136109505e+00 -9.2042781398e+00 +4.3988652170e+01 4.5667954875e+01 1.0566000000e-01 0.0000e+00 1.0000e+00
      994  1    1    2    0    0 -1.0827607388e+00 +5.5049086136e+00 +2.0334466822e+00 1.3113585053e+02 1.3100000000e+02 0.0000e+00 0.0000e+00
      997  1    1    2    0    0 +9.1963716894e+00 +3.6993695262e+00 +4.5397788998e+02 4.5419619459e+02 1.0000000000e+01 0.0000e+00 0.0000e+00
</event>
<event>
 5      1 +4.4770400e-06 2.03901700e+02 7.95774700e-02 4.96865100e-01
       13 -1    0    0    0    0 +0.0000000000e+00 +0.0000000000e+00 +4.9999998884e+02 5.0000000000e+02 1.0566000000e-01 0.0000e+00 1.0000e+00
      994 -1    0    0    0    0 -0.0000000000e+00 -0.0000000000e+00 +0.0000000000e+00 1.3100000000e+02 1.3100000000e+02 0.0000e+00 0.0000e+00
       13  1    1    2    0    0 -2.7753044745e+01 -4.3527550871e-01 +4.4870583717e+01 5.2761741864e+01 1.0566000000e-01 0.0000e+00 -1.0000e+00
      994  1    1    2    0    0 +6.9907019642e+00 +7.6690806090e+00 +9.2827555829e+00 1.3173782396e+02 1.3100000000e+02 0.0000e+00 0.0000e+00
      997  1    1    2    0    0 +2.0762342781e+01 -7.2338051003e+00 +4.4584664954e+02 4.4650043417e+02 1.0000000000e+01 0.0000e+00 0.0000e+00
</event>
<event>
 5      1 +4.4770400e-06 2.10698900e+02 7.95774700e-02 4.85315000e-01
       13 -1    0    0    0    0 +0.0000000000e+00 +0.0000000000e+00 +4.9999998884e+02 5.0000000000e+02 1.0566000000e-01 0.0000e+00 -1.0000e+00
      994 -1    0    0    0    0 -0.0000000000e+00 -0.0000000000e+00 +0.0000000000e+00 1.3100000000e+02 1.3100000000e+02 0.0000e+00 0.0000e+00
       13  1    1    2    0    0 -4.8977572985e+00 -1.4588203689e+01 +4.0346191303e+01 4.3181362069e+01 1.0566000000e-01 0.0000e+00 1.0000e+00
      994  1    1    2    0    0 -1.6508730996e+00 +2.9278261987e+00 +3.2232733175e+00 1.3108274882e+02 1.3100000000e+02 0.0000e+00 0.0000e+00
      997  1    1    2    0    0 +6.5486303980e+00 +1.1660377491e+01 +4.5643052422e+02 4.5673588911e+02 1.0000000000e+01 0.0000e+00 0.0000e+00
</event>
<event>
 5      1 +4.4770400e-06 2.11487100e+02 7.95774700e-02 4.84036600e-01
       13 -1    0    0    0    0 +0.0000000000e+00 +0.0000000000e+00 +4.9999998884e+02 5.0000000000e+02 1.0566000000e-01 0.0000e+00 1.0000e+00
      994 -1    0    0    0    0 -0.0000000000e+00 -0.0000000000e+00 +0.0000000000e+00 1.3100000000e+02 1.3100000000e+02 0.0000e+00 0.0000e+00
       13  1    1    2    0    0 -9.1918468020e+00 -1.5197579687e+01 +7.4303519215e+01 7.6396862551e+01 1.0566000000e-01 0.0000e+00 -1.0000e+00
      994  1    1    2    0    0 -4.8662541478e+00 +4.9839713335e+00 +2.7828532881e+00 1.3121457492e+02 1.3100000000e+02 0.0000e+00 0.0000e+00
      997  1    1    2    0    0 +1.4058100950e+01 +1.0213608353e+01 +4.2291361633e+02 4.2338856253e+02 1.0000000000e+01 0.0000e+00 0.0000e+00
</event>
<event>
 5      1 +4.4770400e-06 2.13095700e+02 7.95774700e-02 4.81464500e-01
       13 -1    0    0    0    0 +0.0000000000e+00 +0.0000000000e+00 +4.9999998884e+02 5.0000000000e+02 1.0566000000e-01 0.0000e+00 -1.0000e+00
      994 -1    0    0    0    0 -0.0000000000e+00 -0.0000000000e+00 +0.0000000000e+00 1.3100000000e+02 1.3100000000e+02 0.0000e+00 0.0000e+00
       13  1    1    2    0    0 -9.9471590515e+00 -1.9206010659e+00 +4.6177241073e+01 4.7275611459e+01 1.0566000000e-01 0.0000e+00 1.0000e+00
      994  1    1    2    0    0 +1.2419157570e+00 +5.2371579315e+00 +1.4229940141e+00 1.3111824850e+02 1.3100000000e+02 0.0000e+00 0.0000e+00
      997  1    1    2    0    0 +8.7052432945e+00 -3.3165568657e+00 +4.5239975375e+02 4.5260614004e+02 1.0000000000e+01 0.0000e+00 0.0000e+00
</event>
<event>
 5      1 +4.4770400e-06 2.06506500e+02 7.95774700e-02 4.92324100e-01
       13 -1    0    0    0    0 +0.0000000000e+00 +0.0000000000e+00 +4.9999998884e+02 5.0000000000e+02 1.0566000000e-01 0.0000e+00 1.0000e+00
      994 -1    0    0    0    0 -0.0000000000e+00 -0.0000000000e+00 +0.0000000000e+00 1.3100000000e+02 1.3100000000e+02 0.0000e+00 0.0000e+00
       13  1    1    2    0    0 +1.2144503130e+01 -1.6462490966e+01 +3.2275397447e+01 3.8212759773e+01 1.0566000000e-01 0.0000e+00 -1.0000e+00
      994  1    1    2    0    0 -1.5055393959e+01 -7.8436502924e+00 +8.0369463337e+00 1.3233963973e+02 1.3100000000e+02 0.0000e+00 0.0000e+00
      997  1    1    2    0    0 +2.9108908289e+00 +2.4306141258e+01 +4.5968764505e+02 4.6044760050e+02 1.0000000000e+01 0.0000e+00 0.0000e+00
</event>
<event>
 5      1 +4.4770400e-06 2.12133000e+02 7.95774700e-02 4.82998000e-01
       13 -1    0    0    0    0 +0.0000000000e+00 +0.0000000000e+00 +4.9999998884e+02 5.0000000000e+02 1.0566000000e-01 0.0000e+00 1.0000e+00
      994 -1    0    0    0    0 -0.0000000000e+00 -0.0000000000e+00 +0.0000000000e+00 1.3100000000e+02 1.3100000000e+02 0.0000e+00 0.0000e+00
       13  1    1    2    0    0 -1.6550224273e+01 -4.3292283306e+00 -1.2529189412e+01 2.1204808247e+01 1.0566000000e-01 0.0000e+00 -1.0000e+00
      994  1    1    2    0    0 -6.3670807337e+00 +2.4574842223e+01 +4.4500253677e+01 1.4066177578e+02 1.3100000000e+02 0.0000e+00 0.0000e+00
      997  1    1    2    0    0 +2.2917305007e+01 -2.0245613892e+01 +4.6802892457e+02 4.6913341598e+02 1.0000000000e+01 0.0000e+00 0.0000e+00
</event>
<event>
 5      1 +4.4770400e-06 2.12588400e+02 7.95774700e-02 4.82270400e-01
       13 -1    0    0    0    0 +0.0000000000e+00 +0.0000000000e+00 +4.9999998884e+02 5.0000000000e+02 1.0566000000e-01 0.0000e+00 -1.0000e+00
      994 -1    0    0    0    0 -0.0000000000e+00 -0.0000000000e+00 +0.0000000000e+00 1.3100000000e+02 1.3100000000e+02 0.0000e+00 0.0000e+00
       13  1    1    2    0    0 +1.1540623456e+01 +6.7380121956e+00 +5.2201059357e+01 5.3884585553e+01 1.0566000000e-01 0.0000e+00 1.0000e+00
      994  1    1    2    0    0 -1.0701753329e+01 -4.3522569060e+00 +2.3320341017e+00 1.3152911483e+02 1.3100000000e+02 0.0000e+00 0.0000e+00
      997  1    1    2    0    0 -8.3887012763e-01 -2.3857552896e+00 +4.4546689538e+02 4.4558629962e+02 1.0000000000e+01 0.0000e+00 0.0000e+00
</event>
<event>
 5      1 +4.4770400e-06 2.12727100e+02 7.95774700e-02 4.82049500e-01
       13 -1    0    0    0    0 +0.0000000000e+00 +0.0000000000e+00 +4.9999998884e+02 5.0000000000e+02 1.0566000000e-01 0.0000e+00 -1.0000e+00
      994 -1    0    0    0    0 -0.0000000000e+00 -0.0000000000e+00 +0.0000000000e+00 1.3100000000e+02 1.3100000000e+02 0.0000e+00 0.0000e+00
       13  1    1    2    0    0 -9.5922840039e+00 -3.4420462855e+00 +2.9563375562e+01 3.1270816006e+01 1.0566000000e-01 0.0000e+00 1.0000e+00
      994  1    1    2    0    0 +1.6716894632e+01 +5.2043709771e+00 +3.0725421995e+00 1.3220053161e+02 1.3100000000e+02 0.0000e+00 0.0000e+00
      997  1    1    2    0    0 -7.1246106280e+00 -1.7623246917e+00 +4.6736407107e+02 4.6752865238e+02 1.0000000000e+01 0.0000e+00 0.0000e+00
</event>
<event>
 5      1 +4.4770400e-06 2.13013900e+02 7.95774700e-02 4.81594000e-01
       13 -1    0    0    0    0 +0.0000000000e+00 +0.0000000000e+00 +4.9999998884e+02 5.0000000000e+02 1.0566000000e-01 0.0000e+00 1.0000e+00
      994 -1    0    0    0    0 -0.0000000000e+00 -0.0000000000e+00 +0.0000000000e+00 1.3100000000e+02 1.3100000000e+02 0.0000e+00 0.0000e+00
       13  1    1    2    0    0 +1.1329755959e+01 +6.0539029587e+00 +6.2216166678e+01 6.3528542178e+01 1.0566000000e-01 0.0000e+00 -1.0000e+00
      994  1    1    2    0    0 -1.1312384669e+01 -6.0431885707e-02 +1.9705846904e+00 1.3150230760e+02 1.3100000000e+02 0.0000e+00 0.0000e+00
      997  1    1    2    0    0 -1.7371290320e-02 -5.9934710730e+00 +4.3581323747e+02 4.3596915023e+02 1.0000000000e+01 0.0000e+00 0.0000e+00
</event>
<event>
 5      1 +4.4770400e-06 2.08300000e+02 7.95774700e-02 4.89281600e-01
       13 -1    0    0    0    0 +0.0000000000e+00 +0.0000000000e+00 +4.9999998884e+02 5.0000000000e+02 1.0566000000e-01 0.0000e+00 -1.0000e+00
      994 -1    0    0    0    0 -0.0000000000e+00 -0.0000000000e+00 +0.0000000000e+00 1.3100000000e+02 1.3100000000e+02 0.0000e+00 0.0000e+00
       13  1    1    2    0    0 +1.8776615792e+01 +1.2626265422e+01 +5.1240830000e+01 5.6014441908e+01 1.0566000000e-01 0.0000e+00 1.0000e+00
      994  1    1    2    0    0 -3.6372623425e+00 -1.1572234844e+01 +5.8361328293e+00 1.3168981260e+02 1.3100000000e+02 0.0000e+00 0.0000e+00
      997  1    1    2    0    0 -1.5139353450e+01 -1.0540305783e+00 +4.4292302601e+02 4.4329574549e+02 1.0000000000e+01 0.0000e+00 0.0000e+00
</event>
<event>
 5      1 +4.4770400e-06 2.11209300e+02 7.95774700e-02 4.84485800e-01
       13 -1    0    0    0    0 +0.0000000000e+00 +0.0000000000e+00 +4.9999998884e+02 5.0000000000e+02 1.0566000000e-01 0.0000e+00 -1.0000e+00
      994 -1    0    0    0    0 -0.0000000000e+00 -0.0000000000e+00 +0.0000000000e+00 1.3100000000e+02 1.3100000000e+02 0.0000e+00 0.0000e+00
       13  1    1    2    0    0 +3.5693734921e+00 -3.0057154589e+01 +1.0744230252e+02 1.1162451569e+02 1.0566000000e-01 0.0000e+00 1.0000e+00
      994  1    1    2    0    0 +6.3560014738e-01 +4.1095825733e+01 +1.1252829411e+01 1.3775665882e+02 1.3100000000e+02 0.0000e+00 0.0000e+00
      997  1    1    2    0    0 -4.2049736395e+00 -1.1038671144e+01 +3.8130485691e+02 3.8161882548e+02 1.0000000000e+01 0.0000e+00 0.0000e+00
</event>
<event>
 5      1 +4.4770400e-06 2.10921500e+02 7.95774700e-02 4.84952800e-01
       13 -1    0    0    0    0 +0.0000000000e+00 +0.0000000000e+00 +4.9999998884e+02 5.0000000000e+02 1.0566000000e-01 0.0000e+00 1.0000e+00
      994 -1    0    0    0    0 -0.0000000000e+00 -0.0000000000e+00 +0.0000000000e+00 1.3100000000e+02 1.3100000000e+02 0.0000e+00 0.0000e+00
       13  1    1    2    0    0 +1.1034378493e+01 -2.4359427422e+00 +2.0980581414e+01 2.3830385777e+01 1.0566000000e-01 0.0000e+00 -1.0000e+00
      994  1    1    2    0    0 -7.4429611364e+00 -7.3551336437e+00 +3.5340366661e+00 1.3146476743e+02 1.3100000000e+02 0.0000e+00 0.0000e+00
      997  1    1    2    0    0 -3.5914173569e+00 +9.7910763859e+00 +4.7548537076e+02 4.7570484679e+02 1.0000000000e+01 0.0000e+00 0.0000e+00
</event>
<event>
 5      1 +4.4770400e-06 2.13165200e+02 7.95774700e-02 4.81354500e-01
       13 -1    0    0    0    0 +0.0000000000e+00 +0.0000000000e+00 +4.9999998884e+02 5.0000000000e+02 1.0566000000e-01 0.0000e+00 1.0000e+00
      994 -1    0    0    0    0 -0.0000000000e+00 -0.0000000000e+00 +0.0000000000e+00 1.3100000000e+02 1.3100000000e+02 0.0000e+00 0.0000e+00
       13  1    1    2    0    0 +3.7459333771e+01 +7.7015170053e+01 +3.8313152635e+02 3.9258669839e+02 1.0566000000e-01 0.0000e+00 -1.0000e+00
      994  1    1    2    0    0 -5.1926147133e+01 -8.8048993021e+01 +5.8004994814e+01 1.7599582197e+02 1.3100000000e+02 0.0000e+00 0.0000e+00
      997  1    1    2    0    0 +1.4466813362e+01 +1.1033822968e+01 +5.8863467672e+01 6.2417479640e+01 1.0000000000e+01 0.0000e+00 0.0000e+00
</event>
<event>
 5      1 +4.4770400e-06 2.10277600e+02 7.95774700e-02 4.86003400e-01
       13 -1    0    0    0    0 +0.0000000000e+00 +0.0000000000e+00 +4.9999998884e+02 5.0000000000e+02 1.0566000000e-01 0.0000e+00 -1.0000e+00
      994 -1    0    0    0    0 -0.0000000000e+00 -0.0000000000e+00 +0.0000000000e+00 1.3100000000e+02 1.3100000000e+02 0.0000e+00 0.0000e+00
       13  1    1    2    0    0 +1.7916521760e+00 +1.4673238500e+01 +2.7821122420e+01 3.1504602240e+01 1.0566000000e-01 0.0000e+00 1.0000e+00
      994  1    1    2    0    0 -1.0541109034e+00 -1.8333540362e+01 +5.1880206071e+00 1.3238257215e+02 1.3100000000e+02 0.0000e+00 0.0000e+00
      997  1    1    2    0    0 -7.3754127257e-01 +3.6603018630e+00 +4.6699084581e+02 4.6711282561e+02 1.0000000000e+01 0.0000e+00 0.0000e+00
</event>
<event>
 5      1 +4.4770400e-06 2.09757100e+02 7.95774700e-02 4.86858600e-01
       13 -1    0    0    0    0 +0.0000000000e+00 +0.0000000000e+00 +4.9999998884e+02 5.0000000000e+02 1.0566000000e-01 0.0000e+00 1.0000e+00
      994 -1    0    0    0    0 -0.0000000000e+00 -0.0000000000e+00 +0.0000000000e+00 1.3100000000e+02 1.3100000000e+02 0.0000e+00 0.0000e+00
       13  1    1    2    0    0 -1.7094885994e+01 +1.0395342043e+01 +4.7428257918e+01 5.1475713462e+01 1.0566000000e-01 0.0000e+00 -1.0000e+00
      994  1    1    2    0    0 +1.3326525982e+01 -1.1244083272e+01 +5.4432984313e+00 1.3226736257e+02 1.3100000000e+02 0.0000e+00 0.0000e+00
      997  1    1    2    0    0 +3.7683600121e+00 +8.4874122898e-01 +4.4712843249e+02 4.4725692397e+02 1.0000000000e+01 0.0000e+00 0.0000e+00
</event>
<event>
 5      1 +4.4770400e-06 2.08040800e+02 7.95774700e-02 4.89717300e-01
       13 -1    0    0    0    0 +0.0000000000e+00 +0.0000000000e+00 +4.9999998884e+02 5.0000000000e+02 1.0566000000e-01 0.0000e+00 1.0000e+00
      994 -1    0    0    0    0 -0.0000000000e+00 -0.0000000000e+00 +0.0000000000e+00 1.3100000000e+02 1.3100000000e+02 0.0000e+00 0.0000e+00
       13  1    1    2    0    0 +1.1948051069e+01 +3.7286401304e+01 +1.7405593939e+02 1.7840547314e+02 1.0566000000e-01 0.0000e+00 -1.0000e+00
      994  1    1    2    0    0 -1.6446630629e+01 -1.1122244615e+01 +7.3072816009e+00 1.3269737130e+02 1.3100000000e+02 0.0000e+00 0.0000e+00
      997  1    1    2    0    0 +4.4985795603e+00 -2.6164156689e+01 +3.1863676785e+02 3.1989715556e+02 1.0000000000e+01 0.0000e+00 0.0000e+00
</event>
<event>
 5      1 +4.4770400e-06 2.10700500e+02 7.95774700e-02 4.85312500e-01
       13 -1    0    0    0    0 +0.0000000000e+00 +0.0000000000e+00 +4.9999998884e+02 5.0000000000e+02 1.0566000000e-01 0.0000e+00 -1.0000e+00
      994 -1    0    0    0    0 -0.0000000000e+00 -0.0000000000e+00 +0.0000000000e+00 1.3100000000e+02 1.3100000000e+02 0.0000e+00 0.0000e+00
       13  1    1    2    0    0 -2.1815749855e+01 +5.2331028656e+00 +6.5368332830e+01 6.9111087448e+01 1.0566000000e-01 0.0000e+00 1.0000e+00
      994  1    1    2    0    0 +2.3851781578e+01 -1.7921432621e+01 +7.6235327409e+00 1.3457044060e+02 1.3100000000e+02 0.0000e+00 0.0000e+00
      997  1    1    2    0    0 -2.0360317235e+00 +1.2688329755e+01 +4.2700812327e+02 4.2731847195e+02 1.0000000000e+01 0.0000e+00 0.0000e+00
</event>
<event>
 5      1 +4.4770400e-06 1.97417400e+02 7.95774700e-02 5.08847000e-01
       13 -1    0    0    0    0 +0.0000000000e+00 +0.0000000000e+00 +4.9999998884e+02 5.0000000000e+02 1.0566000000e-01 0.0000e+00 -1.0000e+00
      994 -1    0    0    0    0 -0.0000000000e+00 -0.0000000000e+00 +0.0000000000e+00 1.3100000000e+02 1.3100000000e+02 0.0000e+00 0.0000e+00
       13  1    1    2    0    0 -4.2738508901e+01 +3.3323375994e+01 +1.4704642829e+02 1.5671531759e+02 1.0566000000e-01 0.0000e+00 1.0000e+00
      994  1    1    2    0    0 -1.1156757800e+01 -2.2683506783e+01 +1.7902328706e+01 1.3461243664e+02 1.3100000000e+02 0.0000e+00 0.0000e+00
      997  1    1    2    0    0 +5.3895266701e+01 -1.0639869211e+01 +3.3505123184e+02 3.3967224577e+02 1.0000000000e+01 0.0000e+00 0.0000e+00
</event>
<event>
 5      1 +4.4770400e-06 2.10742500e+02 7.95774700e-02 4.85244100e-01
       13 -1    0    0    0    0 +0.0000000000e+00 +0.0000000000e+00 +4.9999998884e+02 5.0000000000e+02 1.0566000000e-01 0.0000e+00 -1.0000e+00
      994 -1    0    0    0    0 -0.0000000000e+00 -0.0000000000e+00 +0.0000000000e+00 1.3100000000e+02 1.3100000000e+02 0.0000e+00 0.0000e+00
       13  1    1    2    0    0 -2.4381391503e+01 -1.4173392096e+01 +1.1412813589e+02 1.1756096231e+02 1.0566000000e-01 0.0000e+00 1.0000e+00
      994  1    1    2    0    0 +2.1397434106e+01 +7.7104451689e+00 +5.7134071752e+00 1.3308247132e+02 1.3100000000e+02 0.0000e+00 0.0000e+00
      997  1    1    2    0    0 +2.9839573976e+00 +6.4629469269e+00 +3.8015844577e+02 3.8035656637e+02 1.0000000000e+01 0.0000e+00 0.0000e+00
</event>
<event>
 5      1 +4.4770400e-06 2.09685300e+02 7.95774700e-02 4.86977100e-01
       13 -1    0    0    0    0 +0.0000000000e+00 +0.0000000000e+00 +4.9999998884e+02 5.0000000000e+02 1.0566000000e-01 0.0000e+00 -1.0000e+00
      994 -1    0    0    0    0 -0.0000000000e+00 -0.0000000000e+00 +0.0000000000e+00 1.3100000000e+02 1.3100000000e+02 0.0000e+00 0.0000e+00
       13  1    1    2    0    0 +1.8889807816e+01 -5.3490712684e+00 +5.2153359138e+01 5.5726308294e+01 1.0566000000e-01 0.0000e+00 1.0000e+00
      994  1    1    2    0    0 +6.7718648112e-01 +2.3546693789e+01 +6.7677954555e+00 1.3327305964e+02 1.3100000000e+02 0.0000e+00 0.0000e+00
      997  1    1    2    0    0 -1.9566994297e+01 -1.8197622520e+01 +4.4107883424e+02 4.4200063207e+02 1.0000000000e+01 0.0000e+00 0.0000e+00
</event>
<event>
 5      1 +4.4770400e-06 2.08803300e+02 7.95774700e-02 4.88439900e-01
       13 -1    0    0    0    0 +0.0000000000e+00 +0.0000000000e+00 +4.9999998884e+02 5.0000000000e+02 1.0566000000e-01 0.0000e+00 -1.0000e+00
      994 -1    0    0    0    0 -0.0000000000e+00 -0.0000000000e+00 +0.0000000000e+00 1.3100000000e+02 1.3100000000e+02 0.0000e+00 0.0000e+00
       13  1    1    2    0    0 -8.1369315511e+00 -2.4767333262e+01 +9.0659251510e+01 9.4333141050e+01 1.0566000000e-01 0.0000e+00 1.0000e+00
      994  1    1    2    0    0 +7.1958972871e+00 -1.5993380621e+00 +4.9578801019e+00 1.3130087355e+02 1.3100000000e+02 0.0000e+00 0.0000e+00
      997  1    1    2    0    0 +9.4103426399e-01 +2.6366671324e+01 +4.0438285722e+02 4.0536598540e+02 1.0000000000e+01 0.0000e+00 0.0000e+00
</event>
<event>
 5      1 +4.4770400e-06 2.06500200e+02 7.95774700e-02 4.92334800e-01
       13 -1    0    0    0    0 +0.0000000000e+00 +0.0000000000e+00 +4.9999998884e+02 5.0000000000e+02 1.0566000000e-01 0.0000e+00 -1.0000e+00
      994 -1    0    0    0    0 -0.0000000000e+00 -0.0000000000e+00 +0.0000000000e+00 1.3100000000e+02 1.3100000000e+02 0.0000e+00 0.0000e+00
       13  1    1    2    0    0 -1.9768311463e+01 -7.0162589491e+00 +2.8301867571e+01 3.5228126544e+01 1.0566000000e-01 0.0000e+00 1.0000e+00
      994  1    1    2    0    0 +2.2043773178e+01 +1.1808583227e+01 +9.7892842478e+00 1.3372434580e+02 1.3100000000e+02 0.0000e+00 0.0000e+00
      997  1    1    2    0    0 -2.2754617150e+00 -4.7923242775e+00 +4.6190883702e+02 4.6204752766e+02 1.0000000000e+01 0.0000e+00 0.0000e+00
</event>
<event>
 5      1 +4.4770400e-06 2.11587800e+02 7.95774700e-02 4.83874200e-01
       13 -1    0    0    0    0 +0.0000000000e+00 +0.0000000000e+00 +4.9999998884e+02 5.0000000000e+02 1.0566000000e-01 0.0000e+00 -1.0000e+00
      994 -1    0    0    0    0 -0.0000000000e+00 -0.0000000000e+00 +0.0000000000e+00 1.3100000000e+02 1.3100000000e+02 0.0000e+00 0.0000e+00
       13  1    1    2    0    0 -6.2565189936e+00 -1.0642795325e+01 +2.8263180364e+01 3.0842043554e+01 1.0566000000e-01 0.0000e+00 1.0000e+00
      994  1    1    2    0    0 +6.3470581372e-01 +1.8164931729e+01 +4.0984411222e+00 1.3231842206e+02 1.3100000000e+02 0.0000e+00 0.0000e+00
      997  1    1    2    0    0 +5.6218131799e+00 -7.5221364049e+00 +4.6763836735e+02 4.6783953439e+02 1.0000000000e+01 0.0000e+00 0.0000e+00
</event>
<event>
 5      1 +4.4770400e-06 2.02159700e+02 7.95774700e-02 4.99986100e-01
       13 -1    0    0    0    0 +0.0000000000e+00 +0.0000000000e+00 +4.9999998884e+02 5.0000000000e+02 1.0566000000e-01 0.0000e+00 -1.0000e+00
      994 -1    0    0    0    0 -0.0000000000e+00 -0.0000000000e+00 +0.0000000000e+00 1.3100000000e+02 1.3100000000e+02 0.0000e+00 0.0000e+00
       13  1    1    2    0    0 +4.0057618809e+01 -2.7854127419e+00 +7.0814977250e+01 8.1407269428e+01 1.0566000000e-01 0.0000e+00 1.0000e+00
      994  1    1    2    0    0 -3.1326526518e+01 -1.0260351839e+01 +1.6044614505e+01 1.3603328908e+02 1.3100000000e+02 0.0000e+00 0.0000e+00
      997  1    1    2    0    0 -8.7310922912e+00 +1.3045764581e+01 +4.1314039708e+02 4.1355944149e+02 1.0000000000e+01 0.0000e+00 0.0000e+00
</event>
<event>
 5      1 +4.4770400e-06 2.13468500e+02 7.95774700e-02 4.80875300e-01
       13 -1    0    0    0    0 +0.0000000000e+00 +0.0000000000e+00 +4.9999998884e+02 5.0000000000e+02 1.0566000000e-01 0.0000e+00 -1.0000e+00
      994 -1    0    0    0    0 -0.0000000000e+00 -0.0000000000e+00 +0.0000000000e+00 1.3100000000e+02 1.3100000000e+02 0.0000e+00 0.0000e+00
       13  1    1    2    0    0 +5.3928629626e+00 -1.7021252183e+01 +9.2914694927e+01 9.4614785812e+01 1.0566000000e-01 0.0000e+00 1.0000e+00
      994  1    1    2    0    0 -8.9969633404e+00 +3.2230638109e+01 +6.4917190151e+00 1.3536211360e+02 1.3100000000e+02 0.0000e+00 0.0000e+00
      997  1    1    2    0    0 +3.6041003778e+00 -1.5209385926e+01 +4.0059357489e+02 4.0102310059e+02 1.0000000000e+01 0.0000e+00 0.0000e+00
</event>
<event>
 5      1 +4.4770400e-06 2.06452700e+02 7.95774700e-02 4.92416400e-01
       13 -1    0    0    0    0 +0.0000000000e+00 +0.0000000000e+00 +4.9999998884e+02 5.0000000000e+02 1.0566000000e-01 0.0000e+00 1.0000e+00
      994 -1    0    0    0    0 -0.0000000000e+00 -0.0000000000e+00 +0.0000000000e+00 1.3100000000e+02 1.3100000000e+02 0.0000e+00 0.0000e+00
       13  1    1    2    0    0 +2.0554515070e+01 -1.0732971283e+01 +4.0943693273e+01 4.7054032189e+01 1.0566000000e-01 0.0000e+00 -1.0000e+00
      994  1    1    2    0    0 -2.6651246198e+01 -3.1799339376e+01 +1.5594867461e+01 1.3829564997e+02 1.3100000000e+02 0.0000e+00 0.0000e+00
      997  1    1    2    0    0 +6.0967311276e+00 +4.2532310658e+01 +4.4346142810e+02 4.4565031784e+02 1.0000000000e+01 0.0000e+00 0.0000e+00
</event>
<event>
 5      1 +4.4770400e-06 2.08050400e+02 7.95774700e-02 4.89701100e-01
       13 -1    0    0    0    0 +0.0000000000e+00 +0.0000000000e+00 +4.9999998884e+02 5.0000000000e+02 1.0566000000e-01 0.0000e+00 -1.0000e+00
      994 -1    0    0    0    0 -0.0000000000e+00 -0.0000000000e+00 +0.0000000000e+00 1.3100000000e+02 1.3100000000e+02 0.0000e+00 0.0000e+00
       13  1    1    2    0    0 -1.3376502505e+01 +1.1732101776e+01 +2.6124616829e+01 3.1608223612e+01 1.0566000000e-01 0.0000e+00 1.0000e+00
      994  1    1    2    0    0 +1.1944629909e+01 -1.6215909044e+01 +7.3577330098e+00 1.3274323382e+02 1.3100000000e+02 0.0000e+00 0.0000e+00
      997  1    1    2    0    0 +1.4318725962e+00 +4.4838072676e+00 +4.6651763900e+02 4.6664854257e+02 1.0000000000e+01 0.0000e+00 0.0000e+00
</event>
<event>
 5      1 +4.4770400e-06 2.11393100e+02 7.95774700e-02 4.84188500e-01
       13 -1    0    0    0    0 +0.0000000000e+00 +0.0000000000e+00 +4.9999998884e+02 5.0000000000e+02 1.0566000000e-01 0.0000e+00 -1.0000e+00
      994 -1    0    0    0    0 -0.0000000000e+00 -0.0000000000e+00 +0.0000000000e+00 1.3100000000e+02 1.3100000000e+02 0.0000e+00 0.0000e+00
       13  1    1    2    0    0 -4.2662364351e+00 -1.8001975076e+01 +7.9065905346e+01 8.1201603630e+01 1.0566000000e-01 0.0000e+00 1.0000e+00
      994  1    1    2    0    0 -4.4811429330e+00 +2.8672234183e+00 +2.7573095329e+00 1.3113696797e+02 1.3100000000e+02 0.0000e+00 0.0000e+00
      997  1    1    2    0    0 +8.7473793681e+00 +1.5134751658e+01 +4.1817677396e+02 4.1866142840e+02 1.0000000000e+01 0.0000e+00 0.0000e+00
</event>
<event>
 5      1 +4.4770400e-06 2.04611800e+02 7.95774700e-02 4.95612400e-01
       13 -1    0    0    0    0 +0.0000000000e+00 +0.0000000000e+00 +4.9999998884e+02 5.0000000000e+02 1.0566000000e-01 0.0000e+00 -1.0000e+00
      994 -1    0    0    0    0 -0.0000000000e+00 -0.0000000000e+00 +0.0000000000e+00 1.3100000000e+02 1.3100000000e+02 0.0000e+00 0.0000e+00
       13  1    1    2    0    0 +1.6562090566e+01 -3.4737093567e+01 +1.0957903205e+02 1.1614019090e+02 1.0566000000e-01 0.0000e+00 1.0000e+00
      994  1    1    2    0    0 -1.1762417274e+01 +3.1002180231e+00 +8.8951607250e+00 1.3186390596e+02 1.3100000000e+02 0.0000e+00 0.0000e+00
      997  1    1    2    0    0 -4.7996732920e+00 +3.1636875544e+01 +3.8152579606e+02 3.8299590314e+02 1.0000000000e+01 0.0000e+00 0.0000e+00
</event>
<event>
 5      1 +4.4770400e-06 2.13345200e+02 7.95774700e-02 4.81069900e-01
       13 -1    0    0    0    0 +0.0000000000e+00 +0.0000000000e+00 +4.9999998884e+02 5.0000000000e+02 1.0566000000e-01 0.0000e+00 1.0000e+00
      994 -1    0    0    0    0 -0.0000000000e+00 -0.0000000000e+00 +0.0000000000e+00 1.3100000000e+02 1.3100000000e+02 0.0000e+00 0.0000e+00
       13  1    1    2    0    0 -1.1481085341e+01 +1.2639632656e+00 +6.5735632202e+01 6.6742770610e+01 1.0566000000e-01 0.0000e+00 -1.0000e+00
      994  1    1    2    0    0 +7.9329162147e+00 +2.2976117197e+00 +1.4195756348e+00 1.3126776213e+02 1.3100000000e+02 0.0000e+00 0.0000e+00
      997  1    1    2    0    0 +3.5481691263e+00 -3.5615749854e+00 +4.3284478100e+02 4.3298946726e+02 1.0000000000e+01 0.0000e+00 0.0000e+00
</event>
<event>
 5      1 +4.4770400e-06 2.11693700e+02 7.95774700e-02 4.83703500e-01
       13 -1    0    0    0    0 +0.0000000000e+00 +0.0000000000e+00 +4.9999998884e+02 5.0000000000e+02 1.0566000000e-01 0.0000e+00 1.0000e+00
      994 -1    0    0    0    0 -0.0000000000e+00 -0.0000000000e+00 +0.0000000000e+00 1.3100000000e+02 1.3100000000e+02 0.0000e+00 0.0000e+00
       13  1    1    2    0    0 +1.1119560134e+01 -1.3867219373e+01 +7.1497263735e+01 7.3673701389e+01 1.0566000000e-01 0.0000e+00 -1.0000e+00
      994  1    1    2    0    0 -6.1766811416e+00 +4.7239171917e+00 +2.6785456750e+00 1.3125791934e+02 1.3100000000e+02 0.0000e+00 0.0000e+00
      997  1    1    2    0    0 -4.9428789923e+00 +9.1433021817e+00 +4.2582417943e+02 4.2606837927e+02 1.0000000000e+01 0.0000e+00 0.0000e+00
</event>
<event>
 5      1 +4.4770400e-06 2.11403600e+02 7.95774700e-02 4.84171400e-01
       13 -1    0    0    0    0 +0.0000000000e+00 +0.0000000000e+00 +4.9999998884e+02 5.0000000000e+02 1.0566000000e-01 0.0000e+00 1.0000e+00
      994 -1    0    0    0    0 -0.0000000000e+00 -0.0000000000e+00 +0.0000000000e+00 1.3100000000e+02 1.3100000000e+02 0.0000e+00 0.0000e+00
       13  1    1    2    0    0 -1.9197179256e+01 +7.7527494978e-01 +5.5746501425e+01 5.8964534491e+01 1.0566000000e-01 0.0000e+00 -1.0000e+00
      994  1    1    2    0    0 +2.8620939391e+01 -3.3798444624e+00 +6.7436060927e+00 1.3430211370e+02 1.3100000000e+02 0.0000e+00 0.0000e+00
      997  1    1    2    0    0 -9.4237601349e+00 +2.6045695126e+00 +4.3750988132e+02 4.3773335181e+02 1.0000000000e+01 0.0000e+00 0.0000e+00
</event>
<event>
 5      1 +4.4770400e-06 2.12235900e+02 7.95774700e-02 4.82833200e-01
       13 -1    0    0    0    0 +0.0000000000e+00 +0.0000000000e+00 +4.9999998884e+02 5.0000000000e+02 1.0566000000e-01 0.0000e+00 -1.0000e+00
      994 -1    0    0    0    0 -0.0000000000e+00 -0.0000000000e+00 +0.0000000000e+00 1.3100000000e+02 1.3100000000e+02 0.0000e+00 0.0000e+00
       13  1    1    2    0    0 +1.0954440629e+01 -1.6521655364e+01 +1.0247683451e+02 1.0437661444e+02 1.0566000000e-01 0.0000e+00 1.0000e+00
      994  1    1    2    0    0 +5.1572576797e+00 +1.9873418468e+01 +4.0311494514e+00 1.3266046975e+02 1.3100000000e+02 0.0000e+00 0.0000e+00
      997  1    1    2    0    0 -1.6111698308e+01 -3.3517631034e+00 +3.9349200487e+02 3.9396291581e+02 1.0000000000e+01 0.0000e+00 0.0000e+00
</event>
<event>
 5      1 +4.4770400e-06 2.11300100e+02 7.95774700e-02 4.84338800e-01
       13 -1    0    0    0    0 +0.0000000000e+00 +0.0000000000e+00 +4.9999998884e+02 5.0000000000e+02 1.0566000000e-01 0.0000e+00 1.0000e+00
      994 -1    0    0    0    0 -0.0000000000e+00 -0.0000000000e+00 +0.0000000000e+00 1.3100000000e+02 1.3100000000e+02 0.0000e+00 0.0000e+00
       13  1    1    2    0    0 +7.6240690654e+00 +1.0726164375e+01 +3.3957289049e+01 3.6418205268e+01 1.0566000000e-01 0.0000e+00 -1.0000e+00
      994  1    1    2    0    0 -2.7475512165e-01 -3.8292941828e+00 +2.7637937325e+00 1.3108538263e+02 1.3100000000e+02 0.0000e+00 0.0000e+00
      997  1    1    2    0    0 -7.3493139437e+00 -6.8968701922e+00 +4.6327890605e+02 4.6349641210e+02 1.0000000000e+01 0.0000e+00 0.0000e+00
</event>
<event>
 5      1 +4.4770400e-06 2.08707700e+02 7.95774700e-02 4.88599300e-01
       13 -1    0    0    0    0 +0.0000000000e+00 +0.0000000000e+00 +4.9999998884e+02 5.0000000000e+02 1.0566000000e-01 0.0000e+00 -1.0000e+00
      994 -1    0    0    0    0 -0.0000000000e+00 -0.0000000000e+00 +0.0000000000e+00 1.3100000000e+02 1.3100000000e+02 0.0000e+00 0.0000e+00
       13  1    1    2    0    0 -1.6155493147e+01 +9.3050976799e+00 +2.9404176621e+01 3.4816685202e+01 1.0566000000e-01 0.0000e+00 1.0000e+00
      994  1    1    2    0    0 +2.0701732698e+01 -2.6136380194e+01 +1.0429402972e+01 1.3557818612e+02 1.3100000000e+02 0.0000e+00 0.0000e+00
      997  1    1    2    0    0 -4.5462395510e+00 +1.6831282514e+01 +4.6016640924e+02 4.6060512867e+02 1.0000000000e+01 0.0000e+00 0.0000e+00
</event>
<event>
 5      1 +4.4770400e-06 2.09073800e+02 7.95774700e-02 4.87989600e-01
       13 -1    0    0    0    0 +0.0000000000e+00 +0.0000000000e+00 +4.9999998884e+02 5.0000000000e+02 1.0566000000e-01 0.0000e+00 -1.0000e+00
      994 -1    0    0    0    0 -0.0000000000e+00 -0.0000000000e+00 +0.0000000000e+00 1.3100000000e+02 1.3100000000e+02 0.0000e+00 0.0000e+00
       13  1    1    2    0    0 +6.4126036708e+00 +3.0790030741e+01 +1.7043729184e+02 1.7331482653e+02 1.0566000000e-01 0.0000e+00 1.0000e+00
      994  1    1    2    0    0 -7.0315281232e+00 -4.8556375076e-01 +4.7160076039e+00 1.3127421258e+02 1.3100000000e+02 0.0000e+00 0.0000e+00
      997  1    1    2    0    0 +6.1892445234e-01 -3.0304466990e+01 +3.2484668939e+02 3.2641096090e+02 1.0000000000e+01 0.0000e+00 0.0000e+00
</event>
<event>
 5      1 +4.4770400e-06 2.09690400e+02 7.95774700e-02 4.86968600e-01
       13 -1    0    0    0    0 +0.0000000000e+00 +0.0000000000e+00 +4.9999998884e+02 5.0000000000e+02 1.0566000000e-01 0.0000e+00 1.0000e+00
      994 -1    0    0    0    0 -0.0000000000e+00 -0.0000000000e+00 +0.0000000000e+00 1.3100000000e+02 1.3100000000e+02 0.0000e+00 0.0000e+00
       13  1    1    2    0    0 -4.3121322275e+00 -1.1429989153e+01 +1.7814538413e+01 2.1601112918e+01 1.0566000000e-01 0.0000e+00 -1.0000e+00
      994  1    1    2    0    0 +2.3995103151e+00 +4.7991566014e+00 +4.1153455157e+00 1.3117440918e+02 1.3100000000e+02 0.0000e+00 0.0000e+00
      997  1    1    2    0    0 +1.9126219124e+00 +6.6308325519e+00 +4.7807010491e+02 4.7822447791e+02 1.0000000000e+01 0.0000e+00 0.0000e+00
</event>
<event>
 5      1 +4.4770400e-06 2.09722100e+02 7.95774700e-02 4.86916400e-01
       13 -1    0    0    0    0 +0.0000000000e+00 +0.0000000000e+00 +4.9999998884e+02 5.0000000000e+02 1.0566000000e-01 0.0000e+00 -1.0000e+00
      994 -1    0    0    0    0 -0.0000000000e+00 -0.0000000000e+00 +0.0000000000e+00 1.3100000000e+02 1.3100000000e+02 0.0000e+00 0.0000e+00
       13  1    1    2    0    0 +2.0429811549e+01 +2.5152078263e+00 +5.1414946734e+01 5.5382410403e+01 1.0566000000e-01 0.0000e+00 1.0000e+00
      994  1    1    2    0    0 -1.6072229022e+01 +7.4095422303e+00 +5.5180223938e+00 1.3230520184e+02 1.3100000000e+02 0.0000e+00 0.0000e+00
      997  1    1    2    0    0 -4.3575825268e+00 -9.9247500566e+00 +4.4306701971e+02 4.4331238776e+02 1.0000000000e+01 0.0000e+00 0.0000e+00
</event>
<event>
 5      1 +4.4770400e-06 2.12047500e+02 7.95774700e-02 4.83135000e-01
       13 -1    0    0    0    0 +0.0000000000e+00 +0.0000000000e+00 +4.9999998884e+02 5.0000000000e+02 1.0566000000e-01 0.0000e+00 1.0000e+00
      994 -1    0    0    0    0 -0.0000000000e+00 -0.0000000000e+00 +0.0000000000e+00 1.3100000000e+02 1.3100000000e+02 0.0000e+00 0.0000e+00
       13  1    1    2    0    0 -1.3526319957e+01 -2.9189003569e+00 +4.5720780484e+01 4.7769051100e+01 1.0566000000e-01 0.0000e+00 -1.0000e+00
      994  1    1    2    0    0 +9.9435926323e+00 -5.4110706339e-01 +2.5898775971e+00 1.3140348282e+02 1.3100000000e+02 0.0000e+00 0.0000e+00
      997  1    1    2    0    0 +3.5827273251e+00 +3.4600074203e+00 +4.5168933075e+02 4.5182746608e+02 1.0000000000e+01 0.0000e+00 0.0000e+00
</event>
<event>
 5      1 +4.4770400e-06 2.11557000e+02 7.95774700e-02 4.83923800e-01
       13 -1    0    0    0    0 +0.0000000000e+00 +0.0000000000e+00 +4.9999998884e+02 5.0000000000e+02 1.0566000000e-01 0.0000e+00 -1.0000e+00
      994 -1    0    0    0    0 -0.0000000000e+00 -0.0000000000e+00 +0.0000000000e+00 1.3100000000e+02 1.3100000000e+02 0.0000e+00 0.0000e+00
       13  1    1    2    0    0 -9.3523903936e+00 +6.1415732290e+00 +2.4908850037e+01 2.7306557857e+01 1.0566000000e-01 0.0000e+00 1.0000e+00
      994  1    1    2    0    0 +1.0862943782e+01 +3.0116897066e+00 +3.1158001650e+00 1.3152103266e+02 1.3100000000e+02 0.0000e+00 0.0000e+00
      997  1    1    2    0    0 -1.5105533887e+00 -9.1532629356e+00 +4.7197533863e+02 4.7217240948e+02 1.0000000000e+01 0.0000e+00 0.0000e+00
</event>
<event>
 5      1 +4.4770400e-06 2.13979500e+02 7.95774700e-02 4.80071900e-01
       13 -1    0    0    0    0 +0.0000000000e+00 +0.0000000000e+00 +4.9999998884e+02 5.0000000000e+02 1.0566000000e-01 0.0000e+00 1.0000e+00
      994 -1    0    0    0    0 -0.0000000000e+00 -0.0000000000e+00 +0.0000000000e+00 1.3100000000e+02 1.3100000000e+02 0.0000e+00 0.0000e+00
       13  1    1    2    0    0 +6.0691994065e+00 +1.0466165931e+01 +5.8474181871e+01 5.9712786907e+01 1.0566000000e-01 0.0000e+00 -1.0000e+00
      994  1    1    2    0    0 -1.9895554373e+01 -3.6413101154e+01 +9.0653998522e+00 1.3771321104e+02 1.3100000000e+02 0.0000e+00 0.0000e+00
      997  1    1    2    0    0 +1.3826354966e+01 +2.5946935223e+01 +4.3246040711e+02 4.3357400206e+02 1.0000000000e+01 0.0000e+00 0.0000e+00
</event>
<event>
 5      1 +4.4770400e-06 2.10932900e+02 7.95774700e-02 4.84934200e-01
       13 -1    0    0    0    0 +0.0000000000e+00 +0.0000000000e+00 +4.9999998884e+02 5.0000000000e+02 1.0566000000e-01 0.0000e+00 -1.0000e+00
      994 -1    0    0    0    0 -0.0000000000e+00 -0.0000000000e+00 +0.0000000000e+00 1.3100000000e+02 1.3100000000e+02 0.0000e+00 0.0000e+00
       13  1    1    2    0    0 -1.6298458119e+01 +4.2628474045e+00 +5.0842411608e+01 5.3560933405e+01 1.0566000000e-01 0.0000e+00 1.0000e+00
      994  1    1    2    0    0 +4.0711009615e+00 -5.9824609453e+00 +3.2412469331e+00 1.3123974011e+02 1.3100000000e+02 0.0000e+00 0.0000e+00
      997  1    1    2    0    0 +1.2227357157e+01 +1.7196135408e+00 +4.4591633029e+02 4.4619932649e+02 1.0000000000e+01 0.0000e+00 0.0000e+00
</event>
<event>
 5      1 +4.4770400e-06 2.12153800e+02 7.95774700e-02 4.82964500e-01
       13 -1    0    0    0    0 +0.0000000000e+00 +0.0000000000e+00 +4.9999998884e+02 5.0000000000e+02 1.0566000000e-01 0.0000e+00 -1.0000e+00
      994 -1    0    0    0    0 -0.0000000000e+00 -0.0000000000e+00 +0.0000000000e+00 1.3100000000e+02 1.3100000000e+02 0.0000e+00 0.0000e+00
       13  1    1    2    0    0 -1.2942009851e+01 -5.6621742055e+00 +5.6777544504e+01 5.8508602441e+01 1.0566000000e-01 0.0000e+00 1.0000e+00
      994  1    1    2    0    0 +6.0430842480e-01 +4.0328671620e+00 +2.1001240536e+00 1.3108027970e+02 1.3100000000e+02 0.0000e+00 0.0000e+00
      997  1    1    2    0    0 +1.2337701426e+01 +1.6293070435e+00 +4.4112232028e+02 4.4141111785e+02 1.0000000000e+01 0.0000e+00 0.0000e+00
</event>
<event>
 5      1 +4.4770400e-06 2.12608900e+02 7.95774700e-02 4.82237700e-01
       13 -1    0    0    0    0 +0.0000000000e+00 +0.0000000000e+00 +4.9999998884e+02 5.0000000000e+02 1.0566000000e-01 0.0000e+00 -1.0000e+00
      994 -1    0    0    0    0 -0.0000000000e+00 -0.0000000000e+00 +0.0000000000e+00 1.3100000000e+02 1.3100000000e+02 0.0000e+00 0.0000e+00
       13  1    1    2    0    0 +2.1539532393e+00 +1.1763928733e+01 +3.9227185124e+01 4.1009910395e+01 1.0566000000e-01 0.0000e+00 1.0000e+00
      994  1    1    2    0    0 +1.1102026743e+01 -1.8836836168e+01 +4.0119441683e+00 1.3287278536e+02 1.3100000000e+02 0.0000e+00 0.0000e+00
      997  1    1    2    0    0 -1.3255979982e+01 +7.0729074344e+00 +4.5676085954e+02 4.5711730424e+02 1.0000000000e+01 0.0000e+00 0.0000e+00
</event>
<event>
 5      1 +4.4770400e-06 2.06583800e+02 7.95774700e-02 4.92191500e-01
       13 -1    0    0    0    0 +0.0000000000e+00 +0.0000000000e+00 +4.9999998884e+02 5.0000000000e+02 1.0566000000e-01 0.0000e+00 -1.0000e+00
      994 -1    0    0    0    0 -0.0000000000e+00 -0.0000000000e+00 +0.0000000000e+00 1.3100000000e+02 1.3100000000e+02 0.0000e+00 0.0000e+00
       13  1    1    2    0    0 -6.5618272924e+01 -1.1654934861e+01 +2.8573447646e+02 2.9340381294e+02 1.0566000000e-01 0.0000e+00 1.0000e+00
      994  1    1    2    0    0 +4.6745480246e+01 +1.0601974383e+01 +1.8556937990e+01 1.4072278327e+02 1.3100000000e+02 0.0000e+00 0.0000e+00
      997  1    1    2    0    0 +1.8872792678e+01 +1.0529604785e+00 +1.9570857439e+02 1.9687340379e+02 1.0000000000e+01 0.0000e+00 0.0000e+00
</event>
<event>
 5      1 +4.4770400e-06 2.08291500e+02 7.95774700e-02 4.89296000e-01
       13 -1    0    0    0    0 +0.0000000000e+00 +0.0000000000e+00 +4.9999998884e+02 5.0000000000e+02 1.0566000000e-01 0.0000e+00 1.0000e+00
      994 -1    0    0    0    0 -0.0000000000e+00 -0.0000000000e+00 +0.0000000000e+00 1.3100000000e+02 1.3100000000e+02 0.0000e+00 0.0000e+00
       13  1    1    2    0    0 -3.2242912415e-01 +2.4515892990e+01 +5.6463398928e+01 6.1556961850e+01 1.0566000000e-01 0.0000e+00 -1.0000e+00
      994  1    1    2    0    0 +8.2578258476e+00 -1.6435168436e+01 +6.8152014960e+00 1.3246038434e+02 1.3100000000e+02 0.0000e+00 0.0000e+00
      997  1    1    2    0    0 -7.9353967235e+00 -8.0807245540e+00 +4.3672138841e+02 4.3698265381e+02 1.0000000000e+01 0.0000e+00 0.0000e+00
</event>
<event>
 5      1 +4.4770400e-06 2.12113900e+02 7.95774700e-02 4.83028400e-01
       13 -1    0    0    0    0 +0.0000000000e+00 +0.0000000000e+00 +4.9999998884e+02 5.0000000000e+02 1.0566000000e-01 0.0000e+00 1.0000e+00
      994 -1    0    0    0    0 -0.0000000000e+00 -0.0000000000e+00 +0.0000000000e+00 1.3100000000e+02 1.3100000000e+02 0.0000e+00 0.0000e+00
       13  1    1    2    0    0 +1.0216336759e+01 +1.2216359435e+01 +6.2273680354e+01 6.4277798683e+01 1.0566000000e-01 0.0000e+00 -1.0000e+00
      994  1    1    2    0    0 -2.5811831742e+00 -1.1939751390e+01 +2.7838891847e+00 1.3159775913e+02 1.3100000000e+02 0.0000e+00 0.0000e+00
      997  1    1    2    0    0 -7.6351535843e+00 -2.7660804504e-01 +4.3494241930e+02 4.3512444218e+02 1.0000000000e+01 0.0000e+00 0.0000e+00
</event>
<event>
 5      1 +4.4770400e-06 2.11606400e+02 7.95774700e-02 4.83844200e-01
       13 -1    0    0    0    0 +0.0000000000e+00 +0.0000000000e+00 +4.9999998884e+02 5.0000000000e+02 1.0566000000e-01 0.0000e+00 1.0000e+00
      994 -1    0    0    0    0 -0.0000000000e+00 -0.0000000000e+00 +0.0000000000e+00 1.3100000000e+02 1.3100000000e+02 0.0000e+00 0.0000e+00
       13  1    1    2    0    0 -5.8164643774e+01 -7.9745863425e+00 +2.2974280382e+02 2.3712546655e+02 1.0566000000e-01 0.0000e+00 -1.0000e+00
      994  1    1    2    0    0 +7.1199303732e+01 +7.3926994968e+00 +2.9017844015e+01 1.5207573156e+02 1.3100000000e+02 0.0000e+00 0.0000e+00
      997  1    1    2    0    0 -1.3034659959e+01 +5.8188684574e-01 +2.4123934100e+02 2.4179880189e+02 1.0000000000e+01 0.0000e+00 0.0000e+00
</event>
<event>
 5      1 +4.4770400e-06 2.13344200e+02 7.95774700e-02 4.81071400e-01
       13 -1    0    0    0    0 +0.0000000000e+00 +0.0000000000e+00 +4.9999998884e+02 5.0000000000e+02 1.0566000000e-01 0.0000e+00 -1.0000e+00
      994 -1    0    0    0    0 -0.0000000000e+00 -0.0000000000e+00 +0.0000000000e+00 1.3100000000e+02 1.3100000000e+02 0.0000e+00 0.0000e+00
       13  1    1    2    0    0 -5.6566904208e+00 -8.3889123123e+00 +4.9974027567e+01 5.0988102452e+01 1.0566000000e-01 0.0000e+00 1.0000e+00
      994  1    1    2    0    0 +1.2393192893e+01 +8.4227929270e-01 +1.8402131421e+00 1.3160048271e+02 1.3100000000e+02 0.0000e+00 0.0000e+00
      997  1    1    2    0    0 -6.7365024721e+00 +7.5466330196e+00 +4.4818574813e+02 4.4841141484e+02 1.0000000000e+01 0.0000e+00 0.0000e+00
</event>
<event>
 5      1 +4.4770400e-06 2.12504200e+02 7.95774700e-02 4.82404500e-01
       13 -1    0    0    0    0 +0.0000000000e+00 +0.0000000000e+00 +4.9999998884e+02 5.0000000000e+02 1.0566000000e-01 0.0000e+00 -1.0000e+00
      994 -1    0    0    0    0 -0.0000000000e+00 -0.0000000000e+00 +0.0000000000e+00 1.3100000000e+02 1.3100000000e+02 0.0000e+00 0.0000e+00
       13  1    1    2    0    0 -1.1690128685e+01 -3.0715391837e+00 +4.5543724824e+01 4.7120436081e+01 1.0566000000e-01 0.0000e+00 1.0000e+00
      994  1    1    2    0    0 +3.3839593660e+00 +4.7118705559e+00 +1.9086183601e+00 1.3114227285e+02 1.3100000000e+02 0.0000e+00 0.0000e+00
      997  1    1    2    0    0 +8.3061693193e+00 -1.6403313722e+00 +4.5254764565e+02 4.5273729107e+02 1.0000000000e+01 0.0000e+00 0.0000e+00
</event>
<event>
 5      1 +4.4770400e-06 2.11318700e+02 7.95774700e-02 4.84308800e-01
       13 -1    0    0    0    0 +0.0000000000e+00 +0.0000000000e+00 +4.9999998884e+02 5.0000000000e+02 1.0566000000e-01 0.0000e+00 -1.0000e+00
      994 -1    0    0    0    0 -0.0000000000e+00 -0.0000000000e+00 +0.0000000000e+00 1.3100000000e+02 1.3100000000e+02 0.0000e+00 0.0000e+00
       13  1    1    2    0    0 -6.1738152427e+00 -1.0570505159e+01 +2.6955480417e+01 2.9605078323e+01 1.0566000000e-01 0.0000e+00 1.0000e+00
      994  1    1    2    0    0 +8.2582146964e+00 +7.2226353504e+00 +3.2718733652e+00 1.3149931455e+02 1.3100000000e+02 0.0000e+00 0.0000e+00
      997  1    1    2    0    0 -2.0843994537e+00 +3.3478698084e+00 +4.6977263505e+02 4.6989560713e+02 1.0000000000e+01 0.0000e+00 0.0000e+00
</event>
<event>
 5      1 +4.4770400e-06 2.10870000e+02 7.95774700e-02 4.85036500e-01
       13 -1    0    0    0    0 +0.0000000000e+00 +0.0000000000e+00 +4.9999998884e+02 5.0000000000e+02 1.0566000000e-01 0.0000e+00 -1.0000e+00
      994 -1    0    0    0    0 -0.0000000000e+00 -0.0000000000e+00 +0.0000000000e+00 1.3100000000e+02 1.3100000000e+02 0.0000e+00 0.0000e+00
       13  1    1    2    0    0 +2.9713077280e+01 -4.2257489453e+01 +1.9729194834e+02 2.0394285087e+02 1.0566000000e-01 0.0000e+00 1.0000e+00
      994  1    1    2    0    0 -3.7685059799e+01 +4.8340658214e+01 +2.2356563975e+01 1.4634821120e+02 1.3100000000e+02 0.0000e+00 0.0000e+00
      997  1    1    2    0    0 +7.9719825190e+00 -6.0831687616e+00 +2.8035147652e+02 2.8070893793e+02 1.0000000000e+01 0.0000e+00 0.0000e+00
</event>
<event>
 5      1 +4.4770400e-06 2.12508900e+02 7.95774700e-02 4.82397000e-01
       13 -1    0    0    0    0 +0.0000000000e+00 +0.0000000000e+00 +4.9999998884e+02 5.0000000000e+02 1.0566000000e-01 0.0000e+00 -1.0000e+00
      994 -1    0    0    0    0 -0.0000000000e+00 -0.0000000000e+00 +0.0000000000e+00 1.3100000000e+02 1.3100000000e+02 0.0000e+00 0.0000e+00
       13  1    1    2    0    0 +6.3367843287e+00 -9.9049603974e+00 +4.7698696927e+01 4.9126774051e+01 1.0566000000e-01 0.0000e+00 1.0000e+00
      994  1    1    2    0    0 +5.9736915397e+00 +2.3579200723e+00 +1.9421535791e+00 1.3117170708e+02 1.3100000000e+02 0.0000e+00 0.0000e+00
      997  1    1    2    0    0 -1.2310475868e+01 +7.5470403252e+00 +4.5035913833e+02 4.5070151887e+02 1.0000000000e+01 0.0000e+00 0.0000e+00
</event>
<event>
 5      1 +4.4770400e-06 2.12433000e+02 7.95774700e-02 4.82518100e-01
       13 -1    0    0    0    0 +0.0000000000e+00 +0.0000000000e+00 +4.9999998884e+02 5.0000000000e+02 1.0566000000e-01 0.0000e+00 -1.0000e+00
      994 -1    0    0    0    0 -0.0000000000e+00 -0.0000000000e+00 +0.0000000000e+00 1.3100000000e+02 1.3100000000e+02 0.0000e+00 0.0000e+00
       13  1    1    2    0    0 -1.2788262774e+01 -7.2962516543e+00 +7.6754339231e+01 7.8153788826e+01 1.0566000000e-01 0.0000e+00 1.0000e+00
      994  1    1    2    0    0 -2.4110008773e+00 +3.7273785203e+00 +1.8960681904e+00 1.3108890628e+02 1.3100000000e+02 0.0000e+00 0.0000e+00
      997  1    1    2    0    0 +1.5199263652e+01 +3.5688731341e+00 +4.2134958141e+02 4.2175730489e+02 1.0000000000e+01 0.0000e+00 0.0000e+00
</event>
<event>
 5      1 +4.4770400e-06 2.13019200e+02 7.95774700e-02 4.81585700e-01
       13 -1    0    0    0    0 +0.0000000000e+00 +0.0000000000e+00 +4.9999998884e+02 5.0000000000e+02 1.0566000000e-01 0.0000e+00 1.0000e+00
      994 -1    0    0    0    0 -0.0000000000e+00 -0.0000000000e+00 +0.0000000000e+00 1.3100000000e+02 1.3100000000e+02 0.0000e+00 0.0000e+00
       13  1    1    2    0    0 -5.9497311713e+00 +9.6675299235e+00 +5.0696324232e+01 5.1951793911e+01 1.0566000000e-01 0.0000e+00 -1.0000e+00
      994  1    1    2    0    0 +3.4056998585e+00 -6.3294347466e+00 +1.5934972079e+00 1.3120670627e+02 1.3100000000e+02 0.0000e+00 0.0000e+00
      997  1    1    2    0    0 +2.5440313128e+00 -3.3380951768e+00 +4.4771016740e+02 4.4784149982e+02 1.0000000000e+01 0.0000e+00 0.0000e+00
</event>
<event>
 5      1 +4.4770400e-06 2.10228200e+02 7.95774700e-02 4.86084400e-01
       13 -1    0    0    0    0 +0.0000000000e+00 +0.0000000000e+00 +4.9999998884e+02 5.0000000000e+02 1.0566000000e-01 0.0000e+00 -1.0000e+00
      994 -1    0    0    0    0 -0.0000000000e+00 -0.0000000000e+00 +0.0000000000e+00 1.3100000000e+02 1.3100000000e+02 0.0000e+00 0.0000e+00
       13  1    1    2    0    0 +3.0360681271e+01 -1.6149366826e+01 +1.6962842548e+02 1.7307913482e+02 1.0566000000e-01 0.0000e+00 1.0000e+00
      994  1    1    2    0    0 -1.0216149575e+01 +2.9482778846e+01 +8.4396264506e+00 1.3492898597e+02 1.3100000000e+02 0.0000e+00 0.0000e+00
      997  1    1    2    0    0 -2.0144531696e+01 -1.3333412020e+01 +3.2193193690e+02 3.2299187920e+02 1.0000000000e+01 0.0000e+00 0.0000e+00
</event>
<event>
 5      1 +4.4770400e-06 2.08450200e+02 7.95774700e-02 4.89029900e-01
       13 -1    0    0    0    0 +0.0000000000e+00 +0.0000000000e+00 +4.9999998884e+02 5.0000000000e+02 1.0566000000e-01 0.0000e+00 1.0000e+00
      994 -1    0    0    0    0 -0.0000000000e+00 -0.0000000000e+00 +0.0000000000e+00 1.3100000000e+02 1.3100000000e+02 0.0000e+00 0.0000e+00
       13  1    1    2    0    0 -1.5811214022e+01 +5.1735703848e+00 +3.0122917937e+01 3.4411650185e+01 1.0566000000e-01 0.0000e+00 -1.0000e+00
      994  1    1    2    0    0 -2.8642945301e+00 +7.3486671795e+00 +5.2835261993e+00 1.3134352950e+02 1.3100000000e+02 0.0000e+00 0.0000e+00
      997  1    1    2    0    0 +1.8675508552e+01 -1.2522237564e+01 +4.6459354470e+02 4.6524482031e+02 1.0000000000e+01 0.0000e+00 0.0000e+00
</event>
<event>
 5      1 +4.4770400e-06 2.08154200e+02 7.95774700e-02 4.89526600e-01
       13 -1    0    0    0    0 +0.0000000000e+00 +0.0000000000e+00 +4.9999998884e+02 5.0000000000e+02 1.0566000000e-01 0.0000e+00 1.0000e+00
      994 -1    0    0    0    0 -0.0000000000e+00 -0.0000000000e+00 +0.0000000000e+00 1.3100000000e+02 1.3100000000e+02 0.0000e+00 0.0000e+00
       13  1    1    2    0    0 +5.0087614518e+00 +9.4347855061e+00 +8.7456482117e+00 1.3805810208e+01 1.0566000000e-01 0.0000e+00 -1.0000e+00
      994  1    1    2    0    0 +6.3422858377e-01 -9.2706731312e+00 +5.6463930052e+00 1.3145048262e+02 1.3100000000e+02 0.0000e+00 0.0000e+00
      997  1    1    2    0    0 -5.6429900356e+00 -1.6411237488e-01 +4.8560794762e+02 4.8574370718e+02 1.0000000000e+01 0.0000e+00 0.0000e+00
</event>
<event>
 5      1 +4.4770400e-06 1.99691800e+02 7.95774700e-02 5.04528900e-01
       13 -1    0    0    0    0 +0.0000000000e+00 +0.0000000000e+00 +4.9999998884e+02 5.0000000000e+02 1.0566000000e-01 0.0000e+00 1.0000e+00
      994 -1    0    0    0    0 -0.0000000000e+00 -0.0000000000e+00 +0.0000000000e+00 1.3100000000e+02 1.3100000000e+02 0.0000e+00 0.0000e+00
       13  1    1    2    0    0 -6.3781820766e+01 -8.9613010588e+00 +1.9258954801e+02 2.0307429858e+02 1.0566000000e-01 0.0000e+00 -1.0000e+00
      994  1    1    2    0    0 +5.1800858892e+01 -5.5159155843e+01 +4.5718612883e+01 1.5804130162e+02 1.3100000000e+02 0.0000e+00 0.0000e+00
      997  1    1    2    0    0 +1.1980961874e+01 +6.4120456902e+01 +2.6169182794e+02 2.6988439980e+02 1.0000000000e+01 0.0000e+00 0.0000e+00
</event>
<event>
 5      1 +4.4770400e-06 2.12244300e+02 7.95774700e-02 4.82819700e-01
       13 -1    0    0    0    0 +0.0000000000e+00 +0.0000000000e+00 +4.9999998884e+02 5.0000000000e+02 1.0566000000e-01 0.0000e+00 1.0000e+00
      994 -1    0    0    0    0 -0.0000000000e+00 -0.0000000000e+00 +0.0000000000e+00 1.3100000000e+02 1.3100000000e+02 0.0000e+00 0.0000e+00
       13  1    1    2    0    0 +1.4422124839e+01 +9.2235298617e+00 +8.9486114635e+01 9.1108984543e+01 1.0566000000e-01 0.0000e+00 -1.0000e+00
      994  1    1    2    0    0 -8.5410424085e+00 +4.8953948503e+00 +2.4235266785e+00 1.3139173405e+02 1.3100000000e+02 0.0000e+00 0.0000e+00
      997  1    1    2    0    0 -5.8810824309e+00 -1.4118924712e+01 +4.0809034752e+02 4.0849928140e+02 1.0000000000e+01 0.0000e+00 0.0000e+00
</event>
<event>
 5      1 +4.4770400e-06 2.10623800e+02 7.95774700e-02 4.85437600e-01
       13 -1    0    0    0    0 +0.0000000000e+00 +0.0000000000e+00 +4.9999998884e+02 5.0000000000e+02 1.0566000000e-01 0.0000e+00 1.0000e+00
      994 -1    0    0    0    0 -0.0000000000e+00 -0.0000000000e+00 +0.0000000000e+00 1.3100000000e+02 1.3100000000e+02 0.0000e+00 0.0000e+00
       13  1    1    2    0    0 -2.0835096245e+01 +2.5865386692e+01 +1.6024376779e+02 1.6364961272e+02 1.0566000000e-01 0.0000e+00 -1.0000e+00
      994  1    1    2    0    0 +1.1598241006e+01 -1.9888125089e+01 +5.8740736755e+00 1.3313737813e+02 1.3100000000e+02 0.0000e+00 0.0000e+00
      997  1    1    2    0    0 +9.2368552390e+00 -5.9772616031e+00 +3.3388214737e+02 3.3421300915e+02 1.0000000000e+01 0.0000e+00 0.0000e+00
</event>
<event>
 5      1 +4.4770400e-06 2.05805700e+02 7.95774700e-02 4.93531300e-01
       13 -1    0    0    0    0 +0.0000000000e+00 +0.0000000000e+00 +4.9999998884e+02 5.0000000000e+02 1.0566000000e-01 0.0000e+00 1.0000e+00
      994 -1    0    0    0    0 -0.0000000000e+00 -0.0000000000e+00 +0.0000000000e+00 1.3100000000e+02 1.3100000000e+02 0.0000e+00 0.0000e+00
       13  1    1    2    0    0 -2.5613225401e+00 +2.5566810946e+01 +5.2438580514e+01 5.8395531383e+01 1.0566000000e-01 0.0000e+00 -1.0000e+00
      994  1    1    2    0    0 +2.8499896894e+00 +2.2973706926e+00 +7.1997784795e+00 1.3124876062e+02 1.3100000000e+02 0.0000e+00 0.0000e+00
      997  1    1    2    0    0 -2.8866714928e-01 -2.7864181639e+01 +4.4036162984e+02 4.4135570800e+02 1.0000000000e+01 0.0000e+00 0.0000e+00
</event>
<event>
 5      1 +4.4770400e-06 2.09305400e+02 7.95774700e-02 4.87605200e-01
       13 -1    0    0    0    0 +0.0000000000e+00 +0.0000000000e+00 +4.9999998884e+02 5.0000000000e+02 1.0566000000e-01 0.0000e+00 -1.0000e+00
      994 -1    0    0    0    0 -0.0000000000e+00 -0.0000000000e+00 +0.0000000000e+00 1.3100000000e+02 1.3100000000e+02 0.0000e+00 0.0000e+00
       13  1    1    2    0    0 +1.1553676915e+01 +1.4853994304e+01 +3.5489554282e+01 4.0170240530e+01 1.0566000000e-01 0.0000e+00 1.0000e+00
      994  1    1    2    0    0 -1.3535587514e+01 -2.0064077870e+01 +7.2374664537e+00 1.3341349359e+02 1.3100000000e+02 0.0000e+00 0.0000e+00
      997  1    1    2    0    0 +1.9819105989e+00 +5.2100835662e+00 +4.5727296810e+02 4.5741626588e+02 1.0000000000e+01 0.0000e+00 0.0000e+00
</event>
<event>
 5      1 +4.4770400e-06 2.00878100e+02 7.95774700e-02 5.02327100e-01
       13 -1    0    0    0    0 +0.0000000000e+00 +0.0000000000e+00 +4.9999998884e+02 5.0000000000e+02 1.0566000000e-01 0.0000e+00 -1.0000e+00
      994 -1    0    0    0    0 -0.0000000000e+00 -0.0000000000e+00 +0.0000000000e+00 1.3100000000e+02 1.3100000000e+02 0.0000e+00 0.0000e+00
       13  1    1    2    0    0 -4.0278376162e+01 -4.0104212586e+01 +1.1174980066e+02 1.2537433775e+02 1.0566000000e-01 0.0000e+00 1.0000e+00
      994  1    1    2    0    0 -2.1165044867e+01 -3.2422090719e+01 +3.6887436992e+01 1.4149499673e+02 1.3100000000e+02 0.0000e+00 0.0000e+00
      997  1    1    2    0    0 +6.1443421029e+01 +7.2526303305e+01 +3.5136275118e+02 3.6413066553e+02 1.0000000000e+01 0.0000e+00 0.0000e+00
</event>
<event>
 5      1 +4.4770400e-06 2.12650000e+02 7.95774700e-02 4.82172200e-01
       13 -1    0    0    0    0 +0.0000000000e+00 +0.0000000000e+00 +4.9999998884e+02 5.0000000000e+02 1.0566000000e-01 0.0000e+00 1.0000e+00
      994 -1    0    0    0    0 -0.0000000000e+00 -0.0000000000e+00 +0.0000000000e+00 1.3100000000e+02 1.3100000000e+02 0.0000e+00 0.0000e+00
       13  1    1    2    0    0 -9.4145616144e+00 -4.3215819452e+00 +3.0857445042e+01 3.2550009516e+01 1.0566000000e-01 0.0000e+00 -1.0000e+00
      994  1    1    2    0    0 +1.9928927145e+01 -8.7959228991e+00 +3.9615416716e+00 1.3285790985e+02 1.3100000000e+02 0.0000e+00 0.0000e+00
      997  1    1    2    0    0 -1.0514365530e+01 +1.3117504844e+01 +4.6518100212e+02 4.6559208064e+02 1.0000000000e+01 0.0000e+00 0.0000e+00
</event>
<event>
 5      1 +4.4770400e-06 2.14560900e+02 7.95774700e-02 4.79163700e-01
       13 -1    0    0    0    0 +0.0000000000e+00 +0.0000000000e+00 +4.9999998884e+02 5.0000000000e+02 1.0566000000e-01 0.0000e+00 -1.0000e+00
      994 -1    0    0    0    0 -0.0000000000e+00 -0.0000000000e+00 +0.0000000000e+00 1.3100000000e+02 1.3100000000e+02 0.0000e+00 0.0000e+00
       13  1    1    2    0    0 +6.4907043861e+00 +8.4917142219e+00 +4.5590221739e+01 4.6826466193e+01 1.0566000000e-01 0.0000e+00 1.0000e+00
      994  1    1    2    0    0 -4.6569146763e+01 -8.5524370741e+01 +5.0425977257e+01 1.7084168872e+02 1.3100000000e+02 0.0000e+00 0.0000e+00
      997  1    1    2    0    0 +4.0078442376e+01 +7.7032656519e+01 +4.0398378984e+02 4.1333184509e+02 1.0000000000e+01 0.0000e+00 0.0000e+00
</event>
<event>
 5      1 +4.4770400e-06 2.11008500e+02 7.95774700e-02 4.84811500e-01
       13 -1    0    0    0    0 +0.0000000000e+00 +0.0000000000e+00 +4.9999998884e+02 5.0000000000e+02 1.0566000000e-01 0.0000e+00 -1.0000e+00
      994 -1    0    0    0    0 -0.0000000000e+00 -0.0000000000e+00 +0.0000000000e+00 1.3100000000e+02 1.3100000000e+02 0.0000e+00 0.0000e+00
       13  1    1    2    0    0 +1.6106043270e+01 -2.3056965594e+00 +4.8112099743e+01 5.0788839051e+01 1.0566000000e-01 0.0000e+00 1.0000e+00
      994  1    1    2    0    0 -6.0490293598e+00 -3.6752906293e+00 +3.1700121830e+00 1.3122936979e+02 1.3100000000e+02 0.0000e+00 0.0000e+00
      997  1    1    2    0    0 -1.0057013910e+01 +5.9809871886e+00 +4.4871787691e+02 4.4898179116e+02 1.0000000000e+01 0.0000e+00 0.0000e+00
</event>
<event>
 5      1 +4.4770400e-06 2.13417400e+02 7.95774700e-02 4.80955900e-01
       13 -1    0    0    0    0 +0.0000000000e+00 +0.0000000000e+00 +4.9999998884e+02 5.0000000000e+02 1.0566000000e-01 0.0000e+00 -1.0000e+00
      994 -1    0    0    0    0 -0.0000000000e+00 -0.0000000000e+00 +0.0000000000e+00 1.3100000000e+02 1.3100000000e+02 0.0000e+00 0.0000e+00
       13  1    1    2    0    0 -1.1019791547e+01 -8.6743299629e+00 +8.3933084065e+01 8.5096730670e+01 1.0566000000e-01 0.0000e+00 1.0000e+00
      994  1    1    2    0    0 +1.1364152830e+01 +1.1651575545e+01 +2.3229635396e+00 1.3202764613e+02 1.3100000000e+02 0.0000e+00 0.0000e+00
      997  1    1    2    0    0 -3.4436128360e-01 -2.9772455816e+00 +4.1374394123e+02 4.1387562320e+02 1.0000000000e+01 0.0000e+00 0.0000e+00
</event>
<event>
 5      1 +4.4770400e-06 1.99632900e+02 7.95774700e-02 5.04639100e-01
       13 -1    0    0    0    0 +0.0000000000e+00 +0.0000000000e+00 +4.9999998884e+02 5.0000000000e+02 1.0566000000e-01 0.0000e+00 1.0000e+00
      994 -1    0    0    0    0 -0.0000000000e+00 -0.0000000000e+00 +0.0000000000e+00 1.3100000000e+02 1.3100000000e+02 0.0000e+00 0.0000e+00
       13  1    1    2    0    0 +3.6696911294e-01 -5.0735667575e+01 +1.3161869484e+02 1.4105933016e+02 1.0566000000e-01 0.0000e+00 -1.0000e+00
      994  1    1    2    0    0 +2.3194335043e+01 +1.1411037702e+01 +1.6036597339e+01 1.3448554351e+02 1.3100000000e+02 0.0000e+00 0.0000e+00
      997  1    1    2    0    0 -2.3561304156e+01 +3.9324629873e+01 +3.5234469666e+02 3.5545512633e+02 1.0000000000e+01 0.0000e+00 0.0000e+00
</event>
<event>
 5      1 +4.4770400e-06 2.06480500e+02 7.95774700e-02 4.92368600e-01
       13 -1    0    0    0    0 +0.0000000000e+00 +0.0000000000e+00 +4.9999998884e+02 5.0000000000e+02 1.0566000000e-01 0.0000e+00 1.0000e+00
      994 -1    0    0    0    0 -0.0000000000e+00 -0.0000000000e+00 +0.0000000000e+00 1.3100000000e+02 1.3100000000e+02 0.0000e+00 0.0000e+00
       13  1    1    2    0    0 -1.7351980138e+01 -1.2385402721e+01 +3.0491743348e+01 3.7205469916e+01 1.0566000000e-01 0.0000e+00 -1.0000e+00
      994  1    1    2    0    0 +1.7353166396e+01 +9.6053670327e+00 +8.6025492060e+00 1.3277198241e+02 1.3100000000e+02 0.0000e+00 0.0000e+00
      997  1    1    2    0    0 -1.1862587964e-03 +2.7800356884e+00 +4.6090569628e+02 4.6102254768e+02 1.0000000000e+01 0.0000e+00 0.0000e+00
</event>
<event>
 5      1 +4.4770400e-06 2.12064100e+02 7.95774700e-02 4.83108400e-01
       13 -1    0    0    0    0 +0.0000000000e+00 +0.0000000000e+00 +4.9999998884e+02 5.0000000000e+02 1.0566000000e-01 0.0000e+00 1.0000e+00
      994 -1    0    0    0    0 -0.0000000000e+00 -0.0000000000e+00 +0.0000000000e+00 1.3100000000e+02 1.3100000000e+02 0.0000e+00 0.0000e+00
       13  1    1    2    0    0 -1.0008504665e+01 +2.6160212438e+01 +1.5604574359e+02 1.5853962324e+02 1.0566000000e-01 0.0000e+00 -1.0000e+00
      994  1    1    2    0    0 -1.6484521203e+01 -3.9252119033e+01 +1.1147448589e+01 1.3819455090e+02 1.3100000000e+02 0.0000e+00 0.0000e+00
      997  1    1    2    0    0 +2.6493025868e+01 +1.3091906595e+01 +3.3280679665e+02 3.3426582586e+02 1.0000000000e+01 0.0000e+00 0.0000e+00
</event>
<event>
 5      1 +4.4770400e-06 2.13185500e+02 7.95774700e-02 4.81322300e-01
       13 -1    0    0    0    0 +0.0000000000e+00 +0.0000000000e+00 +4.9999998884e+02 5.0000000000e+02 1.0566000000e-01 0.0000e+00 -1.0000e+00
      994 -1    0    0    0    0 -0.0000000000e+00 -0.0000000000e+00 +0.0000000000e+00 1.3100000000e+02 1.3100000000e+02 0.0000e+00 0.0000e+00
       13  1    1    2    0    0 -6.2910640009e+00 -9.1874025396e+00 +5.9675846817e+01 6.0705878703e+01 1.0566000000e-01 0.0000e+00 1.0000e+00
      994  1    1    2    0    0 +5.4356682185e+00 +2.3358125499e-01 +1.3559707163e+00 1.3111994397e+02 1.3100000000e+02 0.0000e+00 0.0000e+00
      997  1    1    2    0    0 +8.5539578239e-01 +8.9538212847e+00 +4.3896817130e+02 4.3917417733e+02 1.0000000000e+01 0.0000e+00 0.0000e+00
</event>
<event>
 5      1 +4.4770400e-06 2.11845400e+02 7.95774700e-02 4.83459400e-01
       13 -1    0    0    0    0 +0.0000000000e+00 +0.0000000000e+00 +4.9999998884e+02 5.0000000000e+02 1.0566000000e-01 0.0000e+00 -1.0000e+00
      994 -1    0    0    0    0 -0.0000000000e+00 -0.0000000000e+00 +0.0000000000e+00 1.3100000000e+02 1.3100000000e+02 0.0000e+00 0.0000e+00
       13  1    1    2    0    0 +7.4658272185e+00 -9.7203965105e+00 +4.3537401738e+01 4.5229870645e+01 1.0566000000e-01 0.0000e+00 1.0000e+00
      994  1    1    2    0    0 +1.3765351476e+01 -1.4703728160e+00 +3.2060094074e+00 1.3176845371e+02 1.3100000000e+02 0.0000e+00 0.0000e+00
      997  1    1    2    0    0 -2.1231178695e+01 +1.1190769327e+01 +4.5325657769e+02 4.5400167564e+02 1.0000000000e+01 0.0000e+00 0.0000e+00
</event>
<event>
 5      1 +4.4770400e-06 2.09249300e+02 7.95774700e-02 4.87698200e-01
       13 -1    0    0    0    0 +0.0000000000e+00 +0.0000000000e+00 +4.9999998884e+02 5.0000000000e+02 1.0566000000e-01 0.0000e+00 -1.0000e+00
      994 -1    0    0    0    0 -0.0000000000e+00 -0.0000000000e+00 +0.0000000000e+00 1.3100000000e+02 1.3100000000e+02 0.0000e+00 0.0000e+00
       13  1    1    2    0    0 -1.5372808022e+00 -1.1416099200e+01 +1.2749157296e+01 1.7182628699e+01 1.0566000000e-01 0.0000e+00 1.0000e+00
      994  1    1    2    0    0 +2.1254333765e+01 +1.4684042448e+01 +7.6985823622e+00 1.3374466710e+02 1.3100000000e+02 0.0000e+00 0.0000e+00
      997  1    1    2    0    0 -1.9717052963e+01 -3.2679432482e+00 +4.7955224918e+02 4.8007270420e+02 1.0000000000e+01 0.0000e+00 0.0000e+00
</event>
<event>
 5      1 +4.4770400e-06 2.11322400e+02 7.95774700e-02 4.84302700e-01
       13 -1    0    0    0    0 +0.0000000000e+00 +0.0000000000e+00 +4.9999998884e+02 5.0000000000e+02 1.0566000000e-01 0.0000e+00 -1.0000e+00
      994 -1    0    0    0    0 -0.0000000000e+00 -0.0000000000e+00 +0.0000000000e+00 1.3100000000e+02 1.3100000000e+02 0.0000e+00 0.0000e+00
       13  1    1    2    0    0 -1.6616101153e+00 -1.6224044448e+01 +5.1906273302e+01 5.4408206537e+01 1.0566000000e-01 0.0000e+00 1.0000e+00
      994  1    1    2    0    0 -2.6054906325e+00 +7.7693389669e+00 +3.0054195450e+00 1.3129045569e+02 1.3100000000e+02 0.0000e+00 0.0000e+00
      997  1    1    2    0    0 +4.2671007478e+00 +8.4547054811e+00 +4.4508829599e+02 4.4530133777e+02 1.0000000000e+01 0.0000e+00 0.0000e+00
</event>
<event>
 5      1 +4.4770400e-06 2.07356800e+02 7.95774700e-02 4.90873300e-01
       13 -1    0    0    0    0 +0.0000000000e+00 +0.0000000000e+00 +4.9999998884e+02 5.0000000000e+02 1.0566000000e-01 0.0000e+00 1.0000e+00
      994 -1    0    0    0    0 -0.0000000000e+00 -0.0000000000e+00 +0.0000000000e+00 1.3100000000e+02 1.3100000000e+02 0.0000e+00 0.0000e+00
       13  1    1    2    0    0 +9.7636436059e+00 -2.0468278639e+01 +4.2458857393e+01 4.8135692600e+01 1.0566000000e-01 0.0000e+00 -1.0000e+00
      994  1    1    2    0    0 -9.8690202884e+00 +9.4127350022e+00 +6.8070708818e+00 1.3188378731e+02 1.3100000000e+02 0.0000e+00 0.0000e+00
      997  1    1    2    0    0 +1.0537668254e-01 +1.1055543637e+01 +4.5073406056e+02 4.5098052009e+02 1.0000000000e+01 0.0000e+00 0.0000e+00
</event>
<event>
 5      1 +4.4770400e-06 2.12863500e+02 7.95774700e-02 4.81832700e-01
       13 -1    0    0    0    0 +0.0000000000e+00 +0.0000000000e+00 +4.9999998884e+02 5.0000000000e+02 1.0566000000e-01 0.0000e+00 -1.0000e+00
      994 -1    0    0    0    0 -0.0000000000e+00 -0.0000000000e+00 +0.0000000000e+00 1.3100000000e+02 1.3100000000e+02 0.0000e+00 0.0000e+00
       13  1    1    2    0    0 +2.1988445124e+01 +3.7455401359e+00 +9.8747730297e+01 1.0123559746e+02 1.0566000000e-01 0.0000e+00 1.0000e+00
      994  1    1    2    0    0 -4.1272745232e+01 +8.6904280408e+00 +1.0295420519e+01 1.3800709664e+02 1.3100000000e+02 0.0000e+00 0.0000e+00
      997  1    1    2    0    0 +1.9284300107e+01 -1.2435968177e+01 +3.9095683802e+02 3.9175730591e+02 1.0000000000e+01 0.0000e+00 0.0000e+00
</event>
<event>
 5      1 +4.4770400e-06 2.01768400e+02 7.95774700e-02 5.00696800e-01
       13 -1    0    0    0    0 +0.0000000000e+00 +0.0000000000e+00 +4.9999998884e+02 5.0000000000e+02 1.0566000000e-01 0.0000e+00 -1.0000e+00
      994 -1    0    0    0    0 -0.0000000000e+00 -0.0000000000e+00 +0.0000000000e+00 1.3100000000e+02 1.3100000000e+02 0.0000e+00 0.0000e+00
       13  1    1    2    0    0 -4.6508103570e+00 +2.8564725209e+01 +8.0912522625e+00 3.0050841759e+01 1.0566000000e-01 0.0000e+00 1.0000e+00
      994  1    1    2    0    0 -1.5197877250e+00 +4.0613927615e+01 +3.8943618636e+01 1.4258122704e+02 1.3100000000e+02 0.0000e+00 0.0000e+00
      997  1    1    2    0    0 +6.1705980820e+00 -6.9178652824e+01 +4.5296511794e+02 4.5836793120e+02 1.0000000000e+01 0.0000e+00 0.0000e+00
</event>
<event>
 5      1 +4.4770400e-06 2.13539100e+02 7.95774700e-02 4.80763900e-01
       13 -1    0    0    0    0 +0.0000000000e+00 +0.0000000000e+00 +4.9999998884e+02 5.0000000000e+02 1.0566000000e-01 0.0000e+00 1.0000e+00
      994 -1    0    0    0    0 -0.0000000000e+00 -0.0000000000e+00 +0.0000000000e+00 1.3100000000e+02 1.3100000000e+02 0.0000e+00 0.0000e+00
       13  1    1    2    0    0 +2.4465713574e+00 +9.8182443403e+00 +6.1202038053e+01 6.2032928829e+01 1.0566000000e-01 0.0000e+00 -1.0000e+00
      994  1    1    2    0    0 -8.2863380637e+00 -4.1914694328e+00 +1.3560249371e+00 1.3133571722e+02 1.3100000000e+02 0.0000e+00 0.0000e+00
      997  1    1    2    0    0 +5.8397667063e+00 -5.6267749075e+00 +4.3744192585e+02 4.3763135395e+02 1.0000000000e+01 0.0000e+00 0.0000e+00
</event>
<event>
 5      1 +4.4770400e-06 2.09698900e+02 7.95774700e-02 4.86954600e-01
       13 -1    0    0    0    0 +0.0000000000e+00 +0.0000000000e+00 +4.9999998884e+02 5.0000000000e+02 1.0566000000e-01 0.0000e+00 -1.0000e+00
      994 -1    0    0    0    0 -0.0000000000e+00 -0.0000000000e+00 +0.0000000000e+00 1.3100000000e+02 1.3100000000e+02 0.0000e+00 0.0000e+00
       13  1    1    2    0    0 +6.4554718429e+00 +9.8919880662e+00 +1.6367253943e+01 2.0184714769e+01 1.0566000000e-01 0.0000e+00 1.0000e+00
      994  1    1    2    0    0 -4.0854654300e+00 -5.2311569058e+00 +4.1850214471e+00 1.3123479125e+02 1.3100000000e+02 0.0000e+00 0.0000e+00
      997  1    1    2    0    0 -2.3700064129e+00 -4.6608311604e+00 +4.7944771345e+02 4.7958049398e+02 1.0000000000e+01 0.0000e+00 0.0000e+00
</event>
<event>
 5      1 +4.4770400e-06 2.09647100e+02 7.95774700e-02 4.87040000e-01
       13 -1    0    0    0    0 +0.0000000000e+00 +0.0000000000e+00 +4.9999998884e+02 5.0000000000e+02 1.0566000000e-01 0.0000e+00 1.0000e+00
      994 -1    0    0    0    0 -0.0000000000e+00 -0.0000000000e+00 +0.0000000000e+00 1.3100000000e+02 1.3100000000e+02 0.0000e+00 0.0000e+00
       13  1    1    2    0    0 +1.2499518307e+01 -7.1040686774e+00 +3.4172748643e+01 3.7074164367e+01 1.0566000000e-01 0.0000e+00 -1.0000e+00
      994  1    1    2    0    0 +8.3661342341e+00 -2.8566377860e+01 +8.4801248910e+00 1.3460662192e+02 1.3100000000e+02 0.0000e+00 0.0000e+00
      997  1    1    2    0    0 -2.0865652542e+01 +3.5670446537e+01 +4.5734711530e+02 4.5931921371e+02 1.0000000000e+01 0.0000e+00 0.0000e+00
</event>
<event>
 5      1 +4.4770400e-06 2.10166100e+02 7.95774700e-02 4.86186100e-01
       13 -1    0    0    0    0 +0.0000000000e+00 +0.0000000000e+00 +4.9999998884e+02 5.0000000000e+02 1.0566000000e-01 0.0000e+00 -1.0000e+00
      994 -1    0    0    0    0 -0.0000000000e+00 -0.0000000000e+00 +0.0000000000e+00 1.3100000000e+02 1.3100000000e+02 0.0000e+00 0.0000e+00
       13  1    1    2    0    0 -2.8131808504e+01 +5.3078947004e-01 +1.0176417419e+02 1.0558237874e+02 1.0566000000e-01 0.0000e+00 1.0000e+00
      994  1    1    2    0    0 +2.1179986531e+01 -6.3820086822e+00 +6.0427392530e+00 1.3299186653e+02 1.3100000000e+02 0.0000e+00 0.0000e+00
      997  1    1    2    0    0 +6.9518219734e+00 +5.8512192122e+00 +3.9219307539e+02 3.9242575474e+02 1.0000000000e+01 0.0000e+00 0.0000e+00
</event>
<event>
 5      1 +4.4770400e-06 2.10387600e+02 7.95774700e-02 4.85823300e-01
       13 -1    0    0    0    0 +0.0000000000e+00 +0.0000000000e+00 +4.9999998884e+02 5.0000000000e+02 1.0566000000e-01 0.0000e+00 1.0000e+00
      994 -1    0    0    0    0 -0.0000000000e+00 -0.0000000000e+00 +0.0000000000e+00 1.3100000000e+02 1.3100000000e+02 0.0000e+00 0.0000e+00
       13  1    1    2    0    0 +2.6250029840e+01 +2.9167567468e+00 +1.4108504595e+02 1.4353596375e+02 1.0566000000e-01 0.0000e+00 -1.0000e+00
      994  1    1    2    0    0 -3.0222176052e+00 +2.0423752065e+00 +3.4809203639e+00 1.3109699425e+02 1.3100000000e+02 0.0000e+00 0.0000e+00
      997  1    1    2    0    0 -2.3227812235e+01 -4.9591319533e+00 +3.5543402252e+02 3.5636704199e+02 1.0000000000e+01 0.0000e+00 0.0000e+00
</event>
<event>
 5      1 +4.4770400e-06 2.15907900e+02 7.95774700e-02 4.77083100e-01
       13 -1    0    0    0    0 +0.0000000000e+00 +0.0000000000e+00 +4.9999998884e+02 5.0000000000e+02 1.0566000000e-01 0.0000e+00 1.0000e+00
      994 -1    0    0    0    0 -0.0000000000e+00 -0.0000000000e+00 +0.0000000000e+00 1.3100000000e+02 1.3100000000e+02 0.0000e+00 0.0000e+00
       13  1    1    2    0    0 +3.7374639310e+01 -2.5173313472e+01 +2.8748021725e+00 4.5153460845e+01 1.0566000000e-01 0.0000e+00 -1.0000e+00
      994  1    1    2    0    0 +1.5514573900e+00 +7.3555290924e+01 +9.2661969873e+01 1.7652203405e+02 1.3100000000e+02 0.0000e+00 0.0000e+00
      997  1    1    2    0    0 -3.8926096700e+01 -4.8381977452e+01 +4.0446321679e+02 4.0932450511e+02 1.0000000000e+01 0.0000e+00 0.0000e+00
</event>
<event>
 5      1 +4.4770400e-06 2.06148300e+02 7.95774700e-02 4.92939800e-01
       13 -1    0    0    0    0 +0.0000000000e+00 +0.0000000000e+00 +4.9999998884e+02 5.0000000000e+02 1.0566000000e-01 0.0000e+00 1.0000e+00
      994 -1    0    0    0    0 -0.0000000000e+00 -0.0000000000e+00 +0.0000000000e+00 1.3100000000e+02 1.3100000000e+02 0.0000e+00 0.0000e+00
       13  1    1    2    0    0 +2.6469956358e+01 -6.4970211302e+01 +1.6146390959e+02 1.7604656262e+02 1.0566000000e-01 0.0000e+00 -1.0000e+00
      994  1    1    2    0    0 -7.2525160844e+01 +6.8492382692e+01 +6.4448246106e+01 1.7682104476e+02 1.3100000000e+02 0.0000e+00 0.0000e+00
      997  1    1    2    0    0 +4.6055204486e+01 -3.5221713899e+00 +2.7408783314e+02 2.7813239263e+02 1.0000000000e+01 0.0000e+00 0.0000e+00
</event>
<event>
 5      1 +4.4770400e-06 2.12282200e+02 7.95774700e-02 4.82759100e-01
       13 -1    0    0    0    0 +0.0000000000e+00 +0.0000000000e+00 +4.9999998884e+02 5.0000000000e+02 1.0566000000e-01 0.0000e+00 -1.0000e+00
      994 -1    0    0    0    0 -0.0000000000e+00 -0.0000000000e+00 +0.0000000000e+00 1.3100000000e+02 1.3100000000e+02 0.0000e+00 0.0000e+00
       13  1    1    2    0    0 -1.1084056349e+01 +2.0523123021e+01 +1.2498920789e+02 1.2714703354e+02 1.0566000000e-01 0.0000e+00 1.0000e+00
      994  1    1    2    0    0 +5.6425028540e+00 -1.9706933873e+01 +3.9873999591e+00 1.3265406303e+02 1.3100000000e+02 0.0000e+00 0.0000e+00
      997  1    1    2    0    0 +5.4415534955e+00 -8.1618914748e-01 +3.7102338099e+02 3.7119890343e+02 1.0000000000e+01 0.0000e+00 0.0000e+00
</event>
<event>
 5      1 +4.4770400e-06 2.10242800e+02 7.95774700e-02 4.86060400e-01
       13 -1    0    0    0    0 +0.0000000000e+00 +0.0000000000e+00 +4.9999998884e+02 5.0000000000e+02 1.0566000000e-01 0.0000e+00 -1.0000e+00
      994 -1    0    0    0    0 -0.0000000000e+00 -0.0000000000e+00 +0.0000000000e+00 1.3100000000e+02 1.3100000000e+02 0.0000e+00 0.0000e+00
       13  1    1    2    0    0 -6.2182320147e+00 +2.4079764155e+01 +9.0571767345e+01 9.3924212294e+01 1.0566000000e-01 0.0000e+00 1.0000e+00
      994  1    1    2    0    0 +1.5545927557e+01 -9.8483829543e+00 +5.2233933477e+00 1.3238938911e+02 1.3100000000e+02 0.0000e+00 0.0000e+00
      997  1    1    2    0    0 -9.3276955418e+00 -1.4231381201e+01 +4.0420482814e+02 4.0468639860e+02 1.0000000000e+01 0.0000e+00 0.0000e+00
</event>
<event>
 5      1 +4.4770400e-06 2.13099100e+02 7.95774700e-02 4.81459100e-01
       13 -1    0    0    0    0 +0.0000000000e+00 +0.0000000000e+00 +4.9999998884e+02 5.0000000000e+02 1.0566000000e-01 0.0000e+00 -1.0000e+00
      994 -1    0    0    0    0 -0.0000000000e+00 -0.0000000000e+00 +0.0000000000e+00 1.3100000000e+02 1.3100000000e+02 0.0000e+00 0.0000e+00
       13  1    1    2    0    0 -1.0483985336e+01 +4.1234326131e+00 +5.5830416764e+01 5.6955800803e+01 1.0566000000e-01 0.0000e+00 1.0000e+00
      994  1    1    2    0    0 +3.7276959971e+00 -2.4547427730e+00 +1.3761881180e+00 1.3108323834e+02 1.3100000000e+02 0.0000e+00 0.0000e+00
      997  1    1    2    0    0 +6.7562893385e+00 -1.6686898400e+00 +4.4279338395e+02 4.4296096086e+02 1.0000000000e+01 0.0000e+00 0.0000e+00
</event>
<event>
 5      1 +4.4770400e-06 2.10286800e+02 7.95774700e-02 4.85988300e-01
       13 -1    0    0    0    0 +0.0000000000e+00 +0.0000000000e+00 +4.9999998884e+02 5.0000000000e+02 1.0566000000e-01 0.0000e+00 -1.0000e+00
      994 -1    0    0    0    0 -0.0000000000e+00 -0.0000000000e+00 +0.0000000000e+00 1.3100000000e+02 1.3100000000e+02 0.0000e+00 0.0000e+00
       13  1    1    2    0    0 -1.4754925316e+01 +2.9045046725e+00 +3.1760110886e+01 3.5140571652e+01 1.0566000000e-01 0.0000e+00 1.0000e+00
      994  1    1    2    0    0 +5.7452674970e+00 -1.8668955670e+01 +5.4028063718e+00 1.3255839589e+02 1.3100000000e+02 0.0000e+00 0.0000e+00
      997  1    1    2    0    0 +9.0096578191e+00 +1.5764450998e+01 +4.6283707158e+02 4.6330103246e+02 1.0000000000e+01 0.0000e+00 0.0000e+00
</event>
<event>
 5      1 +4.4770400e-06 2.06684100e+02 7.95774700e-02 4.92019800e-01
       13 -1    0    0    0    0 +0.0000000000e+00 +0.0000000000e+00 +4.9999998884e+02 5.0000000000e+02 1.0566000000e-01 0.0000e+00 -1.0000e+00
      994 -1    0    0    0    0 -0.0000000000e+00 -0.0000000000e+00 +0.0000000000e+00 1.3100000000e+02 1.3100000000e+02 0.0000e+00 0.0000e+00
       13  1    1    2    0    0 -2.7198020800e+01 +1.8443290137e+01 +9.0505385029e+01 9.6286671818e+01 1.0566000000e-01 0.0000e+00 1.0000e+00
      994  1    1    2    0    0 +2.1818641368e+01 +8.2890901445e+00 +9.2153284072e+00 1.3338172440e+02 1.3100000000e+02 0.0000e+00 0.0000e+00
      997  1    1    2    0    0 +5.3793794315e+00 -2.6732380282e+01 +4.0027927540e+02 4.0133160378e+02 1.0000000000e+01 0.0000e+00 0.0000e+00
</event>
<event>
 5      1 +4.4770400e-06 2.08503000e+02 7.95774700e-02 4.88941600e-01
       13 -1    0    0    0    0 +0.0000000000e+00 +0.0000000000e+00 +4.9999998884e+02 5.0000000000e+02 1.0566000000e-01 0.0000e+00 1.0000e+00
      994 -1    0    0    0    0 -0.0000000000e+00 -0.0000000000e+00 +0.0000000000e+00 1.3100000000e+02 1.3100000000e+02 0.0000e+00 0.0000e+00
       13  1    1    2    0    0 -1.0297029753e+00 -1.0824719816e+01 +9.8974560189e+00 1.4703933045e+01 1.0566000000e-01 0.0000e+00 -1.0000e+00
      994  1    1    2    0    0 -2.5812612197e+00 +9.0356929718e+00 +5.3728202144e+00 1.3144646764e+02 1.3100000000e+02 0.0000e+00 0.0000e+00
      997  1    1    2    0    0 +3.6109641950e+00 +1.7890268446e+00 +4.8472971260e+02 4.8484959932e+02 1.0000000000e+01 0.0000e+00 0.0000e+00
</event>
<event>
 5      1 +4.4770400e-06 2.09969400e+02 7.95774700e-02 4.86509100e-01
       13 -1    0    0    0    0 +0.0000000000e+00 +0.0000000000e+00 +4.9999998884e+02 5.0000000000e+02 1.0566000000e-01 0.0000e+00 -1.0000e+00
      994 -1    0    0    0    0 -0.0000000000e+00 -0.0000000000e+00 +0.0000000000e+00 1.3100000000e+02 1.3100000000e+02 0.0000e+00 0.0000e+00
       13  1    1    2    0    0 +1.7557917735e+00 -1.1488759379e+01 +1.6049419418e+01 1.9815888184e+01 1.0566000000e-01 0.0000e+00 1.0000e+00
      994  1    1    2    0    0 -4.4566146616e+00 +1.2584367226e+01 +4.6398432594e+00 1.3176022108e+02 1.3100000000e+02 0.0000e+00 0.0000e+00
      997  1    1    2    0    0 +2.7008228881e+00 -1.0956078470e+00 +4.7931072616e+02 4.7942389074e+02 1.0000000000e+01 0.0000e+00 0.0000e+00
</event>
<event>
 5      1 +4.4770400e-06 2.07409100e+02 7.95774700e-02 4.90784600e-01
       13 -1    0    0    0    0 +0.0000000000e+00 +0.0000000000e+00 +4.9999998884e+02 5.0000000000e+02 1.0566000000e-01 0.0000e+00 1.0000e+00
      994 -1    0    0    0    0 -0.0000000000e+00 -0.0000000000e+00 +0.0000000000e+00 1.3100000000e+02 1.3100000000e+02 0.0000e+00 0.0000e+00
       13  1    1    2    0    0 +1.0256152317e+01 +6.4986879418e+00 +9.5776532337e+00 1.5464934879e+01 1.0566000000e-01 0.0000e+00 -1.0000e+00
      994  1    1    2    0    0 -8.3344035791e+00 -1.9957000867e+01 +8.2093347170e+00 1.3302682941e+02 1.3100000000e+02 0.0000e+00 0.0000e+00
      997  1    1    2    0    0 -1.9217487380e+00 +1.3458312926e+01 +4.8221300089e+02 4.8250823571e+02 1.0000000000e+01 0.0000e+00 0.0000e+00
</event>
<event>
 5      1 +4.4770400e-06 2.11956700e+02 7.95774700e-02 4.83280600e-01
       13 -1    0    0    0    0 +0.0000000000e+00 +0.0000000000e+00 +4.9999998884e+02 5.0000000000e+02 1.0566000000e-01 0.0000e+00 1.0000e+00
      994 -1    0    0    0    0 -0.0000000000e+00 -0.0000000000e+00 +0.0000000000e+00 1.3100000000e+02 1.3100000000e+02 0.0000e+00 0.0000e+00
       13  1    1    2    0    0 +1.5386528406e+01 -1.2065298924e+01 +8.7920978699e+01 9.0069008843e+01 1.0566000000e-01 0.0000e+00 -1.0000e+00
      994  1    1    2    0    0 -1.5479365513e+01 +1.6391422446e+00 +3.3678098828e+00 1.3196453951e+02 1.3100000000e+02 0.0000e+00 0.0000e+00
      997  1    1    2    0    0 +9.2837107423e-02 +1.0426156680e+01 +4.0871120025e+02 4.0896645165e+02 1.0000000000e+01 0.0000e+00 0.0000e+00
</event>
<event>
 5      1 +4.4770400e-06 2.11435000e+02 7.95774700e-02 4.84120800e-01
       13 -1    0    0    0    0 +0.0000000000e+00 +0.0000000000e+00 +4.9999998884e+02 5.0000000000e+02 1.0566000000e-01 0.0000e+00 1.0000e+00
      994 -1    0    0    0    0 -0.0000000000e+00 -0.0000000000e+00 +0.0000000000e+00 1.3100000000e+02 1.3100000000e+02 0.0000e+00 0.0000e+00
       13  1    1    2    0    0 +3.0455298764e+00 -1.7347093386e+01 +5.5282462715e+01 5.8020330480e+01 1.0566000000e-01 0.0000e+00 -1.0000e+00
      994  1    1    2    0    0 -1.6603277220e+01 +1.4784306105e+01 +5.0364042130e+00 1.3296845449e+02 1.3100000000e+02 0.0000e+00 0.0000e+00
      997  1    1    2    0    0 +1.3557747344e+01 +2.5627872813e+00 +4.3968112191e+02 4.4001121503e+02 1.0000000000e+01 0.0000e+00 0.0000e+00
</event>
<event>
 5      1 +4.4770400e-06 2.06933900e+02 7.95774700e-02 4.91593000e-01
       13 -1    0    0    0    0 +0.0000000000e+00 +0.0000000000e+00 +4.9999998884e+02 5.0000000000e+02 1.0566000000e-01 0.0000e+00 1.0000e+00
      994 -1    0    0    0    0 -0.0000000000e+00 -0.0000000000e+00 +0.0000000000e+00 1.3100000000e+02 1.3100000000e+02 0.0000e+00 0.0000e+00
       13  1    1    2    0    0 +1.4980365267e+01 +4.1222133064e+01 +1.9036132215e+02 1.9534871316e+02 1.0566000000e-01 0.0000e+00 -1.0000e+00
      994  1    1    2    0    0 +2.2582448860e+01 -3.1649529158e+01 +1.4054802824e+01 1.3736883626e+02 1.3100000000e+02 0.0000e+00 0.0000e+00
      997  1    1    2    0    0 -3.7562814127e+01 -9.5726039067e+00 +2.9558386386e+02 2.9828245058e+02 1.0000000000e+01 0.0000e+00 0.0000e+00
</event>
<event>
 5      1 +4.4770400e-06 2.12955700e+02 7.95774700e-02 4.81686400e-01
       13 -1    0    0    0    0 +0.0000000000e+00 +0.0000000000e+00 +4.9999998884e+02 5.0000000000e+02 1.0566000000e-01 0.0000e+00 -1.0000e+00
      994 -1    0    0    0    0 -0.0000000000e+00 -0.0000000000e+00 +0.0000000000e+00 1.3100000000e+02 1.3100000000e+02 0.0000e+00 0.0000e+00
       13  1    1    2    0    0 +4.9621543721e-01 -1.0593517363e+01 +4.2388301521e+01 4.3694943755e+01 1.0566000000e-01 0.0000e+00 1.0000e+00
      994  1    1    2    0    0 -1.1093524510e+00 +6.8390170240e+00 +1.6252921171e+00 1.3119315680e+02 1.3100000000e+02 0.0000e+00 0.0000e+00
      997  1    1    2    0    0 +6.1313701377e-01 +3.7545003386e+00 +4.5598639520e+02 4.5611189944e+02 1.0000000000e+01 0.0000e+00 0.0000e+00
</event>
<event>
 5      1 +4.4770400e-06 2.05061700e+02 7.95774700e-02 4.94824500e-01
       13 -1    0    0    0    0 +0.0000000000e+00 +0.0000000000e+00 +4.9999998884e+02 5.0000000000e+02 1.0566000000e-01 0.0000e+00 -1.0000e+00
      994 -1    0    0    0    0 -0.0000000000e+00 -0.0000000000e+00 +0.0000000000e+00 1.3100000000e+02 1.3100000000e+02 0.0000e+00 0.0000e+00
       13  1    1    2    0    0 -3.1637655967e+00 -1.4085365102e+01 +9.5870061277e+00 1.7329996346e+01 1.0566000000e-01 0.0000e+00 1.0000e+00
      994  1    1    2    0    0 +1.5339694705e+01 +1.4506411043e+01 +1.0073754807e+01 1.3307224628e+02 1.3100000000e+02 0.0000e+00 0.0000e+00
      997  1    1    2    0    0 -1.2175929109e+01 -4.2104594109e-01 +4.8033922790e+02 4.8059775737e+02 1.0000000000e+01 0.0000e+00 0.0000e+00
</event>
<event>
 5      1 +4.4770400e-06 2.03933700e+02 7.95774700e-02 4.96808400e-01
       13 -1    0    0    0    0 +0.0000000000e+00 +0.0000000000e+00 +4.9999998884e+02 5.0000000000e+02 1.0566000000e-01 0.0000e+00 1.0000e+00
      994 -1    0    0    0    0 -0.0000000000e+00 -0.0000000000e+00 +0.0000000000e+00 1.3100000000e+02 1.3100000000e+02 0.0000e+00 0.0000e+00
       13  1    1    2    0    0 +5.2148765916e+00 +3.6309054414e+01 +9.1419498385e+01 9.8504204069e+01 1.0566000000e-01 0.0000e+00 -1.0000e+00
      994  1    1    2    0    0 -1.5485894857e+01 -3.6349435224e+00 +1.0020759730e+01 1.3234213758e+02 1.3100000000e+02 0.0000e+00 0.0000e+00
      997  1    1    2    0    0 +1.0271018265e+01 -3.2674110891e+01 +3.9855973072e+02 4.0015365835e+02 1.0000000000e+01 0.0000e+00 0.0000e+00
</event>
<event>
 5      1 +4.4770400e-06 2.14014500e+02 7.95774700e-02 4.80017200e-01
       13 -1    0    0    0    0 +0.0000000000e+00 +0.0000000000e+00 +4.9999998884e+02 5.0000000000e+02 1.0566000000e-01 0.0000e+00 -1.0000e+00
      994 -1    0    0    0    0 -0.0000000000e+00 -0.0000000000e+00 +0.0000000000e+00 1.3100000000e+02 1.3100000000e+02 0.0000e+00 0.0000e+00
       13  1    1    2    0    0 -1.3399326410e+01 -1.2981898517e+01 +9.7154364861e+01 9.8929537616e+01 1.0566000000e-01 0.0000e+00 1.0000e+00
      994  1    1    2    0    0 +2.9137316973e+01 +4.5672832279e+01 +1.5167007959e+01 1.4256938304e+02 1.3100000000e+02 0.0000e+00 0.0000e+00
      997  1    1    2    0    0 -1.5737990563e+01 -3.2690933762e+01 +3.8767861602e+02 3.8950107935e+02 1.0000000000e+01 0.0000e+00 0.0000e+00
</event>
<event>
 5      1 +4.4770400e-06 2.12904000e+02 7.95774700e-02 4.81768400e-01
       13 -1    0    0    0    0 +0.0000000000e+00 +0.0000000000e+00 +4.9999998884e+02 5.0000000000e+02 1.0566000000e-01 0.0000e+00 -1.0000e+00
      994 -1    0    0    0    0 -0.0000000000e+00 -0.0000000000e+00 +0.0000000000e+00 1.3100000000e+02 1.3100000000e+02 0.0000e+00 0.0000e+00
       13  1    1    2    0    0 -8.4525488523e+00 -5.4132900589e+00 +4.0692035286e+01 4.1911838317e+01 1.0566000000e-01 0.0000e+00 1.0000e+00
      994  1    1    2    0    0 -2.2470993308e+00 +5.0333685472e+00 +1.5796136325e+00 1.3112543397e+02 1.3100000000e+02 0.0000e+00 0.0000e+00
      997  1    1    2    0    0 +1.0699648183e+01 +3.7992151169e-01 +4.5772833992e+02 4.5796272771e+02 1.0000000000e+01 0.0000e+00 0.0000e+00
</event>
<event>
 5      1 +4.4770400e-06 2.12807000e+02 7.95774700e-02 4.81922500e-01
       13 -1    0    0    0    0 +0.0000000000e+00 +0.0000000000e+00 +4.9999998884e+02 5.0000000000e+02 1.0566000000e-01 0.0000e+00 1.0000e+00
      994 -1    0    0    0    0 -0.0000000000e+00 -0.0000000000e+00 +0.0000000000e+00 1.3100000000e+02 1.3100000000e+02 0.0000e+00 0.0000e+00
       13  1    1    2    0    0 +8.4523113602e-01 -1.3283427116e+01 +6.6629826153e+01 6.7946366708e+01 1.0566000000e-01 0.0000e+00 -1.0000e+00
      994  1    1    2    0    0 -4.3124450279e+00 +4.4276369951e+00 +1.6937240596e+00 1.3115666149e+02 1.3100000000e+02 0.0000e+00 0.0000e+00
      997  1    1    2    0    0 +3.4672138919e+00 +8.8557901208e+00 +4.3167643862e+02 4.3189697180e+02 1.0000000000e+01 0.0000e+00 0.0000e+00
</event>
<event>
 5      1 +4.4770400e-06 2.11145200e+02 7.95774700e-02 4.84589600e-01
       13 -1    0    0    0    0 +0.0000000000e+00 +0.0000000000e+00 +4.9999998884e+02 5.0000000000e+02 1.0566000000e-01 0.0000e+00 1.0000e+00
      994 -1    0    0    0    0 -0.0000000000e+00 -0.0000000000e+00 +0.0000000000e+00 1.3100000000e+02 1.3100000000e+02 0.0000e+00 0.0000e+00
       13  1    1    2    0    0 +2.6089394619e+01 -1.6388216298e+01 +1.6157951152e+02 1.6449066798e+02 1.0566000000e-01 0.0000e+00 -1.0000e+00
      994  1    1    2    0    0 -1.3569297048e+01 +1.7767291162e+01 +5.2986913149e+00 1.3299954356e+02 1.3100000000e+02 0.0000e+00 0.0000e+00
      997  1    1    2    0    0 -1.2520097572e+01 -1.3790748644e+00 +3.3312178600e+02 3.3350978846e+02 1.0000000000e+01 0.0000e+00 0.0000e+00
</event>
<event>
 5      1 +4.4770400e-06 2.12818900e+02 7.95774700e-02 4.81903500e-01
       13 -1    0    0    0    0 +0.0000000000e+00 +0.0000000000e+00 +4.9999998884e+02 5.0000000000e+02 1.0566000000e-01 0.0000e+00 1.0000e+00
      994 -1    0    0    0    0 -0.0000000000e+00 -0.0000000000e+00 +0.0000000000e+00 1.3100000000e+02 1.3100000000e+02 0.0000e+00 0.0000e+00
       13  1    1    2    0    0 +3.9619433077e-01 +1.6592789741e+01 +7.9852506443e+01 8.1559252023e+01 1.0566000000e-01 0.0000e+00 -1.0000e+00
      994  1    1    2    0    0 -2.4862000033e+00 -1.8276448545e+01 +3.1652596343e+00 1.3232999898e+02 1.3100000000e+02 0.0000e+00 0.0000e+00
      997  1    1    2    0    0 +2.0900056726e+00 +1.6836588036e+00 +4.1698222276e+02 4.1711074900e+02 1.0000000000e+01 0.0000e+00 0.0000e+00
</event>
<event>
 5      1 +4.4770400e-06 2.09447700e+02 7.95774700e-02 4.87369500e-01
       13 -1    0    0    0    0 +0.0000000000e+00 +0.0000000000e+00 +4.9999998884e+02 5.0000000000e+02 1.0566000000e-01 0.0000e+00 1.0000e+00
      994 -1    0    0    0    0 -0.0000000000e+00 -0.0000000000e+00 +0.0000000000e+00 1.3100000000e+02 1.3100000000e+02 0.0000e+00 0.0000e+00
       13  1    1    2    0    0 +2.1175922127e+01 +1.8118579928e+01 +8.2808386580e+01 8.7372436549e+01 1.0566000000e-01 0.0000e+00 -1.0000e+00
      994  1    1    2    0    0 -9.5479188509e+00 -2.6655655522e+01 +8.2171402337e+00 1.3427661047e+02 1.3100000000e+02 0.0000e+00 0.0000e+00
      997  1    1    2    0    0 -1.1628003276e+01 +8.5370755936e+00 +4.0897446202e+02 4.0935095298e+02 1.0000000000e+01 0.0000e+00 0.0000e+00
</event>
<event>
 5      1 +4.4770400e-06 2.12644400e+02 7.95774700e-02 4.82181100e-01
       13 -1    0    0    0    0 +0.0000000000e+00 +0.0000000000e+00 +4.9999998884e+02 5.0000000000e+02 1.0566000000e-01 0.0000e+00 1.0000e+00
      994 -1    0    0    0    0 -0.0000000000e+00 -0.0000000000e+00 +0.0000000000e+00 1.3100000000e+02 1.3100000000e+02 0.0000e+00 0.0000e+00
       13  1    1    2    0    0 +1.9151813264e+01 +3.1136718515e+00 +9.3943099355e+01 9.5926033923e+01 1.0566000000e-01 0.0000e+00 -1.0000e+00
      994  1    1    2    0    0 -2.0606730816e+01 -2.1129480427e+01 +5.9302670244e+00 1.3441450950e+02 1.3100000000e+02 0.0000e+00 0.0000e+00
      997  1    1    2    0    0 +1.4549175522e+00 +1.8015808575e+01 +4.0012662246e+02 4.0065945657e+02 1.0000000000e+01 0.0000e+00 0.0000e+00
</event>
<event>
 5      1 +4.4770400e-06 2.07232100e+02 7.95774700e-02 4.91085200e-01
       13 -1    0    0    0    0 +0.0000000000e+00 +0.0000000000e+00 +4.9999998884e+02 5.0000000000e+02 1.0566000000e-01 0.0000e+00 -1.0000e+00
      994 -1    0    0    0    0 -0.0000000000e+00 -0.0000000000e+00 +0.0000000000e+00 1.3100000000e+02 1.3100000000e+02 0.0000e+00 0.0000e+00
       13  1    1    2    0    0 +4.4695120256e+00 +1.0328174426e+01 +7.9308896916e+00 1.3768002762e+01 1.0566000000e-01 0.0000e+00 1.0000e+00
      994  1    1    2    0    0 +3.7452318265e+00 -1.2976143182e+01 +6.8914516171e+00 1.3187455842e+02 1.3100000000e+02 0.0000e+00 0.0000e+00
      997  1    1    2    0    0 -8.2147438521e+00 +2.6479687562e+00 +4.8517764753e+02 4.8535743882e+02 1.0000000000e+01 0.0000e+00 0.0000e+00
</event>
<event>
 5      1 +4.4770400e-06 2.08858300e+02 7.95774700e-02 4.88348100e-01
       13 -1    0    0    0    0 +0.0000000000e+00 +0.0000000000e+00 +4.9999998884e+02 5.0000000000e+02 1.0566000000e-01 0.0000e+00 -1.0000e+00
      994 -1    0    0    0    0 -0.0000000000e+00 -0.0000000000e+00 +0.0000000000e+00 1.3100000000e+02 1.3100000000e+02 0.0000e+00 0.0000e+00
       13  1    1    2    0    0 -1.0075323043e+01 -7.6372295618e+00 +1.5638458261e+01 2.0109996286e+01 1.0566000000e-01 0.0000e+00 1.0000e+00
      994  1    1    2    0    0 +4.3629442752e+00 +5.8558678146e+00 +4.9082853479e+00 1.3129515504e+02 1.3100000000e+02 0.0000e+00 0.0000e+00
      997  1    1    2    0    0 +5.7123787678e+00 +1.7813617472e+00 +4.7945324523e+02 4.7959484868e+02 1.0000000000e+01 0.0000e+00 0.0000e+00
</event>
<event>
 5      1 +4.4770400e-06 2.11907500e+02 7.95774700e-02 4.83359700e-01
       13 -1    0    0    0    0 +0.0000000000e+00 +0.0000000000e+00 +4.9999998884e+02 5.0000000000e+02 1.0566000000e-01 0.0000e+00 -1.0000e+00
      994 -1    0    0    0    0 -0.0000000000e+00 -0.0000000000e+00 +0.0000000000e+00 1.3100000000e+02 1.3100000000e+02 0.0000e+00 0.0000e+00
       13  1    1    2    0    0 +2.1766776707e+01 +2.1953994186e+00 +1.1701296195e+02 1.1904056777e+02 1.0566000000e-01 0.0000e+00 1.0000e+00
      994  1    1    2    0    0 -1.3433161777e+01 +1.2714368867e+01 +3.9007398599e+00 1.3235679349e+02 1.3100000000e+02 0.0000e+00 0.0000e+00
      997  1    1    2    0    0 -8.3336149291e+00 -1.4909768285e+01 +3.7908628703e+02 3.7960263874e+02 1.0000000000e+01 0.0000e+00 0.0000e+00
</event>
<event>
 5      1 +4.4770400e-06 2.08234000e+02 7.95774700e-02 4.89392500e-01
       13 -1    0    0    0    0 +0.0000000000e+00 +0.0000000000e+00 +4.9999998884e+02 5.0000000000e+02 1.0566000000e-01 0.0000e+00 -1.0000e+00
      994 -1    0    0    0    0 -0.0000000000e+00 -0.0000000000e+00 +0.0000000000e+00 1.3100000000e+02 1.3100000000e+02 0.0000e+00 0.0000e+00
       13  1    1    2    0    0 +3.2095176056e+00 -3.4523313561e+01 +1.0878888436e+02 1.1418052683e+02 1.0566000000e-01 0.0000e+00 1.0000e+00
      994  1    1    2    0    0 +3.2549080101e+00 +2.4742843389e+01 +8.3165730634e+00 1.3361499958e+02 1.3100000000e+02 0.0000e+00 0.0000e+00
      997  1    1    2    0    0 -6.4644256157e+00 +9.7804701716e+00 +3.8289453141e+02 3.8320447359e+02 1.0000000000e+01 0.0000e+00 0.0000e+00
</event>
<event>
 5      1 +4.4770400e-06 2.11596400e+02 7.95774700e-02 4.83860300e-01
       13 -1    0    0    0    0 +0.0000000000e+00 +0.0000000000e+00 +4.9999998884e+02 5.0000000000e+02 1.0566000000e-01 0.0000e+00 -1.0000e+00
      994 -1    0    0    0    0 -0.0000000000e+00 -0.0000000000e+00 +0.0000000000e+00 1.3100000000e+02 1.3100000000e+02 0.0000e+00 0.0000e+00
       13  1    1    2    0    0 +2.5396340104e+00 +1.0881233930e+01 +2.5010127372e+01 2.7392857243e+01 1.0566000000e-01 0.0000e+00 1.0000e+00
      994  1    1    2    0    0 -8.3004614271e-01 -8.0080509106e+00 +2.7769618943e+00 1.3127653779e+02 1.3100000000e+02 0.0000e+00 0.0000e+00
      997  1    1    2    0    0 -1.7095878677e+00 -2.8731830190e+00 +4.7221289957e+02 4.7233060497e+02 1.0000000000e+01 0.0000e+00 0.0000e+00
</event>
<event>
 5      1 +4.4770400e-06 2.10688900e+02 7.95774700e-02 4.85331400e-01
       13 -1    0    0    0    0 +0.0000000000e+00 +0.0000000000e+00 +4.9999998884e+02 5.0000000000e+02 1.0566000000e-01 0.0000e+00 -1.0000e+00
      994 -1    0    0    0    0 -0.0000000000e+00 -0.0000000000e+00 +0.0000000000e+00 1.3100000000e+02 1.3100000000e+02 0.0000e+00 0.0000e+00
       13  1    1    2    0    0 -1.7144553735e+01 -1.3385434454e+00 +4.6724154934e+01 4.9788404671e+01 1.0566000000e-01 0.0000e+00 1.0000e+00
      994  1    1    2    0    0 +9.6519544944e+00 +2.5217205421e+00 +3.6699447833e+00 1.3143054361e+02 1.3100000000e+02 0.0000e+00 0.0000e+00
      997  1    1    2    0    0 +7.4925992410e+00 -1.1831770967e+00 +4.4960588912e+02 4.4978105171e+02 1.0000000000e+01 0.0000e+00 0.0000e+00
</event>
<event>
 5      1 +4.4770400e-06 2.04199200e+02 7.95774700e-02 4.96338900e-01
       13 -1    0    0    0    0 +0.0000000000e+00 +0.0000000000e+00 +4.9999998884e+02 5.0000000000e+02 1.0566000000e-01 0.0000e+00 1.0000e+00
      994 -1    0    0    0    0 -0.0000000000e+00 -0.0000000000e+00 +0.0000000000e+00 1.3100000000e+02 1.3100000000e+02 0.0000e+00 0.0000e+00
       13  1    1    2    0    0 -1.3910759865e+00 -1.1210912449e+01 +3.8560433075e+00 1.1937331543e+01 1.0566000000e-01 0.0000e+00 -1.0000e+00
      994  1    1    2    0    0 -7.4285800464e+00 +5.9253543509e+00 +8.9404711587e+00 1.3164811298e+02 1.3100000000e+02 0.0000e+00 0.0000e+00
      997  1    1    2    0    0 +8.8196560329e+00 +5.2855580977e+00 +4.8720347437e+02 4.8741455548e+02 1.0000000000e+01 0.0000e+00 0.0000e+00
</event>
<event>
 5      1 +4.4770400e-06 2.11498400e+02 7.95774700e-02 4.84018300e-01
       13 -1    0    0    0    0 +0.0000000000e+00 +0.0000000000e+00 +4.9999998884e+02 5.0000000000e+02 1.0566000000e-01 0.0000e+00 1.0000e+00
      994 -1    0    0    0    0 -0.0000000000e+00 -0.0000000000e+00 +0.0000000000e+00 1.3100000000e+02 1.3100000000e+02 0.0000e+00 0.0000e+00
       13  1    1    2    0    0 -5.4121018321e+00 +2.7586559466e+01 +7.3325439751e+01 7.8529869400e+01 1.0566000000e-01 0.0000e+00 -1.0000e+00
      994  1    1    2    0    0 +9.1724528818e+01 -7.0328770060e+01 +7.9309589791e+01 1.9186072062e+02 1.3100000000e+02 0.0000e+00 0.0000e+00
      997  1    1    2    0    0 -8.6312426986e+01 +4.2742210594e+01 +3.4736495929e+02 3.6060940998e+02 1.0000000000e+01 0.0000e+00 0.0000e+00
</event>
<event>
 5      1 +4.4770400e-06 2.12131200e+02 7.95774700e-02 4.83000800e-01
       13 -1    0    0    0    0 +0.0000000000e+00 +0.0000000000e+00 +4.9999998884e+02 5.0000000000e+02 1.0566000000e-01 0.0000e+00 -1.0000e+00
      994 -1    0    0    0    0 -0.0000000000e+00 -0.0000000000e+00 +0.0000000000e+00 1.3100000000e+02 1.3100000000e+02 0.0000e+00 0.0000e+00
       13  1    1    2    0    0 -9.1736100020e+00 +7.0772613684e+00 +5.2500465939e+01 5.3763861810e+01 1.0566000000e-01 0.0000e+00 1.0000e+00
      994  1    1    2    0    0 -2.2316672847e+01 -1.2364328475e+00 +4.5014407385e+00 1.3296926570e+02 1.3100000000e+02 0.0000e+00 0.0000e+00
      997  1    1    2    0    0 +3.1490282849e+01 -5.8408285209e+00 +4.4299808216e+02 4.4426687249e+02 1.0000000000e+01 0.0000e+00 0.0000e+00
</event>
<event>
 5      1 +4.4770400e-06 2.10864100e+02 7.95774700e-02 4.85046100e-01
       13 -1    0    0    0    0 +0.0000000000e+00 +0.0000000000e+00 +4.9999998884e+02 5.0000000000e+02 1.0566000000e-01 0.0000e+00 1.0000e+00
      994 -1    0    0    0    0 -0.0000000000e+00 -0.0000000000e+00 +0.0000000000e+00 1.3100000000e+02 1.3100000000e+02 0.0000e+00 0.0000e+00
       13  1    1    2    0    0 +7.7696984803e+00 -1.4023974124e+01 +5.4278134643e+01 5.6596529302e+01 1.0566000000e-01 0.0000e+00 -1.0000e+00
      994  1    1    2    0    0 +2.9319686758e+00 -7.0139062217e+00 +3.3228953386e+00 1.3126245828e+02 1.3100000000e+02 0.0000e+00 0.0000e+00
      997  1    1    2    0    0 -1.0701667156e+01 +2.1037880346e+01 +4.4239895885e+02 4.4314101242e+02 1.0000000000e+01 0.0000e+00 0.0000e+00
</event>
<event>
 5      1 +4.4770400e-06 2.11197600e+02 7.95774700e-02 4.84504800e-01
       13 -1    0    0    0    0 +0.0000000000e+00 +0.0000000000e+00 +4.9999998884e+02 5.0000000000e+02 1.0566000000e-01 0.0000e+00 1.0000e+00
      994 -1    0    0    0    0 -0.0000000000e+00 -0.0000000000e+00 +0.0000000000e+00 1.3100000000e+02 1.3100000000e+02 0.0000e+00 0.0000e+00
       13  1    1    2    0    0 +2.9303858934e+00 +2.9997081566e+01 +1.0804916497e+02 1.1217417385e+02 1.0566000000e-01 0.0000e+00 -1.0000e+00
      994  1    1    2    0    0 -5.6833361521e+00 -3.9184250199e+01 +1.0642724814e+01 1.3726606778e+02 1.3100000000e+02 0.0000e+00 0.0000e+00
      997  1    1    2    0    0 +2.7529502587e+00 +9.1871686334e+00 +3.8130809905e+02 3.8155975836e+02 1.0000000000e+01 0.0000e+00 0.0000e+00
</event>
<event>
 5      1 +4.4770400e-06 2.09534900e+02 7.95774700e-02 4.87225400e-01
       13 -1    0    0    0    0 +0.0000000000e+00 +0.0000000000e+00 +4.9999998884e+02 5.0000000000e+02 1.0566000000e-01 0.0000e+00 -1.0000e+00
      994 -1    0    0    0    0 -0.0000000000e+00 -0.0000000000e+00 +0.0000000000e+00 1.3100000000e+02 1.3100000000e+02 0.0000e+00 0.0000e+00
       13  1    1    2    0    0 -2.6172555759e+01 +6.0359736704e+00 +9.6470367546e+01 1.0013979544e+02 1.0566000000e-01 0.0000e+00 1.0000e+00
      994  1    1    2    0    0 +1.0621930320e+01 +3.9278700495e-01 +4.6626191155e+00 1.3151319212e+02 1.3100000000e+02 0.0000e+00 0.0000e+00
      997  1    1    2    0    0 +1.5550625439e+01 -6.4287606754e+00 +3.9886700217e+02 3.9934701243e+02 1.0000000000e+01 0.0000e+00 0.0000e+00
</event>
<event>
 5      1 +4.4770400e-06 2.11625200e+02 7.95774700e-02 4.83813800e-01
       13 -1    0    0    0    0 +0.0000000000e+00 +0.0000000000e+00 +4.9999998884e+02 5.0000000000e+02 1.0566000000e-01 0.0000e+00 -1.0000e+00
      994 -1    0    0    0    0 -0.0000000000e+00 -0.0000000000e+00 +0.0000000000e+00 1.3100000000e+02 1.3100000000e+02 0.0000e+00 0.0000e+00
       13  1    1    2    0    0 +1.6080971648e+01 +9.8495356933e+00 +7.8206078013e+01 8.0447577992e+01 1.0566000000e-01 0.0000e+00 1.0000e+00
      994  1    1    2    0    0 -5.4328170465e+00 -7.6485137185e+00 +2.8687019220e+00 1.3136683262e+02 1.3100000000e+02 0.0000e+00 0.0000e+00
      997  1    1    2    0    0 -1.0648154601e+01 -2.2010219748e+00 +4.1892520890e+02 4.1918558938e+02 1.0000000000e+01 0.0000e+00 0.0000e+00
</event>
<event>
 5      1 +4.4770400e-06 2.11614700e+02 7.95774700e-02 4.83830800e-01
       13 -1    0    0    0    0 +0.0000000000e+00 +0.0000000000e+00 +4.9999998884e+02 5.0000000000e+02 1.0566000000e-01 0.0000e+00 -1.0000e+00
      994 -1    0    0    0    0 -0.0000000000e+00 -0.0000000000e+00 +0.0000000000e+00 1.3100000000e+02 1.3100000000e+02 0.0000e+00 0.0000e+00
       13  1    1    2    0    0 -3.8120825532e+00 +9.2898266063e+00 +1.9309034441e+01 2.1764255715e+01 1.0566000000e-01 0.0000e+00 1.0000e+00
      994  1    1    2    0    0 +7.8559685918e+00 -9.5764493164e+00 +3.2003181312e+00 1.3162319955e+02 1.3100000000e+02 0.0000e+00 0.0000e+00
      997  1    1    2    0    0 -4.0438860386e+00 +2.8662271011e-01 +4.7749063626e+02 4.7761254473e+02 1.0000000000e+01 0.0000e+00 0.0000e+00
</event>
<event>
 5      1 +4.4770400e-06 2.11602500e+02 7.95774700e-02 4.83850400e-01
       13 -1    0    0    0    0 +0.0000000000e+00 +0.0000000000e+00 +4.9999998884e+02 5.0000000000e+02 1.0566000000e-01 0.0000e+00 1.0000e+00
      994 -1    0    0    0    0 -0.0000000000e+00 -0.0000000000e+00 +0.0000000000e+00 1.3100000000e+02 1.3100000000e+02 0.0000e+00 0.0000e+00
       13  1    1    2    0    0 +1.9817529750e+01 -2.8174623847e+01 +1.4246132958e+02 1.4656665891e+02 1.0566000000e-01 0.0000e+00 -1.0000e+00
      994  1    1    2    0    0 -1.8788245547e+01 +3.9766028250e+01 +1.2166396142e+01 1.3872042520e+02 1.3100000000e+02 0.0000e+00 0.0000e+00
      997  1    1    2    0    0 -1.0292842028e+00 -1.1591404403e+01 +3.4537226312e+02 3.4571291589e+02 1.0000000000e+01 0.0000e+00 0.0000e+00
</event>
<event>
 5      1 +4.4770400e-06 2.10599700e+02 7.95774700e-02 4.85476800e-01
       13 -1    0    0    0    0 +0.0000000000e+00 +0.0000000000e+00 +4.9999998884e+02 5.0000000000e+02 1.0566000000e-01 0.0000e+00 -1.0000e+00
      994 -1    0    0    0    0 -0.0000000000e+00 -0.0000000000e+00 +0.0000000000e+00 1.3100000000e+02 1.3100000000e+02 0.0000e+00 0.0000e+00
       13  1    1    2    0    0 -1.7356335935e+01 +9.1802237977e+00 +6.1944418049e+01 6.4981851293e+01 1.0566000000e-01 0.0000e+00 1.0000e+00
      994  1    1    2    0    0 +5.2083723110e+00 -9.2629433360e+00 +3.8078672442e+00 1.3148547111e+02 1.3100000000e+02 0.0000e+00 0.0000e+00
      997  1    1    2    0    0 +1.2147963624e+01 +8.2719538233e-02 +4.3424770354e+02 4.3453267759e+02 1.0000000000e+01 0.0000e+00 0.0000e+00
</event>
<event>
 5      1 +4.4770400e-06 2.11263700e+02 7.95774700e-02 4.84397700e-01
       13 -1    0    0    0    0 +0.0000000000e+00 +0.0000000000e+00 +4.9999998884e+02 5.0000000000e+02 1.0566000000e-01 0.0000e+00 1.0000e+00
      994 -1    0    0    0    0 -0.0000000000e+00 -0.0000000000e+00 +0.0000000000e+00 1.3100000000e+02 1.3100000000e+02 0.0000e+00 0.0000e+00
       13  1    1    2    0    0 +7.0573772582e+00 +1.0147349990e+01 +3.2736595626e+01 3.4992444081e+01 1.0566000000e-01 0.0000e+00 -1.0000e+00
      994  1    1    2    0    0 -4.9186083253e+00 +1.0583631009e+01 +3.3940787330e+00 1.3156263042e+02 1.3100000000e+02 0.0000e+00 0.0000e+00
      997  1    1    2    0    0 -2.1387689330e+00 -2.0730980999e+01 +4.6386931448e+02 4.6444492550e+02 1.0000000000e+01 0.0000e+00 0.0000e+00
</event>
<event>
 5      1 +4.4770400e-06 2.02148700e+02 7.95774700e-02 5.00006100e-01
       13 -1    0    0    0    0 +0.0000000000e+00 +0.0000000000e+00 +4.9999998884e+02 5.0000000000e+02 1.0566000000e-01 0.0000e+00 1.0000e+00
      994 -1    0    0    0    0 -0.0000000000e+00 -0.0000000000e+00 +0.0000000000e+00 1.3100000000e+02 1.3100000000e+02 0.0000e+00 0.0000e+00
       13  1    1    2    0    0 +1.7749916627e+00 -4.1039904035e+01 +6.7335410555e+01 7.8876441332e+01 1.0566000000e-01 0.0000e+00 -1.0000e+00
      994  1    1    2    0    0 -5.6008149428e+00 +4.0431702211e+01 +1.9233375277e+01 1.3855329082e+02 1.3100000000e+02 0.0000e+00 0.0000e+00
      997  1    1    2    0    0 +3.8258232801e+00 +6.0820182395e-01 +4.1343120300e+02 4.1357026785e+02 1.0000000000e+01 0.0000e+00 0.0000e+00
</event>
<event>
 5      1 +4.4770400e-06 2.09450400e+02 7.95774700e-02 4.87365100e-01
       13 -1    0    0    0    0 +0.0000000000e+00 +0.0000000000e+00 +4.9999998884e+02 5.0000000000e+02 1.0566000000e-01 0.0000e+00 1.0000e+00
      994 -1    0    0    0    0 -0.0000000000e+00 -0.0000000000e+00 +0.0000000000e+00 1.3100000000e+02 1.3100000000e+02 0.0000e+00 0.0000e+00
       13  1    1    2    0    0 +9.3969123960e+00 -6.0390479845e+00 +1.4714107452e+01 1.8473986719e+01 1.0566000000e-01 0.0000e+00 -1.0000e+00
      994  1    1    2    0    0 +7.1444359005e+00 +2.8340790583e+00 +4.4599505057e+00 1.3130105151e+02 1.3100000000e+02 0.0000e+00 0.0000e+00
      997  1    1    2    0    0 -1.6541348297e+01 +3.2049689262e+00 +4.8082593088e+02 4.8122496177e+02 1.0000000000e+01 0.0000e+00 0.0000e+00
</event>
<event>
 5      1 +4.4770400e-06 2.05105300e+02 7.95774700e-02 4.94748400e-01
       13 -1    0    0    0    0 +0.0000000000e+00 +0.0000000000e+00 +4.9999998884e+02 5.0000000000e+02 1.0566000000e-01 0.0000e+00 -1.0000e+00
      994 -1    0    0    0    0 -0.0000000000e+00 -0.0000000000e+00 +0.0000000000e+00 1.3100000000e+02 1.3100000000e+02 0.0000e+00 0.0000e+00
       13  1    1    2    0    0 +9.9156853410e+00 -2.6802027644e+01 +5.9799060155e+01 6.6276755058e+01 1.0566000000e-01 0.0000e+00 1.0000e+00
      994  1    1    2    0    0 -6.2294355764e+00 -1.4106925267e+00 +7.9231656527e+00 1.3139472012e+02 1.3100000000e+02 0.0000e+00 0.0000e+00
      997  1    1    2    0    0 -3.6862497646e+00 +2.8212720171e+01 +4.3227776303e+02 4.3332852482e+02 1.0000000000e+01 0.0000e+00 0.0000e+00
</event>
<event>
 5      1 +4.4770400e-06 2.12860600e+02 7.95774700e-02 4.81837300e-01
       13 -1    0    0    0    0 +0.0000000000e+00 +0.0000000000e+00 +4.9999998884e+02 5.0000000000e+02 1.0566000000e-01 0.0000e+00 1.0000e+00
      994 -1    0    0    0    0 -0.0000000000e+00 -0.0000000000e+00 +0.0000000000e+00 1.3100000000e+02 1.3100000000e+02 0.0000e+00 0.0000e+00
       13  1    1    2    0    0 -1.3455886984e+01 +2.6883975276e+00 +5.1986261752e+01 5.3766820166e+01 1.0566000000e-01 0.0000e+00 -1.0000e+00
      994  1    1    2    0    0 +2.2294379783e+01 -4.6627500578e+00 +4.0113018493e+00 1.3302582888e+02 1.3100000000e+02 0.0000e+00 0.0000e+00
      997  1    1    2    0    0 -8.8384927989e+00 +1.9743525302e+00 +4.4400242523e+02 4.4420735095e+02 1.0000000000e+01 0.0000e+00 0.0000e+00
</event>
<event>
 5      1 +4.4770400e-06 2.12388300e+02 7.95774700e-02 4.82589600e-01
       13 -1    0    0    0    0 +0.0000000000e+00 +0.0000000000e+00 +4.9999998884e+02 5.0000000000e+02 1.0566000000e-01 0.0000e+00 -1.0000e+00
      994 -1    0    0    0    0 -0.0000000000e+00 -0.0000000000e+00 +0.0000000000e+00 1.3100000000e+02 1.3100000000e+02 0.0000e+00 0.0000e+00
       13  1    1    2    0    0 +1.6502909723e+01 -6.3375265430e+00 +1.0681937320e+02 1.0827234147e+02 1.0566000000e-01 0.0000e+00 1.0000e+00
      994  1    1    2    0    0 +1.3134366659e+00 +1.9277604795e+01 +3.6712290986e+00 1.3246821915e+02 1.3100000000e+02 0.0000e+00 0.0000e+00
      997  1    1    2    0    0 -1.7816346389e+01 -1.2940078252e+01 +3.8950938654e+02 3.9025943938e+02 1.0000000000e+01 0.0000e+00 0.0000e+00
</event>
<event>
 5      1 +4.4770400e-06 2.13306300e+02 7.95774700e-02 4.81131300e-01
       13 -1    0    0    0    0 +0.0000000000e+00 +0.0000000000e+00 +4.9999998884e+02 5.0000000000e+02 1.0566000000e-01 0.0000e+00 1.0000e+00
      994 -1    0    0    0    0 -0.0000000000e+00 -0.0000000000e+00 +0.0000000000e+00 1.3100000000e+02 1.3100000000e+02 0.0000e+00 0.0000e+00
       13  1    1    2    0    0 -1.1301645385e+01 +2.9938296373e+00 +6.0475659718e+01 6.1595509468e+01 1.0566000000e-01 0.0000e+00 -1.0000e+00
      994  1    1    2    0    0 +1.0699360318e+01 -2.4500825694e+00 +1.7048724626e+00 1.3147009472e+02 1.3100000000e+02 0.0000e+00 0.0000e+00
      997  1    1    2    0    0 +6.0228506637e-01 -5.4374706791e-01 +4.3781945666e+02 4.3793439581e+02 1.0000000000e+01 0.0000e+00 0.0000e+00
</event>
<event>
 5      1 +4.4770400e-06 2.06829700e+02 7.95774700e-02 4.91770900e-01
       13 -1    0    0    0    0 +0.0000000000e+00 +0.0000000000e+00 +4.9999998884e+02 5.0000000000e+02 1.0566000000e-01 0.0000e+00 -1.0000e+00
      994 -1    0    0    0    0 -0.0000000000e+00 -0.0000000000e+00 +0.0000000000e+00 1.3100000000e+02 1.3100000000e+02 0.0000e+00 0.0000e+00
       13  1    1    2    0    0 -2.1131157204e+00 +3.5098516604e+01 +7.7103653517e+01 8.4742879793e+01 1.0566000000e-01 0.0000e+00 1.0000e+00
      994  1    1    2    0    0 +1.9100505472e+01 -3.8407775575e+01 +1.5886189866e+01 1.3875646854e+02 1.3100000000e+02 0.0000e+00 0.0000e+00
      997  1    1    2    0    0 -1.6987389751e+01 +3.3092589712e+00 +4.0701014545e+02 4.0750065166e+02 1.0000000000e+01 0.0000e+00 0.0000e+00
</event>
<event>
 5      1 +4.4770400e-06 2.10612400e+02 7.95774700e-02 4.85456100e-01
       13 -1    0    0    0    0 +0.0000000000e+00 +0.0000000000e+00 +4.9999998884e+02 5.0000000000e+02 1.0566000000e-01 0.0000e+00 -1.0000e+00
      994 -1    0    0    0    0 -0.0000000000e+00 -0.0000000000e+00 +0.0000000000e+00 1.3100000000e+02 1.3100000000e+02 0.0000e+00 0.0000e+00
       13  1    1    2    0    0 +1.0125109523e+01 -6.9933078860e+00 +2.3569304559e+01 2.6588483963e+01 1.0566000000e-01 0.0000e+00 1.0000e+00
      994  1    1    2    0    0 -2.9528205905e+00 +1.7603652651e+00 +3.2946172024e+00 1.3108650784e+02 1.3100000000e+02 0.0000e+00 0.0000e+00
      997  1    1    2    0    0 -7.1722889326e+00 +5.2329426209e+00 +4.7313606707e+02 4.7332500820e+02 1.0000000000e+01 0.0000e+00 0.0000e+00
</event>
<event>
 5      1 +4.4770400e-06 2.02666000e+02 7.95774700e-02 4.99071900e-01
       13 -1    0    0    0    0 +0.0000000000e+00 +0.0000000000e+00 +4.9999998884e+02 5.0000000000e+02 1.0566000000e-01 0.0000e+00 1.0000e+00
      994 -1    0    0    0    0 -0.0000000000e+00 -0.0000000000e+00 +0.0000000000e+00 1.3100000000e+02 1.3100000000e+02 0.0000e+00 0.0000e+00
       13  1    1    2    0    0 +2.8565833682e+01 +3.4888888517e+01 +1.6666823686e+02 1.7266022628e+02 1.0566000000e-01 0.0000e+00 -1.0000e+00
      994  1    1    2    0    0 -2.8221796202e+01 +1.8979051937e+01 +1.5968182669e+01 1.3628153599e+02 1.3100000000e+02 0.0000e+00 0.0000e+00
      997  1    1    2    0    0 -3.4403748078e-01 -5.3867940454e+01 +3.1736356930e+02 3.2205823773e+02 1.0000000000e+01 0.0000e+00 0.0000e+00
</event>
<event>
 5      1 +4.4770400e-06 2.02086100e+02 7.95774700e-02 5.00119600e-01
       13 -1    0    0    0    0 +0.0000000000e+00 +0.0000000000e+00 +4.9999998884e+02 5.0000000000e+02 1.0566000000e-01 0.0000e+00 -1.0000e+00
      994 -1    0    0    0    0 -0.0000000000e+00 -0.0000000000e+00 +0.0000000000e+00 1.3100000000e+02 1.3100000000e+02 0.0000e+00 0.0000e+00
       13  1    1    2    0    0 +1.9361634573e+01 +9.8523984430e+00 +1.6157654945e+01 2.7074409057e+01 1.0566000000e-01 0.0000e+00 1.0000e+00
      994  1    1    2    0    0 -3.0572750576e+01 -1.6458684960e+01 +1.6760843914e+01 1.3655587603e+02 1.3100000000e+02 0.0000e+00 0.0000e+00
      997  1    1    2    0    0 +1.1211116003e+01 +6.6062865167e+00 +4.6708148998e+02 4.6736971492e+02 1.0000000000e+01 0.0000e+00 0.0000e+00
</event>
<event>
 5      1 +4.4770400e-06 2.12104300e+02 7.95774700e-02 4.83043800e-01
       13 -1    0    0    0    0 +0.0000000000e+00 +0.0000000000e+00 +4.9999998884e+02 5.0000000000e+02 1.0566000000e-01 0.0000e+00 -1.0000e+00
      994 -1    0    0    0    0 -0.0000000000e+00 -0.0000000000e+00 +0.0000000000e+00 1.3100000000e+02 1.3100000000e+02 0.0000e+00 0.0000e+00
       13  1    1    2    0    0 -7.0228735705e+00 +1.1235657311e+01 +3.8421105869e+01 4.0641767784e+01 1.0566000000e-01 0.0000e+00 1.0000e+00
      994  1    1    2    0    0 +6.2338581797e+00 -1.6559758110e+01 +3.6000289629e+00 1.3223859794e+02 1.3100000000e+02 0.0000e+00 0.0000e+00
      997  1    1    2    0    0 +7.8901539079e-01 +5.3241007998e+00 +4.5797885400e+02 4.5811963428e+02 1.0000000000e+01 0.0000e+00 0.0000e+00
</event>
<event>
 5      1 +4.4770400e-06 2.11148600e+02 7.95774700e-02 4.84584100e-01
       13 -1    0    0    0    0 +0.0000000000e+00 +0.0000000000e+00 +4.9999998884e+02 5.0000000000e+02 1.0566000000e-01 0.0000e+00 1.0000e+00
      994 -1    0    0    0    0 -0.0000000000e+00 -0.0000000000e+00 +0.0000000000e+00 1.3100000000e+02 1.3100000000e+02 0.0000e+00 0.0000e+00
       13  1    1    2    0    0 -9.9084047323e+00 -1.9721273593e+00 +1.7358097839e+01 2.0084334574e+01 1.0566000000e-01 0.0000e+00 -1.0000e+00
      994  1    1    2    0    0 +7.0531047555e+00 +2.7833698587e+00 +3.0954261379e+00 1.3125576215e+02 1.3100000000e+02 0.0000e+00 0.0000e+00
      997  1    1    2    0    0 +2.8552999768e+00 -8.1124249943e-01 +4.7954646486e+02 4.7965990328e+02 1.0000000000e+01 0.0000e+00 0.0000e+00
</event>
<event>
 5      1 +4.4770400e-06 1.94936300e+02 7.95774700e-02 5.13708600e-01
       13 -1    0    0    0    0 +0.0000000000e+00 +0.0000000000e+00 +4.9999998884e+02 5.0000000000e+02 1.0566000000e-01 0.0000e+00 1.0000e+00
      994 -1    0    0    0    0 -0.0000000000e+00 -0.0000000000e+00 +0.0000000000e+00 1.3100000000e+02 1.3100000000e+02 0.0000e+00 0.0000e+00
       13  1    1    2    0    0 +4.6550307018e+01 +3.6329898032e+01 +5.2305196971e+01 7.8883695202e+01 1.0566000000e-01 0.0000e+00 -1.0000e+00
      994  1    1    2    0    0 -5.9511409852e+01 -4.5176369769e+01 +5.7377611021e+01 1.6135582585e+02 1.3100000000e+02 0.0000e+00 0.0000e+00
      997  1    1    2    0    0 +1.2961102834e+01 +8.8464717372e+00 +3.9031718084e+02 3.9076047895e+02 1.0000000000e+01 0.0000e+00 0.0000e+00
</event>
<event>
 5      1 +4.4770400e-06 2.11855600e+02 7.95774700e-02 4.83443000e-01
       13 -1    0    0    0    0 +0.0000000000e+00 +0.0000000000e+00 +4.9999998884e+02 5.0000000000e+02 1.0566000000e-01 0.0000e+00 -1.0000e+00
      994 -1    0    0    0    0 -0.0000000000e+00 -0.0000000000e+00 +0.0000000000e+00 1.3100000000e+02 1.3100000000e+02 0.0000e+00 0.0000e+00
       13  1    1    2    0    0 +1.7531952261e+01 -1.0525315477e+00 +7.0015688833e+01 7.2185074770e+01 1.0566000000e-01 0.0000e+00 1.0000e+00
      994  1    1    2    0    0 -1.0415257656e+01 +1.5524184004e+01 +3.9787486554e+00 1.3238696432e+02 1.3100000000e+02 0.0000e+00 0.0000e+00
      997  1    1    2    0    0 -7.1166946046e+00 -1.4471652456e+01 +4.2600555135e+02 4.2642796091e+02 1.0000000000e+01 0.0000e+00 0.0000e+00
</event>
<event>
 5      1 +4.4770400e-06 1.99451000e+02 7.95774700e-02 5.04980000e-01
       13 -1    0    0    0    0 +0.0000000000e+00 +0.0000000000e+00 +4.9999998884e+02 5.0000000000e+02 1.0566000000e-01 0.0000e+00 1.0000e+00
      994 -1    0    0    0    0 -0.0000000000e+00 -0.0000000000e+00 +0.0000000000e+00 1.3100000000e+02 1.3100000000e+02 0.0000e+00 0.0000e+00
       13  1    1    2    0    0 -7.7851521571e+00 -2.3040410981e+01 +1.7620821535e+01 3.0032876117e+01 1.0566000000e-01 0.0000e+00 -1.0000e+00
      994  1    1    2    0    0 +1.0602952288e+01 +2.0378653939e+01 +1.5425684614e+01 1.3389049212e+02 1.3100000000e+02 0.0000e+00 0.0000e+00
      997  1    1    2    0    0 -2.8178001306e+00 +2.6617570422e+00 +4.6695348269e+02 4.6707663177e+02 1.0000000000e+01 0.0000e+00 0.0000e+00
</event>
<event>
 5      1 +4.4770400e-06 2.12313000e+02 7.95774700e-02 4.82709900e-01
       13 -1    0    0    0    0 +0.0000000000e+00 +0.0000000000e+00 +4.9999998884e+02 5.0000000000e+02 1.0566000000e-01 0.0000e+00 1.0000e+00
      994 -1    0    0    0    0 -0.0000000000e+00 -0.0000000000e+00 +0.0000000000e+00 1.3100000000e+02 1.3100000000e+02 0.0000e+00 0.0000e+00
       13  1    1    2    0    0 -1.5544306605e+01 +8.8460928068e+00 +9.6737608849e+01 9.8377105851e+01 1.0566000000e-01 0.0000e+00 -1.0000e+00
      994  1    1    2    0    0 +5.4728838662e+00 -3.6560948255e+00 +2.1061702567e+00 1.3118214604e+02 1.3100000000e+02 0.0000e+00 0.0000e+00
      997  1    1    2    0    0 +1.0071422739e+01 -5.1899979813e+00 +4.0115620973e+02 4.0144074811e+02 1.0000000000e+01 0.0000e+00 0.0000e+00
</event>
<event>
 5      1 +4.4770400e-06 2.13116600e+02 7.95774700e-02 4.81431300e-01
       13 -1    0    0    0    0 +0.0000000000e+00 +0.0000000000e+00 +4.9999998884e+02 5.0000000000e+02 1.0566000000e-01 0.0000e+00 -1.0000e+00
      994 -1    0    0    0    0 -0.0000000000e+00 -0.0000000000e+00 +0.0000000000e+00 1.3100000000e+02 1.3100000000e+02 0.0000e+00 0.0000e+00
       13  1    1    2    0    0 -9.8400469635e+00 +1.0518941215e+01 +6.9380340481e+01 7.0859843761e+01 1.0566000000e-01 0.0000e+00 1.0000e+00
      994  1    1    2    0    0 +7.6190589526e+00 -1.9073806867e+01 +3.3300553724e+00 1.3264218573e+02 1.3100000000e+02 0.0000e+00 0.0000e+00
      997  1    1    2    0    0 +2.2209880110e+00 +8.5548656520e+00 +4.2728959298e+02 4.2749797050e+02 1.0000000000e+01 0.0000e+00 0.0000e+00
</event>
<event>
 5      1 +4.4770400e-06 2.07904900e+02 7.95774700e-02 4.89946200e-01
       13 -1    0    0    0    0 +0.0000000000e+00 +0.0000000000e+00 +4.9999998884e+02 5.0000000000e+02 1.0566000000e-01 0.0000e+00 -1.0000e+00
      994 -1    0    0    0    0 -0.0000000000e+00 -0.0000000000e+00 +0.0000000000e+00 1.3100000000e+02 1.3100000000e+02 0.0000e+00 0.0000e+00
       13  1    1    2    0    0 -2.5466293747e+01 -2.5234019112e+01 +9.0078783177e+01 9.6950947290e+01 1.0566000000e-01 0.0000e+00 1.0000e+00
      994  1    1    2    0    0 +3.2266516087e+01 +2.4502340739e+01 +1.3880333628e+01 1.3782291690e+02 1.3100000000e+02 0.0000e+00 0.0000e+00
      997  1    1    2    0    0 -6.8002223410e+00 +7.3167837298e-01 +3.9604087203e+02 3.9622613581e+02 1.0000000000e+01 0.0000e+00 0.0000e+00
</event>
<event>
 5      1 +4.4770400e-06 2.01465500e+02 7.95774700e-02 5.01249400e-01
       13 -1    0    0    0    0 +0.0000000000e+00 +0.0000000000e+00 +4.9999998884e+02 5.0000000000e+02 1.0566000000e-01 0.0000e+00 -1.0000e+00
      994 -1    0    0    0    0 -0.0000000000e+00 -0.0000000000e+00 +0.0000000000e+00 1.3100000000e+02 1.3100000000e+02 0.0000e+00 0.0000e+00
       13  1    1    2    0    0 -6.8590878289e+00 +4.2153829031e+01 +6.8522871454e+01 8.0742723908e+01 1.0566000000e-01 0.0000e+00 1.0000e+00
      994  1    1    2    0    0 +1.3459344878e+01 -4.0384818667e+01 +2.0685785523e+01 1.3928743398e+02 1.3100000000e+02 0.0000e+00 0.0000e+00
      997  1    1    2    0    0 -6.6002570494e+00 -1.7690103636e+00 +4.1079133186e+02 4.1096984211e+02 1.0000000000e+01 0.0000e+00 0.0000e+00
</event>
<event>
 5      1 +4.4770400e-06 2.11695700e+02 7.95774700e-02 4.83700300e-01
       13 -1    0    0    0    0 +0.0000000000e+00 +0.0000000000e+00 +4.9999998884e+02 5.0000000000e+02 1.0566000000e-01 0.0000e+00 1.0000e+00
      994 -1    0    0    0    0 -0.0000000000e+00 -0.0000000000e+00 +0.0000000000e+00 1.3100000000e+02 1.3100000000e+02 0.0000e+00 0.0000e+00
       13  1    1    2    0    0 -1.8021509646e+00 -1.3665104486e+01 +4.5250892726e+01 4.7303670949e+01 1.0566000000e-01 0.0000e+00 -1.0000e+00
      994  1    1    2    0    0 -5.1687592031e+00 +1.2905130356e+00 +2.5187124184e+00 1.3113247274e+02 1.3100000000e+02 0.0000e+00 0.0000e+00
      997  1    1    2    0    0 +6.9709101677e+00 +1.2374591450e+01 +4.5223038369e+02 4.5256385631e+02 1.0000000000e+01 0.0000e+00 0.0000e+00
</event>
<event>
 5      1 +4.4770400e-06 2.08726700e+02 7.95774700e-02 4.88567700e-01
       13 -1    0    0    0    0 +0.0000000000e+00 +0.0000000000e+00 +4.9999998884e+02 5.0000000000e+02 1.0566000000e-01 0.0000e+00 1.0000e+00
      994 -1    0    0    0    0 -0.0000000000e+00 -0.0000000000e+00 +0.0000000000e+00 1.3100000000e+02 1.3100000000e+02 0.0000e+00 0.0000e+00
       13  1    1    2    0    0 -1.9317792092e+01 -2.1617297755e+01 +1.0853280016e+02 1.1233817040e+02 1.0566000000e-01 0.0000e+00 -1.0000e+00
      994  1    1    2    0    0 +2.1568165369e+01 -1.0212968123e+01 +7.6337963983e+00 1.3337453026e+02 1.3100000000e+02 0.0000e+00 0.0000e+00
      997  1    1    2    0    0 -2.2503732774e+00 +3.1830265878e+01 +3.8383339227e+02 3.8528729934e+02 1.0000000000e+01 0.0000e+00 0.0000e+00
</event>
<event>
 5      1 +4.4770400e-06 2.09654100e+02 7.95774700e-02 4.87028600e-01
       13 -1    0    0    0    0 +0.0000000000e+00 +0.0000000000e+00 +4.9999998884e+02 5.0000000000e+02 1.0566000000e-01 0.0000e+00 -1.0000e+00
      994 -1    0    0    0    0 -0.0000000000e+00 -0.0000000000e+00 +0.0000000000e+00 1.3100000000e+02 1.3100000000e+02 0.0000e+00 0.0000e+00
       13  1    1    2    0    0 +3.9586553140e+01 -5.2691268872e+00 +1.3330372320e+02 1.3915729471e+02 1.0566000000e-01 0.0000e+00 1.0000e+00
      994  1    1    2    0    0 -4.3284610691e+01 +1.2207481594e+01 +1.4326914630e+01 1.3924381714e+02 1.3100000000e+02 0.0000e+00 0.0000e+00
      997  1    1    2    0    0 +3.6980575515e+00 -6.9383547069e+00 +3.5236935100e+02 3.5259888815e+02 1.0000000000e+01 0.0000e+00 0.0000e+00
</event>
<event>
 5      1 +4.4770400e-06 2.11987200e+02 7.95774700e-02 4.83231700e-01
       13 -1    0    0    0    0 +0.0000000000e+00 +0.0000000000e+00 +4.9999998884e+02 5.0000000000e+02 1.0566000000e-01 0.0000e+00 1.0000e+00
      994 -1    0    0    0    0 -0.0000000000e+00 -0.0000000000e+00 +0.0000000000e+00 1.3100000000e+02 1.3100000000e+02 0.0000e+00 0.0000e+00
       13  1    1    2    0    0 +9.5082182617e+00 +1.1053273013e+01 +5.5356593017e+01 5.7244603355e+01 1.0566000000e-01 0.0000e+00 -1.0000e+00
      994  1    1    2    0    0 -2.9165317446e+00 -1.9262894409e+00 +2.2094248391e+00 1.3106524446e+02 1.3100000000e+02 0.0000e+00 0.0000e+00
      997  1    1    2    0    0 -6.5916865171e+00 -9.1269835723e+00 +4.4243397098e+02 4.4269015218e+02 1.0000000000e+01 0.0000e+00 0.0000e+00
</event>
<event>
 5      1 +4.4770400e-06 2.10861900e+02 7.95774700e-02 4.85049700e-01
       13 -1    0    0    0    0 +0.0000000000e+00 +0.0000000000e+00 +4.9999998884e+02 5.0000000000e+02 1.0566000000e-01 0.0000e+00 -1.0000e+00
      994 -1    0    0    0    0 -0.0000000000e+00 -0.0000000000e+00 +0.0000000000e+00 1.3100000000e+02 1.3100000000e+02 0.0000e+00 0.0000e+00
       13  1    1    2    0    0 -7.7864281642e+00 +1.4361294275e+01 +4.7020122716e+01 4.9777287402e+01 1.0566000000e-01 0.0000e+00 1.0000e+00
      994  1    1    2    0    0 +9.8379623039e+00 -8.5998857744e-04 +3.5183545916e+00 1.3141599721e+02 1.3100000000e+02 0.0000e+00 0.0000e+00
      997  1    1    2    0    0 -2.0515341397e+00 -1.4360434286e+01 +4.4946151153e+02 4.4980671539e+02 1.0000000000e+01 0.0000e+00 0.0000e+00
</event>
<event>
 5      1 +4.4770400e-06 2.11562100e+02 7.95774700e-02 4.83915600e-01
       13 -1    0    0    0    0 +0.0000000000e+00 +0.0000000000e+00 +4.9999998884e+02 5.0000000000e+02 1.0566000000e-01 0.0000e+00 -1.0000e+00
      994 -1    0    0    0    0 -0.0000000000e+00 -0.0000000000e+00 +0.0000000000e+00 1.3100000000e+02 1.3100000000e+02 0.0000e+00 0.0000e+00
       13  1    1    2    0    0 +1.4864262298e+01 +6.6970254382e+00 +6.9081660161e+01 7.0979457437e+01 1.0566000000e-01 0.0000e+00 1.0000e+00
      994  1    1    2    0    0 +1.6875598320e+00 +4.7297007841e+00 +2.6085287062e+00 1.3112216575e+02 1.3100000000e+02 0.0000e+00 0.0000e+00
      997  1    1    2    0    0 -1.6551822130e+01 -1.1426726222e+01 +4.2830979997e+02 4.2889837682e+02 1.0000000000e+01 0.0000e+00 0.0000e+00
</event>
<event>
 5      1 +4.4770400e-06 2.06716400e+02 7.95774700e-02 4.91964500e-01
       13 -1    0    0    0    0 +0.0000000000e+00 +0.0000000000e+00 +4.9999998884e+02 5.0000000000e+02 1.0566000000e-01 0.0000e+00 -1.0000e+00
      994 -1    0    0    0    0 -0.0000000000e+00 -0.0000000000e+00 +0.0000000000e+00 1.3100000000e+02 1.3100000000e+02 0.0000e+00 0.0000e+00
       13  1    1    2    0    0 -2.6405146354e+00 +5.2154338144e+01 +1.3767366560e+02 1.4724502256e+02 1.0566000000e-01 0.0000e+00 1.0000e+00
      994  1    1    2    0    0 -2.5631176845e+00 -5.6876655075e+01 +2.3558968710e+01 1.4476722167e+02 1.3100000000e+02 0.0000e+00 0.0000e+00
      997  1    1    2    0    0 +5.2036323199e+00 +4.7223169304e+00 +3.3876735452e+02 3.3898775576e+02 1.0000000000e+01 0.0000e+00 0.0000e+00
</event>
<event>
 5      1 +4.4770400e-06 2.11897500e+02 7.95774700e-02 4.83375700e-01
       13 -1    0    0    0    0 +0.0000000000e+00 +0.0000000000e+00 +4.9999998884e+02 5.0000000000e+02 1.0566000000e-01 0.0000e+00 1.0000e+00
      994 -1    0    0    0    0 -0.0000000000e+00 -0.0000000000e+00 +0.0000000000e+00 1.3100000000e+02 1.3100000000e+02 0.0000e+00 0.0000e+00
       13  1    1    2    0    0 +1.0717148479e+01 +1.3413645509e+01 +7.5298772095e+01 7.7231466388e+01 1.0566000000e-01 0.0000e+00 -1.0000e+00
      994  1    1    2    0    0 -1.2577281970e+01 +2.9251913823e+00 +3.0417226867e+00 1.3167003016e+02 1.3100000000e+02 0.0000e+00 0.0000e+00
      997  1    1    2    0    0 +1.8601334910e+00 -1.6338836891e+01 +4.2165949405e+02 4.2209850345e+02 1.0000000000e+01 0.0000e+00 0.0000e+00
</event>
<event>
 5      1 +4.4770400e-06 2.09913700e+02 7.95774700e-02 4.86600700e-01
       13 -1    0    0    0    0 +0.0000000000e+00 +0.0000000000e+00 +4.9999998884e+02 5.0000000000e+02 1.0566000000e-01 0.0000e+00 1.0000e+00
      994 -1    0    0    0    0 -0.0000000000e+00 -0.0000000000e+00 +0.0000000000e+00 1.3100000000e+02 1.3100000000e+02 0.0000e+00 0.0000e+00
       13  1    1    2    0    0 -1.5078587555e+00 -1.9254454274e+01 +4.3785760067e+01 4.7856155258e+01 1.0566000000e-01 0.0000e+00 -1.0000e+00
      994  1    1    2    0    0 +2.5279132568e+00 +2.0554788710e+01 +5.9444808331e+00 1.3276003366e+02 1.3100000000e+02 0.0000e+00 0.0000e+00
      997  1    1    2    0    0 -1.0200545013e+00 -1.3003344365e+00 +4.5026974794e+02 4.5038381108e+02 1.0000000000e+01 0.0000e+00 0.0000e+00
</event>
<event>
 5      1 +4.4770400e-06 2.11119000e+02 7.95774700e-02 4.84632200e-01
       13 -1    0    0    0    0 +0.0000000000e+00 +0.0000000000e+00 +4.9999998884e+02 5.0000000000e+02 1.0566000000e-01 0.0000e+00 1.0000e+00
      994 -1    0    0    0    0 -0.0000000000e+00 -0.0000000000e+00 +0.0000000000e+00 1.3100000000e+02 1.3100000000e+02 0.0000e+00 0.0000e+00
       13  1    1    2    0    0 -1.2087261798e+00 +1.0935779981e+01 +2.4657066119e+01 2.7000636593e+01 1.0566000000e-01 0.0000e+00 -1.0000e+00
      994  1    1    2    0    0 -1.5618635179e+01 +7.6021936221e+00 +4.3321104836e+00 1.3221763231e+02 1.3100000000e+02 0.0000e+00 0.0000e+00
      997  1    1    2    0    0 +1.6827361359e+01 -1.8537973603e+01 +4.7101081223e+02 4.7178173110e+02 1.0000000000e+01 0.0000e+00 0.0000e+00
</event>
<event>
 5      1 +4.4770400e-06 2.09788200e+02 7.95774700e-02 4.86807400e-01
       13 -1    0    0    0    0 +0.0000000000e+00 +0.0000000000e+00 +4.9999998884e+02 5.0000000000e+02 1.0566000000e-01 0.0000e+00 1.0000e+00
      994 -1    0    0    0    0 -0.0000000000e+00 -0.0000000000e+00 +0.0000000000e+00 1.3100000000e+02 1.3100000000e+02 0.0000e+00 0.0000e+00
       13  1    1    2    0    0 -2.2128731908e+01 +1.5074592042e+01 +9.4977885896e+01 9.8679957815e+01 1.0566000000e-01 0.0000e+00 -1.0000e+00
      994  1    1    2    0    0 +2.3640458135e+01 +7.6867031261e+00 +7.0020903927e+00 1.3352148118e+02 1.3100000000e+02 0.0000e+00 0.0000e+00
      997  1    1    2    0    0 -1.5117262268e+00 -2.2761295168e+01 +3.9802001255e+02 3.9879856101e+02 1.0000000000e+01 0.0000e+00 0.0000e+00
</event>
<event>
 5      1 +4.4770400e-06 2.10730200e+02 7.95774700e-02 4.85264000e-01
       13 -1    0    0    0    0 +0.0000000000e+00 +0.0000000000e+00 +4.9999998884e+02 5.0000000000e+02 1.0566000000e-01 0.0000e+00 1.0000e+00
      994 -1    0    0    0    0 -0.0000000000e+00 -0.0000000000e+00 +0.0000000000e+00 1.3100000000e+02 1.3100000000e+02 0.0000e+00 0.0000e+00
       13  1    1    2    0    0 -2.7162863719e+00 -1.1650321258e+01 +2.0901244902e+01 2.4082802984e+01 1.0566000000e-01 0.0000e+00 -1.0000e+00
      994  1    1    2    0    0 +1.1372468879e+01 +1.1121035456e+01 +4.4016028117e+00 1.3203554289e+02 1.3100000000e+02 0.0000e+00 0.0000e+00
      997  1    1    2    0    0 -8.6561825075e+00 +5.2928580205e-01 +4.7469714112e+02 4.7488165413e+02 1.0000000000e+01 0.0000e+00 0.0000e+00
</event>
<event>
 5      1 +4.4770400e-06 2.06206700e+02 7.95774700e-02 4.92839200e-01
       13 -1    0    0    0    0 +0.0000000000e+00 +0.0000000000e+00 +4.9999998884e+02 5.0000000000e+02 1.0566000000e-01 0.0000e+00 1.0000e+00
      994 -1    0    0    0    0 -0.0000000000e+00 -0.0000000000e+00 +0.0000000000e+00 1.3100000000e+02 1.3100000000e+02 0.0000e+00 0.0000e+00
       13  1    1    2    0    0 +3.0855670875e+01 -2.4002304706e+01 +9.0672920341e+01 9.8740937324e+01 1.0566000000e-01 0.0000e+00 -1.0000e+00
      994  1    1    2    0    0 -4.7705604899e+01 +3.0095222729e+00 +1.8837542734e+01 1.4071508441e+02 1.3100000000e+02 0.0000e+00 0.0000e+00
      997  1    1    2    0    0 +1.6849934024e+01 +2.0992782433e+01 +3.9048952576e+02 3.9154397827e+02 1.0000000000e+01 0.0000e+00 0.0000e+00
</event>
<event>
 5      1 +4.4770400e-06 2.13414200e+02 7.95774700e-02 4.80961000e-01
       13 -1    0    0    0    0 +0.0000000000e+00 +0.0000000000e+00 +4.9999998884e+02 5.0000000000e+02 1.0566000000e-01 0.0000e+00 1.0000e+00
      994 -1    0    0    0    0 -0.0000000000e+00 -0.0000000000e+00 +0.0000000000e+00 1.3100000000e+02 1.3100000000e+02 0.0000e+00 0.0000e+00
       13  1    1    2    0    0 -2.1646324668e+01 +5.0100917103e+00 +1.1214463818e+02 1.1432451805e+02 1.0566000000e-01 0.0000e+00 -1.0000e+00
      994  1    1    2    0    0 +4.3144561191e+01 -1.1676123659e+00 +1.0250251435e+01 1.3830720926e+02 1.3100000000e+02 0.0000e+00 0.0000e+00
      997  1    1    2    0    0 -2.1498236523e+01 -3.8424793445e+00 +3.7760509922e+02 3.7836827269e+02 1.0000000000e+01 0.0000e+00 0.0000e+00
</event>
<event>
 5      1 +4.4770400e-06 2.06957600e+02 7.95774700e-02 4.91552600e-01
       13 -1    0    0    0    0 +0.0000000000e+00 +0.0000000000e+00 +4.9999998884e+02 5.0000000000e+02 1.0566000000e-01 0.0000e+00 -1.0000e+00
      994 -1    0    0    0    0 -0.0000000000e+00 -0.0000000000e+00 +0.0000000000e+00 1.3100000000e+02 1.3100000000e+02 0.0000e+00 0.0000e+00
       13  1    1    2    0    0 +4.1325931670e+01 +1.0170818407e+00 +2.4031603782e+02 2.4384559926e+02 1.0566000000e-01 0.0000e+00 1.0000e+00
      994  1    1    2    0    0 -7.8794355341e+00 +1.1717175370e+01 +7.2050845042e+00 1.3195564007e+02 1.3100000000e+02 0.0000e+00 0.0000e+00
      997  1    1    2    0    0 -3.3446496136e+01 -1.2734257210e+01 +2.5247886651e+02 2.5519876067e+02 1.0000000000e+01 0.0000e+00 0.0000e+00
</event>
<event>
 5      1 +4.4770400e-06 2.04066200e+02 7.95774700e-02 4.96573900e-01
       13 -1    0    0    0    0 +0.0000000000e+00 +0.0000000000e+00 +4.9999998884e+02 5.0000000000e+02 1.0566000000e-01 0.0000e+00 1.0000e+00
      994 -1    0    0    0    0 -0.0000000000e+00 -0.0000000000e+00 +0.0000000000e+00 1.3100000000e+02 1.3100000000e+02 0.0000e+00 0.0000e+00
       13  1    1    2    0    0 +1.9211414375e+01 +6.8691438063e+00 +2.2138691105e+01 3.0106417701e+01 1.0566000000e-01 0.0000e+00 -1.0000e+00
      994  1    1    2    0    0 -2.6767271258e+00 -7.4069289589e+00 +8.9042232426e+00 1.3153825549e+02 1.3100000000e+02 0.0000e+00 0.0000e+00
      997  1    1    2    0    0 -1.6534687249e+01 +5.3778515267e-01 +4.6895707449e+02 4.6935532681e+02 1.0000000000e+01 0.0000e+00 0.0000e+00
</event>
<event>
 5      1 +4.4770400e-06 2.12364300e+02 7.95774700e-02 4.82627900e-01
       13 -1    0    0    0    0 +0.0000000000e+00 +0.0000000000e+00 +4.9999998884e+02 5.0000000000e+02 1.0566000000e-01 0.0000e+00 1.0000e+00
      994 -1    0    0    0    0 -0.0000000000e+00 -0.0000000000e+00 +0.0000000000e+00 1.3100000000e+02 1.3100000000e+02 0.0000e+00 0.0000e+00
       13  1    1    2    0    0 +1.0131219251e+01 -4.8702622001e+00 +3.4752570557e+01 3.6525516859e+01 1.0566000000e-01 0.0000e+00 -1.0000e+00
      994  1    1    2    0    0 -5.3124454130e+00 +6.1727781979e+00 +2.1787834944e+00 1.3127098828e+02 1.3100000000e+02 0.0000e+00 0.0000e+00
      997  1    1    2    0    0 -4.8187738383e+00 -1.3025159977e+00 +4.6306863478e+02 4.6320349486e+02 1.0000000000e+01 0.0000e+00 0.0000e+00
</event>
<event>
 5      1 +4.4770400e-06 2.06295400e+02 7.95774700e-02 4.92686600e-01
       13 -1    0    0    0    0 +0.0000000000e+00 +0.0000000000e+00 +4.9999998884e+02 5.0000000000e+02 1.0566000000e-01 0.0000e+00 -1.0000e+00
      994 -1    0    0    0    0 -0.0000000000e+00 -0.0000000000e+00 +0.0000000000e+00 1.3100000000e+02 1.3100000000e+02 0.0000e+00 0.0000e+00
       13  1    1    2    0    0 +1.9357735175e+01 +6.8999757962e+00 +2.7790348172e+01 3.4563654214e+01 1.0566000000e-01 0.0000e+00 1.0000e+00
      994  1    1    2    0    0 -1.4113758890e+01 -1.3152855842e+01 +8.6480334527e+00 1.3269508013e+02 1.3100000000e+02 0.0000e+00 0.0000e+00
      997  1    1    2    0    0 -5.2439762847e+00 +6.2528800457e+00 +4.6356160721e+02 4.6374126566e+02 1.0000000000e+01 0.0000e+00 0.0000e+00
</event>
<event>
 5      1 +4.4770400e-06 2.03731300e+02 7.95774700e-02 4.97167400e-01
       13 -1    0    0    0    0 +0.0000000000e+00 +0.0000000000e+00 +4.9999998884e+02 5.0000000000e+02 1.0566000000e-01 0.0000e+00 -1.0000e+00
      994 -1    0    0    0    0 -0.0000000000e+00 -0.0000000000e+00 +0.0000000000e+00 1.3100000000e+02 1.3100000000e+02 0.0000e+00 0.0000e+00
       13  1    1    2    0    0 +2.7403674852e+00 +2.2762940429e+01 +1.1156735927e+02 1.1389884938e+02 1.0566000000e-01 0.0000e+00 1.0000e+00
      994  1    1    2    0    0 -1.3075582200e+01 +6.7820159762e+01 +3.5286202122e+01 1.5223882875e+02 1.3100000000e+02 0.0000e+00 0.0000e+00
      997  1    1    2    0    0 +1.0335214714e+01 -9.0583100191e+01 +3.5314642744e+02 3.6486232187e+02 1.0000000000e+01 0.0000e+00 0.0000e+00
</event>
<event>
 5      1 +4.4770400e-06 2.11625500e+02 7.95774700e-02 4.83813300e-01
       13 -1    0    0    0    0 +0.0000000000e+00 +0.0000000000e+00 +4.9999998884e+02 5.0000000000e+02 1.0566000000e-01 0.0000e+00 -1.0000e+00
      994 -1    0    0    0    0 -0.0000000000e+00 -0.0000000000e+00 +0.0000000000e+00 1.3100000000e+02 1.3100000000e+02 0.0000e+00 0.0000e+00
       13  1    1    2    0    0 -5.9348532947e+00 +1.1276029031e+01 +3.1158676205e+01 3.3663713123e+01 1.0566000000e-01 0.0000e+00 1.0000e+00
      994  1    1    2    0    0 +1.0503618591e+01 -1.0405853452e+01 +3.5142739160e+00 1.3187857260e+02 1.3100000000e+02 0.0000e+00 0.0000e+00
      997  1    1    2    0    0 -4.5687652965e+00 -8.7017557959e-01 +4.6532703871e+02 4.6545771428e+02 1.0000000000e+01 0.0000e+00 0.0000e+00
</event>
<event>
 5      1 +4.4770400e-06 2.12789900e+02 7.95774700e-02 4.81949600e-01
       13 -1    0    0    0    0 +0.0000000000e+00 +0.0000000000e+00 +4.9999998884e+02 5.0000000000e+02 1.0566000000e-01 0.0000e+00 1.0000e+00
      994 -1    0    0    0    0 -0.0000000000e+00 -0.0000000000e+00 +0.0000000000e+00 1.3100000000e+02 1.3100000000e+02 0.0000e+00 0.0000e+00
       13  1    1    2    0    0 +1.1148320242e+01 -2.5076772756e+00 +4.0355352107e+01 4.1942092189e+01 1.0566000000e-01 0.0000e+00 -1.0000e+00
      994  1    1    2    0    0 -1.4718679317e+01 -2.5973884000e+00 +2.6143412452e+00 1.3187577764e+02 1.3100000000e+02 0.0000e+00 0.0000e+00
      997  1    1    2    0    0 +3.5703590755e+00 +5.1050656756e+00 +4.5703029548e+02 4.5718213017e+02 1.0000000000e+01 0.0000e+00 0.0000e+00
</event>
<event>
 5      1 +4.4770400e-06 2.09314700e+02 7.95774700e-02 4.87589800e-01
       13 -1    0    0    0    0 +0.0000000000e+00 +0.0000000000e+00 +4.9999998884e+02 5.0000000000e+02 1.0566000000e-01 0.0000e+00 1.0000e+00
      994 -1    0    0    0    0 -0.0000000000e+00 -0.0000000000e+00 +0.0000000000e+00 1.3100000000e+02 1.3100000000e+02 0.0000e+00 0.0000e+00
       13  1    1    2    0    0 +9.9281298708e+00 +1.1975904258e+00 +9.9404754677e+00 1.4100574532e+01 1.0566000000e-01 0.0000e+00 -1.0000e+00
      994  1    1    2    0    0 -7.6551600905e+00 -2.4048132730e+00 +4.5958467400e+00 1.3132595482e+02 1.3100000000e+02 0.0000e+00 0.0000e+00
      997  1    1    2    0    0 -2.2729697804e+00 +1.2072228473e+00 +4.8546366663e+02 4.8557347065e+02 1.0000000000e+01 0.0000e+00 0.0000e+00
</event>
<event>
 5      1 +4.4770400e-06 2.11383700e+02 7.95774700e-02 4.84203700e-01
       13 -1    0    0    0    0 +0.0000000000e+00 +0.0000000000e+00 +4.9999998884e+02 5.0000000000e+02 1.0566000000e-01 0.0000e+00 -1.0000e+00
      994 -1    0    0    0    0 -0.0000000000e+00 -0.0000000000e+00 +0.0000000000e+00 1.3100000000e+02 1.3100000000e+02 0.0000e+00 0.0000e+00
       13  1    1    2    0    0 +3.5265641626e+00 +1.5171764930e+01 +4.5429841650e+01 4.8026042751e+01 1.0566000000e-01 0.0000e+00 1.0000e+00
      994  1    1    2    0    0 +9.0161246871e-01 -1.1763576491e+01 +3.3134998687e+00 1.3157193439e+02 1.3100000000e+02 0.0000e+00 0.0000e+00
      997  1    1    2    0    0 -4.4281766313e+00 -3.4081884382e+00 +4.5125664732e+02 4.5140202286e+02 1.0000000000e+01 0.0000e+00 0.0000e+00
</event>
<event>
 5      1 +4.4770400e-06 2.10351800e+02 7.95774700e-02 4.85881900e-01
       13 -1    0    0    0    0 +0.0000000000e+00 +0.0000000000e+00 +4.9999998884e+02 5.0000000000e+02 1.0566000000e-01 0.0000e+00 -1.0000e+00
      994 -1    0    0    0    0 -0.0000000000e+00 -0.0000000000e+00 +0.0000000000e+00 1.3100000000e+02 1.3100000000e+02 0.0000e+00 0.0000e+00
       13  1    1    2    0    0 -1.3359971284e+01 +1.2991494405e+01 +4.8580569545e+01 5.2032207919e+01 1.0566000000e-01 0.0000e+00 1.0000e+00
      994  1    1    2    0    0 +2.5241550042e+00 -1.7337265172e+01 +4.9762245845e+00 1.3226002772e+02 1.3100000000e+02 0.0000e+00 0.0000e+00
      997  1    1    2    0    0 +1.0835816280e+01 +4.3457707674e+00 +4.4644319471e+02 4.4670776436e+02 1.0000000000e+01 0.0000e+00 0.0000e+00
</event>
<event>
 5      1 +4.4770400e-06 2.06217400e+02 7.95774700e-02 4.92820700e-01
       13 -1    0    0    0    0 +0.0000000000e+00 +0.0000000000e+00 +4.9999998884e+02 5.0000000000e+02 1.0566000000e-01 0.0000e+00 -1.0000e+00
      994 -1    0    0    0    0 -0.0000000000e+00 -0.0000000000e+00 +0.0000000000e+00 1.3100000000e+02 1.3100000000e+02 0.0000e+00 0.0000e+00
       13  1    1    2    0    0 -2.7412429217e+00 -1.1606066819e+01 +7.4228009857e+00 1.4047218168e+01 1.0566000000e-01 0.0000e+00 1.0000e+00
      994  1    1    2    0    0 +3.2812208441e-01 +1.0569949807e+01 +7.3670077190e+00 1.3163245916e+02 1.3100000000e+02 0.0000e+00 0.0000e+00
      997  1    1    2    0    0 +2.4131208373e+00 +1.0361170123e+00 +4.8521018013e+02 4.8532032267e+02 1.0000000000e+01 0.0000e+00 0.0000e+00
</event>
<event>
 5      1 +4.4770400e-06 2.10105600e+02 7.95774700e-02 4.86285300e-01
       13 -1    0    0    0    0 +0.0000000000e+00 +0.0000000000e+00 +4.9999998884e+02 5.0000000000e+02 1.0566000000e-01 0.0000e+00 1.0000e+00
      994 -1    0    0    0    0 -0.0000000000e+00 -0.0000000000e+00 +0.0000000000e+00 1.3100000000e+02 1.3100000000e+02 0.0000e+00 0.0000e+00
       13  1    1    2    0    0 +9.9959921299e+00 +1.0923588503e+01 +2.9300900624e+01 3.2829842916e+01 1.0566000000e-01 0.0000e+00 -1.0000e+00
      994  1    1    2    0    0 -2.9359488991e-02 -1.2250469202e+01 +4.3892552593e+00 1.3164475082e+02 1.3100000000e+02 0.0000e+00 0.0000e+00
      997  1    1    2    0    0 -9.9666326409e+00 +1.3268806988e+00 +4.6630983295e+02 4.6652540626e+02 1.0000000000e+01 0.0000e+00 0.0000e+00
</event>
<event>
 5      1 +4.4770400e-06 2.02302700e+02 7.95774700e-02 4.99727200e-01
       13 -1    0    0    0    0 +0.0000000000e+00 +0.0000000000e+00 +4.9999998884e+02 5.0000000000e+02 1.0566000000e-01 0.0000e+00 -1.0000e+00
      994 -1    0    0    0    0 -0.0000000000e+00 -0.0000000000e+00 +0.0000000000e+00 1.3100000000e+02 1.3100000000e+02 0.0000e+00 0.0000e+00
       13  1    1    2    0    0 +2.7537654300e+01 -3.2979573111e+00 +3.2168419807e+01 4.2473725098e+01 1.0566000000e-01 0.0000e+00 1.0000e+00
      994  1    1    2    0    0 -2.5241885727e+01 +5.6058831660e+00 +1.3650398632e+01 1.3422336646e+02 1.3100000000e+02 0.0000e+00 0.0000e+00
      997  1    1    2    0    0 -2.2957685734e+00 -2.3079258548e+00 +4.5418117040e+02 4.5430290844e+02 1.0000000000e+01 0.0000e+00 0.0000e+00
</event>
<event>
 5      1 +4.4770400e-06 2.07182600e+02 7.95774700e-02 4.91169200e-01
       13 -1    0    0    0    0 +0.0000000000e+00 +0.0000000000e+00 +4.9999998884e+02 5.0000000000e+02 1.0566000000e-01 0.0000e+00 -1.0000e+00
      994 -1    0    0    0    0 -0.0000000000e+00 -0.0000000000e+00 +0.0000000000e+00 1.3100000000e+02 1.3100000000e+02 0.0000e+00 0.0000e+00
       13  1    1    2    0    0 +1.1016913777e+01 -3.1608306154e+01 +1.0167233163e+02 1.0704079405e+02 1.0566000000e-01 0.0000e+00 1.0000e+00
      994  1    1    2    0    0 +2.1596707386e+01 +2.3509183854e+01 +1.1255668039e+01 1.3530258519e+02 1.3100000000e+02 0.0000e+00 0.0000e+00
      997  1    1    2    0    0 -3.2613621163e+01 +8.0991223002e+00 +3.8707198917e+02 3.8865662077e+02 1.0000000000e+01 0.0000e+00 0.0000e+00
</event>
<event>
 5      1 +4.4770400e-06 2.11328000e+02 7.95774700e-02 4.84293700e-01
       13 -1    0    0    0    0 +0.0000000000e+00 +0.0000000000e+00 +4.9999998884e+02 5.0000000000e+02 1.0566000000e-01 0.0000e+00 -1.0000e+00
      994 -1    0    0    0    0 -0.0000000000e+00 -0.0000000000e+00 +0.0000000000e+00 1.3100000000e+02 1.3100000000e+02 0.0000e+00 0.0000e+00
       13  1    1    2    0    0 -4.2432282041e-02 -1.5009365894e+01 +4.5077791411e+01 4.7511065106e+01 1.0566000000e-01 0.0000e+00 1.0000e+00
      994  1    1    2    0    0 +9.4848807750e+00 +4.8044994074e+00 +3.2282173519e+00 1.3147040566e+02 1.3100000000e+02 0.0000e+00 0.0000e+00
      997  1    1    2    0    0 -9.4424484930e+00 +1.0204866486e+01 +4.5169398007e+02 4.5201852923e+02 1.0000000000e+01 0.0000e+00 0.0000e+00
</event>
<event>
 5      1 +4.4770400e-06 2.02705300e+02 7.95774700e-02 4.99001200e-01
       13 -1    0    0    0    0 +0.0000000000e+00 +0.0000000000e+00 +4.9999998884e+02 5.0000000000e+02 1.0566000000e-01 0.0000e+00 -1.0000e+00
      994 -1    0    0    0    0 -0.0000000000e+00 -0.0000000000e+00 +0.0000000000e+00 1.3100000000e+02 1.3100000000e+02 0.0000e+00 0.0000e+00
       13  1    1    2    0    0 -3.6663641602e+01 +2.7588235174e+01 +8.0122810734e+01 9.2330976923e+01 1.0566000000e-01 0.0000e+00 1.0000e+00
      994  1    1    2    0    0 +2.6830243397e+01 -5.1009734567e+01 +2.7986954007e+01 1.4582909372e+02 1.3100000000e+02 0.0000e+00 0.0000e+00
      997  1    1    2    0    0 +9.8333982056e+00 +2.3421499393e+01 +3.9189022410e+02 3.9283992935e+02 1.0000000000e+01 0.0000e+00 0.0000e+00
</event>
<event>
 5      1 +4.4770400e-06 2.14481800e+02 7.95774700e-02 4.79286900e-01
       13 -1    0    0    0    0 +0.0000000000e+00 +0.0000000000e+00 +4.9999998884e+02 5.0000000000e+02 1.0566000000e-01 0.0000e+00 1.0000e+00
      994 -1    0    0    0    0 -0.0000000000e+00 -0.0000000000e+00 +0.0000000000e+00 1.3100000000e+02 1.3100000000e+02 0.0000e+00 0.0000e+00
       13  1    1    2    0    0 -1.9439324820e+01 -2.6007091243e+01 +6.8557345316e+01 7.5857609409e+01 1.0566000000e-01 0.0000e+00 -1.0000e+00
      994  1    1    2    0    0 +8.9624465735e+01 +1.1844268150e+02 +1.4362317955e+02 2.4464225180e+02 1.3100000000e+02 0.0000e+00 0.0000e+00
      997  1    1    2    0    0 -7.0185140915e+01 -9.2435590262e+01 +2.8781946397e+02 3.1050013879e+02 1.0000000000e+01 0.0000e+00 0.0000e+00
</event>
<event>
 5      1 +4.4770400e-06 2.09237500e+02 7.95774700e-02 4.87717900e-01
       13 -1    0    0    0    0 +0.0000000000e+00 +0.0000000000e+00 +4.9999998884e+02 5.0000000000e+02 1.0566000000e-01 0.0000e+00 1.0000e+00
      994 -1    0    0    0    0 -0.0000000000e+00 -0.0000000000e+00 +0.0000000000e+00 1.3100000000e+02 1.3100000000e+02 0.0000e+00 0.0000e+00
       13  1    1    2    0    0 +1.6372754748e+01 +1.6164757563e+01 +1.0691612538e+02 1.0936377607e+02 1.0566000000e-01 0.0000e+00 -1.0000e+00
      994  1    1    2    0    0 +3.5123601852e-01 +2.1111619316e+01 +6.5836059586e+00 1.3285393372e+02 1.3100000000e+02 0.0000e+00 0.0000e+00
      997  1    1    2    0    0 -1.6723990767e+01 -3.7276376878e+01 +3.8650025749e+02 3.8878229021e+02 1.0000000000e+01 0.0000e+00 0.0000e+00
</event>
<event>
 5      1 +4.4770400e-06 2.12979000e+02 7.95774700e-02 4.81649400e-01
       13 -1    0    0    0    0 +0.0000000000e+00 +0.0000000000e+00 +4.9999998884e+02 5.0000000000e+02 1.0566000000e-01 0.0000e+00 -1.0000e+00
      994 -1    0    0    0    0 -0.0000000000e+00 -0.0000000000e+00 +0.0000000000e+00 1.3100000000e+02 1.3100000000e+02 0.0000e+00 0.0000e+00
       13  1    1    2    0    0 +1.1394392124e+01 -1.5102960005e+01 +7.5567534330e+01 7.7899903604e+01 1.0566000000e-01 0.0000e+00 1.0000e+00
      994  1    1    2    0    0 -4.7568376778e+01 +1.8210322427e+01 +1.4341426631e+01 1.4128355470e+02 1.3100000000e+02 0.0000e+00 0.0000e+00
      997  1    1    2    0    0 +3.6173984655e+01 -3.1073624224e+00 +4.1009102787e+02 4.1181654169e+02 1.0000000000e+01 0.0000e+00 0.0000e+00
</event>
<event>
 5      1 +4.4770400e-06 2.11785100e+02 7.95774700e-02 4.83556400e-01
       13 -1    0    0    0    0 +0.0000000000e+00 +0.0000000000e+00 +4.9999998884e+02 5.0000000000e+02 1.0566000000e-01 0.0000e+00 1.0000e+00
      994 -1    0    0    0    0 -0.0000000000e+00 -0.0000000000e+00 +0.0000000000e+00 1.3100000000e+02 1.3100000000e+02 0.0000e+00 0.0000e+00
       13  1    1    2    0    0 +4.8668562990e+00 -1.3226972374e+01 +3.9108690774e+01 4.1570902642e+01 1.0566000000e-01 0.0000e+00 -1.0000e+00
      994  1    1    2    0    0 -1.0224704718e+01 +1.4274469670e+01 +3.8311907310e+00 1.3222701348e+02 1.3100000000e+02 0.0000e+00 0.0000e+00
      997  1    1    2    0    0 +5.3578484193e+00 -1.0474972961e+00 +4.5706010733e+02 4.5720208388e+02 1.0000000000e+01 0.0000e+00 0.0000e+00
</event>
<event>
 5      1 +4.4770400e-06 2.05125400e+02 7.95774700e-02 4.94713400e-01
       13 -1    0    0    0    0 +0.0000000000e+00 +0.0000000000e+00 +4.9999998884e+02 5.0000000000e+02 1.0566000000e-01 0.0000e+00 1.0000e+00
      994 -1    0    0    0    0 -0.0000000000e+00 -0.0000000000e+00 +0.0000000000e+00 1.3100000000e+02 1.3100000000e+02 0.0000e+00 0.0000e+00
       13  1    1    2    0    0 +4.9548421968e-02 +1.3917500243e+01 +1.0785475869e+01 1.7607865340e+01 1.0566000000e-01 0.0000e+00 -1.0000e+00
      994  1    1    2    0    0 -2.1432164734e+01 +1.2638300648e+01 +1.0929376752e+01 1.3378907132e+02 1.3100000000e+02 0.0000e+00 0.0000e+00
      997  1    1    2    0    0 +2.1382616312e+01 -2.6555800891e+01 +4.7828513622e+02 4.7960306334e+02 1.0000000000e+01 0.0000e+00 0.0000e+00
</event>
<event>
 5      1 +4.4770400e-06 2.12101200e+02 7.95774700e-02 4.83048900e-01
       13 -1    0    0    0    0 +0.0000000000e+00 +0.0000000000e+00 +4.9999998884e+02 5.0000000000e+02 1.0566000000e-01 0.0000e+00 1.0000e+00
      994 -1    0    0    0    0 -0.0000000000e+00 -0.0000000000e+00 +0.0000000000e+00 1.3100000000e+02 1.3100000000e+02 0.0000e+00 0.0000e+00
       13  1    1    2    0    0 -1.6834619596e+01 -6.0184904976e+00 +9.1179862067e+01 9.2916118384e+01 1.0566000000e-01 0.0000e+00 -1.0000e+00
      994  1    1    2    0    0 +3.6166185477e+00 +4.4356324921e+00 +2.2207672606e+00 1.3114376300e+02 1.3100000000e+02 0.0000e+00 0.0000e+00
      997  1    1    2    0    0 +1.3218001048e+01 +1.5828580055e+00 +4.0659935951e+02 4.0694011862e+02 1.0000000000e+01 0.0000e+00 0.0000e+00
</event>
<event>
 5      1 +4.4770400e-06 2.08133600e+02 7.95774700e-02 4.89561100e-01
       13 -1    0    0    0    0 +0.0000000000e+00 +0.0000000000e+00 +4.9999998884e+02 5.0000000000e+02 1.0566000000e-01 0.0000e+00 -1.0000e+00
      994 -1    0    0    0    0 -0.0000000000e+00 -0.0000000000e+00 +0.0000000000e+00 1.3100000000e+02 1.3100000000e+02 0.0000e+00 0.0000e+00
       13  1    1    2    0    0 +4.8490920705e+00 -9.1316101540e+00 +9.1874630072e+00 1.3831870389e+01 1.0566000000e-01 0.0000e+00 1.0000e+00
      994  1    1    2    0    0 +5.4596452870e+00 -1.1283242247e+01 +6.0226213234e+00 1.3173606663e+02 1.3100000000e+02 0.0000e+00 0.0000e+00
      997  1    1    2    0    0 -1.0308737358e+01 +2.0414852401e+01 +4.8478990451e+02 4.8543206299e+02 1.0000000000e+01 0.0000e+00 0.0000e+00
</event>
<event>
 5      1 +4.4770400e-06 2.12895900e+02 7.95774700e-02 4.81781300e-01
       13 -1    0    0    0    0 +0.0000000000e+00 +0.0000000000e+00 +4.9999998884e+02 5.0000000000e+02 1.0566000000e-01 0.0000e+00 -1.0000e+00
      994 -1    0    0    0    0 -0.0000000000e+00 -0.0000000000e+00 +0.0000000000e+00 1.3100000000e+02 1.3100000000e+02 0.0000e+00 0.0000e+00
       13  1    1    2    0    0 +5.2092844363e+00 +2.1494488224e+01 +1.3111507040e+02 1.3296737389e+02 1.0566000000e-01 0.0000e+00 1.0000e+00
      994  1    1    2    0    0 -5.7100186506e+00 -2.2787858537e+01 +4.1463446695e+00 1.3315435773e+02 1.3100000000e+02 0.0000e+00 0.0000e+00
      997  1    1    2    0    0 +5.0073421423e-01 +1.2933703134e+00 +3.6473857376e+02 3.6487826838e+02 1.0000000000e+01 0.0000e+00 0.0000e+00
</event>
<event>
 5      1 +4.4770400e-06 2.11735600e+02 7.95774700e-02 4.83636100e-01
       13 -1    0    0    0    0 +0.0000000000e+00 +0.0000000000e+00 +4.9999998884e+02 5.0000000000e+02 1.0566000000e-01 0.0000e+00 -1.0000e+00
      994 -1    0    0    0    0 -0.0000000000e+00 -0.0000000000e+00 +0.0000000000e+00 1.3100000000e+02 1.3100000000e+02 0.0000e+00 0.0000e+00
       13  1    1    2    0    0 -7.8843114202e+00 +6.8893638566e+00 +2.5857433965e+01 2.7897020562e+01 1.0566000000e-01 0.0000e+00 1.0000e+00
      994  1    1    2    0    0 -8.4666878318e+00 -5.5364536213e+00 +2.8520579543e+00 1.3142097000e+02 1.3100000000e+02 0.0000e+00 0.0000e+00
      997  1    1    2    0    0 +1.6350999252e+01 -1.3529102353e+00 +4.7129049692e+02 4.7168200944e+02 1.0000000000e+01 0.0000e+00 0.0000e+00
</event>
<event>
 5      1 +4.4770400e-06 2.13632900e+02 7.95774700e-02 4.80616300e-01
       13 -1    0    0    0    0 +0.0000000000e+00 +0.0000000000e+00 +4.9999998884e+02 5.0000000000e+02 1.0566000000e-01 0.0000e+00 -1.0000e+00
      994 -1    0    0    0    0 -0.0000000000e+00 -0.0000000000e+00 +0.0000000000e+00 1.3100000000e+02 1.3100000000e+02 0.0000e+00 0.0000e+00
       13  1    1    2    0    0 +7.4031201821e+00 -9.1112308290e+00 +6.9730360050e+01 7.0711774072e+01 1.0566000000e-01 0.0000e+00 1.0000e+00
      994  1    1    2    0    0 -7.8531802451e+00 +1.4294035635e+01 +2.1587601774e+00 1.3202898220e+02 1.3100000000e+02 0.0000e+00 0.0000e+00
      997  1    1    2    0    0 +4.5006006293e-01 -5.1828048056e+00 +4.2811086861e+02 4.2825924373e+02 1.0000000000e+01 0.0000e+00 0.0000e+00
</event>
<event>
 5      1 +4.4770400e-06 2.12045600e+02 7.95774700e-02 4.83138100e-01
       13 -1    0    0    0    0 +0.0000000000e+00 +0.0000000000e+00 +4.9999998884e+02 5.0000000000e+02 1.0566000000e-01 0.0000e+00 -1.0000e+00
      994 -1    0    0    0    0 -0.0000000000e+00 -0.0000000000e+00 +0.0000000000e+00 1.3100000000e+02 1.3100000000e+02 0.0000e+00 0.0000e+00
       13  1    1    2    0    0 -9.2672722946e+00 -1.2842458711e+01 +7.3241829437e+01 7.4934556947e+01 1.0566000000e-01 0.0000e+00 1.0000e+00
      994  1    1    2    0    0 -5.1328749154e+00 +4.5835939473e+00 +2.3363651971e+00 1.3120142660e+02 1.3100000000e+02 0.0000e+00 0.0000e+00
      997  1    1    2    0    0 +1.4400147210e+01 +8.2588647638e+00 +4.2442179420e+02 4.2486401646e+02 1.0000000000e+01 0.0000e+00 0.0000e+00
</event>
<event>
 5      1 +4.4770400e-06 2.13296100e+02 7.95774700e-02 4.81147500e-01
       13 -1    0    0    0    0 +0.0000000000e+00 +0.0000000000e+00 +4.9999998884e+02 5.0000000000e+02 1.0566000000e-01 0.0000e+00 1.0000e+00
      994 -1    0    0    0    0 -0.0000000000e+00 -0.0000000000e+00 +0.0000000000e+00 1.3100000000e+02 1.3100000000e+02 0.0000e+00 0.0000e+00
       13  1    1    2    0    0 +8.7361007390e+00 -7.9993334067e+00 +5.9357255717e+01 6.0527710689e+01 1.0566000000e-01 0.0000e+00 -1.0000e+00
      994  1    1    2    0    0 -1.3091726315e+01 +4.8041335081e+00 +2.0741945121e+00 1.3175649995e+02 1.3100000000e+02 0.0000e+00 0.0000e+00
      997  1    1    2    0    0 +4.3556255757e+00 +3.1951998987e+00 +4.3856853861e+02 4.3871578936e+02 1.0000000000e+01 0.0000e+00 0.0000e+00
</event>
<event>
 5      1 +4.4770400e-06 2.10530600e+02 7.95774700e-02 4.85589600e-01
       13 -1    0    0    0    0 +0.0000000000e+00 +0.0000000000e+00 +4.9999998884e+02 5.0000000000e+02 1.0566000000e-01 0.0000e+00 1.0000e+00
      994 -1    0    0    0    0 -0.0000000000e+00 -0.0000000000e+00 +0.0000000000e+00 1.3100000000e+02 1.3100000000e+02 0.0000e+00 0.0000e+00
       13  1    1    2    0    0 -1.8802072990e+01 +1.7615423450e+01 +1.0480082627e+02 1.0792147813e+02 1.0566000000e-01 0.0000e+00 -1.0000e+00
      994  1    1    2    0    0 +7.2685398761e+00 -1.1897223034e+01 +4.2693123070e+00 1.3180896258e+02 1.3100000000e+02 0.0000e+00 0.0000e+00
      997  1    1    2    0    0 +1.1533533114e+01 -5.7182004153e+00 +3.9092985026e+02 3.9126955929e+02 1.0000000000e+01 0.0000e+00 0.0000e+00
</event>
<event>
 5      1 +4.4770400e-06 2.05813000e+02 7.95774700e-02 4.93518700e-01
       13 -1    0    0    0    0 +0.0000000000e+00 +0.0000000000e+00 +4.9999998884e+02 5.0000000000e+02 1.0566000000e-01 0.0000e+00 -1.0000e+00
      994 -1    0    0    0    0 -0.0000000000e+00 -0.0000000000e+00 +0.0000000000e+00 1.3100000000e+02 1.3100000000e+02 0.0000e+00 0.0000e+00
       13  1    1    2    0    0 -1.4867880742e+01 +1.0143249125e+01 +2.1832139292e+01 2.8294749525e+01 1.0566000000e-01 0.0000e+00 1.0000e+00
      994  1    1    2    0    0 +6.2218361533e+00 +1.0023690699e+01 +7.8442110765e+00 1.3176386936e+02 1.3100000000e+02 0.0000e+00 0.0000e+00
      997  1    1    2    0    0 +8.6460445888e+00 -2.0166939823e+01 +4.7032363847e+02 4.7094138112e+02 1.0000000000e+01 0.0000e+00 0.0000e+00
</event>
<event>
 5      1 +4.4770400e-06 2.06181700e+02 7.95774700e-02 4.92882200e-01
       13 -1    0    0    0    0 +0.0000000000e+00 +0.0000000000e+00 +4.9999998884e+02 5.0000000000e+02 1.0566000000e-01 0.0000e+00 -1.0000e+00
      994 -1    0    0    0    0 -0.0000000000e+00 -0.0000000000e+00 +0.0000000000e+00 1.3100000000e+02 1.3100000000e+02 0.0000e+00 0.0000e+00
       13  1    1    2    0    0 -2.7260159688e+01 +2.3954994814e+01 +8.8825815688e+01 9.5953086347e+01 1.0566000000e-01 0.0000e+00 1.0000e+00
      994  1    1    2    0    0 +1.9437855068e+01 -1.7523972707e+01 +1.0370395757e+01 1.3399054048e+02 1.3100000000e+02 0.0000e+00 0.0000e+00
      997  1    1    2    0    0 +7.8223046195e+00 -6.4310221062e+00 +4.0080377739e+02 4.0105637318e+02 1.0000000000e+01 0.0000e+00 0.0000e+00
</event>
<event>
 5      1 +4.4770400e-06 1.93452000e+02 7.95774700e-02 5.16696100e-01
       13 -1    0    0    0    0 +0.0000000000e+00 +0.0000000000e+00 +4.9999998884e+02 5.0000000000e+02 1.0566000000e-01 0.0000e+00 1.0000e+00
      994 -1    0    0    0    0 -0.0000000000e+00 -0.0000000000e+00 +0.0000000000e+00 1.3100000000e+02 1.3100000000e+02 0.0000e+00 0.0000e+00
       13  1    1    2    0    0 +8.1477467129e+00 -6.0686308624e+00 -5.3692377456e+00 1.1491472275e+01 1.0566000000e-01 0.0000e+00 -1.0000e+00
      994  1    1    2    0    0 -1.0420542539e+01 +1.1134937372e+01 +1.9282063468e+01 1.3328680546e+02 1.3100000000e+02 0.0000e+00 0.0000e+00
      997  1    1    2    0    0 +2.2727958257e+00 -5.0663065093e+00 +4.8608716311e+02 4.8622172227e+02 1.0000000000e+01 0.0000e+00 0.0000e+00
</event>
<event>
 5      1 +4.4770400e-06 2.08597200e+02 7.95774700e-02 4.88783900e-01
       13 -1    0    0    0    0 +0.0000000000e+00 +0.0000000000e+00 +4.9999998884e+02 5.0000000000e+02 1.0566000000e-01 0.0000e+00 -1.0000e+00
      994 -1    0    0    0    0 -0.0000000000e+00 -0.0000000000e+00 +0.0000000000e+00 1.3100000000e+02 1.3100000000e+02 0.0000e+00 0.0000e+00
       13  1    1    2    0    0 +1.6475244700e+01 -1.0663537134e+01 +4.1004092222e+01 4.5458678546e+01 1.0566000000e-01 0.0000e+00 1.0000e+00
      994  1    1    2    0    0 -7.8915915410e+00 -2.3112402421e+00 +5.1917298421e+00 1.3136047011e+02 1.3100000000e+02 0.0000e+00 0.0000e+00
      997  1    1    2    0    0 -8.5836531586e+00 +1.2974777376e+01 +4.5380416677e+02 4.5418085135e+02 1.0000000000e+01 0.0000e+00 0.0000e+00
</event>
<event>
 5      1 +4.4770400e-06 2.10519700e+02 7.95774700e-02 4.85607400e-01
       13 -1    0    0    0    0 +0.0000000000e+00 +0.0000000000e+00 +4.9999998884e+02 5.0000000000e+02 1.0566000000e-01 0.0000e+00 -1.0000e+00
      994 -1    0    0    0    0 -0.0000000000e+00 -0.0000000000e+00 +0.0000000000e+00 1.3100000000e+02 1.3100000000e+02 0.0000e+00 0.0000e+00
       13  1    1    2    0    0 +5.4469068411e+00 -1.1683383894e+01 +2.1872773163e+01 2.5388966565e+01 1.0566000000e-01 0.0000e+00 1.0000e+00
      994  1    1    2    0    0 -2.4848830718e+01 +1.0445326573e+01 +6.9478761183e+00 1.3392476327e+02 1.3100000000e+02 0.0000e+00 0.0000e+00
      997  1    1    2    0    0 +1.9401923877e+01 +1.2380573208e+00 +4.7117933955e+02 4.7168627016e+02 1.0000000000e+01 0.0000e+00 0.0000e+00
</event>
<event>
 5      1 +4.4770400e-06 2.07355600e+02 7.95774700e-02 4.90875300e-01
       13 -1    0    0    0    0 +0.0000000000e+00 +0.0000000000e+00 +4.9999998884e+02 5.0000000000e+02 1.0566000000e-01 0.0000e+00 1.0000e+00
      994 -1    0    0    0    0 -0.0000000000e+00 -0.0000000000e+00 +0.0000000000e+00 1.3100000000e+02 1.3100000000e+02 0.0000e+00 0.0000e+00
       13  1    1    2    0    0 +2.2109206613e+01 +2.1545004562e+01 +9.2071894857e+01 9.7109470317e+01 1.0566000000e-01 0.0000e+00 -1.0000e+00
      994  1    1    2    0    0 -3.4679258970e+00 -8.2922006259e+00 +6.2701227548e+00 1.3145760359e+02 1.3100000000e+02 0.0000e+00 0.0000e+00
      997  1    1    2    0    0 -1.8641280716e+01 -1.3252803937e+01 +4.0165797122e+02 4.0243292610e+02 1.0000000000e+01 0.0000e+00 0.0000e+00
</event>
<event>
 5      1 +4.4770400e-06 2.12804700e+02 7.95774700e-02 4.81926200e-01
       13 -1    0    0    0    0 +0.0000000000e+00 +0.0000000000e+00 +4.9999998884e+02 5.0000000000e+02 1.0566000000e-01 0.0000e+00 1.0000e+00
      994 -1    0    0    0    0 -0.0000000000e+00 -0.0000000000e+00 +0.0000000000e+00 1.3100000000e+02 1.3100000000e+02 0.0000e+00 0.0000e+00
       13  1    1    2    0    0 +7.2051599510e+00 -1.3006191139e+01 +6.6651845690e+01 6.8290226503e+01 1.0566000000e-01 0.0000e+00 -1.0000e+00
      994  1    1    2    0    0 -1.3616394332e+01 +1.0821004467e+01 +2.9912087904e+00 1.3218338648e+02 1.3100000000e+02 0.0000e+00 0.0000e+00
      997  1    1    2    0    0 +6.4112343811e+00 +2.1851866725e+00 +4.3035693436e+02 4.3052638701e+02 1.0000000000e+01 0.0000e+00 0.0000e+00
</event>
<event>
 5      1 +4.4770400e-06 2.07700200e+02 7.95774700e-02 4.90291700e-01
       13 -1    0    0    0    0 +0.0000000000e+00 +0.0000000000e+00 +4.9999998884e+02 5.0000000000e+02 1.0566000000e-01 0.0000e+00 -1.0000e+00
      994 -1    0    0    0    0 -0.0000000000e+00 -0.0000000000e+00 +0.0000000000e+00 1.3100000000e+02 1.3100000000e+02 0.0000e+00 0.0000e+00
       13  1    1    2    0    0 -9.2472794467e+00 -5.1565809753e+00 +7.4939161752e+00 1.2971987057e+01 1.0566000000e-01 0.0000e+00 1.0000e+00
      994  1    1    2    0    0 +1.5150398074e+01 -5.4675596043e+00 +6.8997496747e+00 1.3216669518e+02 1.3100000000e+02 0.0000e+00 0.0000e+00
      997  1    1    2    0    0 -5.9031186272e+00 +1.0624140580e+01 +4.8560632299e+02 4.8586131776e+02 1.0000000000e+01 0.0000e+00 0.0000e+00
</event>
<event>
 5      1 +4.4770400e-06 2.06546100e+02 7.95774700e-02 4.92256200e-01
       13 -1    0    0    0    0 +0.0000000000e+00 +0.0000000000e+00 +4.9999998884e+02 5.0000000000e+02 1.0566000000e-01 0.0000e+00 -1.0000e+00
      994 -1    0    0    0    0 -0.0000000000e+00 -0.0000000000e+00 +0.0000000000e+00 1.3100000000e+02 1.3100000000e+02 0.0000e+00 0.0000e+00
       13  1    1    2    0    0 +4.0762192394e+01 -2.7424911503e+01 +2.0453182510e+01 5.3216782490e+01 1.0566000000e-01 0.0000e+00 1.0000e+00
      994  1    1    2    0    0 -4.2403712198e+01 +2.7816889165e+01 +5.1500354259e+01 1.4961664553e+02 1.3100000000e+02 0.0000e+00 0.0000e+00
      997  1    1    2    0    0 +1.6415198035e+00 -3.9197766256e-01 +4.2804645207e+02 4.2816657198e+02 1.0000000000e+01 0.0000e+00 0.0000e+00
</event>
<event>
 5      1 +4.4770400e-06 2.10549600e+02 7.95774700e-02 4.85558600e-01
       13 -1    0    0    0    0 +0.0000000000e+00 +0.0000000000e+00 +4.9999998884e+02 5.0000000000e+02 1.0566000000e-01 0.0000e+00 -1.0000e+00
      994 -1    0    0    0    0 -0.0000000000e+00 -0.0000000000e+00 +0.0000000000e+00 1.3100000000e+02 1.3100000000e+02 0.0000e+00 0.0000e+00
       13  1    1    2    0    0 +2.0003439492e+01 +8.4491736080e+00 +1.0808403670e+02 1.1024380381e+02 1.0566000000e-01 0.0000e+00 1.0000e+00
      994  1    1    2    0    0 +1.2185086742e+01 -1.8899934726e+01 +5.8121721210e+00 1.3304309533e+02 1.3100000000e+02 0.0000e+00 0.0000e+00
      997  1    1    2    0    0 -3.2188526233e+01 +1.0450761118e+01 +3.8610378002e+02 3.8771310085e+02 1.0000000000e+01 0.0000e+00 0.0000e+00
</event>
<event>
 5      1 +4.4770400e-06 2.13148500e+02 7.95774700e-02 4.81380900e-01
       13 -1    0    0    0    0 +0.0000000000e+00 +0.0000000000e+00 +4.9999998884e+02 5.0000000000e+02 1.0566000000e-01 0.0000e+00 1.0000e+00
      994 -1    0    0    0    0 -0.0000000000e+00 -0.0000000000e+00 +0.0000000000e+00 1.3100000000e+02 1.3100000000e+02 0.0000e+00 0.0000e+00
       13  1    1    2    0    0 +1.6349016132e+00 +9.9642242583e+00 +4.6607666190e+01 4.7689038364e+01 1.0566000000e-01 0.0000e+00 -1.0000e+00
      994  1    1    2    0    0 -3.0015368110e+00 -2.7569067313e+00 +1.3214923330e+00 1.3107004273e+02 1.3100000000e+02 0.0000e+00 0.0000e+00
      997  1    1    2    0    0 +1.3666351979e+00 -7.2073175270e+00 +4.5207083031e+02 4.5224091891e+02 1.0000000000e+01 0.0000e+00 0.0000e+00
</event>
<event>
 5      1 +4.4770400e-06 2.09198700e+02 7.95774700e-02 4.87782100e-01
       13 -1    0    0    0    0 +0.0000000000e+00 +0.0000000000e+00 +4.9999998884e+02 5.0000000000e+02 1.0566000000e-01 0.0000e+00 1.0000e+00
      994 -1    0    0    0    0 -0.0000000000e+00 -0.0000000000e+00 +0.0000000000e+00 1.3100000000e+02 1.3100000000e+02 0.0000e+00 0.0000e+00
       13  1    1    2    0    0 +1.2681421192e+01 +4.9535565597e+01 +2.0420405741e+02 2.1050866711e+02 1.0566000000e-01 0.0000e+00 -1.0000e+00
      994  1    1    2    0    0 -3.6380973176e+00 -4.6807509463e+01 +1.5681784153e+01 1.4003962671e+02 1.3100000000e+02 0.0000e+00 0.0000e+00
      997  1    1    2    0    0 -9.0433238742e+00 -2.7280561340e+00 +2.8011414727e+02 2.8045170618e+02 1.0000000000e+01 0.0000e+00 0.0000e+00
</event>
<event>
 5      1 +4.4770400e-06 2.12414300e+02 7.95774700e-02 4.82548100e-01
       13 -1    0    0    0    0 +0.0000000000e+00 +0.0000000000e+00 +4.9999998884e+02 5.0000000000e+02 1.0566000000e-01 0.0000e+00 1.0000e+00
      994 -1    0    0    0    0 -0.0000000000e+00 -0.0000000000e+00 +0.0000000000e+00 1.3100000000e+02 1.3100000000e+02 0.0000e+00 0.0000e+00
       13  1    1    2    0    0 +1.0529028837e+01 -1.8618174616e+00 +2.8835338454e+01 3.0754100870e+01 1.0566000000e-01 0.0000e+00 -1.0000e+00
      994  1    1    2    0    0 -1.5705494054e+01 +1.1891818987e+00 +3.0329568465e+00 1.3197831460e+02 1.3100000000e+02 0.0000e+00 0.0000e+00
      997  1    1    2    0    0 +5.1764652171e+00 +6.7263556290e-01 +4.6813169354e+02 4.6826758453e+02 1.0000000000e+01 0.0000e+00 0.0000e+00
</event>
<event>
 5      1 +4.4770400e-06 1.53174600e+02 7.95774700e-02 6.30755000e-01
       13 -1    0    0    0    0 +0.0000000000e+00 +0.0000000000e+00 +4.9999998884e+02 5.0000000000e+02 1.0566000000e-01 0.0000e+00 -1.0000e+00
      994 -1    0    0    0    0 -0.0000000000e+00 -0.0000000000e+00 +0.0000000000e+00 1.3100000000e+02 1.3100000000e+02 0.0000e+00 0.0000e+00
       13  1    1    2    0    0 -5.8490135223e+01 +4.9521529433e+01 +5.8888848274e+01 9.6650842784e+01 1.0566000000e-01 0.0000e+00 1.0000e+00
      994  1    1    2    0    0 +7.7604094010e+01 -3.5270943767e+01 +8.6180868468e+01 1.7847850563e+02 1.3100000000e+02 0.0000e+00 0.0000e+00
      997  1    1    2    0    0 -1.9113958787e+01 -1.4250585666e+01 +3.5493027209e+02 3.5587065159e+02 1.0000000000e+01 0.0000e+00 0.0000e+00
</event>
<event>
 5      1 +4.4770400e-06 2.10496600e+02 7.95774700e-02 4.85645200e-01
       13 -1    0    0    0    0 +0.0000000000e+00 +0.0000000000e+00 +4.9999998884e+02 5.0000000000e+02 1.0566000000e-01 0.0000e+00 1.0000e+00
      994 -1    0    0    0    0 -0.0000000000e+00 -0.0000000000e+00 +0.0000000000e+00 1.3100000000e+02 1.3100000000e+02 0.0000e+00 0.0000e+00
       13  1    1    2    0    0 -1.7468740417e+01 -1.1165066031e+01 +8.2333697691e+01 8.4903854628e+01 1.0566000000e-01 0.0000e+00 -1.0000e+00
      994  1    1    2    0    0 -4.7548429058e+00 +4.9017555444e+00 +3.5600568664e+00 1.3122617781e+02 1.3100000000e+02 0.0000e+00 0.0000e+00
      997  1    1    2    0    0 +2.2223583322e+01 +6.2633104867e+00 +4.1410623428e+02 4.1486996756e+02 1.0000000000e+01 0.0000e+00 0.0000e+00
</event>
<event>
 5      1 +4.4770400e-06 2.12703500e+02 7.95774700e-02 4.82087100e-01
       13 -1    0    0    0    0 +0.0000000000e+00 +0.0000000000e+00 +4.9999998884e+02 5.0000000000e+02 1.0566000000e-01 0.0000e+00 -1.0000e+00
      994 -1    0    0    0    0 -0.0000000000e+00 -0.0000000000e+00 +0.0000000000e+00 1.3100000000e+02 1.3100000000e+02 0.0000e+00 0.0000e+00
       13  1    1    2    0    0 -1.1887007290e+01 -9.1589715956e-01 +6.6068412432e+01 6.7135579950e+01 1.0566000000e-01 0.0000e+00 1.0000e+00
      994  1    1    2    0    0 -7.2592344414e+00 -7.4874603075e+00 +2.1202911912e+00 1.3143155702e+02 1.3100000000e+02 0.0000e+00 0.0000e+00
      997  1    1    2    0    0 +1.9146241732e+01 +8.4033574671e+00 +4.3181128521e+02 4.3243286303e+02 1.0000000000e+01 0.0000e+00 0.0000e+00
</event>
<event>
 5      1 +4.4770400e-06 2.05267000e+02 7.95774700e-02 4.94466400e-01
       13 -1    0    0    0    0 +0.0000000000e+00 +0.0000000000e+00 +4.9999998884e+02 5.0000000000e+02 1.0566000000e-01 0.0000e+00 1.0000e+00
      994 -1    0    0    0    0 -0.0000000000e+00 -0.0000000000e+00 +0.0000000000e+00 1.3100000000e+02 1.3100000000e+02 0.0000e+00 0.0000e+00
       13  1    1    2    0    0 +1.2770628762e+01 -1.2017465978e+01 +1.6954575621e+01 2.4392155420e+01 1.0566000000e-01 0.0000e+00 -1.0000e+00
      994  1    1    2    0    0 -7.8197387575e+00 +1.1597407360e+01 +8.5935617084e+00 1.3202460935e+02 1.3100000000e+02 0.0000e+00 0.0000e+00
      997  1    1    2    0    0 -4.9508900048e+00 +4.2005861882e-01 +4.7445185151e+02 4.7458323523e+02 1.0000000000e+01 0.0000e+00 0.0000e+00
</event>
<event>
 5      1 +4.4770400e-06 2.01855600e+02 7.95774700e-02 5.00538100e-01
       13 -1    0    0    0    0 +0.0000000000e+00 +0.0000000000e+00 +4.9999998884e+02 5.0000000000e+02 1.0566000000e-01 0.0000e+00 1.0000e+00
      994 -1    0    0    0    0 -0.0000000000e+00 -0.0000000000e+00 +0.0000000000e+00 1.3100000000e+02 1.3100000000e+02 0.0000e+00 0.0000e+00
       13  1    1    2    0    0 +5.0944117216e+01 +1.5132739962e+01 +2.0921145443e+02 2.1585584710e+02 1.0566000000e-01 0.0000e+00 -1.0000e+00
      994  1    1    2    0    0 -7.9786553616e+00 -8.3539238687e+00 +1.1165372018e+01 1.3198148551e+02 1.3100000000e+02 0.0000e+00 0.0000e+00
      997  1    1    2    0    0 -4.2965461854e+01 -6.7788160935e+00 +2.7962316239e+02 2.8316266739e+02 1.0000000000e+01 0.0000e+00 0.0000e+00
</event>
<event>
 5      1 +4.4770400e-06 2.03001700e+02 7.95774700e-02 4.98468900e-01
       13 -1    0    0    0    0 +0.0000000000e+00 +0.0000000000e+00 +4.9999998884e+02 5.0000000000e+02 1.0566000000e-01 0.0000e+00 1.0000e+00
      994 -1    0    0    0    0 -0.0000000000e+00 -0.0000000000e+00 +0.0000000000e+00 1.3100000000e+02 1.3100000000e+02 0.0000e+00 0.0000e+00
       13  1    1    2    0    0 +2.8199944353e+01 -3.9772589979e+01 +1.3515762243e+02 1.4368260103e+02 1.0566000000e-01 0.0000e+00 -1.0000e+00
      994  1    1    2    0    0 -2.2333779928e+01 +1.1667745625e+01 +1.2854820614e+01 1.3401932856e+02 1.3100000000e+02 0.0000e+00 0.0000e+00
      997  1    1    2    0    0 -5.8661644253e+00 +2.8104844354e+01 +3.5198754580e+02 3.5329807041e+02 1.0000000000e+01 0.0000e+00 0.0000e+00
</event>
<event>
 5      1 +4.4770400e-06 2.11551900e+02 7.95774700e-02 4.83932100e-01
       13 -1    0    0    0    0 +0.0000000000e+00 +0.0000000000e+00 +4.9999998884e+02 5.0000000000e+02 1.0566000000e-01 0.0000e+00 1.0000e+00
      994 -1    0    0    0    0 -0.0000000000e+00 -0.0000000000e+00 +0.0000000000e+00 1.3100000000e+02 1.3100000000e+02 0.0000e+00 0.0000e+00
       13  1    1    2    0    0 +2.1668058064e+01 +1.2027757955e+01 +9.1834312453e+01 9.5119523808e+01 1.0566000000e-01 0.0000e+00 -1.0000e+00
      994  1    1    2    0    0 -2.6786475331e+01 -1.5471817860e+01 +7.2554701901e+00 1.3479812408e+02 1.3100000000e+02 0.0000e+00 0.0000e+00
      997  1    1    2    0    0 +5.1184172664e+00 +3.4440599058e+00 +4.0091020619e+02 4.0108235211e+02 1.0000000000e+01 0.0000e+00 0.0000e+00
</event>
<event>
 5      1 +4.4770400e-06 2.08329600e+02 7.95774700e-02 4.89232000e-01
       13 -1    0    0    0    0 +0.0000000000e+00 +0.0000000000e+00 +4.9999998884e+02 5.0000000000e+02 1.0566000000e-01 0.0000e+00 1.0000e+00
      994 -1    0    0    0    0 -0.0000000000e+00 -0.0000000000e+00 +0.0000000000e+00 1.3100000000e+02 1.3100000000e+02 0.0000e+00 0.0000e+00
       13  1    1    2    0    0 +1.6077326648e+01 +1.7204736768e+00 +2.5711427231e+01 3.0373164407e+01 1.0566000000e-01 0.0000e+00 -1.0000e+00
      994  1    1    2    0    0 -3.5577707508e+00 +1.1225876257e+01 +5.7690676595e+00 1.3165470053e+02 1.3100000000e+02 0.0000e+00 0.0000e+00
      997  1    1    2    0    0 -1.2519555898e+01 -1.2946349934e+01 +4.6851949395e+02 4.6897213506e+02 1.0000000000e+01 0.0000e+00 0.0000e+00
</event>
<event>
 5      1 +4.4770400e-06 2.11862500e+02 7.95774700e-02 4.83431900e-01
       13 -1    0    0    0    0 +0.0000000000e+00 +0.0000000000e+00 +4.9999998884e+02 5.0000000000e+02 1.0566000000e-01 0.0000e+00 -1.0000e+00
      994 -1    0    0    0    0 -0.0000000000e+00 -0.0000000000e+00 +0.0000000000e+00 1.3100000000e+02 1.3100000000e+02 0.0000e+00 0.0000e+00
       13  1    1    2    0    0 +1.2349200441e+01 -1.0094366933e+01 +7.8970027891e+01 8.0564728414e+01 1.0566000000e-01 0.0000e+00 1.0000e+00
      994  1    1    2    0    0 +7.1850868657e-01 -7.4515221295e+00 +2.5234007360e+00 1.3123798607e+02 1.3100000000e+02 0.0000e+00 0.0000e+00
      997  1    1    2    0    0 -1.3067709127e+01 +1.7545889063e+01 +4.1850656021e+02 4.1919728551e+02 1.0000000000e+01 0.0000e+00 0.0000e+00
</event>
<event>
 5      1 +4.4770400e-06 2.08419200e+02 7.95774700e-02 4.89081800e-01
       13 -1    0    0    0    0 +0.0000000000e+00 +0.0000000000e+00 +4.9999998884e+02 5.0000000000e+02 1.0566000000e-01 0.0000e+00 1.0000e+00
      994 -1    0    0    0    0 -0.0000000000e+00 -0.0000000000e+00 +0.0000000000e+00 1.3100000000e+02 1.3100000000e+02 0.0000e+00 0.0000e+00
       13  1    1    2    0    0 +1.6064177340e+01 +1.1761271529e+01 +3.7247623440e+01 4.2234842459e+01 1.0566000000e-01 0.0000e+00 -1.0000e+00
      994  1    1    2    0    0 -1.5011411671e+01 -4.4400576666e+00 +6.2359282290e+00 1.3207930721e+02 1.3100000000e+02 0.0000e+00 0.0000e+00
      997  1    1    2    0    0 -1.0527656684e+00 -7.3212138626e+00 +4.5651643717e+02 4.5668585033e+02 1.0000000000e+01 0.0000e+00 0.0000e+00
</event>
<event>
 5      1 +4.4770400e-06 2.14702900e+02 7.95774700e-02 4.78942800e-01
       13 -1    0    0    0    0 +0.0000000000e+00 +0.0000000000e+00 +4.9999998884e+02 5.0000000000e+02 1.0566000000e-01 0.0000e+00 1.0000e+00
      994 -1    0    0    0    0 -0.0000000000e+00 -0.0000000000e+00 +0.0000000000e+00 1.3100000000e+02 1.3100000000e+02 0.0000e+00 0.0000e+00
       13  1    1    2    0    0 +1.3598800749e+01 +5.2299351266e+01 +1.6498529145e+01 5.6500992493e+01 1.0566000000e-01 0.0000e+00 -1.0000e+00
      994  1    1    2    0    0 -1.8010465126e+01 -4.6380041994e+01 +6.2706746101e+01 1.5352075155e+02 1.3100000000e+02 0.0000e+00 0.0000e+00
      997  1    1    2    0    0 +4.4116643776e+00 -5.9193092724e+00 +4.2079471359e+02 4.2097825596e+02 1.0000000000e+01 0.0000e+00 0.0000e+00
</event>
<event>
 5      1 +4.4770400e-06 2.07445200e+02 7.95774700e-02 4.90723300e-01
       13 -1    0    0    0    0 +0.0000000000e+00 +0.0000000000e+00 +4.9999998884e+02 5.0000000000e+02 1.0566000000e-01 0.0000e+00 -1.0000e+00
      994 -1    0    0    0    0 -0.0000000000e+00 -0.0000000000e+00 +0.0000000000e+00 1.3100000000e+02 1.3100000000e+02 0.0000e+00 0.0000e+00
       13  1    1    2    0    0 -2.0077624191e+01 -8.2672157640e+00 +4.4248635192e+01 4.9289052842e+01 1.0566000000e-01 0.0000e+00 1.0000e+00
      994  1    1    2    0    0 +3.1715356855e+00 -6.5588048697e+00 +6.0553642565e+00 1.3134208768e+02 1.3100000000e+02 0.0000e+00 0.0000e+00
      997  1    1    2    0    0 +1.6906088505e+01 +1.4826020634e+01 +4.4969598939e+02 4.5036885948e+02 1.0000000000e+01 0.0000e+00 0.0000e+00
</event>
<event>
 5      1 +4.4770400e-06 2.10854200e+02 7.95774700e-02 4.85062200e-01
       13 -1    0    0    0    0 +0.0000000000e+00 +0.0000000000e+00 +4.9999998884e+02 5.0000000000e+02 1.0566000000e-01 0.0000e+00 1.0000e+00
      994 -1    0    0    0    0 -0.0000000000e+00 -0.0000000000e+00 +0.0000000000e+00 1.3100000000e+02 1.3100000000e+02 0.0000e+00 0.0000e+00
       13  1    1    2    0    0 +1.5961789700e+00 +1.2197781714e+01 +2.5194490679e+01 2.8037603154e+01 1.0566000000e-01 0.0000e+00 -1.0000e+00
      994  1    1    2    0    0 +5.3496373716e-01 -3.9917231879e+00 +3.1243967749e+00 1.3109913003e+02 1.3100000000e+02 0.0000e+00 0.0000e+00
      997  1    1    2    0    0 -2.1311427071e+00 -8.2060585261e+00 +4.7168110138e+02 4.7186326681e+02 1.0000000000e+01 0.0000e+00 0.0000e+00
</event>
<event>
 5      1 +4.4770400e-06 2.07223500e+02 7.95774700e-02 4.91099800e-01
       13 -1    0    0    0    0 +0.0000000000e+00 +0.0000000000e+00 +4.9999998884e+02 5.0000000000e+02 1.0566000000e-01 0.0000e+00 -1.0000e+00
      994 -1    0    0    0    0 -0.0000000000e+00 -0.0000000000e+00 +0.0000000000e+00 1.3100000000e+02 1.3100000000e+02 0.0000e+00 0.0000e+00
       13  1    1    2    0    0 -1.3601093959e+01 -2.7239067759e+00 +1.3147092032e+01 1.9111949611e+01 1.0566000000e-01 0.0000e+00 1.0000e+00
      994  1    1    2    0    0 +1.5449917402e+01 -5.5273341649e-01 +7.1886403405e+00 1.3210481449e+02 1.3100000000e+02 0.0000e+00 0.0000e+00
      997  1    1    2    0    0 -1.8488234427e+00 +3.2766401923e+00 +4.7966425646e+02 4.7978323590e+02 1.0000000000e+01 0.0000e+00 0.0000e+00
</event>
<event>
 5      1 +4.4770400e-06 2.02790700e+02 7.95774700e-02 4.98847600e-01
       13 -1    0    0    0    0 +0.0000000000e+00 +0.0000000000e+00 +4.9999998884e+02 5.0000000000e+02 1.0566000000e-01 0.0000e+00 -1.0000e+00
      994 -1    0    0    0    0 -0.0000000000e+00 -0.0000000000e+00 +0.0000000000e+00 1.3100000000e+02 1.3100000000e+02 0.0000e+00 0.0000e+00
       13  1    1    2    0    0 +1.5364820567e+01 -2.1812469357e+00 +7.8450870259e+00 1.7389425055e+01 1.0566000000e-01 0.0000e+00 1.0000e+00
      994  1    1    2    0    0 -1.8251349279e+01 -1.2317730075e+00 +1.1433371575e+01 1.3276426854e+02 1.3100000000e+02 0.0000e+00 0.0000e+00
      997  1    1    2    0    0 +2.8865287120e+00 +3.4130199433e+00 +4.8072153023e+02 4.8084630641e+02 1.0000000000e+01 0.0000e+00 0.0000e+00
</event>
<event>
 5      1 +4.4770400e-06 1.92961100e+02 7.95774700e-02 5.17697600e-01
       13 -1    0    0    0    0 +0.0000000000e+00 +0.0000000000e+00 +4.9999998884e+02 5.0000000000e+02 1.0566000000e-01 0.0000e+00 -1.0000e+00
      994 -1    0    0    0    0 -0.0000000000e+00 -0.0000000000e+00 +0.0000000000e+00 1.3100000000e+02 1.3100000000e+02 0.0000e+00 0.0000e+00
       13  1    1    2    0    0 -2.2516221577e+01 -2.1374075837e+01 +1.4049247062e+01 3.4076734865e+01 1.0566000000e-01 0.0000e+00 1.0000e+00
      994  1    1    2    0    0 +3.2256706033e+01 +4.3740472289e+01 +3.6164030205e+01 1.4636448026e+02 1.3100000000e+02 0.0000e+00 0.0000e+00
      997  1    1    2    0    0 -9.7404844554e+00 -2.2366396452e+01 +4.4978671157e+02 4.5055878488e+02 1.0000000000e+01 0.0000e+00 0.0000e+00
</event>
<event>
 5      1 +4.4770400e-06 2.05940000e+02 7.95774700e-02 4.93299200e-01
       13 -1    0    0    0    0 +0.0000000000e+00 +0.0000000000e+00 +4.9999998884e+02 5.0000000000e+02 1.0566000000e-01 0.0000e+00 -1.0000e+00
      994 -1    0    0    0    0 -0.0000000000e+00 -0.0000000000e+00 +0.0000000000e+00 1.3100000000e+02 1.3100000000e+02 0.0000e+00 0.0000e+00
       13  1    1    2    0    0 +1.4401367762e+01 +1.0597060493e+01 +1.9391322058e+01 2.6376724962e+01 1.0566000000e-01 0.0000e+00 1.0000e+00
      994  1    1    2    0    0 -1.1795064234e+01 -1.0457377187e+01 +8.3045258228e+00 1.3220607182e+02 1.3100000000e+02 0.0000e+00 0.0000e+00
      997  1    1    2    0    0 -2.6063035284e+00 -1.3968330641e-01 +4.7230414096e+02 4.7241720321e+02 1.0000000000e+01 0.0000e+00 0.0000e+00
</event>
<event>
 5      1 +4.4770400e-06 2.13519500e+02 7.95774700e-02 4.80794900e-01
       13 -1    0    0    0    0 +0.0000000000e+00 +0.0000000000e+00 +4.9999998884e+02 5.0000000000e+02 1.0566000000e-01 0.0000e+00 -1.0000e+00
      994 -1    0    0    0    0 -0.0000000000e+00 -0.0000000000e+00 +0.0000000000e+00 1.3100000000e+02 1.3100000000e+02 0.0000e+00 0.0000e+00
       13  1    1    2    0    0 +1.1441014645e+01 +7.7124586000e+00 +8.1288361050e+01 8.2451122734e+01 1.0566000000e-01 0.0000e+00 1.0000e+00
      994  1    1    2    0    0 -1.2147052105e+01 -1.6729271269e+01 +3.0374940750e+00 1.3265611845e+02 1.3100000000e+02 0.0000e+00 0.0000e+00
      997  1    1    2    0    0 +7.0603746026e-01 +9.0168126687e+00 +4.1567413371e+02 4.1589275882e+02 1.0000000000e+01 0.0000e+00 0.0000e+00
</event>
<event>
 5      1 +4.4770400e-06 2.11803100e+02 7.95774700e-02 4.83527400e-01
       13 -1    0    0    0    0 +0.0000000000e+00 +0.0000000000e+00 +4.9999998884e+02 5.0000000000e+02 1.0566000000e-01 0.0000e+00 1.0000e+00
      994 -1    0    0    0    0 -0.0000000000e+00 -0.0000000000e+00 +0.0000000000e+00 1.3100000000e+02 1.3100000000e+02 0.0000e+00 0.0000e+00
       13  1    1    2    0    0 +2.2348087797e+00 +1.4362009001e+01 +4.7287183168e+01 4.9470703743e+01 1.0566000000e-01 0.0000e+00 -1.0000e+00
      994  1    1    2    0    0 -3.1750498288e+00 -7.6947299937e+00 +2.6355932141e+00 1.3129065528e+02 1.3100000000e+02 0.0000e+00 0.0000e+00
      997  1    1    2    0    0 +9.4024104909e-01 -6.6672790073e+00 +4.5007721245e+02 4.5023864098e+02 1.0000000000e+01 0.0000e+00 0.0000e+00
</event>
<event>
 5      1 +4.4770400e-06 2.05437200e+02 7.95774700e-02 4.94170300e-01
       13 -1    0    0    0    0 +0.0000000000e+00 +0.0000000000e+00 +4.9999998884e+02 5.0000000000e+02 1.0566000000e-01 0.0000e+00 -1.0000e+00
      994 -1    0    0    0    0 -0.0000000000e+00 -0.0000000000e+00 +0.0000000000e+00 1.3100000000e+02 1.3100000000e+02 0.0000e+00 0.0000e+00
       13  1    1    2    0    0 +3.4093457740e+01 -2.5186519696e+01 +8.6944386985e+01 9.6726739981e+01 1.0566000000e-01 0.0000e+00 1.0000e+00
      994  1    1    2    0    0 -4.4545219461e+01 +2.3981526913e+01 +2.1049058415e+01 1.4199807418e+02 1.3100000000e+02 0.0000e+00 0.0000e+00
      997  1    1    2    0    0 +1.0451761721e+01 +1.2049927839e+00 +3.9200654344e+02 3.9227518584e+02 1.0000000000e+01 0.0000e+00 0.0000e+00
</event>
<event>
 5      1 +4.4770400e-06 2.11549100e+02 7.95774700e-02 4.83936500e-01
       13 -1    0    0    0    0 +0.0000000000e+00 +0.0000000000e+00 +4.9999998884e+02 5.0000000000e+02 1.0566000000e-01 0.0000e+00 1.0000e+00
      994 -1    0    0    0    0 -0.0000000000e+00 -0.0000000000e+00 +0.0000000000e+00 1.3100000000e+02 1.3100000000e+02 0.0000e+00 0.0000e+00
       13  1    1    2    0    0 +1.6370448052e+01 -1.1852167265e+01 +7.6625453970e+01 7.9246052257e+01 1.0566000000e-01 0.0000e+00 -1.0000e+00
      994  1    1    2    0    0 -1.3112101435e+01 +1.0267587256e+01 +3.8663339870e+00 1.3211093479e+02 1.3100000000e+02 0.0000e+00 0.0000e+00
      997  1    1    2    0    0 -3.2583466164e+00 +1.5845800094e+00 +4.1950820088e+02 4.1964301295e+02 1.0000000000e+01 0.0000e+00 0.0000e+00
</event>
<event>
 5      1 +4.4770400e-06 2.13142100e+02 7.95774700e-02 4.81391000e-01
       13 -1    0    0    0    0 +0.0000000000e+00 +0.0000000000e+00 +4.9999998884e+02 5.0000000000e+02 1.0566000000e-01 0.0000e+00 1.0000e+00
      994 -1    0    0    0    0 -0.0000000000e+00 -0.0000000000e+00 +0.0000000000e+00 1.3100000000e+02 1.3100000000e+02 0.0000e+00 0.0000e+00
       13  1    1    2    0    0 -9.6476302815e+00 +4.5588409244e+00 +6.0447095173e+01 6.1381774816e+01 1.0566000000e-01 0.0000e+00 -1.0000e+00
      994  1    1    2    0    0 -3.3821564942e+00 -1.4614371576e+00 +1.3116574978e+00 1.3105836573e+02 1.3100000000e+02 0.0000e+00 0.0000e+00
      997  1    1    2    0    0 +1.3029786776e+01 -3.0974037668e+00 +4.3824123617e+02 4.3855985946e+02 1.0000000000e+01 0.0000e+00 0.0000e+00
</event>
<event>
 5      1 +4.4770400e-06 1.99535000e+02 7.95774700e-02 5.04822500e-01
       13 -1    0    0    0    0 +0.0000000000e+00 +0.0000000000e+00 +4.9999998884e+02 5.0000000000e+02 1.0566000000e-01 0.0000e+00 -1.0000e+00
      994 -1    0    0    0    0 -0.0000000000e+00 -0.0000000000e+00 +0.0000000000e+00 1.3100000000e+02 1.3100000000e+02 0.0000e+00 0.0000e+00
       13  1    1    2    0    0 -3.4634596754e-01 -2.5267829776e+01 +6.9990870325e-01 2.5280114979e+01 1.0566000000e-01 0.0000e+00 1.0000e+00
      994  1    1    2    0    0 -2.9993417168e+01 +3.0581742476e+01 +3.7568326791e+01 1.4285386668e+02 1.3100000000e+02 0.0000e+00 0.0000e+00
      997  1    1    2    0    0 +3.0339763135e+01 -5.3139127005e+00 +4.6173175334e+02 4.6286601835e+02 1.0000000000e+01 0.0000e+00 0.0000e+00
</event>
<event>
 5      1 +4.4770400e-06 2.12809100e+02 7.95774700e-02 4.81919200e-01
       13 -1    0    0    0    0 +0.0000000000e+00 +0.0000000000e+00 +4.9999998884e+02 5.0000000000e+02 1.0566000000e-01 0.0000e+00 1.0000e+00
      994 -1    0    0    0    0 -0.0000000000e+00 -0.0000000000e+00 +0.0000000000e+00 1.3100000000e+02 1.3100000000e+02 0.0000e+00 0.0000e+00
       13  1    1    2    0    0 +5.1332264983e+00 +1.0994471835e+01 +6.1625242521e+01 6.2808519367e+01 1.0566000000e-01 0.0000e+00 -1.0000e+00
      994  1    1    2    0    0 -6.3690677773e+00 +3.8936365199e+00 +1.7777880723e+00 1.3122456310e+02 1.3100000000e+02 0.0000e+00 0.0000e+00
      997  1    1    2    0    0 +1.2358412791e+00 -1.4888108355e+01 +4.3659695824e+02 4.3696691754e+02 1.0000000000e+01 0.0000e+00 0.0000e+00
</event>
<event>
 5      1 +4.4770400e-06 2.10059900e+02 7.95774700e-02 4.86360500e-01
       13 -1    0    0    0    0 +0.0000000000e+00 +0.0000000000e+00 +4.9999998884e+02 5.0000000000e+02 1.0566000000e-01 0.0000e+00 -1.0000e+00
      994 -1    0    0    0    0 -0.0000000000e+00 -0.0000000000e+00 +0.0000000000e+00 1.3100000000e+02 1.3100000000e+02 0.0000e+00 0.0000e+00
       13  1    1    2    0    0 -4.7676230787e+01 -1.4179829389e+01 +2.0120026000e+02 2.0725743975e+02 1.0566000000e-01 0.0000e+00 1.0000e+00
      994  1    1    2    0    0 +4.4312937509e+01 +3.6879755673e+01 +2.0812128495e+01 1.4463020951e+02 1.3100000000e+02 0.0000e+00 0.0000e+00
      997  1    1    2    0    0 +3.3632932775e+00 -2.2699926284e+01 +2.7798760034e+02 2.7911235074e+02 1.0000000000e+01 0.0000e+00 0.0000e+00
</event>
<event>
 5      1 +4.4770400e-06 2.11496900e+02 7.95774700e-02 4.84020900e-01
       13 -1    0    0    0    0 +0.0000000000e+00 +0.0000000000e+00 +4.9999998884e+02 5.0000000000e+02 1.0566000000e-01 0.0000e+00 -1.0000e+00
      994 -1    0    0    0    0 -0.0000000000e+00 -0.0000000000e+00 +0.0000000000e+00 1.3100000000e+02 1.3100000000e+02 0.0000e+00 0.0000e+00
       13  1    1    2    0    0 -1.1339927000e+01 +8.4008349356e+00 +3.5539048478e+01 3.8238764399e+01 1.0566000000e-01 0.0000e+00 1.0000e+00
      994  1    1    2    0    0 +1.5007987010e+01 -8.8588411075e+00 +4.0389773953e+00 1.3221585411e+02 1.3100000000e+02 0.0000e+00 0.0000e+00
      997  1    1    2    0    0 -3.6680600102e+00 +4.5800617193e-01 +4.6042196296e+02 4.6054538149e+02 1.0000000000e+01 0.0000e+00 0.0000e+00
</event>
<event>
 5      1 +4.4770400e-06 2.12332400e+02 7.95774700e-02 4.82678800e-01
       13 -1    0    0    0    0 +0.0000000000e+00 +0.0000000000e+00 +4.9999998884e+02 5.0000000000e+02 1.0566000000e-01 0.0000e+00 -1.0000e+00
      994 -1    0    0    0    0 -0.0000000000e+00 -0.0000000000e+00 +0.0000000000e+00 1.3100000000e+02 1.3100000000e+02 0.0000e+00 0.0000e+00
       13  1    1    2    0    0 -2.3758450394e+01 +2.2825854859e+01 +1.1901292504e+02 1.2348915380e+02 1.0566000000e-01 0.0000e+00 1.0000e+00
      994  1    1    2    0    0 +4.4789375983e+01 -3.9243331799e+01 +1.9862576261e+01 1.4526406723e+02 1.3100000000e+02 0.0000e+00 0.0000e+00
      997  1    1    2    0    0 -2.1030925589e+01 +1.6417476940e+01 +3.6112448753e+02 3.6224677897e+02 1.0000000000e+01 0.0000e+00 0.0000e+00
</event>
<event>
 5      1 +4.4770400e-06 2.12473400e+02 7.95774700e-02 4.82453700e-01
       13 -1    0    0    0    0 +0.0000000000e+00 +0.0000000000e+00 +4.9999998884e+02 5.0000000000e+02 1.0566000000e-01 0.0000e+00 1.0000e+00
      994 -1    0    0    0    0 -0.0000000000e+00 -0.0000000000e+00 +0.0000000000e+00 1.3100000000e+02 1.3100000000e+02 0.0000e+00 0.0000e+00
       13  1    1    2    0    0 +4.9445062567e+00 -1.0696446396e+01 +3.8433467223e+01 4.0199560625e+01 1.0566000000e-01 0.0000e+00 -1.0000e+00
      994  1    1    2    0    0 -1.5005030304e+00 +1.1301236368e+01 +2.4054044090e+00 1.3151712977e+02 1.3100000000e+02 0.0000e+00 0.0000e+00
      997  1    1    2    0    0 -3.4440032263e+00 -6.0478997187e-01 +4.5916111720e+02 4.5928330960e+02 1.0000000000e+01 0.0000e+00 0.0000e+00
</event>
<event>
 5      1 +4.4770400e-06 2.13480700e+02 7.95774700e-02 4.80856100e-01
       13 -1    0    0    0    0 +0.0000000000e+00 +0.0000000000e+00 +4.9999998884e+02 5.0000000000e+02 1.0566000000e-01 0.0000e+00 1.0000e+00
      994 -1    0    0    0    0 -0.0000000000e+00 -0.0000000000e+00 +0.0000000000e+00 1.3100000000e+02 1.3100000000e+02 0.0000e+00 0.0000e+00
       13  1    1    2    0    0 +1.1295899120e+01 -6.9998725438e+00 +6.4191507636e+01 6.5552699176e+01 1.0566000000e-01 0.0000e+00 -1.0000e+00
      994  1    1    2    0    0 -2.1910236010e+01 +1.3945547884e+01 +4.2817560965e+00 1.3361837517e+02 1.3100000000e+02 0.0000e+00 0.0000e+00
      997  1    1    2    0    0 +1.0614336890e+01 -6.9456753402e+00 +4.3152672510e+02 4.3182892565e+02 1.0000000000e+01 0.0000e+00 0.0000e+00
</event>
<event>
 5      1 +4.4770400e-06 2.11807700e+02 7.95774700e-02 4.83520000e-01
       13 -1    0    0    0    0 +0.0000000000e+00 +0.0000000000e+00 +4.9999998884e+02 5.0000000000e+02 1.0566000000e-01 0.0000e+00 1.0000e+00
      994 -1    0    0    0    0 -0.0000000000e+00 -0.0000000000e+00 +0.0000000000e+00 1.3100000000e+02 1.3100000000e+02 0.0000e+00 0.0000e+00
       13  1    1    2    0    0 +1.2524476039e+01 +1.3516075648e+01 +7.3757642119e+01 7.6024652159e+01 1.0566000000e-01 0.0000e+00 -1.0000e+00
      994  1    1    2    0    0 -7.3717353178e+00 -1.0089682370e+01 +3.0605680019e+00 1.3163020644e+02 1.3100000000e+02 0.0000e+00 0.0000e+00
      997  1    1    2    0    0 -5.1527407208e+00 -3.4263932780e+00 +4.2318177872e+02 4.2334514140e+02 1.0000000000e+01 0.0000e+00 0.0000e+00
</event>
<event>
 5      1 +4.4770400e-06 2.05752900e+02 7.95774700e-02 4.93622700e-01
       13 -1    0    0    0    0 +0.0000000000e+00 +0.0000000000e+00 +4.9999998884e+02 5.0000000000e+02 1.0566000000e-01 0.0000e+00 -1.0000e+00
      994 -1    0    0    0    0 -0.0000000000e+00 -0.0000000000e+00 +0.0000000000e+00 1.3100000000e+02 1.3100000000e+02 0.0000e+00 0.0000e+00
       13  1    1    2    0    0 +2.2055774141e+00 -3.9411010421e+01 +1.7667541567e+02 1.8103122930e+02 1.0566000000e-01 0.0000e+00 1.0000e+00
      994  1    1    2    0    0 +1.7710954792e+01 +2.2991919021e+00 +8.8272797631e+00 1.3250616994e+02 1.3100000000e+02 0.0000e+00 0.0000e+00
      997  1    1    2    0    0 -1.9916532206e+01 +3.7111818519e+01 +3.1449729340e+02 3.1746260076e+02 1.0000000000e+01 0.0000e+00 0.0000e+00
</event>
<event>
 5      1 +4.4770400e-06 2.07027500e+02 7.95774700e-02 4.91433400e-01
       13 -1    0    0    0    0 +0.0000000000e+00 +0.0000000000e+00 +4.9999998884e+02 5.0000000000e+02 1.0566000000e-01 0.0000e+00 -1.0000e+00
      994 -1    0    0    0    0 -0.0000000000e+00 -0.0000000000e+00 +0.0000000000e+00 1.3100000000e+02 1.3100000000e+02 0.0000e+00 0.0000e+00
       13  1    1    2    0    0 -2.5479678322e+01 +2.3808933438e+01 +9.2905508850e+01 9.9234691804e+01 1.0566000000e-01 0.0000e+00 1.0000e+00
      994  1    1    2    0    0 +2.4845035788e+01 -9.0384150682e+00 +9.7243395064e+00 1.3399452052e+02 1.3100000000e+02 0.0000e+00 0.0000e+00
      997  1    1    2    0    0 +6.3464253411e-01 -1.4770518370e+01 +3.9737014048e+02 3.9777078768e+02 1.0000000000e+01 0.0000e+00 0.0000e+00
</event>
<event>
 5      1 +4.4770400e-06 2.12804500e+02 7.95774700e-02 4.81926500e-01
       13 -1    0    0    0    0 +0.0000000000e+00 +0.0000000000e+00 +4.9999998884e+02 5.0000000000e+02 1.0566000000e-01 0.0000e+00 -1.0000e+00
      994 -1    0    0    0    0 -0.0000000000e+00 -0.0000000000e+00 +0.0000000000e+00 1.3100000000e+02 1.3100000000e+02 0.0000e+00 0.0000e+00
       13  1    1    2    0    0 -1.4588860147e+01 -5.8882891885e+00 +6.4150381905e+01 6.6051415219e+01 1.0566000000e-01 0.0000e+00 1.0000e+00
      994  1    1    2    0    0 +2.0982571540e+01 +1.3106791808e+01 +4.5167936451e+00 1.3339212017e+02 1.3100000000e+02 0.0000e+00 0.0000e+00
      997  1    1    2    0    0 -6.3937113926e+00 -7.2185026193e+00 +4.3133281329e+02 4.3155646461e+02 1.0000000000e+01 0.0000e+00 0.0000e+00
</event>
<event>
 5      1 +4.4770400e-06 1.98424700e+02 7.95774700e-02 5.06918600e-01
       13 -1    0    0    0    0 +0.0000000000e+00 +0.0000000000e+00 +4.9999998884e+02 5.0000000000e+02 1.0566000000e-01 0.0000e+00 1.0000e+00
      994 -1    0    0    0    0 -0.0000000000e+00 -0.0000000000e+00 +0.0000000000e+00 1.3100000000e+02 1.3100000000e+02 0.0000e+00 0.0000e+00
       13  1    1    2    0    0 -3.6258081118e+01 +1.7456657911e+00 +6.0161579066e+01 7.0264660784e+01 1.0566000000e-01 0.0000e+00 -1.0000e+00
      994  1    1    2    0    0 -1.1314440731e+01 +4.8539496214e+00 +1.4270213194e+01 1.3234884352e+02 1.3100000000e+02 0.0000e+00 0.0000e+00
      997  1    1    2    0    0 +4.7572521849e+01 -6.5996154125e+00 +4.2556819658e+02 4.2838649570e+02 1.0000000000e+01 0.0000e+00 0.0000e+00
</event>
<event>
 5      1 +4.4770400e-06 2.10879000e+02 7.95774700e-02 4.85022000e-01
       13 -1    0    0    0    0 +0.0000000000e+00 +0.0000000000e+00 +4.9999998884e+02 5.0000000000e+02 1.0566000000e-01 0.0000e+00 1.0000e+00
      994 -1    0    0    0    0 -0.0000000000e+00 -0.0000000000e+00 +0.0000000000e+00 1.3100000000e+02 1.3100000000e+02 0.0000e+00 0.0000e+00
       13  1    1    2    0    0 -1.5121364587e+01 -2.6078715505e+01 +9.9413182298e+01 1.0388333383e+02 1.0566000000e-01 0.0000e+00 -1.0000e+00
      994  1    1    2    0    0 +4.1555018449e+01 +2.5720767203e+01 +1.5141615250e+01 1.4063657396e+02 1.3100000000e+02 0.0000e+00 0.0000e+00
      997  1    1    2    0    0 -2.6433653862e+01 +3.5794830191e-01 +3.8544519129e+02 3.8648009220e+02 1.0000000000e+01 0.0000e+00 0.0000e+00
</event>
<event>
 5      1 +4.4770400e-06 2.09144800e+02 7.95774700e-02 4.87871700e-01
       13 -1    0    0    0    0 +0.0000000000e+00 +0.0000000000e+00 +4.9999998884e+02 5.0000000000e+02 1.0566000000e-01 0.0000e+00 -1.0000e+00
      994 -1    0    0    0    0 -0.0000000000e+00 -0.0000000000e+00 +0.0000000000e+00 1.3100000000e+02 1.3100000000e+02 0.0000e+00 0.0000e+00
       13  1    1    2    0    0 +8.9141162338e+00 +9.1920594392e+00 +1.7098653224e+01 2.1361894370e+01 1.0566000000e-01 0.0000e+00 1.0000e+00
      994  1    1    2    0    0 +9.0218551851e-01 -1.1523160654e+01 +5.0814026952e+00 1.3160705841e+02 1.3100000000e+02 0.0000e+00 0.0000e+00
      997  1    1    2    0    0 -9.8163017523e+00 +2.3311012146e+00 +4.7781993292e+02 4.7803104722e+02 1.0000000000e+01 0.0000e+00 0.0000e+00
</event>
<event>
 5      1 +4.4770400e-06 2.11230700e+02 7.95774700e-02 4.84451200e-01
       13 -1    0    0    0    0 +0.0000000000e+00 +0.0000000000e+00 +4.9999998884e+02 5.0000000000e+02 1.0566000000e-01 0.0000e+00 1.0000e+00
      994 -1    0    0    0    0 -0.0000000000e+00 -0.0000000000e+00 +0.0000000000e+00 1.3100000000e+02 1.3100000000e+02 0.0000e+00 0.0000e+00
       13  1    1    2    0    0 +5.0309330545e+00 -9.7998930379e+00 +2.1104837877e+01 2.3807006045e+01 1.0566000000e-01 0.0000e+00 -1.0000e+00
      994  1    1    2    0    0 +2.9654537984e+00 +1.2273081155e+01 +3.5355550649e+00 1.3165455779e+02 1.3100000000e+02 0.0000e+00 0.0000e+00
      997  1    1    2    0    0 -7.9963868529e+00 -2.4731881167e+00 +4.7535959589e+02 4.7553843617e+02 1.0000000000e+01 0.0000e+00 0.0000e+00
</event>
<event>
 5      1 +4.4770400e-06 2.07617900e+02 7.95774700e-02 4.90430900e-01
       13 -1    0    0    0    0 +0.0000000000e+00 +0.0000000000e+00 +4.9999998884e+02 5.0000000000e+02 1.0566000000e-01 0.0000e+00 -1.0000e+00
      994 -1    0    0    0    0 -0.0000000000e+00 -0.0000000000e+00 +0.0000000000e+00 1.3100000000e+02 1.3100000000e+02 0.0000e+00 0.0000e+00
       13  1    1    2    0    0 -4.3906030354e+00 +1.4385854574e+01 +1.7623350222e+01 2.3169459293e+01 1.0566000000e-01 0.0000e+00 1.0000e+00
      994  1    1    2    0    0 +7.9323573194e+00 -9.6556397953e+00 +6.4399585596e+00 1.3175214131e+02 1.3100000000e+02 0.0000e+00 0.0000e+00
      997  1    1    2    0    0 -3.5417542840e+00 -4.7302147784e+00 +4.7593668005e+02 4.7607839940e+02 1.0000000000e+01 0.0000e+00 0.0000e+00
</event>
<event>
 5      1 +4.4770400e-06 2.11087100e+02 7.95774700e-02 4.84683900e-01
       13 -1    0    0    0    0 +0.0000000000e+00 +0.0000000000e+00 +4.9999998884e+02 5.0000000000e+02 1.0566000000e-01 0.0000e+00 1.0000e+00
      994 -1    0    0    0    0 -0.0000000000e+00 -0.0000000000e+00 +0.0000000000e+00 1.3100000000e+02 1.3100000000e+02 0.0000e+00 0.0000e+00
       13  1    1    2    0    0 -2.5168619581e+01 -2.5733294017e+00 +1.3427811016e+02 1.3664078259e+02 1.0566000000e-01 0.0000e+00 -1.0000e+00
      994  1    1    2    0    0 +1.0201960257e+01 -1.0704453089e+01 +3.9444029878e+00 1.3189095353e+02 1.3100000000e+02 0.0000e+00 0.0000e+00
      997  1    1    2    0    0 +1.4966659324e+01 +1.3277782491e+01 +3.6177747569e+02 3.6246826387e+02 1.0000000000e+01 0.0000e+00 0.0000e+00
</event>
<event>
 5      1 +4.4770400e-06 2.11570200e+02 7.95774700e-02 4.83902600e-01
       13 -1    0    0    0    0 +0.0000000000e+00 +0.0000000000e+00 +4.9999998884e+02 5.0000000000e+02 1.0566000000e-01 0.0000e+00 -1.0000e+00
      994 -1    0    0    0    0 -0.0000000000e+00 -0.0000000000e+00 +0.0000000000e+00 1.3100000000e+02 1.3100000000e+02 0.0000e+00 0.0000e+00
       13  1    1    2    0    0 +1.9141411879e+01 -1.4401188088e+00 +9.8592572073e+01 1.0044388495e+02 1.0566000000e-01 0.0000e+00 1.0000e+00
      994  1    1    2    0    0 -4.3233890716e+00 +3.8836045190e+01 +1.0118272141e+01 1.3707774995e+02 1.3100000000e+02 0.0000e+00 0.0000e+00
      997  1    1    2    0    0 -1.4818022807e+01 -3.7395926381e+01 +3.9128914462e+02 3.9347836511e+02 1.0000000000e+01 0.0000e+00 0.0000e+00
</event>
<event>
 5      1 +4.4770400e-06 2.12551100e+02 7.95774700e-02 4.82329800e-01
       13 -1    0    0    0    0 +0.0000000000e+00 +0.0000000000e+00 +4.9999998884e+02 5.0000000000e+02 1.0566000000e-01 0.0000e+00 -1.0000e+00
      994 -1    0    0    0    0 -0.0000000000e+00 -0.0000000000e+00 +0.0000000000e+00 1.3100000000e+02 1.3100000000e+02 0.0000e+00 0.0000e+00
       13  1    1    2    0    0 -2.7282528206e+00 -1.3875791539e+01 +6.6989203857e+01 6.8465652350e+01 1.0566000000e-01 0.0000e+00 1.0000e+00
      994  1    1    2    0    0 -2.9361809309e+00 +4.7008070672e+00 +1.8575156410e+00 1.3113035160e+02 1.3100000000e+02 0.0000e+00 0.0000e+00
      997  1    1    2    0    0 +5.6644337515e+00 +9.1749844722e+00 +4.3115326934e+02 4.3140399605e+02 1.0000000000e+01 0.0000e+00 0.0000e+00
</event>
<event>
 5      1 +4.4770400e-06 2.12746200e+02 7.95774700e-02 4.82019200e-01
       13 -1    0    0    0    0 +0.0000000000e+00 +0.0000000000e+00 +4.9999998884e+02 5.0000000000e+02 1.0566000000e-01 0.0000e+00 -1.0000e+00
      994 -1    0    0    0    0 -0.0000000000e+00 -0.0000000000e+00 +0.0000000000e+00 1.3100000000e+02 1.3100000000e+02 0.0000e+00 0.0000e+00
       13  1    1    2    0    0 +9.3636741414e+00 -5.9509314511e+00 +5.6343488280e+01 5.7425532772e+01 1.0566000000e-01 0.0000e+00 1.0000e+00
      994  1    1    2    0    0 +3.5848741600e+00 -9.1793225371e+00 +2.0297132624e+00 1.3138580982e+02 1.3100000000e+02 0.0000e+00 0.0000e+00
      997  1    1    2    0    0 -1.2948548301e+01 +1.5130253988e+01 +4.4162678729e+02 4.4218865741e+02 1.0000000000e+01 0.0000e+00 0.0000e+00
</event>
<event>
 5      1 +4.4770400e-06 2.11750400e+02 7.95774700e-02 4.83612200e-01
       13 -1    0    0    0    0 +0.0000000000e+00 +0.0000000000e+00 +4.9999998884e+02 5.0000000000e+02 1.0566000000e-01 0.0000e+00 -1.0000e+00
      994 -1    0    0    0    0 -0.0000000000e+00 -0.0000000000e+00 +0.0000000000e+00 1.3100000000e+02 1.3100000000e+02 0.0000e+00 0.0000e+00
       13  1    1    2    0    0 +1.0615134493e+01 +6.1115505036e+00 +2.4942364264e+01 2.7787853983e+01 1.0566000000e-01 0.0000e+00 1.0000e+00
      994  1    1    2    0    0 -1.0360925230e+01 -4.9703961187e+01 +1.5346680829e+01 1.4133065181e+02 1.3100000000e+02 0.0000e+00 0.0000e+00
      997  1    1    2    0    0 -2.5420926247e-01 +4.3592410683e+01 +4.5971094374e+02 4.6188149420e+02 1.0000000000e+01 0.0000e+00 0.0000e+00
</event>
<event>
 5      1 +4.4770400e-06 2.13353900e+02 7.95774700e-02 4.81056100e-01
       13 -1    0    0    0    0 +0.0000000000e+00 +0.0000000000e+00 +4.9999998884e+02 5.0000000000e+02 1.0566000000e-01 0.0000e+00 -1.0000e+00
      994 -1    0    0    0    0 -0.0000000000e+00 -0.0000000000e+00 +0.0000000000e+00 1.3100000000e+02 1.3100000000e+02 0.0000e+00 0.0000e+00
       13  1    1    2    0    0 -6.6422324543e+00 +8.7631607074e+00 +4.8913346278e+01 5.0134208338e+01 1.0566000000e-01 0.0000e+00 1.0000e+00
      994  1    1    2    0    0 +5.7977516110e+00 -1.7355623598e+01 +2.7151233916e+00 1.3229967305e+02 1.3100000000e+02 0.0000e+00 0.0000e+00
      997  1    1    2    0    0 +8.4448084328e-01 +8.5924628907e+00 +4.4837151917e+02 4.4856611861e+02 1.0000000000e+01 0.0000e+00 0.0000e+00
</event>
<event>
 5      1 +4.4770400e-06 2.07982200e+02 7.95774700e-02 4.89815900e-01
       13 -1    0    0    0    0 +0.0000000000e+00 +0.0000000000e+00 +4.9999998884e+02 5.0000000000e+02 1.0566000000e-01 0.0000e+00 -1.0000e+00
      994 -1    0    0    0    0 -0.0000000000e+00 -0.0000000000e+00 +0.0000000000e+00 1.3100000000e+02 1.3100000000e+02 0.0000e+00 0.0000e+00
       13  1    1    2    0    0 +7.4544296692e+00 +1.9792883164e+01 +3.7365066176e+01 4.2935836780e+01 1.0566000000e-01 0.0000e+00 1.0000e+00
      994  1    1    2    0    0 +5.0302640402e+00 -2.3900074791e+01 +8.3922028861e+00 1.3352133238e+02 1.3100000000e+02 0.0000e+00 0.0000e+00
      997  1    1    2    0    0 -1.2484693709e+01 +4.1071916265e+00 +4.5424271977e+02 4.5454283084e+02 1.0000000000e+01 0.0000e+00 0.0000e+00
</event>
<event>
 5      1 +4.4770400e-06 2.12006400e+02 7.95774700e-02 4.83200900e-01
       13 -1    0    0    0    0 +0.0000000000e+00 +0.0000000000e+00 +4.9999998884e+02 5.0000000000e+02 1.0566000000e-01 0.0000e+00 -1.0000e+00
      994 -1    0    0    0    0 -0.0000000000e+00 -0.0000000000e+00 +0.0000000000e+00 1.3100000000e+02 1.3100000000e+02 0.0000e+00 0.0000e+00
       13  1    1    2    0    0 -1.0760684670e+01 -1.0162129473e+01 +6.1499174174e+01 6.3255203724e+01 1.0566000000e-01 0.0000e+00 1.0000e+00
      994  1    1    2    0    0 +4.1927071158e+00 -4.0559086941e+00 +2.3016503570e+00 1.3115001633e+02 1.3100000000e+02 0.0000e+00 0.0000e+00
      997  1    1    2    0    0 +6.5679775538e+00 +1.4218038167e+01 +4.3619916430e+02 4.3659477995e+02 1.0000000000e+01 0.0000e+00 0.0000e+00
</event>
<event>
 5      1 +4.4770400e-06 2.12594500e+02 7.95774700e-02 4.82260600e-01
       13 -1    0    0    0    0 +0.0000000000e+00 +0.0000000000e+00 +4.9999998884e+02 5.0000000000e+02 1.0566000000e-01 0.0000e+00 1.0000e+00
      994 -1    0    0    0    0 -0.0000000000e+00 -0.0000000000e+00 +0.0000000000e+00 1.3100000000e+02 1.3100000000e+02 0.0000e+00 0.0000e+00
       13  1    1    2    0    0 +9.0053673144e+00 +6.8235176319e+00 +4.7139533272e+01 4.8474774826e+01 1.0566000000e-01 0.0000e+00 -1.0000e+00
      994  1    1    2    0    0 +3.9264029964e+00 -3.2237470273e-01 +1.7490323830e+00 1.3107089563e+02 1.3100000000e+02 0.0000e+00 0.0000e+00
      997  1    1    2    0    0 -1.2931770311e+01 -6.5011429292e+00 +4.5111142318e+02 4.5145432955e+02 1.0000000000e+01 0.0000e+00 0.0000e+00
</event>
<event>
 5      1 +4.4770400e-06 2.12910900e+02 7.95774700e-02 4.81757500e-01
       13 -1    0    0    0    0 +0.0000000000e+00 +0.0000000000e+00 +4.9999998884e+02 5.0000000000e+02 1.0566000000e-01 0.0000e+00 -1.0000e+00
      994 -1    0    0    0    0 -0.0000000000e+00 -0.0000000000e+00 +0.0000000000e+00 1.3100000000e+02 1.3100000000e+02 0.0000e+00 0.0000e+00
       13  1    1    2    0    0 +2.3451329990e+00 +1.8570204977e+01 +9.0463326752e+01 9.2379525940e+01 1.0566000000e-01 0.0000e+00 1.0000e+00
      994  1    1    2    0    0 +1.6723982029e+00 -2.6498142065e+01 +4.8902934831e+00 1.3375299406e+02 1.3100000000e+02 0.0000e+00 0.0000e+00
      997  1    1    2    0    0 -4.0175312019e+00 +7.9279370872e+00 +4.0464636860e+02 4.0486748000e+02 1.0000000000e+01 0.0000e+00 0.0000e+00
</event>
<event>
 5      1 +4.4770400e-06 2.06921300e+02 7.95774700e-02 4.91614500e-01
       13 -1    0    0    0    0 +0.0000000000e+00 +0.0000000000e+00 +4.9999998884e+02 5.0000000000e+02 1.0566000000e-01 0.0000e+00 1.0000e+00
      994 -1    0    0    0    0 -0.0000000000e+00 -0.0000000000e+00 +0.0000000000e+00 1.3100000000e+02 1.3100000000e+02 0.0000e+00 0.0000e+00
       13  1    1    2    0    0 -5.0099014633e+01 -4.2506461893e+00 +2.4340395483e+02 2.4854270388e+02 1.0566000000e-01 0.0000e+00 -1.0000e+00
      994  1    1    2    0    0 +2.8823713577e+01 -1.8631875410e+01 +1.2311640631e+01 1.3597988727e+02 1.3100000000e+02 0.0000e+00 0.0000e+00
      997  1    1    2    0    0 +2.1275301056e+01 +2.2882521599e+01 +2.4428439337e+02 2.4647740885e+02 1.0000000000e+01 0.0000e+00 0.0000e+00
</event>
<event>
 5      1 +4.4770400e-06 2.09549300e+02 7.95774700e-02 4.87201600e-01
       13 -1    0    0    0    0 +0.0000000000e+00 +0.0000000000e+00 +4.9999998884e+02 5.0000000000e+02 1.0566000000e-01 0.0000e+00 -1.0000e+00
      994 -1    0    0    0    0 -0.0000000000e+00 -0.0000000000e+00 +0.0000000000e+00 1.3100000000e+02 1.3100000000e+02 0.0000e+00 0.0000e+00
       13  1    1    2    0    0 +1.1231721475e+01 +8.2128455832e+00 +2.3757749104e+01 2.7532602608e+01 1.0566000000e-01 0.0000e+00 1.0000e+00
      994  1    1    2    0    0 +2.8768448812e+00 -7.7589990974e+00 +4.4276320090e+00 1.3133576142e+02 1.3100000000e+02 0.0000e+00 0.0000e+00
      997  1    1    2    0    0 -1.4108566356e+01 -4.5384648587e-01 +4.7181460772e+02 4.7213163597e+02 1.0000000000e+01 0.0000e+00 0.0000e+00
</event>
<event>
 5      1 +4.4770400e-06 2.11102000e+02 7.95774700e-02 4.84659800e-01
       13 -1    0    0    0    0 +0.0000000000e+00 +0.0000000000e+00 +4.9999998884e+02 5.0000000000e+02 1.0566000000e-01 0.0000e+00 1.0000e+00
      994 -1    0    0    0    0 -0.0000000000e+00 -0.0000000000e+00 +0.0000000000e+00 1.3100000000e+02 1.3100000000e+02 0.0000e+00 0.0000e+00
       13  1    1    2    0    0 -2.2716487635e+01 +2.7196890386e+01 +1.2057452110e+02 1.2567392713e+02 1.0566000000e-01 0.0000e+00 -1.0000e+00
      994  1    1    2    0    0 +3.2618897705e+01 -3.9458100514e+01 +1.6151176874e+01 1.4157257749e+02 1.3100000000e+02 0.0000e+00 0.0000e+00
      997  1    1    2    0    0 -9.9024100701e+00 +1.2261210128e+01 +3.6327429086e+02 3.6375349538e+02 1.0000000000e+01 0.0000e+00 0.0000e+00
</event>
<event>
 5      1 +4.4770400e-06 2.08027500e+02 7.95774700e-02 4.89739600e-01
       13 -1    0    0    0    0 +0.0000000000e+00 +0.0000000000e+00 +4.9999998884e+02 5.0000000000e+02 1.0566000000e-01 0.0000e+00 -1.0000e+00
      994 -1    0    0    0    0 -0.0000000000e+00 -0.0000000000e+00 +0.0000000000e+00 1.3100000000e+02 1.3100000000e+02 0.0000e+00 0.0000e+00
       13  1    1    2    0    0 +2.2449470216e+01 -6.8941695781e+00 +4.9393888808e+01 5.4692556192e+01 1.0566000000e-01 0.0000e+00 1.0000e+00
      994  1    1    2    0    0 -1.6898076135e+01 -3.5968206534e-01 +6.7641999954e+00 1.3225894582e+02 1.3100000000e+02 0.0000e+00 0.0000e+00
      997  1    1    2    0    0 -5.5513940813e+00 +7.2538516434e+00 +4.4384190003e+02 4.4404849799e+02 1.0000000000e+01 0.0000e+00 0.0000e+00
</event>
<event>
 5      1 +4.4770400e-06 2.09990300e+02 7.95774700e-02 4.86474800e-01
       13 -1    0    0    0    0 +0.0000000000e+00 +0.0000000000e+00 +4.9999998884e+02 5.0000000000e+02 1.0566000000e-01 0.0000e+00 -1.0000e+00
      994 -1    0    0    0    0 -0.0000000000e+00 -0.0000000000e+00 +0.0000000000e+00 1.3100000000e+02 1.3100000000e+02 0.0000e+00 0.0000e+00
       13  1    1    2    0    0 -1.5774765051e+00 -1.2459276544e+01 +1.9342674029e+01 2.3062354753e+01 1.0566000000e-01 0.0000e+00 1.0000e+00
      994  1    1    2    0    0 -9.9504639757e-01 +1.2116065522e+01 +4.4705341440e+00 1.3163880445e+02 1.3100000000e+02 0.0000e+00 0.0000e+00
      997  1    1    2    0    0 +2.5725229027e+00 +3.4321102210e-01 +4.7618678066e+02 4.7629884080e+02 1.0000000000e+01 0.0000e+00 0.0000e+00
</event>
<event>
 5      1 +4.4770400e-06 2.04297900e+02 7.95774700e-02 4.96164800e-01
       13 -1    0    0    0    0 +0.0000000000e+00 +0.0000000000e+00 +4.9999998884e+02 5.0000000000e+02 1.0566000000e-01 0.0000e+00 -1.0000e+00
      994 -1    0    0    0    0 -0.0000000000e+00 -0.0000000000e+00 +0.0000000000e+00 1.3100000000e+02 1.3100000000e+02 0.0000e+00 0.0000e+00
       13  1    1    2    0    0 -3.5105634514e+01 +8.1731874162e+00 +8.8633434066e+01 9.5682304349e+01 1.0566000000e-01 0.0000e+00 1.0000e+00
      994  1    1    2    0    0 +3.9596253934e+00 -1.8947357125e+01 +1.0351409538e+01 1.3282632516e+02 1.3100000000e+02 0.0000e+00 0.0000e+00
      997  1    1    2    0    0 +3.1146009121e+01 +1.0774169708e+01 +4.0101514523e+02 4.0249137049e+02 1.0000000000e+01 0.0000e+00 0.0000e+00
</event>
<event>
 5      1 +4.4770400e-06 2.07764000e+02 7.95774700e-02 4.90184000e-01
       13 -1    0    0    0    0 +0.0000000000e+00 +0.0000000000e+00 +4.9999998884e+02 5.0000000000e+02 1.0566000000e-01 0.0000e+00 -1.0000e+00
      994 -1    0    0    0    0 -0.0000000000e+00 -0.0000000000e+00 +0.0000000000e+00 1.3100000000e+02 1.3100000000e+02 0.0000e+00 0.0000e+00
       13  1    1    2    0    0 -5.2009271860e+00 +2.1994553350e+01 +7.4719983410e+01 7.8063417204e+01 1.0566000000e-01 0.0000e+00 1.0000e+00
      994  1    1    2    0    0 -3.9683702966e+01 +1.1110776269e+01 +1.4302867266e+01 1.3807178438e+02 1.3100000000e+02 0.0000e+00 0.0000e+00
      997  1    1    2    0    0 +4.4884630152e+01 -3.3105329619e+01 +4.1097713816e+02 4.1486479841e+02 1.0000000000e+01 0.0000e+00 0.0000e+00
</event>
<event>
 5      1 +4.4770400e-06 2.08468600e+02 7.95774700e-02 4.88999100e-01
       13 -1    0    0    0    0 +0.0000000000e+00 +0.0000000000e+00 +4.9999998884e+02 5.0000000000e+02 1.0566000000e-01 0.0000e+00 1.0000e+00
      994 -1    0    0    0    0 -0.0000000000e+00 -0.0000000000e+00 +0.0000000000e+00 1.3100000000e+02 1.3100000000e+02 0.0000e+00 0.0000e+00
       13  1    1    2    0    0 +5.9600039497e+00 -1.9323194732e+01 +3.5753155295e+01 4.1075622690e+01 1.0566000000e-01 0.0000e+00 -1.0000e+00
      994  1    1    2    0    0 -4.8297342582e+00 +2.3126854775e+01 +7.7903970182e+00 1.3334117155e+02 1.3100000000e+02 0.0000e+00 0.0000e+00
      997  1    1    2    0    0 -1.1302696915e+00 -3.8036600431e+00 +4.5645643652e+02 4.5658320576e+02 1.0000000000e+01 0.0000e+00 0.0000e+00
</event>
<event>
 5      1 +4.4770400e-06 2.12235800e+02 7.95774700e-02 4.82833200e-01
       13 -1    0    0    0    0 +0.0000000000e+00 +0.0000000000e+00 +4.9999998884e+02 5.0000000000e+02 1.0566000000e-01 0.0000e+00 -1.0000e+00
      994 -1    0    0    0    0 -0.0000000000e+00 -0.0000000000e+00 +0.0000000000e+00 1.3100000000e+02 1.3100000000e+02 0.0000e+00 0.0000e+00
       13  1    1    2    0    0 -1.0727291683e+00 +1.0615400441e+01 +2.8706990593e+01 3.0625805252e+01 1.0566000000e-01 0.0000e+00 1.0000e+00
      994  1    1    2    0    0 -1.0832155374e+00 -9.4527422978e+00 +2.3987958467e+00 1.3136697421e+02 1.3100000000e+02 0.0000e+00 0.0000e+00
      997  1    1    2    0    0 +2.1559447057e+00 -1.1626581428e+00 +4.6889420240e+02 4.6900722053e+02 1.0000000000e+01 0.0000e+00 0.0000e+00
</event>
<event>
 5      1 +4.4770400e-06 2.10669300e+02 7.95774700e-02 4.85363300e-01
       13 -1    0    0    0    0 +0.0000000000e+00 +0.0000000000e+00 +4.9999998884e+02 5.0000000000e+02 1.0566000000e-01 0.0000e+00 -1.0000e+00
      994 -1    0    0    0    0 -0.0000000000e+00 -0.0000000000e+00 +0.0000000000e+00 1.3100000000e+02 1.3100000000e+02 0.0000e+00 0.0000e+00
       13  1    1    2    0    0 -1.4417819748e+01 -2.1640768155e+01 +8.7550191512e+01 9.1330408794e+01 1.0566000000e-01 0.0000e+00 1.0000e+00
      994  1    1    2    0    0 +5.7210283043e+01 +3.5103989590e+00 +2.0036956087e+01 1.4438773839e+02 1.3100000000e+02 0.0000e+00 0.0000e+00
      997  1    1    2    0    0 -4.2792463295e+01 +1.8130369196e+01 +3.9241284124e+02 3.9528185282e+02 1.0000000000e+01 0.0000e+00 0.0000e+00
</event>
<event>
 5      1 +4.4770400e-06 1.93715000e+02 7.95774700e-02 5.16162400e-01
       13 -1    0    0    0    0 +0.0000000000e+00 +0.0000000000e+00 +4.9999998884e+02 5.0000000000e+02 1.0566000000e-01 0.0000e+00 1.0000e+00
      994 -1    0    0    0    0 -0.0000000000e+00 -0.0000000000e+00 +0.0000000000e+00 1.3100000000e+02 1.3100000000e+02 0.0000e+00 0.0000e+00
       13  1    1    2    0    0 -2.5537097296e+01 -4.4805218826e+00 +1.1724211551e+01 2.8454994556e+01 1.0566000000e-01 0.0000e+00 -1.0000e+00
      994  1    1    2    0    0 +1.6815657061e+01 +8.9438389264e+00 +1.9788033560e+01 1.3384814100e+02 1.3100000000e+02 0.0000e+00 0.0000e+00
      997  1    1    2    0    0 +8.7214402357e+00 -4.4633170438e+00 +4.6848774372e+02 4.6869686444e+02 1.0000000000e+01 0.0000e+00 0.0000e+00
</event>
<event>
 5      1 +4.4770400e-06 2.13573100e+02 7.95774700e-02 4.80710500e-01
       13 -1    0    0    0    0 +0.0000000000e+00 +0.0000000000e+00 +4.9999998884e+02 5.0000000000e+02 1.0566000000e-01 0.0000e+00 1.0000e+00
      994 -1    0    0    0    0 -0.0000000000e+00 -0.0000000000e+00 +0.0000000000e+00 1.3100000000e+02 1.3100000000e+02 0.0000e+00 0.0000e+00
       13  1    1    2    0    0 +1.5467253457e+01 -1.4917085907e+01 +7.7048655329e+01 7.9989135722e+01 1.0566000000e-01 0.0000e+00 -1.0000e+00
      994  1    1    2    0    0 -2.9918303442e+01 +8.0439344548e+01 +3.9377403069e+01 1.6148428067e+02 1.3100000000e+02 0.0000e+00 0.0000e+00
      997  1    1    2    0    0 +1.4451049985e+01 -6.5522258641e+01 +3.8357393044e+02 3.8952658360e+02 1.0000000000e+01 0.0000e+00 0.0000e+00
</event>
<event>
 5      1 +4.4770400e-06 2.08066000e+02 7.95774700e-02 4.89674900e-01
       13 -1    0    0    0    0 +0.0000000000e+00 +0.0000000000e+00 +4.9999998884e+02 5.0000000000e+02 1.0566000000e-01 0.0000e+00 1.0000e+00
      994 -1    0    0    0    0 -0.0000000000e+00 -0.0000000000e+00 +0.0000000000e+00 1.3100000000e+02 1.3100000000e+02 0.0000e+00 0.0000e+00
       13  1    1    2    0    0 +1.0137676491e+01 +3.0871475723e+00 +8.6530895536e+00 1.3681742858e+01 1.0566000000e-01 0.0000e+00 -1.0000e+00
      994  1    1    2    0    0 -5.9135648492e+00 +8.2386717910e+00 +5.8020165073e+00 1.3151999604e+02 1.3100000000e+02 0.0000e+00 0.0000e+00
      997  1    1    2    0    0 -4.2241116418e+00 -1.1325819363e+01 +4.8554488278e+02 4.8579826110e+02 1.0000000000e+01 0.0000e+00 0.0000e+00
</event>
<event>
 5      1 +4.4770400e-06 2.08929500e+02 7.95774700e-02 4.88229600e-01
       13 -1    0    0    0    0 +0.0000000000e+00 +0.0000000000e+00 +4.9999998884e+02 5.0000000000e+02 1.0566000000e-01 0.0000e+00 1.0000e+00
      994 -1    0    0    0    0 -0.0000000000e+00 -0.0000000000e+00 +0.0000000000e+00 1.3100000000e+02 1.3100000000e+02 0.0000e+00 0.0000e+00
       13  1    1    2    0    0 +4.5430048114e+01 +4.6910669808e+01 +4.7214264537e+01 8.0583485611e+01 1.0566000000e-01 0.0000e+00 -1.0000e+00
      994  1    1    2    0    0 -6.4359083175e+01 +7.0984786473e+00 +6.7833860552e+01 1.6110528428e+02 1.3100000000e+02 0.0000e+00 0.0000e+00
      997  1    1    2    0    0 +1.8929035061e+01 -5.4009148455e+01 +3.8495186375e+02 3.8931123011e+02 1.0000000000e+01 0.0000e+00 0.0000e+00
</event>
<event>
 5      1 +4.4770400e-06 2.13197500e+02 7.95774700e-02 4.81303300e-01
       13 -1    0    0    0    0 +0.0000000000e+00 +0.0000000000e+00 +4.9999998884e+02 5.0000000000e+02 1.0566000000e-01 0.0000e+00 -1.0000e+00
      994 -1    0    0    0    0 -0.0000000000e+00 -0.0000000000e+00 +0.0000000000e+00 1.3100000000e+02 1.3100000000e+02 0.0000e+00 0.0000e+00
       13  1    1    2    0    0 +9.9528397499e+00 -6.6836957293e+00 +6.5168892275e+01 6.6262557240e+01 1.0566000000e-01 0.0000e+00 1.0000e+00
      994  1    1    2    0    0 -8.4882437040e+00 -4.3389978523e-01 +1.5545894209e+00 1.3128463466e+02 1.3100000000e+02 0.0000e+00 0.0000e+00
      997  1    1    2    0    0 -1.4645960460e+00 +7.1175955145e+00 +4.3327650714e+02 4.3345280810e+02 1.0000000000e+01 0.0000e+00 0.0000e+00
</event>
<event>
 5      1 +4.4770400e-06 2.09729200e+02 7.95774700e-02 4.86904700e-01
       13 -1    0    0    0    0 +0.0000000000e+00 +0.0000000000e+00 +4.9999998884e+02 5.0000000000e+02 1.0566000000e-01 0.0000e+00 1.0000e+00
      994 -1    0    0    0    0 -0.0000000000e+00 -0.0000000000e+00 +0.0000000000e+00 1.3100000000e+02 1.3100000000e+02 0.0000e+00 0.0000e+00
       13  1    1    2    0    0 -1.4673845550e+00 -2.7385570540e+01 +1.1237747533e+02 1.1567554113e+02 1.0566000000e-01 0.0000e+00 -1.0000e+00
      994  1    1    2    0    0 +5.5982797423e+01 +1.7917024061e+01 +2.1826944275e+01 1.4523260259e+02 1.3100000000e+02 0.0000e+00 0.0000e+00
      997  1    1    2    0    0 -5.4515412868e+01 +9.4685464792e+00 +3.6579556924e+02 3.7009185628e+02 1.0000000000e+01 0.0000e+00 0.0000e+00
</event>
<event>
 5      1 +4.4770400e-06 2.05954400e+02 7.95774700e-02 4.93274200e-01
       13 -1    0    0    0    0 +0.0000000000e+00 +0.0000000000e+00 +4.9999998884e+02 5.0000000000e+02 1.0566000000e-01 0.0000e+00 1.0000e+00
      994 -1    0    0    0    0 -0.0000000000e+00 -0.0000000000e+00 +0.0000000000e+00 1.3100000000e+02 1.3100000000e+02 0.0000e+00 0.0000e+00
       13  1    1    2    0    0 -1.1923042376e+01 +2.5636296510e+01 +5.4460534282e+01 6.1362363030e+01 1.0566000000e-01 0.0000e+00 -1.0000e+00
      994  1    1    2    0    0 +2.1680493081e+01 -9.5125877854e+00 +9.9149209387e+00 1.3349096885e+02 1.3100000000e+02 0.0000e+00 0.0000e+00
      997  1    1    2    0    0 -9.7574507053e+00 -1.6123708725e+01 +4.3562453362e+02 4.3614666812e+02 1.0000000000e+01 0.0000e+00 0.0000e+00
</event>
<event>
 5      1 +4.4770400e-06 2.03354600e+02 7.95774700e-02 4.97837800e-01
       13 -1    0    0    0    0 +0.0000000000e+00 +0.0000000000e+00 +4.9999998884e+02 5.0000000000e+02 1.0566000000e-01 0.0000e+00 1.0000e+00
      994 -1    0    0    0    0 -0.0000000000e+00 -0.0000000000e+00 +0.0000000000e+00 1.3100000000e+02 1.3100000000e+02 0.0000e+00 0.0000e+00
       13  1    1    2    0    0 -3.7636002443e+01 +4.3909306410e+00 +1.6641368210e+02 1.7067300228e+02 1.0566000000e-01 0.0000e+00 -1.0000e+00
      994  1    1    2    0    0 -1.8710023344e+01 -1.6078446818e+01 +1.2405539174e+01 1.3387859735e+02 1.3100000000e+02 0.0000e+00 0.0000e+00
      997  1    1    2    0    0 +5.6346025787e+01 +1.1687516177e+01 +3.2118076756e+02 3.2644840037e+02 1.0000000000e+01 0.0000e+00 0.0000e+00
</event>
<event>
 5      1 +4.4770400e-06 2.09790400e+02 7.95774700e-02 4.86803800e-01
       13 -1    0    0    0    0 +0.0000000000e+00 +0.0000000000e+00 +4.9999998884e+02 5.0000000000e+02 1.0566000000e-01 0.0000e+00 -1.0000e+00
      994 -1    0    0    0    0 -0.0000000000e+00 -0.0000000000e+00 +0.0000000000e+00 1.3100000000e+02 1.3100000000e+02 0.0000e+00 0.0000e+00
       13  1    1    2    0    0 -1.3447728216e+01 +2.6510241896e+01 +1.4831065528e+02 1.5126035817e+02 1.0566000000e-01 0.0000e+00 1.0000e+00
      994  1    1    2    0    0 -7.4544873366e+00 -1.1768694938e+01 +4.8637059374e+00 1.3182840057e+02 1.3100000000e+02 0.0000e+00 0.0000e+00
      997  1    1    2    0    0 +2.0902215552e+01 -1.4741546959e+01 +3.4682562762e+02 3.4791124126e+02 1.0000000000e+01 0.0000e+00 0.0000e+00
</event>
<event>
 5      1 +4.4770400e-06 2.12428800e+02 7.95774700e-02 4.82524900e-01
       13 -1    0    0    0    0 +0.0000000000e+00 +0.0000000000e+00 +4.9999998884e+02 5.0000000000e+02 1.0566000000e-01 0.0000e+00 1.0000e+00
      994 -1    0    0    0    0 -0.0000000000e+00 -0.0000000000e+00 +0.0000000000e+00 1.3100000000e+02 1.3100000000e+02 0.0000e+00 0.0000e+00
       13  1    1    2    0    0 -1.1688701970e+01 +6.2088995166e+00 +4.6612125252e+01 4.8454902450e+01 1.0566000000e-01 0.0000e+00 -1.0000e+00
      994  1    1    2    0    0 +1.4351711601e+01 -2.8781950053e-01 +2.8146579721e+00 1.3181417513e+02 1.3100000000e+02 0.0000e+00 0.0000e+00
      997  1    1    2    0    0 -2.6630096312e+00 -5.9210800160e+00 +4.5057320561e+02 4.5073092242e+02 1.0000000000e+01 0.0000e+00 0.0000e+00
</event>
<event>
 5      1 +4.4770400e-06 2.12045500e+02 7.95774700e-02 4.83138200e-01
       13 -1    0    0    0    0 +0.0000000000e+00 +0.0000000000e+00 +4.9999998884e+02 5.0000000000e+02 1.0566000000e-01 0.0000e+00 1.0000e+00
      994 -1    0    0    0    0 -0.0000000000e+00 -0.0000000000e+00 +0.0000000000e+00 1.3100000000e+02 1.3100000000e+02 0.0000e+00 0.0000e+00
       13  1    1    2    0    0 -1.7475063371e+01 +4.5030181216e+00 +7.3472918422e+01 7.5656697770e+01 1.0566000000e-01 0.0000e+00 -1.0000e+00
      994  1    1    2    0    0 +1.4760725130e+01 -2.4457797084e+00 +3.2062010851e+00 1.3189063868e+02 1.3100000000e+02 0.0000e+00 0.0000e+00
      997  1    1    2    0    0 +2.7143382409e+00 -2.0572384132e+00 +4.2332086933e+02 4.2345266355e+02 1.0000000000e+01 0.0000e+00 0.0000e+00
</event>
<event>
 5      1 +4.4770400e-06 2.03794900e+02 7.95774700e-02 4.97054300e-01
       13 -1    0    0    0    0 +0.0000000000e+00 +0.0000000000e+00 +4.9999998884e+02 5.0000000000e+02 1.0566000000e-01 0.0000e+00 -1.0000e+00
      994 -1    0    0    0    0 -0.0000000000e+00 -0.0000000000e+00 +0.0000000000e+00 1.3100000000e+02 1.3100000000e+02 0.0000e+00 0.0000e+00
       13  1    1    2    0    0 +1.7386584689e+01 -1.2059365427e+01 +2.0516798388e+01 2.9473238739e+01 1.0566000000e-01 0.0000e+00 1.0000e+00
      994  1    1    2    0    0 -1.9124340453e+01 +1.1875010550e+01 +1.1481595033e+01 1.3341507897e+02 1.3100000000e+02 0.0000e+00 0.0000e+00
      997  1    1    2    0    0 +1.7377557642e+00 +1.8435487691e-01 +4.6800159542e+02 4.6811168229e+02 1.0000000000e+01 0.0000e+00 0.0000e+00
</event>
<event>
 5      1 +4.4770400e-06 2.12846500e+02 7.95774700e-02 4.81859600e-01
       13 -1    0    0    0    0 +0.0000000000e+00 +0.0000000000e+00 +4.9999998884e+02 5.0000000000e+02 1.0566000000e-01 0.0000e+00 -1.0000e+00
      994 -1    0    0    0    0 -0.0000000000e+00 -0.0000000000e+00 +0.0000000000e+00 1.3100000000e+02 1.3100000000e+02 0.0000e+00 0.0000e+00
       13  1    1    2    0    0 +1.0449322752e+01 -1.3183534628e+01 +7.7860517381e+01 7.9657173325e+01 1.0566000000e-01 0.0000e+00 1.0000e+00
      994  1    1    2    0    0 -1.5922184611e+01 +1.5026736387e+01 +3.8280202869e+00 1.3287201552e+02 1.3100000000e+02 0.0000e+00 0.0000e+00
      997  1    1    2    0    0 +5.4728618588e+00 -1.8432017586e+00 +4.1831145117e+02 4.1847081115e+02 1.0000000000e+01 0.0000e+00 0.0000e+00
</event>
<event>
 5      1 +4.4770400e-06 2.12194300e+02 7.95774700e-02 4.82899700e-01
       13 -1    0    0    0    0 +0.0000000000e+00 +0.0000000000e+00 +4.9999998884e+02 5.0000000000e+02 1.0566000000e-01 0.0000e+00 1.0000e+00
      994 -1    0    0    0    0 -0.0000000000e+00 -0.0000000000e+00 +0.0000000000e+00 1.3100000000e+02 1.3100000000e+02 0.0000e+00 0.0000e+00
       13  1    1    2    0    0 -2.0406094335e+01 -7.2410408244e+00 +1.2573375868e+02 1.2758460171e+02 1.0566000000e-01 0.0000e+00 -1.0000e+00
      994  1    1    2    0    0 +7.1678174956e+00 +2.1464400989e+01 +4.5128249871e+00 1.3301677979e+02 1.3100000000e+02 0.0000e+00 0.0000e+00
      997  1    1    2    0    0 +1.3238276839e+01 -1.4223360164e+01 +3.6975340517e+02 3.7039861850e+02 1.0000000000e+01 0.0000e+00 0.0000e+00
</event>
<event>
 5      1 +4.4770400e-06 2.09589500e+02 7.95774700e-02 4.87135200e-01
       13 -1    0    0    0    0 +0.0000000000e+00 +0.0000000000e+00 +4.9999998884e+02 5.0000000000e+02 1.0566000000e-01 0.0000e+00 -1.0000e+00
      994 -1    0    0    0    0 -0.0000000000e+00 -0.0000000000e+00 +0.0000000000e+00 1.3100000000e+02 1.3100000000e+02 0.0000e+00 0.0000e+00
       13  1    1    2    0    0 +1.2381087214e+01 -1.1477892490e+00 +1.7632824324e+01 2.1576292509e+01 1.0566000000e-01 0.0000e+00 1.0000e+00
      994  1    1    2    0    0 -8.5784079658e+00 -5.6874189644e-01 +4.4225427070e+00 1.3135627672e+02 1.3100000000e+02 0.0000e+00 0.0000e+00
      997  1    1    2    0    0 -3.8026792480e+00 +1.7165311454e+00 +4.7794462181e+02 4.7806743077e+02 1.0000000000e+01 0.0000e+00 0.0000e+00
</event>
<event>
 5      1 +4.4770400e-06 2.07188600e+02 7.95774700e-02 4.91159100e-01
       13 -1    0    0    0    0 +0.0000000000e+00 +0.0000000000e+00 +4.9999998884e+02 5.0000000000e+02 1.0566000000e-01 0.0000e+00 -1.0000e+00
      994 -1    0    0    0    0 -0.0000000000e+00 -0.0000000000e+00 +0.0000000000e+00 1.3100000000e+02 1.3100000000e+02 0.0000e+00 0.0000e+00
       13  1    1    2    0    0 +1.7845887092e+01 +5.5209843083e+01 +1.6447054657e+02 1.7440520151e+02 1.0566000000e-01 0.0000e+00 1.0000e+00
      994  1    1    2    0    0 -1.1565439823e+01 -6.1872919900e+01 +2.7069484001e+01 1.4783698651e+02 1.3100000000e+02 0.0000e+00 0.0000e+00
      997  1    1    2    0    0 -6.2804472688e+00 +6.6630768165e+00 +3.0845995827e+02 3.0875781199e+02 1.0000000000e+01 0.0000e+00 0.0000e+00
</event>
<event>
 5      1 +4.4770400e-06 2.10835900e+02 7.95774700e-02 4.85092000e-01
       13 -1    0    0    0    0 +0.0000000000e+00 +0.0000000000e+00 +4.9999998884e+02 5.0000000000e+02 1.0566000000e-01 0.0000e+00 1.0000e+00
      994 -1    0    0    0    0 -0.0000000000e+00 -0.0000000000e+00 +0.0000000000e+00 1.3100000000e+02 1.3100000000e+02 0.0000e+00 0.0000e+00
       13  1    1    2    0    0 +2.6864162919e+00 -1.3770157734e+01 +3.2604167449e+01 3.5494745746e+01 1.0566000000e-01 0.0000e+00 -1.0000e+00
      994  1    1    2    0    0 +6.1674594846e-01 +6.5099195848e+00 +3.2706776709e+00 1.3120387479e+02 1.3100000000e+02 0.0000e+00 0.0000e+00
      997  1    1    2    0    0 -3.3031622404e+00 +7.2602381490e+00 +4.6412514372e+02 4.6430137946e+02 1.0000000000e+01 0.0000e+00 0.0000e+00
</event>
<event>
 5      1 +4.4770400e-06 2.12636600e+02 7.95774700e-02 4.82193500e-01
       13 -1    0    0    0    0 +0.0000000000e+00 +0.0000000000e+00 +4.9999998884e+02 5.0000000000e+02 1.0566000000e-01 0.0000e+00 -1.0000e+00
      994 -1    0    0    0    0 -0.0000000000e+00 -0.0000000000e+00 +0.0000000000e+00 1.3100000000e+02 1.3100000000e+02 0.0000e+00 0.0000e+00
       13  1    1    2    0    0 +1.1344396977e+01 +1.3845359972e+01 +1.0409572284e+02 1.0562348230e+02 1.0566000000e-01 0.0000e+00 1.0000e+00
      994  1    1    2    0    0 +2.0374117457e+00 -1.5770950037e+01 +2.8804042679e+00 1.3199307043e+02 1.3100000000e+02 0.0000e+00 0.0000e+00
      997  1    1    2    0    0 -1.3381808723e+01 +1.9255900658e+00 +3.9302386172e+02 3.9338344727e+02 1.0000000000e+01 0.0000e+00 0.0000e+00
</event>
<event>
 5      1 +4.4770400e-06 2.13635100e+02 7.95774700e-02 4.80612900e-01
       13 -1    0    0    0    0 +0.0000000000e+00 +0.0000000000e+00 +4.9999998884e+02 5.0000000000e+02 1.0566000000e-01 0.0000e+00 1.0000e+00
      994 -1    0    0    0    0 -0.0000000000e+00 -0.0000000000e+00 +0.0000000000e+00 1.3100000000e+02 1.3100000000e+02 0.0000e+00 0.0000e+00
       13  1    1    2    0    0 +3.3542941784e+00 -1.0332812923e+01 +4.8259372062e+01 4.9467125125e+01 1.0566000000e-01 0.0000e+00 -1.0000e+00
      994  1    1    2    0    0 +3.2145818508e+00 +3.0955226495e+01 +5.6071065470e+00 1.3476275163e+02 1.3100000000e+02 0.0000e+00 0.0000e+00
      997  1    1    2    0    0 -6.5688760292e+00 -2.0622413573e+01 +4.4613351023e+02 4.4677012324e+02 1.0000000000e+01 0.0000e+00 0.0000e+00
</event>
<event>
 5      1 +4.4770400e-06 2.09993200e+02 7.95774700e-02 4.86470000e-01
       13 -1    0    0    0    0 +0.0000000000e+00 +0.0000000000e+00 +4.9999998884e+02 5.0000000000e+02 1.0566000000e-01 0.0000e+00 -1.0000e+00
      994 -1    0    0    0    0 -0.0000000000e+00 -0.0000000000e+00 +0.0000000000e+00 1.3100000000e+02 1.3100000000e+02 0.0000e+00 0.0000e+00
       13  1    1    2    0    0 +1.0373399552e+01 -3.7158824860e+00 +1.4213948045e+01 1.7985068362e+01 1.0566000000e-01 0.0000e+00 1.0000e+00
      994  1    1    2    0    0 -1.3045180827e+01 +5.7008104357e+00 +4.7431923861e+00 1.3185664131e+02 1.3100000000e+02 0.0000e+00 0.0000e+00
      997  1    1    2    0    0 +2.6717812754e+00 -1.9849279497e+00 +4.8104284840e+02 4.8115829033e+02 1.0000000000e+01 0.0000e+00 0.0000e+00
</event>
<event>
 5      1 +4.4770400e-06 2.03344200e+02 7.95774700e-02 4.97856400e-01
       13 -1    0    0    0    0 +0.0000000000e+00 +0.0000000000e+00 +4.9999998884e+02 5.0000000000e+02 1.0566000000e-01 0.0000e+00 -1.0000e+00
      994 -1    0    0    0    0 -0.0000000000e+00 -0.0000000000e+00 +0.0000000000e+00 1.3100000000e+02 1.3100000000e+02 0.0000e+00 0.0000e+00
       13  1    1    2    0    0 -1.9371681175e+01 -1.1177212629e+01 +2.3115900193e+01 3.2164392105e+01 1.0566000000e-01 0.0000e+00 1.0000e+00
      994  1    1    2    0    0 +1.3737634202e+01 +1.0380530585e+01 +1.0754135860e+01 1.3256368072e+02 1.3100000000e+02 0.0000e+00 0.0000e+00
      997  1    1    2    0    0 +5.6340469734e+00 +7.9668204372e-01 +4.6612995278e+02 4.6627192717e+02 1.0000000000e+01 0.0000e+00 0.0000e+00
</event>
<event>
 5      1 +4.4770400e-06 1.99056200e+02 7.95774700e-02 5.05722600e-01
       13 -1    0    0    0    0 +0.0000000000e+00 +0.0000000000e+00 +4.9999998884e+02 5.0000000000e+02 1.0566000000e-01 0.0000e+00 1.0000e+00
      994 -1    0    0    0    0 -0.0000000000e+00 -0.0000000000e+00 +0.0000000000e+00 1.3100000000e+02 1.3100000000e+02 0.0000e+00 0.0000e+00
       13  1    1    2    0    0 +3.6924462548e+00 +1.3946748987e+01 +2.4840570285e+00 1.4639934085e+01 1.0566000000e-01 0.0000e+00 -1.0000e+00
      994  1    1    2    0    0 -3.2360979885e+00 -6.8113076030e+00 +1.3189987457e+01 1.3187813318e+02 1.3100000000e+02 0.0000e+00 0.0000e+00
      997  1    1    2    0    0 -4.5634826633e-01 -7.1354413839e+00 +4.8432594435e+02 4.8448193274e+02 1.0000000000e+01 0.0000e+00 0.0000e+00
</event>
<event>
 5      1 +4.4770400e-06 2.01956000e+02 7.95774700e-02 5.00355600e-01
       13 -1    0    0    0    0 +0.0000000000e+00 +0.0000000000e+00 +4.9999998884e+02 5.0000000000e+02 1.0566000000e-01 0.0000e+00 1.0000e+00
      994 -1    0    0    0    0 -0.0000000000e+00 -0.0000000000e+00 +0.0000000000e+00 1.3100000000e+02 1.3100000000e+02 0.0000e+00 0.0000e+00
       13  1    1    2    0    0 -2.9364086237e+01 -7.4620755340e+00 +3.7052588359e+01 4.7862695285e+01 1.0566000000e-01 0.0000e+00 -1.0000e+00
      994  1    1    2    0    0 +3.0253950217e+01 +2.8592175023e-01 +1.5295894379e+01 1.3531573316e+02 1.3100000000e+02 0.0000e+00 0.0000e+00
      997  1    1    2    0    0 -8.8986398051e-01 +7.1761537838e+00 +4.4765150610e+02 4.4782157156e+02 1.0000000000e+01 0.0000e+00 0.0000e+00
</event>
<event>
 5      1 +4.4770400e-06 2.12810500e+02 7.95774700e-02 4.81916900e-01
       13 -1    0    0    0    0 +0.0000000000e+00 +0.0000000000e+00 +4.9999998884e+02 5.0000000000e+02 1.0566000000e-01 0.0000e+00 1.0000e+00
      994 -1    0    0    0    0 -0.0000000000e+00 -0.0000000000e+00 +0.0000000000e+00 1.3100000000e+02 1.3100000000e+02 0.0000e+00 0.0000e+00
       13  1    1    2    0    0 +4.3141933477e+00 -1.4449822045e+01 +6.8297736805e+01 6.9942845510e+01 1.0566000000e-01 0.0000e+00 -1.0000e+00
      994  1    1    2    0    0 -1.0125414149e+01 +1.4070266271e+01 +2.9767255500e+00 1.3217547919e+02 1.3100000000e+02 0.0000e+00 0.0000e+00
      997  1    1    2    0    0 +5.8112208017e+00 +3.7955577399e-01 +4.2872552648e+02 4.2888167530e+02 1.0000000000e+01 0.0000e+00 0.0000e+00
</event>
<event>
 5      1 +4.4770400e-06 2.11835700e+02 7.95774700e-02 4.83475000e-01
       13 -1    0    0    0    0 +0.0000000000e+00 +0.0000000000e+00 +4.9999998884e+02 5.0000000000e+02 1.0566000000e-01 0.0000e+00 -1.0000e+00
      994 -1    0    0    0    0 -0.0000000000e+00 -0.0000000000e+00 +0.0000000000e+00 1.3100000000e+02 1.3100000000e+02 0.0000e+00 0.0000e+00
       13  1    1    2    0    0 +1.9002799661e+01 -1.5182225573e+01 +1.2288046930e+02 1.2526462896e+02 1.0566000000e-01 0.0000e+00 1.0000e+00
      994  1    1    2    0    0 -1.1907283597e+01 +1.3756796510e+01 +3.9032691881e+00 1.3231503453e+02 1.3100000000e+02 0.0000e+00 0.0000e+00
      997  1    1    2    0    0 -7.0955160635e+00 +1.4254290635e+00 +3.7321625035e+02 3.7342033651e+02 1.0000000000e+01 0.0000e+00 0.0000e+00
</event>
<event>
 5      1 +4.4770400e-06 2.09243100e+02 7.95774700e-02 4.87708400e-01
       13 -1    0    0    0    0 +0.0000000000e+00 +0.0000000000e+00 +4.9999998884e+02 5.0000000000e+02 1.0566000000e-01 0.0000e+00 -1.0000e+00
      994 -1    0    0    0    0 -0.0000000000e+00 -0.0000000000e+00 +0.0000000000e+00 1.3100000000e+02 1.3100000000e+02 0.0000e+00 0.0000e+00
       13  1    1    2    0    0 +8.2328621733e+00 -1.0784507367e+01 +2.0978081646e+01 2.4983528420e+01 1.0566000000e-01 0.0000e+00 1.0000e+00
      994  1    1    2    0    0 -2.9414089260e+00 -2.0318766033e-01 +4.3735206663e+00 1.3110614347e+02 1.3100000000e+02 0.0000e+00 0.0000e+00
      997  1    1    2    0    0 -5.2914532473e+00 +1.0987695028e+01 +4.7464838652e+02 4.7491032811e+02 1.0000000000e+01 0.0000e+00 0.0000e+00
</event>
<event>
 5      1 +4.4770400e-06 2.12544700e+02 7.95774700e-02 4.82339900e-01
       13 -1    0    0    0    0 +0.0000000000e+00 +0.0000000000e+00 +4.9999998884e+02 5.0000000000e+02 1.0566000000e-01 0.0000e+00 1.0000e+00
      994 -1    0    0    0    0 -0.0000000000e+00 -0.0000000000e+00 +0.0000000000e+00 1.3100000000e+02 1.3100000000e+02 0.0000e+00 0.0000e+00
       13  1    1    2    0    0 +3.0728178522e+00 +1.0451721253e+01 +3.4408631105e+01 3.6092183992e+01 1.0566000000e-01 0.0000e+00 -1.0000e+00
      994  1    1    2    0    0 +9.5547144433e+00 -1.3231054307e+01 +3.0194779115e+00 1.3204722872e+02 1.3100000000e+02 0.0000e+00 0.0000e+00
      997  1    1    2    0    0 -1.2627532296e+01 +2.7793330533e+00 +4.6257187982e+02 4.6286058729e+02 1.0000000000e+01 0.0000e+00 0.0000e+00
</event>
<event>
 5      1 +4.4770400e-06 2.13134000e+02 7.95774700e-02 4.81403800e-01
       13 -1    0    0    0    0 +0.0000000000e+00 +0.0000000000e+00 +4.9999998884e+02 5.0000000000e+02 1.0566000000e-01 0.0000e+00 -1.0000e+00
      994 -1    0    0    0    0 -0.0000000000e+00 -0.0000000000e+00 +0.0000000000e+00 1.3100000000e+02 1.3100000000e+02 0.0000e+00 0.0000e+00
       13  1    1    2    0    0 +1.3047741845e+01 +1.5256793254e+01 +1.0849847824e+02 1.1034012983e+02 1.0566000000e-01 0.0000e+00 1.0000e+00
      994  1    1    2    0    0 -3.3736999877e+01 -1.1514482624e+01 +7.5184930546e+00 1.3597167429e+02 1.3100000000e+02 0.0000e+00 0.0000e+00
      997  1    1    2    0    0 +2.0689258033e+01 -3.7423106296e+00 +3.8398301755e+02 3.8468819588e+02 1.0000000000e+01 0.0000e+00 0.0000e+00
</event>
<event>
 5      1 +4.4770400e-06 2.12903500e+02 7.95774700e-02 4.81769300e-01
       13 -1    0    0    0    0 +0.0000000000e+00 +0.0000000000e+00 +4.9999998884e+02 5.0000000000e+02 1.0566000000e-01 0.0000e+00 1.0000e+00
      994 -1    0    0    0    0 -0.0000000000e+00 -0.0000000000e+00 +0.0000000000e+00 1.3100000000e+02 1.3100000000e+02 0.0000e+00 0.0000e+00
       13  1    1    2    0    0 -2.8637092822e+00 -1.1517414186e+01 +5.2741142677e+01 5.4060068029e+01 1.0566000000e-01 0.0000e+00 -1.0000e+00
      994  1    1    2    0    0 +1.3985428831e+01 +3.8031813228e+00 +2.4593962366e+00 1.3182224789e+02 1.3100000000e+02 0.0000e+00 0.0000e+00
      997  1    1    2    0    0 -1.1121719549e+01 +7.7142328633e+00 +4.4479944992e+02 4.4511768409e+02 1.0000000000e+01 0.0000e+00 0.0000e+00
</event>
<event>
 5      1 +4.4770400e-06 2.12535200e+02 7.95774700e-02 4.82355200e-01
       13 -1    0    0    0    0 +0.0000000000e+00 +0.0000000000e+00 +4.9999998884e+02 5.0000000000e+02 1.0566000000e-01 0.0000e+00 1.0000e+00
      994 -1    0    0    0    0 -0.0000000000e+00 -0.0000000000e+00 +0.0000000000e+00 1.3100000000e+02 1.3100000000e+02 0.0000e+00 0.0000e+00
       13  1    1    2    0    0 +1.7076452775e+01 +3.0680003483e+00 +8.4664638909e+01 8.6424129218e+01 1.0566000000e-01 0.0000e+00 -1.0000e+00
      994  1    1    2    0    0 -1.3800675659e+01 -3.8390299066e-01 +2.6545838099e+00 1.3175224038e+02 1.3100000000e+02 0.0000e+00 0.0000e+00
      997  1    1    2    0    0 -3.2757771159e+00 -2.6840973576e+00 +4.1268076612e+02 4.1282363040e+02 1.0000000000e+01 0.0000e+00 0.0000e+00
</event>
<event>
 5      1 +4.4770400e-06 1.73752500e+02 7.95774700e-02 5.63072100e-01
       13 -1    0    0    0    0 +0.0000000000e+00 +0.0000000000e+00 +4.9999998884e+02 5.0000000000e+02 1.0566000000e-01 0.0000e+00 -1.0000e+00
      994 -1    0    0    0    0 -0.0000000000e+00 -0.0000000000e+00 +0.0000000000e+00 1.3100000000e+02 1.3100000000e+02 0.0000e+00 0.0000e+00
       13  1    1    2    0    0 +4.4858962003e+01 -6.6024958549e+01 +2.4427558638e+02 2.5698676014e+02 1.0566000000e-01 0.0000e+00 1.0000e+00
      994  1    1    2    0    0 +1.4439065222e+01 +7.1347994417e+01 +4.7500438015e+01 1.5721423130e+02 1.3100000000e+02 0.0000e+00 0.0000e+00
      997  1    1    2    0    0 -5.9298027225e+01 -5.3230358682e+00 +2.0822396444e+02 2.1679900856e+02 1.0000000000e+01 0.0000e+00 0.0000e+00
</event>
<event>
 5      1 +4.4770400e-06 2.12064400e+02 7.95774700e-02 4.83107800e-01
       13 -1    0    0    0    0 +0.0000000000e+00 +0.0000000000e+00 +4.9999998884e+02 5.0000000000e+02 1.0566000000e-01 0.0000e+00 1.0000e+00
      994 -1    0    0    0    0 -0.0000000000e+00 -0.0000000000e+00 +0.0000000000e+00 1.3100000000e+02 1.3100000000e+02 0.0000e+00 0.0000e+00
       13  1    1    2    0    0 +1.1580684444e+01 -5.7426384882e+00 +4.4733043712e+01 4.6563360197e+01 1.0566000000e-01 0.0000e+00 -1.0000e+00
      994  1    1    2    0    0 -3.9622440444e-01 +3.4591913934e+00 +2.1482383343e+00 1.3106386965e+02 1.3100000000e+02 0.0000e+00 0.0000e+00
      997  1    1    2    0    0 -1.1184460039e+01 +2.2834470948e+00 +4.5311870679e+02 4.5337277016e+02 1.0000000000e+01 0.0000e+00 0.0000e+00
</event>
<event>
 5      1 +4.4770400e-06 2.11072300e+02 7.95774700e-02 4.84707900e-01
       13 -1    0    0    0    0 +0.0000000000e+00 +0.0000000000e+00 +4.9999998884e+02 5.0000000000e+02 1.0566000000e-01 0.0000e+00 -1.0000e+00
      994 -1    0    0    0    0 -0.0000000000e+00 -0.0000000000e+00 +0.0000000000e+00 1.3100000000e+02 1.3100000000e+02 0.0000e+00 0.0000e+00
       13  1    1    2    0    0 -7.8665553583e+00 +1.0820743405e+01 +2.8158348726e+01 3.1174908950e+01 1.0566000000e-01 0.0000e+00 1.0000e+00
      994  1    1    2    0    0 +1.0701842562e+01 -1.3235344657e+01 +4.3097038404e+00 1.3217139376e+02 1.3100000000e+02 0.0000e+00 0.0000e+00
      997  1    1    2    0    0 -2.8352872039e+00 +2.4146012511e+00 +4.6753193627e+02 4.6765369729e+02 1.0000000000e+01 0.0000e+00 0.0000e+00
</event>
<event>
 5      1 +4.4770400e-06 2.12985900e+02 7.95774700e-02 4.81638500e-01
       13 -1    0    0    0    0 +0.0000000000e+00 +0.0000000000e+00 +4.9999998884e+02 5.0000000000e+02 1.0566000000e-01 0.0000e+00 1.0000e+00
      994 -1    0    0    0    0 -0.0000000000e+00 -0.0000000000e+00 +0.0000000000e+00 1.3100000000e+02 1.3100000000e+02 0.0000e+00 0.0000e+00
       13  1    1    2    0    0 +6.5537901612e+00 -1.3061234276e+01 +8.7565877506e+01 8.8776923092e+01 1.0566000000e-01 0.0000e+00 -1.0000e+00
      994  1    1    2    0    0 -4.5446393029e+00 +5.3460235023e+00 +1.6076806923e+00 1.3119763089e+02 1.3100000000e+02 0.0000e+00 0.0000e+00
      997  1    1    2    0    0 -2.0091508583e+00 +7.7152107736e+00 +4.1082643064e+02 4.1102544602e+02 1.0000000000e+01 0.0000e+00 0.0000e+00
</event>
<event>
 5      1 +4.4770400e-06 1.76679300e+02 7.95774700e-02 5.55269200e-01
       13 -1    0    0    0    0 +0.0000000000e+00 +0.0000000000e+00 +4.9999998884e+02 5.0000000000e+02 1.0566000000e-01 0.0000e+00 1.0000e+00
      994 -1    0    0    0    0 -0.0000000000e+00 -0.0000000000e+00 +0.0000000000e+00 1.3100000000e+02 1.3100000000e+02 0.0000e+00 0.0000e+00
       13  1    1    2    0    0 -1.1899543627e+02 -4.0903637732e+01 +1.3441391422e+02 1.8411988739e+02 1.0566000000e-01 0.0000e+00 -1.0000e+00
      994  1    1    2    0    0 +1.1102633194e+02 +1.4070696480e-01 +1.5283933681e+02 2.2988633943e+02 1.3100000000e+02 0.0000e+00 0.0000e+00
      997  1    1    2    0    0 +7.9691043376e+00 +4.0762930767e+01 +2.1274673781e+02 2.1699377318e+02 1.0000000000e+01 0.0000e+00 0.0000e+00
</event>
<event>
 5      1 +4.4770400e-06 2.11923600e+02 7.95774700e-02 4.83333800e-01
       13 -1    0    0    0    0 +0.0000000000e+00 +0.0000000000e+00 +4.9999998884e+02 5.0000000000e+02 1.0566000000e-01 0.0000e+00 -1.0000e+00
      994 -1    0    0    0    0 -0.0000000000e+00 -0.0000000000e+00 +0.0000000000e+00 1.3100000000e+02 1.3100000000e+02 0.0000e+00 0.0000e+00
       13  1    1    2    0    0 -1.0792940325e+00 +3.4293683612e+01 +1.5436339204e+02 1.5813060924e+02 1.0566000000e-01 0.0000e+00 1.0000e+00
      994  1    1    2    0    0 +3.7825711812e-02 -4.1915455495e+01 +1.0985321227e+01 1.3798037586e+02 1.3100000000e+02 0.0000e+00 0.0000e+00
      997  1    1    2    0    0 +1.0414683207e+00 +7.6217718836e+00 +3.3465127557e+02 3.3488901490e+02 1.0000000000e+01 0.0000e+00 0.0000e+00
</event>
<event>
 5      1 +4.4770400e-06 2.09953100e+02 7.95774700e-02 4.86536000e-01
       13 -1    0    0    0    0 +0.0000000000e+00 +0.0000000000e+00 +4.9999998884e+02 5.0000000000e+02 1.0566000000e-01 0.0000e+00 -1.0000e+00
      994 -1    0    0    0    0 -0.0000000000e+00 -0.0000000000e+00 +0.0000000000e+00 1.3100000000e+02 1.3100000000e+02 0.0000e+00 0.0000e+00
       13  1    1    2    0    0 -4.5430795435e+00 -2.1664844189e+01 +6.7975618765e+01 7.1489166704e+01 1.0566000000e-01 0.0000e+00 1.0000e+00
      994  1    1    2    0    0 -1.2839095901e+01 +1.3381439411e+01 +5.4847513768e+00 1.3241974098e+02 1.3100000000e+02 0.0000e+00 0.0000e+00
      997  1    1    2    0    0 +1.7382175444e+01 +8.2834047774e+00 +4.2653961869e+02 4.2709109231e+02 1.0000000000e+01 0.0000e+00 0.0000e+00
</event>
<event>
 5      1 +4.4770400e-06 2.11746000e+02 7.95774700e-02 4.83619200e-01
       13 -1    0    0    0    0 +0.0000000000e+00 +0.0000000000e+00 +4.9999998884e+02 5.0000000000e+02 1.0566000000e-01 0.0000e+00 1.0000e+00
      994 -1    0    0    0    0 -0.0000000000e+00 -0.0000000000e+00 +0.0000000000e+00 1.3100000000e+02 1.3100000000e+02 0.0000e+00 0.0000e+00
       13  1    1    2    0    0 +1.1112309427e+01 -3.4407967652e+01 +1.8664686307e+02 1.9011694905e+02 1.0566000000e-01 0.0000e+00 -1.0000e+00
      994  1    1    2    0    0 -1.7986954177e+01 +3.2102878842e+01 +9.0945891641e+00 1.3637388644e+02 1.3100000000e+02 0.0000e+00 0.0000e+00
      997  1    1    2    0    0 +6.8746447497e+00 +2.3050888102e+00 +3.0425853660e+02 3.0450916451e+02 1.0000000000e+01 0.0000e+00 0.0000e+00
</event>
<event>
 5      1 +4.4770400e-06 2.12426500e+02 7.95774700e-02 4.82528600e-01
       13 -1    0    0    0    0 +0.0000000000e+00 +0.0000000000e+00 +4.9999998884e+02 5.0000000000e+02 1.0566000000e-01 0.0000e+00 1.0000e+00
      994 -1    0    0    0    0 -0.0000000000e+00 -0.0000000000e+00 +0.0000000000e+00 1.3100000000e+02 1.3100000000e+02 0.0000e+00 0.0000e+00
       13  1    1    2    0    0 -4.4613878081e+00 +1.3577634590e+01 +6.3347743270e+01 6.4940002184e+01 1.0566000000e-01 0.0000e+00 -1.0000e+00
      994  1    1    2    0    0 -1.6376728882e+00 -5.4782721082e+00 +1.9649001477e+00 1.3113944590e+02 1.3100000000e+02 0.0000e+00 0.0000e+00
      997  1    1    2    0    0 +6.0990606963e+00 -8.0993624818e+00 +4.3468734542e+02 4.3492055192e+02 1.0000000000e+01 0.0000e+00 0.0000e+00
</event>
<event>
 5      1 +4.4770400e-06 2.12896000e+02 7.95774700e-02 4.81781100e-01
       13 -1    0    0    0    0 +0.0000000000e+00 +0.0000000000e+00 +4.9999998884e+02 5.0000000000e+02 1.0566000000e-01 0.0000e+00 -1.0000e+00
      994 -1    0    0    0    0 -0.0000000000e+00 -0.0000000000e+00 +0.0000000000e+00 1.3100000000e+02 1.3100000000e+02 0.0000e+00 0.0000e+00
       13  1    1    2    0    0 +3.4106942745e+00 -1.5070383905e+01 +6.6353570118e+01 6.8128971356e+01 1.0566000000e-01 0.0000e+00 1.0000e+00
      994  1    1    2    0    0 -3.5809851716e+00 +2.2419501356e+01 +3.9665979186e+00 1.3301199718e+02 1.3100000000e+02 0.0000e+00 0.0000e+00
      997  1    1    2    0    0 +1.7029089715e-01 -7.3491174510e+00 +4.2967982080e+02 4.2985903146e+02 1.0000000000e+01 0.0000e+00 0.0000e+00
</event>
<event>
 5      1 +4.4770400e-06 2.10881000e+02 7.95774700e-02 4.85018600e-01
       13 -1    0    0    0    0 +0.0000000000e+00 +0.0000000000e+00 +4.9999998884e+02 5.0000000000e+02 1.0566000000e-01 0.0000e+00 1.0000e+00
      994 -1    0    0    0    0 -0.0000000000e+00 -0.0000000000e+00 +0.0000000000e+00 1.3100000000e+02 1.3100000000e+02 0.0000e+00 0.0000e+00
       13  1    1    2    0    0 -3.5632478772e+01 +7.8416883363e+01 +3.1125566567e+02 3.2295352873e+02 1.0566000000e-01 0.0000e+00 -1.0000e+00
      994  1    1    2    0    0 +7.3044705766e+01 -1.0477385403e+02 +1.0202341607e+02 2.0948237863e+02 1.3100000000e+02 0.0000e+00 0.0000e+00
      997  1    1    2    0    0 -3.7412226994e+01 +2.6356970671e+01 +8.6720907093e+01 9.8564092644e+01 1.0000000000e+01 0.0000e+00 0.0000e+00
</event>
<event>
 5      1 +4.4770400e-06 2.11009200e+02 7.95774700e-02 4.84810300e-01
       13 -1    0    0    0    0 +0.0000000000e+00 +0.0000000000e+00 +4.9999998884e+02 5.0000000000e+02 1.0566000000e-01 0.0000e+00 1.0000e+00
      994 -1    0    0    0    0 -0.0000000000e+00 -0.0000000000e+00 +0.0000000000e+00 1.3100000000e+02 1.3100000000e+02 0.0000e+00 0.0000e+00
       13  1    1    2    0    0 +3.0655173250e+01 -4.4305808741e+00 +1.3991770024e+02 1.4330507213e+02 1.0566000000e-01 0.0000e+00 -1.0000e+00
      994  1    1    2    0    0 -2.5087088499e+01 +5.8410507224e+00 +6.2288060868e+00 1.3365357424e+02 1.3100000000e+02 0.0000e+00 0.0000e+00
      997  1    1    2    0    0 -5.5680847509e+00 -1.4104698483e+00 +3.5385348251e+02 3.5404135363e+02 1.0000000000e+01 0.0000e+00 0.0000e+00
</event>
<event>
 5      1 +4.4770400e-06 2.12241600e+02 7.95774700e-02 4.82824000e-01
       13 -1    0    0    0    0 +0.0000000000e+00 +0.0000000000e+00 +4.9999998884e+02 5.0000000000e+02 1.0566000000e-01 0.0000e+00 -1.0000e+00
      994 -1    0    0    0    0 -0.0000000000e+00 -0.0000000000e+00 +0.0000000000e+00 1.3100000000e+02 1.3100000000e+02 0.0000e+00 0.0000e+00
       13  1    1    2    0    0 +8.1709764155e+00 +9.1670191101e+00 +3.3265737427e+01 3.5460112035e+01 1.0566000000e-01 0.0000e+00 1.0000e+00
      994  1    1    2    0    0 -2.1348593163e+01 -9.3023611680e+00 +4.6244505311e+00 1.3313407489e+02 1.3100000000e+02 0.0000e+00 0.0000e+00
      997  1    1    2    0    0 +1.3177616748e+01 +1.3534205789e-01 +4.6210980088e+02 4.6240581308e+02 1.0000000000e+01 0.0000e+00 0.0000e+00
</event>
<event>
 5      1 +4.4770400e-06 2.00893500e+02 7.95774700e-02 5.02298800e-01
       13 -1    0    0    0    0 +0.0000000000e+00 +0.0000000000e+00 +4.9999998884e+02 5.0000000000e+02 1.0566000000e-01 0.0000e+00 -1.0000e+00
      994 -1    0    0    0    0 -0.0000000000e+00 -0.0000000000e+00 +0.0000000000e+00 1.3100000000e+02 1.3100000000e+02 0.0000e+00 0.0000e+00
       13  1    1    2    0    0 +1.2430712621e+01 -2.7407151539e+00 +2.4777916273e+00 1.2968606371e+01 1.0566000000e-01 0.0000e+00 1.0000e+00
      994  1    1    2    0    0 -4.7848434668e-01 -9.6833691616e+00 +1.1785416719e+01 1.3188590764e+02 1.3100000000e+02 0.0000e+00 0.0000e+00
      997  1    1    2    0    0 -1.1952228274e+01 +1.2424084316e+01 +4.8573678049e+02 4.8614548599e+02 1.0000000000e+01 0.0000e+00 0.0000e+00
</event>
<event>
 5      1 +4.4770400e-06 2.13001600e+02 7.95774700e-02 4.81613500e-01
       13 -1    0    0    0    0 +0.0000000000e+00 +0.0000000000e+00 +4.9999998884e+02 5.0000000000e+02 1.0566000000e-01 0.0000e+00 -1.0000e+00
      994 -1    0    0    0    0 -0.0000000000e+00 -0.0000000000e+00 +0.0000000000e+00 1.3100000000e+02 1.3100000000e+02 0.0000e+00 0.0000e+00
       13  1    1    2    0    0 -1.1173343915e+01 +3.3814896089e+00 +5.9657814651e+01 6.0789341987e+01 1.0566000000e-01 0.0000e+00 1.0000e+00
      994  1    1    2    0    0 +3.8432307503e+00 +5.1794509259e+00 +1.5580578881e+00 1.3116792550e+02 1.3100000000e+02 0.0000e+00 0.0000e+00
      997  1    1    2    0    0 +7.3301131652e+00 -8.5609405348e+00 +4.3878411630e+02 4.3904273252e+02 1.0000000000e+01 0.0000e+00 0.0000e+00
</event>
<event>
 5      1 +4.4770400e-06 2.13481500e+02 7.95774700e-02 4.80854800e-01
       13 -1    0    0    0    0 +0.0000000000e+00 +0.0000000000e+00 +4.9999998884e+02 5.0000000000e+02 1.0566000000e-01 0.0000e+00 -1.0000e+00
      994 -1    0    0    0    0 -0.0000000000e+00 -0.0000000000e+00 +0.0000000000e+00 1.3100000000e+02 1.3100000000e+02 0.0000e+00 0.0000e+00
       13  1    1    2    0    0 -9.4046577092e+00 -5.7175633523e+00 +6.3897216735e+01 6.4838287977e+01 1.0566000000e-01 0.0000e+00 1.0000e+00
      994  1    1    2    0    0 +8.9500752978e+00 +2.7637848462e+00 +1.4083571145e+00 1.3134201850e+02 1.3100000000e+02 0.0000e+00 0.0000e+00
      997  1    1    2    0    0 +4.5458241139e-01 +2.9537785061e+00 +4.3469441499e+02 4.3481969352e+02 1.0000000000e+01 0.0000e+00 0.0000e+00
</event>
<event>
 5      1 +4.4770400e-06 2.02689700e+02 7.95774700e-02 4.99029200e-01
       13 -1    0    0    0    0 +0.0000000000e+00 +0.0000000000e+00 +4.9999998884e+02 5.0000000000e+02 1.0566000000e-01 0.0000e+00 -1.0000e+00
      994 -1    0    0    0    0 -0.0000000000e+00 -0.0000000000e+00 +0.0000000000e+00 1.3100000000e+02 1.3100000000e+02 0.0000e+00 0.0000e+00
       13  1    1    2    0    0 +1.8878704561e+01 -8.4672528406e+00 +1.9049129465e+01 2.8124372953e+01 1.0566000000e-01 0.0000e+00 1.0000e+00
      994  1    1    2    0    0 -1.7278075360e+01 -2.6295051907e+01 +1.5042720543e+01 1.3556269798e+02 1.3100000000e+02 0.0000e+00 0.0000e+00
      997  1    1    2    0    0 -1.6006292013e+00 +3.4762304747e+01 +4.6590813883e+02 4.6731292906e+02 1.0000000000e+01 0.0000e+00 0.0000e+00
</event>
<event>
 5      1 +4.4770400e-06 2.05615600e+02 7.95774700e-02 4.93860600e-01
       13 -1    0    0    0    0 +0.0000000000e+00 +0.0000000000e+00 +4.9999998884e+02 5.0000000000e+02 1.0566000000e-01 0.0000e+00 1.0000e+00
      994 -1    0    0    0    0 -0.0000000000e+00 -0.0000000000e+00 +0.0000000000e+00 1.3100000000e+02 1.3100000000e+02 0.0000e+00 0.0000e+00
       13  1    1    2    0    0 +2.2840673794e+01 -4.3968474913e+00 +3.3492322754e+01 4.0777144269e+01 1.0566000000e-01 0.0000e+00 -1.0000e+00
      994  1    1    2    0    0 -2.0639379394e+01 -1.2663816864e+01 +1.0338303879e+01 1.3361974692e+02 1.3100000000e+02 0.0000e+00 0.0000e+00
      997  1    1    2    0    0 -2.2012944004e+00 +1.7060664356e+01 +4.5616936220e+02 4.5660310881e+02 1.0000000000e+01 0.0000e+00 0.0000e+00
</event>
<event>
 5      1 +4.4770400e-06 2.09457300e+02 7.95774700e-02 4.87353600e-01
       13 -1    0    0    0    0 +0.0000000000e+00 +0.0000000000e+00 +4.9999998884e+02 5.0000000000e+02 1.0566000000e-01 0.0000e+00 -1.0000e+00
      994 -1    0    0    0    0 -0.0000000000e+00 -0.0000000000e+00 +0.0000000000e+00 1.3100000000e+02 1.3100000000e+02 0.0000e+00 0.0000e+00
       13  1    1    2    0    0 +8.9940617424e+00 -7.0534258409e+01 +2.0620108553e+02 2.1811665135e+02 1.0566000000e-01 0.0000e+00 1.0000e+00
      994  1    1    2    0    0 -1.9466292811e+01 +8.5590524231e+01 +4.6077436217e+01 1.6428269697e+02 1.3100000000e+02 0.0000e+00 0.0000e+00
      997  1    1    2    0    0 +1.0472231068e+01 -1.5056265822e+01 +2.4772146708e+02 2.4860065169e+02 1.0000000000e+01 0.0000e+00 0.0000e+00
</event>
<event>
 5      1 +4.4770400e-06 1.97636900e+02 7.95774700e-02 5.08424500e-01
       13 -1    0    0    0    0 +0.0000000000e+00 +0.0000000000e+00 +4.9999998884e+02 5.0000000000e+02 1.0566000000e-01 0.0000e+00 1.0000e+00
      994 -1    0    0    0    0 -0.0000000000e+00 -0.0000000000e+00 +0.0000000000e+00 1.3100000000e+02 1.3100000000e+02 0.0000e+00 0.0000e+00
       13  1    1    2    0    0 +1.5077447078e+01 +1.5647071170e+01 +9.2848754185e+00 2.3630072411e+01 1.0566000000e-01 0.0000e+00 -1.0000e+00
      994  1    1    2    0    0 -1.8868952853e+01 -2.6147319399e+01 +1.9962703445e+01 1.3637899113e+02 1.3100000000e+02 0.0000e+00 0.0000e+00
      997  1    1    2    0    0 +3.7915057749e+00 +1.0500248229e+01 +4.7075240997e+02 4.7099093646e+02 1.0000000000e+01 0.0000e+00 0.0000e+00
</event>
<event>
 5      1 +4.4770400e-06 2.12078700e+02 7.95774700e-02 4.83084900e-01
       13 -1    0    0    0    0 +0.0000000000e+00 +0.0000000000e+00 +4.9999998884e+02 5.0000000000e+02 1.0566000000e-01 0.0000e+00 1.0000e+00
      994 -1    0    0    0    0 -0.0000000000e+00 -0.0000000000e+00 +0.0000000000e+00 1.3100000000e+02 1.3100000000e+02 0.0000e+00 0.0000e+00
       13  1    1    2    0    0 -2.0147570988e+01 -1.3195079686e+01 +1.0211549196e+02 1.0491720358e+02 1.0566000000e-01 0.0000e+00 -1.0000e+00
      994  1    1    2    0    0 +2.5569550790e+01 +1.5240213239e+01 +6.4672492843e+00 1.3449494913e+02 1.3100000000e+02 0.0000e+00 0.0000e+00
      997  1    1    2    0    0 -5.4219798018e+00 -2.0451335531e+00 +3.9141724759e+02 3.9158784729e+02 1.0000000000e+01 0.0000e+00 0.0000e+00
</event>
<event>
 5      1 +4.4770400e-06 2.12557900e+02 7.95774700e-02 4.82318900e-01
       13 -1    0    0    0    0 +0.0000000000e+00 +0.0000000000e+00 +4.9999998884e+02 5.0000000000e+02 1.0566000000e-01 0.0000e+00 1.0000e+00
      994 -1    0    0    0    0 -0.0000000000e+00 -0.0000000000e+00 +0.0000000000e+00 1.3100000000e+02 1.3100000000e+02 0.0000e+00 0.0000e+00
       13  1    1    2    0    0 +6.9775665109e-01 -1.0597184151e+01 +3.7074904902e+01 3.8566136879e+01 1.0566000000e-01 0.0000e+00 -1.0000e+00
      994  1    1    2    0    0 -3.6571821005e+00 +1.1635674798e+00 +1.7737896489e+00 1.3106820820e+02 1.3100000000e+02 0.0000e+00 0.0000e+00
      997  1    1    2    0    0 +2.9594254495e+00 +9.4336166711e+00 +4.6115129429e+02 4.6136565492e+02 1.0000000000e+01 0.0000e+00 0.0000e+00
</event>
<event>
 5      1 +4.4770400e-06 2.13101800e+02 7.95774700e-02 4.81454800e-01
       13 -1    0    0    0    0 +0.0000000000e+00 +0.0000000000e+00 +4.9999998884e+02 5.0000000000e+02 1.0566000000e-01 0.0000e+00 -1.0000e+00
      994 -1    0    0    0    0 -0.0000000000e+00 -0.0000000000e+00 +0.0000000000e+00 1.3100000000e+02 1.3100000000e+02 0.0000e+00 0.0000e+00
       13  1    1    2    0    0 -2.7314772322e+00 -1.0258161273e+01 +5.1120866167e+01 5.2211540509e+01 1.0566000000e-01 0.0000e+00 1.0000e+00
      994  1    1    2    0    0 -5.4806379994e+00 +4.1914868202e+00 +1.5091328137e+00 1.3119025664e+02 1.3100000000e+02 0.0000e+00 0.0000e+00
      997  1    1    2    0    0 +8.2121152316e+00 +6.0666744525e+00 +4.4736998985e+02 4.4759820285e+02 1.0000000000e+01 0.0000e+00 0.0000e+00
</event>
<event>
 5      1 +4.4770400e-06 2.12513100e+02 7.95774700e-02 4.82390400e-01
       13 -1    0    0    0    0 +0.0000000000e+00 +0.0000000000e+00 +4.9999998884e+02 5.0000000000e+02 1.0566000000e-01 0.0000e+00 1.0000e+00
      994 -1    0    0    0    0 -0.0000000000e+00 -0.0000000000e+00 +0.0000000000e+00 1.3100000000e+02 1.3100000000e+02 0.0000e+00 0.0000e+00
       13  1    1    2    0    0 -6.2223577168e+01 -5.4773994071e+01 +3.8923480068e+02 3.9796445219e+02 1.0566000000e-01 0.0000e+00 -1.0000e+00
      994  1    1    2    0    0 +5.9875632053e+01 +6.1686151982e+01 +4.0704451897e+01 1.6188923702e+02 1.3100000000e+02 0.0000e+00 0.0000e+00
      997  1    1    2    0    0 +2.3479451153e+00 -6.9121579116e+00 +7.0060736256e+01 7.1146310783e+01 1.0000000000e+01 0.0000e+00 0.0000e+00
</event>
<event>
 5      1 +4.4770400e-06 2.03793900e+02 7.95774700e-02 4.97056100e-01
       13 -1    0    0    0    0 +0.0000000000e+00 +0.0000000000e+00 +4.9999998884e+02 5.0000000000e+02 1.0566000000e-01 0.0000e+00 -1.0000e+00
      994 -1    0    0    0    0 -0.0000000000e+00 -0.0000000000e+00 +0.0000000000e+00 1.3100000000e+02 1.3100000000e+02 0.0000e+00 0.0000e+00
       13  1    1    2    0    0 -9.7607284869e+00 +7.2565935198e+00 +5.5189359719e+00 1.3356638365e+01 1.0566000000e-01 0.0000e+00 1.0000e+00
      994  1    1    2    0    0 -1.6249189247e+01 +7.3972071979e+00 +1.0486921668e+01 1.3262628077e+02 1.3100000000e+02 0.0000e+00 0.0000e+00
      997  1    1    2    0    0 +2.6009917734e+01 -1.4653800718e+01 +4.8399413120e+02 4.8501708086e+02 1.0000000000e+01 0.0000e+00 0.0000e+00
</event>
<event>
 5      1 +4.4770400e-06 2.08054100e+02 7.95774700e-02 4.89694800e-01
       13 -1    0    0    0    0 +0.0000000000e+00 +0.0000000000e+00 +4.9999998884e+02 5.0000000000e+02 1.0566000000e-01 0.0000e+00 1.0000e+00
      994 -1    0    0    0    0 -0.0000000000e+00 -0.0000000000e+00 +0.0000000000e+00 1.3100000000e+02 1.3100000000e+02 0.0000e+00 0.0000e+00
       13  1    1    2    0    0 -1.1153430733e+01 +2.8213560971e+01 +1.2389439028e+02 1.2755483192e+02 1.0566000000e-01 0.0000e+00 -1.0000e+00
      994  1    1    2    0    0 +1.5243280186e+01 +6.8448245975e+00 +6.7093111299e+00 1.3223170600e+02 1.3100000000e+02 0.0000e+00 0.0000e+00
      997  1    1    2    0    0 -4.0898494533e+00 -3.5058385568e+01 +3.6939628743e+02 3.7121346209e+02 1.0000000000e+01 0.0000e+00 0.0000e+00
</event>
<event>
 5      1 +4.4770400e-06 1.97258700e+02 7.95774700e-02 5.09153200e-01
       13 -1    0    0    0    0 +0.0000000000e+00 +0.0000000000e+00 +4.9999998884e+02 5.0000000000e+02 1.0566000000e-01 0.0000e+00 -1.0000e+00
      994 -1    0    0    0    0 -0.0000000000e+00 -0.0000000000e+00 +0.0000000000e+00 1.3100000000e+02 1.3100000000e+02 0.0000e+00 0.0000e+00
       13  1    1    2    0    0 +1.9501372933e+01 +2.8540704973e+01 +3.5715949184e+01 4.9704281272e+01 1.0566000000e-01 0.0000e+00 1.0000e+00
      994  1    1    2    0    0 -1.3067555475e+01 -1.8337125088e+01 +1.7305773504e+01 1.3404290716e+02 1.3100000000e+02 0.0000e+00 0.0000e+00
      997  1    1    2    0    0 -6.4338174580e+00 -1.0203579884e+01 +4.4697826615e+02 4.4725281157e+02 1.0000000000e+01 0.0000e+00 0.0000e+00
</event>
<event>
 5      1 +4.4770400e-06 2.08945900e+02 7.95774700e-02 4.88202300e-01
       13 -1    0    0    0    0 +0.0000000000e+00 +0.0000000000e+00 +4.9999998884e+02 5.0000000000e+02 1.0566000000e-01 0.0000e+00 1.0000e+00
      994 -1    0    0    0    0 -0.0000000000e+00 -0.0000000000e+00 +0.0000000000e+00 1.3100000000e+02 1.3100000000e+02 0.0000e+00 0.0000e+00
       13  1    1    2    0    0 -1.8768774121e+01 +1.2974936145e+01 +4.8325349519e+01 5.3441242689e+01 1.0566000000e-01 0.0000e+00 -1.0000e+00
      994  1    1    2    0    0 +2.3055501327e+01 -1.3831441072e+01 +8.2339808002e+00 1.3398381747e+02 1.3100000000e+02 0.0000e+00 0.0000e+00
      997  1    1    2    0    0 -4.2867272060e+00 +8.5650492732e-01 +4.4344065852e+02 4.4357493984e+02 1.0000000000e+01 0.0000e+00 0.0000e+00
</event>
<event>
 5      1 +4.4770400e-06 2.08421200e+02 7.95774700e-02 4.89078600e-01
       13 -1    0    0    0    0 +0.0000000000e+00 +0.0000000000e+00 +4.9999998884e+02 5.0000000000e+02 1.0566000000e-01 0.0000e+00 1.0000e+00
      994 -1    0    0    0    0 -0.0000000000e+00 -0.0000000000e+00 +0.0000000000e+00 1.3100000000e+02 1.3100000000e+02 0.0000e+00 0.0000e+00
       13  1    1    2    0    0 -1.4237860909e+01 -3.5224737683e+01 +1.4495787340e+02 1.4985424603e+02 1.0566000000e-01 0.0000e+00 -1.0000e+00
      994  1    1    2    0    0 +1.0589646869e+01 +1.9478335083e+01 +7.4895009336e+00 1.3307380953e+02 1.3100000000e+02 0.0000e+00 0.0000e+00
      997  1    1    2    0    0 +3.6482140395e+00 +1.5746402600e+01 +3.4755261450e+02 3.4807194444e+02 1.0000000000e+01 0.0000e+00 0.0000e+00
</event>
<event>
 5      1 +4.4770400e-06 2.10265200e+02 7.95774700e-02 4.86023700e-01
       13 -1    0    0    0    0 +0.0000000000e+00 +0.0000000000e+00 +4.9999998884e+02 5.0000000000e+02 1.0566000000e-01 0.0000e+00 -1.0000e+00
      994 -1    0    0    0    0 -0.0000000000e+00 -0.0000000000e+00 +0.0000000000e+00 1.3100000000e+02 1.3100000000e+02 0.0000e+00 0.0000e+00
       13  1    1    2    0    0 -2.1928772253e+01 +9.1637328117e+00 +7.2251728938e+01 7.6060295491e+01 1.0566000000e-01 0.0000e+00 1.0000e+00
      994  1    1    2    0    0 +1.6731440091e+01 -1.5549311398e+01 +6.1248641083e+00 1.3311737728e+02 1.3100000000e+02 0.0000e+00 0.0000e+00
      997  1    1    2    0    0 +5.1973321619e+00 +6.3855785864e+00 +4.2162339579e+02 4.2182232723e+02 1.0000000000e+01 0.0000e+00 0.0000e+00
</event>
<event>
 5      1 +4.4770400e-06 2.08901800e+02 7.95774700e-02 4.88275700e-01
       13 -1    0    0    0    0 +0.0000000000e+00 +0.0000000000e+00 +4.9999998884e+02 5.0000000000e+02 1.0566000000e-01 0.0000e+00 1.0000e+00
      994 -1    0    0    0    0 -0.0000000000e+00 -0.0000000000e+00 +0.0000000000e+00 1.3100000000e+02 1.3100000000e+02 0.0000e+00 0.0000e+00
       13  1    1    2    0    0 -2.6289709938e+01 +1.2072606408e+01 +9.2341087097e+01 9.6766648203e+01 1.0566000000e-01 0.0000e+00 -1.0000e+00
      994  1    1    2    0    0 +1.4171434097e+01 -6.2418220680e+00 +5.8150120816e+00 1.3204016151e+02 1.3100000000e+02 0.0000e+00 0.0000e+00
      997  1    1    2    0    0 +1.2118275841e+01 -5.8307843400e+00 +4.0184388966e+02 4.0219319028e+02 1.0000000000e+01 0.0000e+00 0.0000e+00
</event>
<event>
 5      1 +4.4770400e-06 2.12407700e+02 7.95774700e-02 4.82558600e-01
       13 -1    0    0    0    0 +0.0000000000e+00 +0.0000000000e+00 +4.9999998884e+02 5.0000000000e+02 1.0566000000e-01 0.0000e+00 1.0000e+00
      994 -1    0    0    0    0 -0.0000000000e+00 -0.0000000000e+00 +0.0000000000e+00 1.3100000000e+02 1.3100000000e+02 0.0000e+00 0.0000e+00
       13  1    1    2    0    0 -1.7820833086e+01 +1.8369273847e+01 +1.1782802151e+02 1.2057556192e+02 1.0566000000e-01 0.0000e+00 -1.0000e+00
      994  1    1    2    0    0 +2.1694418464e+01 -2.5782801205e+01 +7.4430593968e+00 1.3546881473e+02 1.3100000000e+02 0.0000e+00 0.0000e+00
      997  1    1    2    0    0 -3.8735853784e+00 +7.4135273574e+00 +3.7472890793e+02 3.7495562336e+02 1.0000000000e+01 0.0000e+00 0.0000e+00
</event>
<event>
 5      1 +4.4770400e-06 2.03791700e+02 7.95774700e-02 4.97060000e-01
       13 -1    0    0    0    0 +0.0000000000e+00 +0.0000000000e+00 +4.9999998884e+02 5.0000000000e+02 1.0566000000e-01 0.0000e+00 1.0000e+00
      994 -1    0    0    0    0 -0.0000000000e+00 -0.0000000000e+00 +0.0000000000e+00 1.3100000000e+02 1.3100000000e+02 0.0000e+00 0.0000e+00
       13  1    1    2    0    0 +1.9594260419e+01 -2.5249533866e+01 +5.1337198278e+01 6.0473077422e+01 1.0566000000e-01 0.0000e+00 -1.0000e+00
      994  1    1    2    0    0 -1.4592966088e+01 +2.2219083815e+01 +1.2547187593e+01 1.3425749238e+02 1.3100000000e+02 0.0000e+00 0.0000e+00
      997  1    1    2    0    0 -5.0012943312e+00 +3.0304500505e+00 +4.3611560296e+02 4.3626943019e+02 1.0000000000e+01 0.0000e+00 0.0000e+00
</event>
<event>
 5      1 +4.4770400e-06 2.12244900e+02 7.95774700e-02 4.82818800e-01
       13 -1    0    0    0    0 +0.0000000000e+00 +0.0000000000e+00 +4.9999998884e+02 5.0000000000e+02 1.0566000000e-01 0.0000e+00 -1.0000e+00
      994 -1    0    0    0    0 -0.0000000000e+00 -0.0000000000e+00 +0.0000000000e+00 1.3100000000e+02 1.3100000000e+02 0.0000e+00 0.0000e+00
       13  1    1    2    0    0 +3.4176685369e+00 -1.5177226091e+01 +5.9278173171e+01 6.1285737562e+01 1.0566000000e-01 0.0000e+00 1.0000e+00
      994  1    1    2    0    0 -1.6181053370e+01 +1.1134573775e+01 +3.8472444631e+00 1.3252021171e+02 1.3100000000e+02 0.0000e+00 0.0000e+00
      997  1    1    2    0    0 +1.2763384833e+01 +4.0426523160e+00 +4.3687457120e+02 4.3719405073e+02 1.0000000000e+01 0.0000e+00 0.0000e+00
</event>
<event>
 5      1 +4.4770400e-06 1.95330800e+02 7.95774700e-02 5.12924800e-01
       13 -1    0    0    0    0 +0.0000000000e+00 +0.0000000000e+00 +4.9999998884e+02 5.0000000000e+02 1.0566000000e-01 0.0000e+00 1.0000e+00
      994 -1    0    0    0    0 -0.0000000000e+00 -0.0000000000e+00 +0.0000000000e+00 1.3100000000e+02 1.3100000000e+02 0.0000e+00 0.0000e+00
       13  1    1    2    0    0 -1.2840265351e+01 +7.8772512969e+00 -4.9657428573e-01 1.5072533043e+01 1.0566000000e-01 0.0000e+00 -1.0000e+00
      994  1    1    2    0    0 +1.6604156067e+01 -1.1909596676e+01 +1.8584668121e+01 1.3388026883e+02 1.3100000000e+02 0.0000e+00 0.0000e+00
      997  1    1    2    0    0 -3.7638907155e+00 +4.0323453794e+00 +4.8191189500e+02 4.8204719813e+02 1.0000000000e+01 0.0000e+00 0.0000e+00
</event>
<event>
 5      1 +4.4770400e-06 2.11376100e+02 7.95774700e-02 4.84215900e-01
       13 -1    0    0    0    0 +0.0000000000e+00 +0.0000000000e+00 +4.9999998884e+02 5.0000000000e+02 1.0566000000e-01 0.0000e+00 1.0000e+00
      994 -1    0    0    0    0 -0.0000000000e+00 -0.0000000000e+00 +0.0000000000e+00 1.3100000000e+02 1.3100000000e+02 0.0000e+00 0.0000e+00
       13  1    1    2    0    0 -1.0675251903e+01 +9.8614368796e-01 +1.9898789803e+01 2.2603240524e+01 1.0566000000e-01 0.0000e+00 -1.0000e+00
      994  1    1    2    0    0 +1.4633039768e+01 -1.1389428008e+00 +3.6973448628e+00 1.3187150338e+02 1.3100000000e+02 0.0000e+00 0.0000e+00
      997  1    1    2    0    0 -3.9577878657e+00 +1.5279911288e-01 +4.7640385417e+02 4.7652525610e+02 1.0000000000e+01 0.0000e+00 0.0000e+00
</event>
<event>
 5      1 +4.4770400e-06 2.09714100e+02 7.95774700e-02 4.86929500e-01
       13 -1    0    0    0    0 +0.0000000000e+00 +0.0000000000e+00 +4.9999998884e+02 5.0000000000e+02 1.0566000000e-01 0.0000e+00 -1.0000e+00
      994 -1    0    0    0    0 -0.0000000000e+00 -0.0000000000e+00 +0.0000000000e+00 1.3100000000e+02 1.3100000000e+02 0.0000e+00 0.0000e+00
       13  1    1    2    0    0 -2.5989891711e+01 +2.4240742122e+01 +1.5611869785e+02 1.6011291962e+02 1.0566000000e-01 0.0000e+00 1.0000e+00
      994  1    1    2    0    0 +1.9030104028e+01 -1.2243904381e+01 +6.5274599325e+00 1.3310020957e+02 1.3100000000e+02 0.0000e+00 0.0000e+00
      997  1    1    2    0    0 +6.9597876832e+00 -1.1996837741e+01 +3.3735383106e+02 3.3778687081e+02 1.0000000000e+01 0.0000e+00 0.0000e+00
</event>
<event>
 5      1 +4.4770400e-06 2.11109800e+02 7.95774700e-02 4.84647100e-01
       13 -1    0    0    0    0 +0.0000000000e+00 +0.0000000000e+00 +4.9999998884e+02 5.0000000000e+02 1.0566000000e-01 0.0000e+00 -1.0000e+00
      994 -1    0    0    0    0 -0.0000000000e+00 -0.0000000000e+00 +0.0000000000e+00 1.3100000000e+02 1.3100000000e+02 0.0000e+00 0.0000e+00
       13  1    1    2    0    0 -3.3612345038e+01 +2.3482292045e+01 +1.6826324856e+02 1.7318700805e+02 1.0566000000e-01 0.0000e+00 1.0000e+00
      994  1    1    2    0    0 +3.9875795990e+01 -2.5225618366e+01 +1.4098220040e+01 1.3995060106e+02 1.3100000000e+02 0.0000e+00 0.0000e+00
      997  1    1    2    0    0 -6.2634509515e+00 +1.7433263215e+00 +3.1763852023e+02 3.1786239089e+02 1.0000000000e+01 0.0000e+00 0.0000e+00
</event>
<event>
 5      1 +4.4770400e-06 2.12833600e+02 7.95774700e-02 4.81880300e-01
       13 -1    0    0    0    0 +0.0000000000e+00 +0.0000000000e+00 +4.9999998884e+02 5.0000000000e+02 1.0566000000e-01 0.0000e+00 -1.0000e+00
      994 -1    0    0    0    0 -0.0000000000e+00 -0.0000000000e+00 +0.0000000000e+00 1.3100000000e+02 1.3100000000e+02 0.0000e+00 0.0000e+00
       13  1    1    2    0    0 +4.2967971760e+00 +1.2313351378e+01 +5.1966650657e+01 5.3578214161e+01 1.0566000000e-01 0.0000e+00 1.0000e+00
      994  1    1    2    0    0 -1.2193430414e+01 -1.2741266565e+01 +3.0101727165e+00 1.3221603821e+02 1.3100000000e+02 0.0000e+00 0.0000e+00
      997  1    1    2    0    0 +7.8966332383e+00 +4.2791518702e-01 +4.4502316546e+02 4.4520574763e+02 1.0000000000e+01 0.0000e+00 0.0000e+00
</event>
<event>
 5      1 +4.4770400e-06 2.11160500e+02 7.95774700e-02 4.84564900e-01
       13 -1    0    0    0    0 +0.0000000000e+00 +0.0000000000e+00 +4.9999998884e+02 5.0000000000e+02 1.0566000000e-01 0.0000e+00 -1.0000e+00
      994 -1    0    0    0    0 -0.0000000000e+00 -0.0000000000e+00 +0.0000000000e+00 1.3100000000e+02 1.3100000000e+02 0.0000e+00 0.0000e+00
       13  1    1    2    0    0 +9.2325688045e+00 -1.5678281874e+01 +7.5192813689e+01 7.7362906123e+01 1.0566000000e-01 0.0000e+00 1.0000e+00
      994  1    1    2    0    0 +1.1040750291e+01 +4.6837532966e+00 +3.5141277288e+00 1.3159477499e+02 1.3100000000e+02 0.0000e+00 0.0000e+00
      997  1    1    2    0    0 -2.0273319095e+01 +1.0994528578e+01 +4.2129304742e+02 4.2204231888e+02 1.0000000000e+01 0.0000e+00 0.0000e+00
</event>
<event>
 5      1 +4.4770400e-06 2.04406200e+02 7.95774700e-02 4.95974000e-01
       13 -1    0    0    0    0 +0.0000000000e+00 +0.0000000000e+00 +4.9999998884e+02 5.0000000000e+02 1.0566000000e-01 0.0000e+00 -1.0000e+00
      994 -1    0    0    0    0 -0.0000000000e+00 -0.0000000000e+00 +0.0000000000e+00 1.3100000000e+02 1.3100000000e+02 0.0000e+00 0.0000e+00
       13  1    1    2    0    0 -3.7037580951e+00 -1.9986633361e+01 +2.0328426860e+01 2.8747859742e+01 1.0566000000e-01 0.0000e+00 1.0000e+00
      994  1    1    2    0    0 +1.1254894130e+01 +1.9558860141e+01 +1.0968211800e+01 1.3338112056e+02 1.3100000000e+02 0.0000e+00 0.0000e+00
      997  1    1    2    0    0 -7.5511360346e+00 +4.2777322047e-01 +4.6870335018e+02 4.6887101970e+02 1.0000000000e+01 0.0000e+00 0.0000e+00
</event>
<event>
 5      1 +4.4770400e-06 1.94694400e+02 7.95774700e-02 5.14191400e-01
       13 -1    0    0    0    0 +0.0000000000e+00 +0.0000000000e+00 +4.9999998884e+02 5.0000000000e+02 1.0566000000e-01 0.0000e+00 1.0000e+00
      994 -1    0    0    0    0 -0.0000000000e+00 -0.0000000000e+00 +0.0000000000e+00 1.3100000000e+02 1.3100000000e+02 0.0000e+00 0.0000e+00
       13  1    1    2    0    0 +3.6425135546e+01 +9.6967600138e+00 +2.4044314168e+01 4.4709706577e+01 1.0566000000e-01 0.0000e+00 -1.0000e+00
      994  1    1    2    0    0 -3.2221108608e+01 -1.2022295401e+01 +2.8132782712e+01 1.3832999996e+02 1.3100000000e+02 0.0000e+00 0.0000e+00
      997  1    1    2    0    0 -4.2040269381e+00 +2.3255353872e+00 +4.4782289196e+02 4.4796029346e+02 1.0000000000e+01 0.0000e+00 0.0000e+00
</event>
<event>
 5      1 +4.4770400e-06 2.12101800e+02 7.95774700e-02 4.83047900e-01
       13 -1    0    0    0    0 +0.0000000000e+00 +0.0000000000e+00 +4.9999998884e+02 5.0000000000e+02 1.0566000000e-01 0.0000e+00 -1.0000e+00
      994 -1    0    0    0    0 -0.0000000000e+00 -0.0000000000e+00 +0.0000000000e+00 1.3100000000e+02 1.3100000000e+02 0.0000e+00 0.0000e+00
       13  1    1    2    0    0 -1.6598275708e+01 -1.8368081117e+00 +6.2109072923e+01 6.4315042749e+01 1.0566000000e-01 0.0000e+00 1.0000e+00
      994  1    1    2    0    0 +1.6160148358e+01 +4.0326420821e+00 +3.4258069647e+00 1.3209901116e+02 1.3100000000e+02 0.0000e+00 0.0000e+00
      997  1    1    2    0    0 +4.3812734962e-01 -2.1958339705e+00 +4.3446510895e+02 4.3458594609e+02 1.0000000000e+01 0.0000e+00 0.0000e+00
</event>
<event>
 5      1 +4.4770400e-06 2.12096700e+02 7.95774700e-02 4.83056100e-01
       13 -1    0    0    0    0 +0.0000000000e+00 +0.0000000000e+00 +4.9999998884e+02 5.0000000000e+02 1.0566000000e-01 0.0000e+00 1.0000e+00
      994 -1    0    0    0    0 -0.0000000000e+00 -0.0000000000e+00 +0.0000000000e+00 1.3100000000e+02 1.3100000000e+02 0.0000e+00 0.0000e+00
       13  1    1    2    0    0 -1.6028832093e+01 +2.3465977185e+00 +7.8765081230e+01 8.0413799589e+01 1.0566000000e-01 0.0000e+00 -1.0000e+00
      994  1    1    2    0    0 +1.4547020869e-01 -6.2869787671e+00 +2.2577009199e+00 1.3117028809e+02 1.3100000000e+02 0.0000e+00 0.0000e+00
      997  1    1    2    0    0 +1.5883361884e+01 +3.9403810486e+00 +4.1897720669e+02 4.1941591232e+02 1.0000000000e+01 0.0000e+00 0.0000e+00
</event>
<event>
 5      1 +4.4770400e-06 1.92001900e+02 7.95774700e-02 5.19674000e-01
       13 -1    0    0    0    0 +0.0000000000e+00 +0.0000000000e+00 +4.9999998884e+02 5.0000000000e+02 1.0566000000e-01 0.0000e+00 -1.0000e+00
      994 -1    0    0    0    0 -0.0000000000e+00 -0.0000000000e+00 +0.0000000000e+00 1.3100000000e+02 1.3100000000e+02 0.0000e+00 0.0000e+00
       13  1    1    2    0    0 +4.8961500984e+01 +1.2933209245e+02 +1.4014713809e+02 1.9688892857e+02 1.0566000000e-01 0.0000e+00 1.0000e+00
      994  1    1    2    0    0 -5.2157964606e+01 -1.3309020738e+02 +2.1772013533e+02 2.9154161607e+02 1.3100000000e+02 0.0000e+00 0.0000e+00
      997  1    1    2    0    0 +3.1964636223e+00 +3.7581149326e+00 +1.4213271542e+02 1.4256945536e+02 1.0000000000e+01 0.0000e+00 0.0000e+00
</event>
<event>
 5      1 +4.4770400e-06 2.09724600e+02 7.95774700e-02 4.86912200e-01
       13 -1    0    0    0    0 +0.0000000000e+00 +0.0000000000e+00 +4.9999998884e+02 5.0000000000e+02 1.0566000000e-01 0.0000e+00 -1.0000e+00
      994 -1    0    0    0    0 -0.0000000000e+00 -0.0000000000e+00 +0.0000000000e+00 1.3100000000e+02 1.3100000000e+02 0.0000e+00 0.0000e+00
       13  1    1    2    0    0 +1.2809076150e+01 +2.2163035176e+01 +9.0376520867e+01 9.3931886216e+01 1.0566000000e-01 0.0000e+00 1.0000e+00
      994  1    1    2    0    0 -1.9896328315e+01 -9.4759298216e-01 +5.9368602334e+00 1.3263863737e+02 1.3100000000e+02 0.0000e+00 0.0000e+00
      997  1    1    2    0    0 +7.0872521651e+00 -2.1215442194e+01 +4.0368660774e+02 4.0442947642e+02 1.0000000000e+01 0.0000e+00 0.0000e+00
</event>
<event>
 5      1 +4.4770400e-06 2.11826500e+02 7.95774700e-02 4.83489800e-01
       13 -1    0    0    0    0 +0.0000000000e+00 +0.0000000000e+00 +4.9999998884e+02 5.0000000000e+02 1.0566000000e-01 0.0000e+00 1.0000e+00
      994 -1    0    0    0    0 -0.0000000000e+00 -0.0000000000e+00 +0.0000000000e+00 1.3100000000e+02 1.3100000000e+02 0.0000e+00 0.0000e+00
       13  1    1    2    0    0 -1.0931990405e+01 -6.0713168401e+00 +4.3602146296e+01 4.5359978263e+01 1.0566000000e-01 0.0000e+00 -1.0000e+00
      994  1    1    2    0    0 -9.4597100935e+00 +1.4353761580e+00 +2.7268704441e+00 1.3137725162e+02 1.3100000000e+02 0.0000e+00 0.0000e+00
      997  1    1    2    0    0 +2.0391700499e+01 +4.6359406821e+00 +4.5367097210e+02 4.5426277012e+02 1.0000000000e+01 0.0000e+00 0.0000e+00
</event>
<event>
 5      1 +4.4770400e-06 2.11987800e+02 7.95774700e-02 4.83230700e-01
       13 -1    0    0    0    0 +0.0000000000e+00 +0.0000000000e+00 +4.9999998884e+02 5.0000000000e+02 1.0566000000e-01 0.0000e+00 -1.0000e+00
      994 -1    0    0    0    0 -0.0000000000e+00 -0.0000000000e+00 +0.0000000000e+00 1.3100000000e+02 1.3100000000e+02 0.0000e+00 0.0000e+00
       13  1    1    2    0    0 -6.2631836227e+00 +1.0844707533e+01 +3.7227130691e+01 3.9277290819e+01 1.0566000000e-01 0.0000e+00 1.0000e+00
      994  1    1    2    0    0 +1.0560295114e+01 -2.6261310574e+00 +2.7318493777e+00 1.3147957788e+02 1.3100000000e+02 0.0000e+00 0.0000e+00
      997  1    1    2    0    0 -4.2971114908e+00 -8.2185764756e+00 +4.6004100877e+02 4.6024313131e+02 1.0000000000e+01 0.0000e+00 0.0000e+00
</event>
<event>
 5      1 +4.4770400e-06 2.09201100e+02 7.95774700e-02 4.87778200e-01
       13 -1    0    0    0    0 +0.0000000000e+00 +0.0000000000e+00 +4.9999998884e+02 5.0000000000e+02 1.0566000000e-01 0.0000e+00 1.0000e+00
      994 -1    0    0    0    0 -0.0000000000e+00 -0.0000000000e+00 +0.0000000000e+00 1.3100000000e+02 1.3100000000e+02 0.0000e+00 0.0000e+00
       13  1    1    2    0    0 -1.7695371694e+01 +4.3015618355e+00 +3.6453322137e+01 4.0749054866e+01 1.0566000000e-01 0.0000e+00 -1.0000e+00
      994  1    1    2    0    0 +1.2107331443e+01 -1.6000944427e+00 +5.1141749050e+00 1.3166739369e+02 1.3100000000e+02 0.0000e+00 0.0000e+00
      997  1    1    2    0    0 +5.5880402511e+00 -2.7014673928e+00 +4.5843249179e+02 4.5858355144e+02 1.0000000000e+01 0.0000e+00 0.0000e+00
</event>
<event>
 5      1 +4.4770400e-06 2.11910900e+02 7.95774700e-02 4.83354100e-01
       13 -1    0    0    0    0 +0.0000000000e+00 +0.0000000000e+00 +4.9999998884e+02 5.0000000000e+02 1.0566000000e-01 0.0000e+00 1.0000e+00
      994 -1    0    0    0    0 -0.0000000000e+00 -0.0000000000e+00 +0.0000000000e+00 1.3100000000e+02 1.3100000000e+02 0.0000e+00 0.0000e+00
       13  1    1    2    0    0 -5.9629459824e-01 +1.5670523913e+01 +6.8799259291e+01 7.0563943555e+01 1.0566000000e-01 0.0000e+00 -1.0000e+00
      994  1    1    2    0    0 -8.4638772899e+00 +1.8554683739e-02 +2.5620505782e+00 1.3129814038e+02 1.3100000000e+02 0.0000e+00 0.0000e+00
      997  1    1    2    0    0 +9.0601718882e+00 -1.5689078597e+01 +4.2863867897e+02 4.2913791607e+02 1.0000000000e+01 0.0000e+00 0.0000e+00
</event>
<event>
 5      1 +4.4770400e-06 2.17642200e+02 7.95774700e-02 4.74451400e-01
       13 -1    0    0    0    0 +0.0000000000e+00 +0.0000000000e+00 +4.9999998884e+02 5.0000000000e+02 1.0566000000e-01 0.0000e+00 -1.0000e+00
      994 -1    0    0    0    0 -0.0000000000e+00 -0.0000000000e+00 +0.0000000000e+00 1.3100000000e+02 1.3100000000e+02 0.0000e+00 0.0000e+00
       13  1    1    2    0    0 +3.9847089274e+01 -1.1190609209e+01 -7.8165112012e-01 4.1396164080e+01 1.0566000000e-01 0.0000e+00 1.0000e+00
      994  1    1    2    0    0 -4.1899482789e+01 +1.9890411730e+01 +6.4657626750e+01 1.5327362406e+02 1.3100000000e+02 0.0000e+00 0.0000e+00
      997  1    1    2    0    0 +2.0523935156e+00 -8.6998025205e+00 +4.3612401321e+02 4.3633021186e+02 1.0000000000e+01 0.0000e+00 0.0000e+00
</event>
<event>
 5      1 +4.4770400e-06 2.06803800e+02 7.95774700e-02 4.91815200e-01
       13 -1    0    0    0    0 +0.0000000000e+00 +0.0000000000e+00 +4.9999998884e+02 5.0000000000e+02 1.0566000000e-01 0.0000e+00 1.0000e+00
      994 -1    0    0    0    0 -0.0000000000e+00 -0.0000000000e+00 +0.0000000000e+00 1.3100000000e+02 1.3100000000e+02 0.0000e+00 0.0000e+00
       13  1    1    2    0    0 +9.9374172756e+00 +1.8248963493e+00 +5.3033674764e+00 1.1411370620e+01 1.0566000000e-01 0.0000e+00 -1.0000e+00
      994  1    1    2    0    0 -9.0059092884e+00 +8.4665344866e+00 +7.0928858760e+00 1.3177290176e+02 1.3100000000e+02 0.0000e+00 0.0000e+00
      997  1    1    2    0    0 -9.3150798721e-01 -1.0291430836e+01 +4.8760373548e+02 4.8781572762e+02 1.0000000000e+01 0.0000e+00 0.0000e+00
</event>
<event>
 5      1 +4.4770400e-06 2.12982400e+02 7.95774700e-02 4.81644100e-01
       13 -1    0    0    0    0 +0.0000000000e+00 +0.0000000000e+00 +4.9999998884e+02 5.0000000000e+02 1.0566000000e-01 0.0000e+00 1.0000e+00
      994 -1    0    0    0    0 -0.0000000000e+00 -0.0000000000e+00 +0.0000000000e+00 1.3100000000e+02 1.3100000000e+02 0.0000e+00 0.0000e+00
       13  1    1    2    0    0 +1.3850152746e+01 +7.7565668817e+00 +9.5852531591e+01 9.7158170203e+01 1.0566000000e-01 0.0000e+00 -1.0000e+00
      994  1    1    2    0    0 -1.1382708761e+01 -9.4344066320e-01 +2.0075064838e+00 1.3151230445e+02 1.3100000000e+02 0.0000e+00 0.0000e+00
      997  1    1    2    0    0 -2.4674439853e+00 -6.8131262185e+00 +4.0213995076e+02 4.0232952535e+02 1.0000000000e+01 0.0000e+00 0.0000e+00
</event>
<event>
 5      1 +4.4770400e-06 2.09071800e+02 7.95774700e-02 4.87992900e-01
       13 -1    0    0    0    0 +0.0000000000e+00 +0.0000000000e+00 +4.9999998884e+02 5.0000000000e+02 1.0566000000e-01 0.0000e+00 -1.0000e+00
      994 -1    0    0    0    0 -0.0000000000e+00 -0.0000000000e+00 +0.0000000000e+00 1.3100000000e+02 1.3100000000e+02 0.0000e+00 0.0000e+00
       13  1    1    2    0    0 -1.4962557144e+01 +1.5524459325e+01 +4.4710762103e+01 4.9638194624e+01 1.0566000000e-01 0.0000e+00 1.0000e+00
      994  1    1    2    0    0 +2.9742391134e+01 -6.7179919524e+00 +9.1862021934e+00 1.3481516071e+02 1.3100000000e+02 0.0000e+00 0.0000e+00
      997  1    1    2    0    0 -1.4779833990e+01 -8.8064673725e+00 +4.4610302454e+02 4.4654664467e+02 1.0000000000e+01 0.0000e+00 0.0000e+00
</event>
<event>
 5      1 +4.4770400e-06 2.09879400e+02 7.95774700e-02 4.86657100e-01
       13 -1    0    0    0    0 +0.0000000000e+00 +0.0000000000e+00 +4.9999998884e+02 5.0000000000e+02 1.0566000000e-01 0.0000e+00 -1.0000e+00
      994 -1    0    0    0    0 -0.0000000000e+00 -0.0000000000e+00 +0.0000000000e+00 1.3100000000e+02 1.3100000000e+02 0.0000e+00 0.0000e+00
       13  1    1    2    0    0 +1.2953823332e+01 -8.0959431704e+00 +3.1314524578e+01 3.4841877796e+01 1.0566000000e-01 0.0000e+00 1.0000e+00
      994  1    1    2    0    0 -6.0824891832e-01 +6.0898679282e+00 +4.0072864249e+00 1.3120409598e+02 1.3100000000e+02 0.0000e+00 0.0000e+00
      997  1    1    2    0    0 -1.2345574414e+01 +2.0060752422e+00 +4.6467817783e+02 4.6495402622e+02 1.0000000000e+01 0.0000e+00 0.0000e+00
</event>
<event>
 5      1 +4.4770400e-06 2.10098200e+02 7.95774700e-02 4.86297600e-01
       13 -1    0    0    0    0 +0.0000000000e+00 +0.0000000000e+00 +4.9999998884e+02 5.0000000000e+02 1.0566000000e-01 0.0000e+00 -1.0000e+00
      994 -1    0    0    0    0 -0.0000000000e+00 -0.0000000000e+00 +0.0000000000e+00 1.3100000000e+02 1.3100000000e+02 0.0000e+00 0.0000e+00
       13  1    1    2    0    0 +4.8083682502e+00 +1.3793243936e+01 +3.6900403436e+01 3.9686583643e+01 1.0566000000e-01 0.0000e+00 1.0000e+00
      994  1    1    2    0    0 +3.8464873255e-01 +1.5012623540e+01 +4.7730613825e+00 1.3194434029e+02 1.3100000000e+02 0.0000e+00 0.0000e+00
      997  1    1    2    0    0 -5.1930169827e+00 -2.8805867476e+01 +4.5832652402e+02 4.5936907606e+02 1.0000000000e+01 0.0000e+00 0.0000e+00
</event>
<event>
 5      1 +4.4770400e-06 2.12282000e+02 7.95774700e-02 4.82759400e-01
       13 -1    0    0    0    0 +0.0000000000e+00 +0.0000000000e+00 +4.9999998884e+02 5.0000000000e+02 1.0566000000e-01 0.0000e+00 1.0000e+00
      994 -1    0    0    0    0 -0.0000000000e+00 -0.0000000000e+00 +0.0000000000e+00 1.3100000000e+02 1.3100000000e+02 0.0000e+00 0.0000e+00
       13  1    1    2    0    0 -1.1940648492e+01 -4.9392842061e+00 +4.9930587276e+01 5.1575675707e+01 1.0566000000e-01 0.0000e+00 -1.0000e+00
      994  1    1    2    0    0 +2.4135217315e+00 -2.1940059276e+00 +1.9700424473e+00 1.3105540743e+02 1.3100000000e+02 0.0000e+00 0.0000e+00
      997  1    1    2    0    0 +9.5271267607e+00 +7.1332901337e+00 +4.4809935911e+02 4.4836891686e+02 1.0000000000e+01 0.0000e+00 0.0000e+00
</event>
<event>
 5      1 +4.4770400e-06 2.04825100e+02 7.95774700e-02 4.95238200e-01
       13 -1    0    0    0    0 +0.0000000000e+00 +0.0000000000e+00 +4.9999998884e+02 5.0000000000e+02 1.0566000000e-01 0.0000e+00 -1.0000e+00
      994 -1    0    0    0    0 -0.0000000000e+00 -0.0000000000e+00 +0.0000000000e+00 1.3100000000e+02 1.3100000000e+02 0.0000e+00 0.0000e+00
       13  1    1    2    0    0 -2.4643080763e+01 +3.2772278659e+00 +3.7032834801e+01 4.4603404235e+01 1.0566000000e-01 0.0000e+00 1.0000e+00
      994  1    1    2    0    0 +1.3909708089e+01 +1.2594393212e+01 +9.7838751453e+00 1.3269824013e+02 1.3100000000e+02 0.0000e+00 0.0000e+00
      997  1    1    2    0    0 +1.0733372674e+01 -1.5871621077e+01 +4.5318327889e+02 4.5369835564e+02 1.0000000000e+01 0.0000e+00 0.0000e+00
</event>
<event>
 5      1 +4.4770400e-06 2.13079900e+02 7.95774700e-02 4.81489500e-01
       13 -1    0    0    0    0 +0.0000000000e+00 +0.0000000000e+00 +4.9999998884e+02 5.0000000000e+02 1.0566000000e-01 0.0000e+00 -1.0000e+00
      994 -1    0    0    0    0 -0.0000000000e+00 -0.0000000000e+00 +0.0000000000e+00 1.3100000000e+02 1.3100000000e+02 0.0000e+00 0.0000e+00
       13  1    1    2    0    0 +2.7631358358e+01 -8.8460548274e+00 +1.4931145322e+02 1.5210412841e+02 1.0566000000e-01 0.0000e+00 1.0000e+00
      994  1    1    2    0    0 -4.6623555264e+01 +2.1852098896e+00 +1.2132648980e+01 1.3959488608e+02 1.3100000000e+02 0.0000e+00 0.0000e+00
      997  1    1    2    0    0 +1.8992196906e+01 +6.6608449378e+00 +3.3855588663e+02 3.3930098551e+02 1.0000000000e+01 0.0000e+00 0.0000e+00
</event>
<event>
 5      1 +4.4770400e-06 2.12114500e+02 7.95774700e-02 4.83027600e-01
       13 -1    0    0    0    0 +0.0000000000e+00 +0.0000000000e+00 +4.9999998884e+02 5.0000000000e+02 1.0566000000e-01 0.0000e+00 1.0000e+00
      994 -1    0    0    0    0 -0.0000000000e+00 -0.0000000000e+00 +0.0000000000e+00 1.3100000000e+02 1.3100000000e+02 0.0000e+00 0.0000e+00
       13  1    1    2    0    0 -2.5604786961e-01 -1.0191477339e+01 +2.5076837015e+01 2.7070106937e+01 1.0566000000e-01 0.0000e+00 -1.0000e+00
      994  1    1    2    0    0 +3.0619160417e+00 +8.2035307388e+00 +2.4263152634e+00 1.3131473738e+02 1.3100000000e+02 0.0000e+00 0.0000e+00
      997  1    1    2    0    0 -2.8058681721e+00 +1.9879466005e+00 +4.7249683656e+02 4.7261515569e+02 1.0000000000e+01 0.0000e+00 0.0000e+00
</event>
<event>
 5      1 +4.4770400e-06 2.12278500e+02 7.95774700e-02 4.82765000e-01
       13 -1    0    0    0    0 +0.0000000000e+00 +0.0000000000e+00 +4.9999998884e+02 5.0000000000e+02 1.0566000000e-01 0.0000e+00 1.0000e+00
      994 -1    0    0    0    0 -0.0000000000e+00 -0.0000000000e+00 +0.0000000000e+00 1.3100000000e+02 1.3100000000e+02 0.0000e+00 0.0000e+00
       13  1    1    2    0    0 -1.5688057263e+01 -5.5744588837e+00 +6.5016634530e+01 6.7114556261e+01 1.0566000000e-01 0.0000e+00 -1.0000e+00
      994  1    1    2    0    0 +1.3393082850e+01 +1.5344352970e+01 +3.9637737198e+00 1.3263308538e+02 1.3100000000e+02 0.0000e+00 0.0000e+00
      997  1    1    2    0    0 +2.2949744130e+00 -9.7698940860e+00 +4.3101958059e+02 4.3125235836e+02 1.0000000000e+01 0.0000e+00 0.0000e+00
</event>
<event>
 5      1 +4.4770400e-06 2.09703700e+02 7.95774700e-02 4.86946800e-01
       13 -1    0    0    0    0 +0.0000000000e+00 +0.0000000000e+00 +4.9999998884e+02 5.0000000000e+02 1.0566000000e-01 0.0000e+00 1.0000e+00
      994 -1    0    0    0    0 -0.0000000000e+00 -0.0000000000e+00 +0.0000000000e+00 1.3100000000e+02 1.3100000000e+02 0.0000e+00 0.0000e+00
       13  1    1    2    0    0 -1.7475437050e+01 +1.1888128864e+01 +4.7389830322e+01 5.1889552802e+01 1.0566000000e-01 0.0000e+00 -1.0000e+00
      994  1    1    2    0    0 +1.9463673948e+01 -1.8934183880e+01 +7.6770452120e+00 1.3400475718e+02 1.3100000000e+02 0.0000e+00 0.0000e+00
      997  1    1    2    0    0 -1.9882368978e+00 +7.0460550164e+00 +4.4493311330e+02 4.4510569002e+02 1.0000000000e+01 0.0000e+00 0.0000e+00
</event>
<event>
 5      1 +4.4770400e-06 2.13173400e+02 7.95774700e-02 4.81341400e-01
       13 -1    0    0    0    0 +0.0000000000e+00 +0.0000000000e+00 +4.9999998884e+02 5.0000000000e+02 1.0566000000e-01 0.0000e+00 1.0000e+00
      994 -1    0    0    0    0 -0.0000000000e+00 -0.0000000000e+00 +0.0000000000e+00 1.3100000000e+02 1.3100000000e+02 0.0000e+00 0.0000e+00
       13  1    1    2    0    0 +6.8832226407e+00 +1.7121729749e+01 +9.3248566109e+01 9.5057028299e+01 1.0566000000e-01 0.0000e+00 -1.0000e+00
      994  1    1    2    0    0 -6.4960171195e+00 -2.8761036274e+01 +5.4915014132e+00 1.3438955329e+02 1.3100000000e+02 0.0000e+00 0.0000e+00
      997  1    1    2    0    0 -3.8720552125e-01 +1.1639306525e+01 +4.0125992131e+02 4.0155341841e+02 1.0000000000e+01 0.0000e+00 0.0000e+00
</event>
<event>
 5      1 +4.4770400e-06 2.09299400e+02 7.95774700e-02 4.87615100e-01
       13 -1    0    0    0    0 +0.0000000000e+00 +0.0000000000e+00 +4.9999998884e+02 5.0000000000e+02 1.0566000000e-01 0.0000e+00 1.0000e+00
      994 -1    0    0    0    0 -0.0000000000e+00 -0.0000000000e+00 +0.0000000000e+00 1.3100000000e+02 1.3100000000e+02 0.0000e+00 0.0000e+00
       13  1    1    2    0    0 -1.8846865965e-01 -1.0807360689e+01 +1.1518859714e+01 1.5796514130e+01 1.0566000000e-01 0.0000e+00 -1.0000e+00
      994  1    1    2    0    0 +1.4767558138e+00 +1.2753610497e+01 +5.1136392402e+00 1.3172693231e+02 1.3100000000e+02 0.0000e+00 0.0000e+00
      997  1    1    2    0    0 -1.2882871541e+00 -1.9462498079e+00 +4.8336748988e+02 4.8347655356e+02 1.0000000000e+01 0.0000e+00 0.0000e+00
</event>
<event>
 5      1 +4.4770400e-06 2.07592400e+02 7.95774700e-02 4.90474100e-01
       13 -1    0    0    0    0 +0.0000000000e+00 +0.0000000000e+00 +4.9999998884e+02 5.0000000000e+02 1.0566000000e-01 0.0000e+00 1.0000e+00
      994 -1    0    0    0    0 -0.0000000000e+00 -0.0000000000e+00 +0.0000000000e+00 1.3100000000e+02 1.3100000000e+02 0.0000e+00 0.0000e+00
       13  1    1    2    0    0 +1.4535818584e+01 -1.1678482603e+01 +3.2554634002e+01 3.7516560834e+01 1.0566000000e-01 0.0000e+00 -1.0000e+00
      994  1    1    2    0    0 +9.4685792276e+00 +8.1751488071e+00 +6.4625833439e+00 1.3175451428e+02 1.3100000000e+02 0.0000e+00 0.0000e+00
      997  1    1    2    0    0 -2.4004397812e+01 +3.5033337957e+00 +4.6098277149e+02 4.6172892488e+02 1.0000000000e+01 0.0000e+00 0.0000e+00
</event>
<event>
 5      1 +4.4770400e-06 2.11528900e+02 7.95774700e-02 4.83969200e-01
       13 -1    0    0    0    0 +0.0000000000e+00 +0.0000000000e+00 +4.9999998884e+02 5.0000000000e+02 1.0566000000e-01 0.0000e+00 -1.0000e+00
      994 -1    0    0    0    0 -0.0000000000e+00 -0.0000000000e+00 +0.0000000000e+00 1.3100000000e+02 1.3100000000e+02 0.0000e+00 0.0000e+00
       13  1    1    2    0    0 +4.7505674919e+00 -1.5733211048e+01 +4.9250056763e+01 5.1919948735e+01 1.0566000000e-01 0.0000e+00 1.0000e+00
      994  1    1    2    0    0 -8.6757929095e+00 +1.5151122084e+01 +4.0188372342e+00 1.3221942723e+02 1.3100000000e+02 0.0000e+00 0.0000e+00
      997  1    1    2    0    0 +3.9252254176e+00 +5.8208896404e-01 +4.4673109484e+02 4.4686062404e+02 1.0000000000e+01 0.0000e+00 0.0000e+00
</event>
<event>
 5      1 +4.4770400e-06 2.08130500e+02 7.95774700e-02 4.89566400e-01
       13 -1    0    0    0    0 +0.0000000000e+00 +0.0000000000e+00 +4.9999998884e+02 5.0000000000e+02 1.0566000000e-01 0.0000e+00 -1.0000e+00
      994 -1    0    0    0    0 -0.0000000000e+00 -0.0000000000e+00 +0.0000000000e+00 1.3100000000e+02 1.3100000000e+02 0.0000e+00 0.0000e+00
       13  1    1    2    0    0 +3.5248642543e+00 -3.0302803397e+01 +7.7702087848e+01 8.3476404940e+01 1.0566000000e-01 0.0000e+00 1.0000e+00
      994  1    1    2    0    0 -1.4436939831e+01 +2.6002725566e+01 +9.7492260238e+00 1.3468709803e+02 1.3100000000e+02 0.0000e+00 0.0000e+00
      997  1    1    2    0    0 +1.0912075577e+01 +4.3000778306e+00 +4.1254867496e+02 4.1283649703e+02 1.0000000000e+01 0.0000e+00 0.0000e+00
</event>
<event>
 5      1 +4.4770400e-06 2.13110900e+02 7.95774700e-02 4.81440300e-01
       13 -1    0    0    0    0 +0.0000000000e+00 +0.0000000000e+00 +4.9999998884e+02 5.0000000000e+02 1.0566000000e-01 0.0000e+00 1.0000e+00
      994 -1    0    0    0    0 -0.0000000000e+00 -0.0000000000e+00 +0.0000000000e+00 1.3100000000e+02 1.3100000000e+02 0.0000e+00 0.0000e+00
       13  1    1    2    0    0 -9.9696964348e+00 -3.9715117036e+00 +5.6584877473e+01 5.7593639188e+01 1.0566000000e-01 0.0000e+00 -1.0000e+00
      994  1    1    2    0    0 +3.0239261171e+00 -7.9173358697e+00 +1.6202359980e+00 1.3128386611e+02 1.3100000000e+02 0.0000e+00 0.0000e+00
      997  1    1    2    0    0 +6.9457703177e+00 +1.1888847573e+01 +4.4179487536e+02 4.4212249470e+02 1.0000000000e+01 0.0000e+00 0.0000e+00
</event>
<event>
 5      1 +4.4770400e-06 2.13050100e+02 7.95774700e-02 4.81536700e-01
       13 -1    0    0    0    0 +0.0000000000e+00 +0.0000000000e+00 +4.9999998884e+02 5.0000000000e+02 1.0566000000e-01 0.0000e+00 -1.0000e+00
      994 -1    0    0    0    0 -0.0000000000e+00 -0.0000000000e+00 +0.0000000000e+00 1.3100000000e+02 1.3100000000e+02 0.0000e+00 0.0000e+00
       13  1    1    2    0    0 +1.2232653995e+01 -5.4855629183e+00 +5.7533576958e+01 5.9074976648e+01 1.0566000000e-01 0.0000e+00 1.0000e+00
      994  1    1    2    0    0 -1.4143813610e+01 +1.7291918210e+01 +3.7627109663e+00 1.3294440903e+02 1.3100000000e+02 0.0000e+00 0.0000e+00
      997  1    1    2    0    0 +1.9111596157e+00 -1.1806355292e+01 +4.3870370091e+02 4.3898061432e+02 1.0000000000e+01 0.0000e+00 0.0000e+00
</event>
<event>
 5      1 +4.4770400e-06 2.11740000e+02 7.95774700e-02 4.83629000e-01
       13 -1    0    0    0    0 +0.0000000000e+00 +0.0000000000e+00 +4.9999998884e+02 5.0000000000e+02 1.0566000000e-01 0.0000e+00 -1.0000e+00
      994 -1    0    0    0    0 -0.0000000000e+00 -0.0000000000e+00 +0.0000000000e+00 1.3100000000e+02 1.3100000000e+02 0.0000e+00 0.0000e+00
       13  1    1    2    0    0 +4.3139446026e+01 +4.4378584536e+01 +2.1443890478e+02 2.2319167910e+02 1.0566000000e-01 0.0000e+00 1.0000e+00
      994  1    1    2    0    0 -6.2729592456e+01 -5.5034981200e+01 +3.9138914747e+01 1.6017710689e+02 1.3100000000e+02 0.0000e+00 0.0000e+00
      997  1    1    2    0    0 +1.9590146431e+01 +1.0656396663e+01 +2.4642216930e+02 2.4763121401e+02 1.0000000000e+01 0.0000e+00 0.0000e+00
</event>
<event>
 5      1 +4.4770400e-06 2.12853900e+02 7.95774700e-02 4.81848000e-01
       13 -1    0    0    0    0 +0.0000000000e+00 +0.0000000000e+00 +4.9999998884e+02 5.0000000000e+02 1.0566000000e-01 0.0000e+00 1.0000e+00
      994 -1    0    0    0    0 -0.0000000000e+00 -0.0000000000e+00 +0.0000000000e+00 1.3100000000e+02 1.3100000000e+02 0.0000e+00 0.0000e+00
       13  1    1    2    0    0 +9.2900476545e+00 -5.7416496684e+00 +4.5286814776e+01 4.6585172351e+01 1.0566000000e-01 0.0000e+00 -1.0000e+00
      994  1    1    2    0    0 -4.2357606986e-01 +5.7176365064e+00 +1.6309581118e+00 1.3113554365e+02 1.3100000000e+02 0.0000e+00 0.0000e+00
      997  1    1    2    0    0 -8.8664715847e+00 +2.4013161954e-02 +4.5308221595e+02 4.5327928400e+02 1.0000000000e+01 0.0000e+00 0.0000e+00
</event>
<event>
 5      1 +4.4770400e-06 2.13195000e+02 7.95774700e-02 4.81307200e-01
       13 -1    0    0    0    0 +0.0000000000e+00 +0.0000000000e+00 +4.9999998884e+02 5.0000000000e+02 1.0566000000e-01 0.0000e+00 1.0000e+00
      994 -1    0    0    0    0 -0.0000000000e+00 -0.0000000000e+00 +0.0000000000e+00 1.3100000000e+02 1.3100000000e+02 0.0000e+00 0.0000e+00
       13  1    1    2    0    0 -5.8413574760e+00 -1.0715742588e+01 +6.8016226375e+01 6.9102581794e+01 1.0566000000e-01 0.0000e+00 -1.0000e+00
      994  1    1    2    0    0 -4.7702392604e-02 +7.4592312422e+00 +1.4755489720e+00 1.3122050012e+02 1.3100000000e+02 0.0000e+00 0.0000e+00
      997  1    1    2    0    0 +5.8890598686e+00 +3.2565113458e+00 +4.3050821349e+02 4.3067691809e+02 1.0000000000e+01 0.0000e+00 0.0000e+00
</event>
<event>
 5      1 +4.4770400e-06 2.12055800e+02 7.95774700e-02 4.83121700e-01
       13 -1    0    0    0    0 +0.0000000000e+00 +0.0000000000e+00 +4.9999998884e+02 5.0000000000e+02 1.0566000000e-01 0.0000e+00 -1.0000e+00
      994 -1    0    0    0    0 -0.0000000000e+00 -0.0000000000e+00 +0.0000000000e+00 1.3100000000e+02 1.3100000000e+02 0.0000e+00 0.0000e+00
       13  1    1    2    0    0 -9.1006831565e+00 -1.2869141329e+01 +6.3758245361e+01 6.5677715003e+01 1.0566000000e-01 0.0000e+00 1.0000e+00
      994  1    1    2    0    0 +5.0798877829e+00 +4.7903723069e+00 +2.3352081855e+00 1.3120673048e+02 1.3100000000e+02 0.0000e+00 0.0000e+00
      997  1    1    2    0    0 +4.0207953736e+00 +8.0787690217e+00 +4.3390653529e+02 4.3411555451e+02 1.0000000000e+01 0.0000e+00 0.0000e+00
</event>
<event>
 5      1 +4.4770400e-06 2.12785800e+02 7.95774700e-02 4.81956200e-01
       13 -1    0    0    0    0 +0.0000000000e+00 +0.0000000000e+00 +4.9999998884e+02 5.0000000000e+02 1.0566000000e-01 0.0000e+00 -1.0000e+00
      994 -1    0    0    0    0 -0.0000000000e+00 -0.0000000000e+00 +0.0000000000e+00 1.3100000000e+02 1.3100000000e+02 0.0000e+00 0.0000e+00
       13  1    1    2    0    0 -1.5101391717e+01 -8.0985439000e+00 +9.8095038132e+01 9.9580550889e+01 1.0566000000e-01 0.0000e+00 1.0000e+00
      994  1    1    2    0    0 +1.5695037064e+01 -3.4093388385e+00 +2.7873476426e+00 1.3201032947e+02 1.3100000000e+02 0.0000e+00 0.0000e+00
      997  1    1    2    0    0 -5.9364534686e-01 +1.1507882739e+01 +3.9911760306e+02 3.9940911964e+02 1.0000000000e+01 0.0000e+00 0.0000e+00
</event>
<event>
 5      1 +4.4770400e-06 2.04043200e+02 7.95774700e-02 4.96614600e-01
       13 -1    0    0    0    0 +0.0000000000e+00 +0.0000000000e+00 +4.9999998884e+02 5.0000000000e+02 1.0566000000e-01 0.0000e+00 1.0000e+00
      994 -1    0    0    0    0 -0.0000000000e+00 -0.0000000000e+00 +0.0000000000e+00 1.3100000000e+02 1.3100000000e+02 0.0000e+00 0.0000e+00
       13  1    1    2    0    0 -1.9228440299e+01 -1.0761766653e+01 +2.2875535101e+01 3.1762396132e+01 1.0566000000e-01 0.0000e+00 -1.0000e+00
      994  1    1    2    0    0 +1.9628562355e+01 +1.6219936428e+01 +1.2018348847e+01 1.3399181881e+02 1.3100000000e+02 0.0000e+00 0.0000e+00
      997  1    1    2    0    0 -4.0012205653e-01 -5.4581697750e+00 +4.6510610489e+02 4.6524578506e+02 1.0000000000e+01 0.0000e+00 0.0000e+00
</event>
<event>
 5      1 +4.4770400e-06 2.07367600e+02 7.95774700e-02 4.90855000e-01
       13 -1    0    0    0    0 +0.0000000000e+00 +0.0000000000e+00 +4.9999998884e+02 5.0000000000e+02 1.0566000000e-01 0.0000e+00 -1.0000e+00
      994 -1    0    0    0    0 -0.0000000000e+00 -0.0000000000e+00 +0.0000000000e+00 1.3100000000e+02 1.3100000000e+02 0.0000e+00 0.0000e+00
       13  1    1    2    0    0 +2.7234738547e+01 -1.3955992165e+00 +5.7596057025e+01 6.3725941576e+01 1.0566000000e-01 0.0000e+00 1.0000e+00
      994  1    1    2    0    0 -2.2920497847e+01 +3.9841595846e+01 +1.6850419746e+01 1.3984862755e+02 1.3100000000e+02 0.0000e+00 0.0000e+00
      997  1    1    2    0    0 -4.3142406997e+00 -3.8445996629e+01 +4.2555351206e+02 4.2742543088e+02 1.0000000000e+01 0.0000e+00 0.0000e+00
</event>
<event>
 5      1 +4.4770400e-06 2.13547300e+02 7.95774700e-02 4.80751100e-01
       13 -1    0    0    0    0 +0.0000000000e+00 +0.0000000000e+00 +4.9999998884e+02 5.0000000000e+02 1.0566000000e-01 0.0000e+00 -1.0000e+00
      994 -1    0    0    0    0 -0.0000000000e+00 -0.0000000000e+00 +0.0000000000e+00 1.3100000000e+02 1.3100000000e+02 0.0000e+00 0.0000e+00
       13  1    1    2    0    0 -1.0990906053e+00 -1.0075152240e+01 +5.2037866255e+01 5.3015727678e+01 1.0566000000e-01 0.0000e+00 1.0000e+00
      994  1    1    2    0    0 +1.7252145863e+01 +1.2661839472e+01 +3.1650493400e+00 1.3277415506e+02 1.3100000000e+02 0.0000e+00 0.0000e+00
      997  1    1    2    0    0 -1.6153055258e+01 -2.5866872327e+00 +4.4479707324e+02 4.4521011726e+02 1.0000000000e+01 0.0000e+00 0.0000e+00
</event>
<event>
 5      1 +4.4770400e-06 2.12025600e+02 7.95774700e-02 4.83170000e-01
       13 -1    0    0    0    0 +0.0000000000e+00 +0.0000000000e+00 +4.9999998884e+02 5.0000000000e+02 1.0566000000e-01 0.0000e+00 -1.0000e+00
      994 -1    0    0    0    0 -0.0000000000e+00 -0.0000000000e+00 +0.0000000000e+00 1.3100000000e+02 1.3100000000e+02 0.0000e+00 0.0000e+00
       13  1    1    2    0    0 +1.4252767432e+01 +1.8444577073e+01 +1.0507702611e+02 1.0763148416e+02 1.0566000000e-01 0.0000e+00 1.0000e+00
      994  1    1    2    0    0 -2.9282993714e+01 -9.4835550699e+00 +6.8175764523e+00 1.3474016063e+02 1.3100000000e+02 0.0000e+00 0.0000e+00
      997  1    1    2    0    0 +1.5030226282e+01 -8.9610220032e+00 +3.8810538628e+02 3.8862835521e+02 1.0000000000e+01 0.0000e+00 0.0000e+00
</event>
<event>
 5      1 +4.4770400e-06 2.07097600e+02 7.95774700e-02 4.91313900e-01
       13 -1    0    0    0    0 +0.0000000000e+00 +0.0000000000e+00 +4.9999998884e+02 5.0000000000e+02 1.0566000000e-01 0.0000e+00 -1.0000e+00
      994 -1    0    0    0    0 -0.0000000000e+00 -0.0000000000e+00 +0.0000000000e+00 1.3100000000e+02 1.3100000000e+02 0.0000e+00 0.0000e+00
       13  1    1    2    0    0 +2.1791441085e+01 +1.2424734873e+01 +5.1853916772e+01 5.7602784567e+01 1.0566000000e-01 0.0000e+00 1.0000e+00
      994  1    1    2    0    0 -7.1839549868e+00 -1.0799734159e+01 +6.9296850212e+00 1.3182285083e+02 1.3100000000e+02 0.0000e+00 0.0000e+00
      997  1    1    2    0    0 -1.4607486098e+01 -1.6250007136e+00 +4.4121638704e+02 4.4157436460e+02 1.0000000000e+01 0.0000e+00 0.0000e+00
</event>
<event>
 5      1 +4.4770400e-06 2.08796100e+02 7.95774700e-02 4.88451800e-01
       13 -1    0    0    0    0 +0.0000000000e+00 +0.0000000000e+00 +4.9999998884e+02 5.0000000000e+02 1.0566000000e-01 0.0000e+00 -1.0000e+00
      994 -1    0    0    0    0 -0.0000000000e+00 -0.0000000000e+00 +0.0000000000e+00 1.3100000000e+02 1.3100000000e+02 0.0000e+00 0.0000e+00
       13  1    1    2    0    0 -1.8687311943e+01 -6.9236540588e+00 +5.8993737816e+01 6.2268972039e+01 1.0566000000e-01 0.0000e+00 1.0000e+00
      994  1    1    2    0    0 -2.0378065412e+01 +1.0671804382e+01 +7.3706898089e+00 1.3320840824e+02 1.3100000000e+02 0.0000e+00 0.0000e+00
      997  1    1    2    0    0 +3.9065377354e+01 -3.7481503237e+00 +4.3363556121e+02 4.3552261972e+02 1.0000000000e+01 0.0000e+00 0.0000e+00
</event>
<event>
 5      1 +4.4770400e-06 2.13025500e+02 7.95774700e-02 4.81575600e-01
       13 -1    0    0    0    0 +0.0000000000e+00 +0.0000000000e+00 +4.9999998884e+02 5.0000000000e+02 1.0566000000e-01 0.0000e+00 -1.0000e+00
      994 -1    0    0    0    0 -0.0000000000e+00 -0.0000000000e+00 +0.0000000000e+00 1.3100000000e+02 1.3100000000e+02 0.0000e+00 0.0000e+00
       13  1    1    2    0    0 +1.3358325776e+00 -1.3362870351e+01 +6.8890701638e+01 7.0187539413e+01 1.0566000000e-01 0.0000e+00 1.0000e+00
      994  1    1    2    0    0 -2.9544164503e+00 +9.6350502048e+00 +1.8323667038e+00 1.3139984907e+02 1.3100000000e+02 0.0000e+00 0.0000e+00
      997  1    1    2    0    0 +1.6185838727e+00 +3.7278201466e+00 +4.2927692049e+02 4.2941261151e+02 1.0000000000e+01 0.0000e+00 0.0000e+00
</event>
<event>
 5      1 +4.4770400e-06 2.11788800e+02 7.95774700e-02 4.83550400e-01
       13 -1    0    0    0    0 +0.0000000000e+00 +0.0000000000e+00 +4.9999998884e+02 5.0000000000e+02 1.0566000000e-01 0.0000e+00 -1.0000e+00
      994 -1    0    0    0    0 -0.0000000000e+00 -0.0000000000e+00 +0.0000000000e+00 1.3100000000e+02 1.3100000000e+02 0.0000e+00 0.0000e+00
       13  1    1    2    0    0 +9.1905884504e+00 -1.5415680415e+01 +8.4144556706e+01 8.6037362268e+01 1.0566000000e-01 0.0000e+00 1.0000e+00
      994  1    1    2    0    0 -9.3129887559e+00 -1.9295855254e+00 +2.7513138134e+00 1.3137360765e+02 1.3100000000e+02 0.0000e+00 0.0000e+00
      997  1    1    2    0    0 +1.2240030551e-01 +1.7345265940e+01 +4.1310411832e+02 4.1358903008e+02 1.0000000000e+01 0.0000e+00 0.0000e+00
</event>
<event>
 5      1 +4.4770400e-06 2.12748900e+02 7.95774700e-02 4.82014900e-01
       13 -1    0    0    0    0 +0.0000000000e+00 +0.0000000000e+00 +4.9999998884e+02 5.0000000000e+02 1.0566000000e-01 0.0000e+00 -1.0000e+00
      994 -1    0    0    0    0 -0.0000000000e+00 -0.0000000000e+00 +0.0000000000e+00 1.3100000000e+02 1.3100000000e+02 0.0000e+00 0.0000e+00
       13  1    1    2    0    0 -1.0149001130e+01 -2.8779106060e+01 +1.7135389108e+02 1.7405001098e+02 1.0566000000e-01 0.0000e+00 1.0000e+00
      994  1    1    2    0    0 +1.4958144611e+01 +3.3439463923e+01 +8.1941424435e+00 1.3627210943e+02 1.3100000000e+02 0.0000e+00 0.0000e+00
      997  1    1    2    0    0 -4.8091434812e+00 -4.6603578637e+00 +3.2045195531e+02 3.2067787959e+02 1.0000000000e+01 0.0000e+00 0.0000e+00
</event>
<event>
 5      1 +4.4770400e-06 2.13221100e+02 7.95774700e-02 4.81266100e-01
       13 -1    0    0    0    0 +0.0000000000e+00 +0.0000000000e+00 +4.9999998884e+02 5.0000000000e+02 1.0566000000e-01 0.0000e+00 1.0000e+00
      994 -1    0    0    0    0 -0.0000000000e+00 -0.0000000000e+00 +0.0000000000e+00 1.3100000000e+02 1.3100000000e+02 0.0000e+00 0.0000e+00
       13  1    1    2    0    0 +1.4144818621e+01 -1.0694614891e+00 +8.1400659594e+01 8.2627466306e+01 1.0566000000e-01 0.0000e+00 -1.0000e+00
      994  1    1    2    0    0 -1.4078670693e+01 -7.7728803203e+00 +2.4469486508e+00 1.3200611423e+02 1.3100000000e+02 0.0000e+00 0.0000e+00
      997  1    1    2    0    0 -6.6147928536e-02 +8.8423418094e+00 +4.1615238059e+02 4.1636641946e+02 1.0000000000e+01 0.0000e+00 0.0000e+00
</event>
<event>
 5      1 +4.4770400e-06 2.11706400e+02 7.95774700e-02 4.83683000e-01
       13 -1    0    0    0    0 +0.0000000000e+00 +0.0000000000e+00 +4.9999998884e+02 5.0000000000e+02 1.0566000000e-01 0.0000e+00 -1.0000e+00
      994 -1    0    0    0    0 -0.0000000000e+00 -0.0000000000e+00 +0.0000000000e+00 1.3100000000e+02 1.3100000000e+02 0.0000e+00 0.0000e+00
       13  1    1    2    0    0 -1.4473803828e+01 +6.1132885947e+00 +6.0209075801e+01 6.2225455141e+01 1.0566000000e-01 0.0000e+00 1.0000e+00
      994  1    1    2    0    0 +3.0527414991e+00 +2.5205725087e+00 +2.4475650135e+00 1.3108265748e+02 1.3100000000e+02 0.0000e+00 0.0000e+00
      997  1    1    2    0    0 +1.1421062328e+01 -8.6338611034e+00 +4.3734334802e+02 4.3769188738e+02 1.0000000000e+01 0.0000e+00 0.0000e+00
</event>
<event>
 5      1 +4.4770400e-06 2.07563900e+02 7.95774700e-02 4.90522300e-01
       13 -1    0    0    0    0 +0.0000000000e+00 +0.0000000000e+00 +4.9999998884e+02 5.0000000000e+02 1.0566000000e-01 0.0000e+00 -1.0000e+00
      994 -1    0    0    0    0 -0.0000000000e+00 -0.0000000000e+00 +0.0000000000e+00 1.3100000000e+02 1.3100000000e+02 0.0000e+00 0.0000e+00
       13  1    1    2    0    0 -5.3834731177e+00 -3.1150273151e+01 +7.3499886386e+01 8.0009785420e+01 1.0566000000e-01 0.0000e+00 1.0000e+00
      994  1    1    2    0    0 -3.1031478039e-01 +3.2180862715e+01 +1.1014589806e+01 1.3534410002e+02 1.3100000000e+02 0.0000e+00 0.0000e+00
      997  1    1    2    0    0 +5.6937878981e+00 -1.0305895647e+00 +4.1548551264e+02 4.1564611456e+02 1.0000000000e+01 0.0000e+00 0.0000e+00
</event>
<event>
 5      1 +4.4770400e-06 2.05484800e+02 7.95774700e-02 4.94087600e-01
       13 -1    0    0    0    0 +0.0000000000e+00 +0.0000000000e+00 +4.9999998884e+02 5.0000000000e+02 1.0566000000e-01 0.0000e+00 1.0000e+00
      994 -1    0    0    0    0 -0.0000000000e+00 -0.0000000000e+00 +0.0000000000e+00 1.3100000000e+02 1.3100000000e+02 0.0000e+00 0.0000e+00
       13  1    1    2    0    0 -2.6207985012e+00 +3.0912575144e+01 +5.8785414237e+01 6.6469481553e+01 1.0566000000e-01 0.0000e+00 -1.0000e+00
      994  1    1    2    0    0 -1.3381392846e+01 -2.6176511755e+01 +1.1910128729e+01 1.3478546883e+02 1.3100000000e+02 0.0000e+00 0.0000e+00
      997  1    1    2    0    0 +1.6002191347e+01 -4.7360633896e+00 +4.2930444587e+02 4.2974504961e+02 1.0000000000e+01 0.0000e+00 0.0000e+00
</event>
<event>
 5      1 +4.4770400e-06 2.09157400e+02 7.95774700e-02 4.87850600e-01
       13 -1    0    0    0    0 +0.0000000000e+00 +0.0000000000e+00 +4.9999998884e+02 5.0000000000e+02 1.0566000000e-01 0.0000e+00 -1.0000e+00
      994 -1    0    0    0    0 -0.0000000000e+00 -0.0000000000e+00 +0.0000000000e+00 1.3100000000e+02 1.3100000000e+02 0.0000e+00 0.0000e+00
       13  1    1    2    0    0 +1.0659189516e+01 +3.4422746715e+00 +1.4515216874e+01 1.8334946441e+01 1.0566000000e-01 0.0000e+00 1.0000e+00
      994  1    1    2    0    0 +1.4978293169e+01 -8.4878667713e+00 +5.8928456827e+00 1.3225777398e+02 1.3100000000e+02 0.0000e+00 0.0000e+00
      997  1    1    2    0    0 -2.5637482685e+01 +5.0455920998e+00 +4.7959192628e+02 4.8040727958e+02 1.0000000000e+01 0.0000e+00 0.0000e+00
</event>
<event>
 5      1 +4.4770400e-06 2.12336600e+02 7.95774700e-02 4.82672100e-01
       13 -1    0    0    0    0 +0.0000000000e+00 +0.0000000000e+00 +4.9999998884e+02 5.0000000000e+02 1.0566000000e-01 0.0000e+00 -1.0000e+00
      994 -1    0    0    0    0 -0.0000000000e+00 -0.0000000000e+00 +0.0000000000e+00 1.3100000000e+02 1.3100000000e+02 0.0000e+00 0.0000e+00
       13  1    1    2    0    0 -7.3968855752e+00 -1.5336766666e+01 +7.9830507188e+01 8.1626290924e+01 1.0566000000e-01 0.0000e+00 1.0000e+00
      994  1    1    2    0    0 -1.5356926940e+00 +1.2415886903e+01 +2.6438090395e+00 1.3162257529e+02 1.3100000000e+02 0.0000e+00 0.0000e+00
      997  1    1    2    0    0 +8.9325782692e+00 +2.9208797630e+00 +4.1752567261e+02 4.1775113379e+02 1.0000000000e+01 0.0000e+00 0.0000e+00
</event>
<event>
 5      1 +4.4770400e-06 2.13488800e+02 7.95774700e-02 4.80843300e-01
       13 -1    0    0    0    0 +0.0000000000e+00 +0.0000000000e+00 +4.9999998884e+02 5.0000000000e+02 1.0566000000e-01 0.0000e+00 -1.0000e+00
      994 -1    0    0    0    0 -0.0000000000e+00 -0.0000000000e+00 +0.0000000000e+00 1.3100000000e+02 1.3100000000e+02 0.0000e+00 0.0000e+00
       13  1    1    2    0    0 +3.9801274887e+00 +1.0103162841e+01 +5.6758252163e+01 5.7787763989e+01 1.0566000000e-01 0.0000e+00 1.0000e+00
      994  1    1    2    0    0 -1.0042464792e+01 -1.0452147537e+01 +1.9991984268e+00 1.3181462469e+02 1.3100000000e+02 0.0000e+00 0.0000e+00
      997  1    1    2    0    0 +6.0623373035e+00 +3.4898469691e-01 +4.4124253825e+02 4.4139761132e+02 1.0000000000e+01 0.0000e+00 0.0000e+00
</event>
<event>
 5      1 +4.4770400e-06 2.08025300e+02 7.95774700e-02 4.89743300e-01
       13 -1    0    0    0    0 +0.0000000000e+00 +0.0000000000e+00 +4.9999998884e+02 5.0000000000e+02 1.0566000000e-01 0.0000e+00 -1.0000e+00
      994 -1    0    0    0    0 -0.0000000000e+00 -0.0000000000e+00 +0.0000000000e+00 1.3100000000e+02 1.3100000000e+02 0.0000e+00 0.0000e+00
       13  1    1    2    0    0 -8.5247837246e+00 -2.3283250559e+01 +5.0995106091e+01 5.6703559884e+01 1.0566000000e-01 0.0000e+00 1.0000e+00
      994  1    1    2    0    0 +2.7411701944e+00 +2.4752792762e+01 +8.4777797228e+00 1.3361544638e+02 1.3100000000e+02 0.0000e+00 0.0000e+00
      997  1    1    2    0    0 +5.7836135302e+00 -1.4695422032e+00 +4.4052710302e+02 4.4068099373e+02 1.0000000000e+01 0.0000e+00 0.0000e+00
</event>
<event>
 5      1 +4.4770400e-06 2.11479000e+02 7.95774700e-02 4.84049700e-01
       13 -1    0    0    0    0 +0.0000000000e+00 +0.0000000000e+00 +4.9999998884e+02 5.0000000000e+02 1.0566000000e-01 0.0000e+00 1.0000e+00
      994 -1    0    0    0    0 -0.0000000000e+00 -0.0000000000e+00 +0.0000000000e+00 1.3100000000e+02 1.3100000000e+02 0.0000e+00 0.0000e+00
       13  1    1    2    0    0 -6.1340802611e+00 +9.1629401168e+00 +2.6629083086e+01 2.8821964580e+01 1.0566000000e-01 0.0000e+00 -1.0000e+00
      994  1    1    2    0    0 -7.4340326632e+00 -1.1902116357e-01 +2.8226737663e+00 1.3124117683e+02 1.3100000000e+02 0.0000e+00 0.0000e+00
      997  1    1    2    0    0 +1.3568112924e+01 -9.0439189532e+00 +4.7054823198e+02 4.7093685859e+02 1.0000000000e+01 0.0000e+00 0.0000e+00
</event>
<event>
 5      1 +4.4770400e-06 2.09705000e+02 7.95774700e-02 4.86944500e-01
       13 -1    0    0    0    0 +0.0000000000e+00 +0.0000000000e+00 +4.9999998884e+02 5.0000000000e+02 1.0566000000e-01 0.0000e+00 -1.0000e+00
      994 -1    0    0    0    0 -0.0000000000e+00 -0.0000000000e+00 +0.0000000000e+00 1.3100000000e+02 1.3100000000e+02 0.0000e+00 0.0000e+00
       13  1    1    2    0    0 -1.1612090697e+01 +2.9122077322e+01 +1.6174065960e+02 1.6475129186e+02 1.0566000000e-01 0.0000e+00 1.0000e+00
      994  1    1    2    0    0 -1.4850723313e+01 -1.7049660587e+01 +6.5307486268e+00 1.3309727866e+02 1.3100000000e+02 0.0000e+00 0.0000e+00
      997  1    1    2    0    0 +2.6462814009e+01 -1.2072416735e+01 +3.3172858061e+02 3.3315142948e+02 1.0000000000e+01 0.0000e+00 0.0000e+00
</event>
<event>
 5      1 +4.4770400e-06 2.11303500e+02 7.95774700e-02 4.84333400e-01
       13 -1    0    0    0    0 +0.0000000000e+00 +0.0000000000e+00 +4.9999998884e+02 5.0000000000e+02 1.0566000000e-01 0.0000e+00 -1.0000e+00
      994 -1    0    0    0    0 -0.0000000000e+00 -0.0000000000e+00 +0.0000000000e+00 1.3100000000e+02 1.3100000000e+02 0.0000e+00 0.0000e+00
       13  1    1    2    0    0 -6.0869950189e+00 -1.2557519241e+01 +3.8209425263e+01 4.0678177698e+01 1.0566000000e-01 0.0000e+00 1.0000e+00
      994  1    1    2    0    0 +3.8963148301e-01 +4.5780802936e+00 +2.7926383160e+00 1.3111029502e+02 1.3100000000e+02 0.0000e+00 0.0000e+00
      997  1    1    2    0    0 +5.6973635359e+00 +7.9794389475e+00 +4.5899792526e+02 4.5921152728e+02 1.0000000000e+01 0.0000e+00 0.0000e+00
</event>
<event>
 5      1 +4.4770400e-06 2.09629800e+02 7.95774700e-02 4.87068600e-01
       13 -1    0    0    0    0 +0.0000000000e+00 +0.0000000000e+00 +4.9999998884e+02 5.0000000000e+02 1.0566000000e-01 0.0000e+00 -1.0000e+00
      994 -1    0    0    0    0 -0.0000000000e+00 -0.0000000000e+00 +0.0000000000e+00 1.3100000000e+02 1.3100000000e+02 0.0000e+00 0.0000e+00
       13  1    1    2    0    0 +1.9932344166e+01 -2.4740884283e+01 +1.0644009952e+02 1.1108067180e+02 1.0566000000e-01 0.0000e+00 1.0000e+00
      994  1    1    2    0    0 -1.9692559673e+01 +2.0297043784e+01 +8.0555890290e+00 1.3425967156e+02 1.3100000000e+02 0.0000e+00 0.0000e+00
      997  1    1    2    0    0 -2.3978449318e-01 +4.4438404998e+00 +3.8550430029e+02 3.8565965664e+02 1.0000000000e+01 0.0000e+00 0.0000e+00
</event>
<event>
 5      1 +4.4770400e-06 2.13145100e+02 7.95774700e-02 4.81386300e-01
       13 -1    0    0    0    0 +0.0000000000e+00 +0.0000000000e+00 +4.9999998884e+02 5.0000000000e+02 1.0566000000e-01 0.0000e+00 -1.0000e+00
      994 -1    0    0    0    0 -0.0000000000e+00 -0.0000000000e+00 +0.0000000000e+00 1.3100000000e+02 1.3100000000e+02 0.0000e+00 0.0000e+00
       13  1    1    2    0    0 -7.6095990442e+00 +7.2508065066e+00 +4.9367664441e+01 5.0474326632e+01 1.0566000000e-01 0.0000e+00 1.0000e+00
      994  1    1    2    0    0 +4.0455685447e+00 -2.3083938216e+00 +1.3489556855e+00 1.3108972114e+02 1.3100000000e+02 0.0000e+00 0.0000e+00
      997  1    1    2    0    0 +3.5640304995e+00 -4.9424126850e+00 +4.4928336871e+02 4.4943595223e+02 1.0000000000e+01 0.0000e+00 0.0000e+00
</event>
<event>
 5      1 +4.4770400e-06 2.06021600e+02 7.95774700e-02 4.93158200e-01
       13 -1    0    0    0    0 +0.0000000000e+00 +0.0000000000e+00 +4.9999998884e+02 5.0000000000e+02 1.0566000000e-01 0.0000e+00 1.0000e+00
      994 -1    0    0    0    0 -0.0000000000e+00 -0.0000000000e+00 +0.0000000000e+00 1.3100000000e+02 1.3100000000e+02 0.0000e+00 0.0000e+00
       13  1    1    2    0    0 +1.9885627504e+01 -3.4366879236e+01 +1.9048002784e+02 1.9457433731e+02 1.0566000000e-01 0.0000e+00 -1.0000e+00
      994  1    1    2    0    0 -9.1460354608e+00 -3.9999590712e+00 +7.4664197760e+00 1.3159178189e+02 1.3100000000e+02 0.0000e+00 0.0000e+00
      997  1    1    2    0    0 -1.0739592043e+01 +3.8366838307e+01 +3.0205354122e+02 3.0483388080e+02 1.0000000000e+01 0.0000e+00 0.0000e+00
</event>
<event>
 5      1 +4.4770400e-06 1.96877400e+02 7.95774700e-02 5.09891300e-01
       13 -1    0    0    0    0 +0.0000000000e+00 +0.0000000000e+00 +4.9999998884e+02 5.0000000000e+02 1.0566000000e-01 0.0000e+00 -1.0000e+00
      994 -1    0    0    0    0 -0.0000000000e+00 -0.0000000000e+00 +0.0000000000e+00 1.3100000000e+02 1.3100000000e+02 0.0000e+00 0.0000e+00
       13  1    1    2    0    0 -3.3640392502e+01 -1.8166790330e+01 +7.9331381939e+01 8.8063542985e+01 1.0566000000e-01 0.0000e+00 1.0000e+00
      994  1    1    2    0    0 -4.9980793881e+01 +2.7520480131e+01 +3.3709710862e+01 1.4680872314e+02 1.3100000000e+02 0.0000e+00 0.0000e+00
      997  1    1    2    0    0 +8.3621186383e+01 -9.3536898010e+00 +3.8695889603e+02 3.9612773388e+02 1.0000000000e+01 0.0000e+00 0.0000e+00
</event>
<event>
 5      1 +4.4770400e-06 2.13089200e+02 7.95774700e-02 4.81474700e-01
       13 -1    0    0    0    0 +0.0000000000e+00 +0.0000000000e+00 +4.9999998884e+02 5.0000000000e+02 1.0566000000e-01 0.0000e+00 -1.0000e+00
      994 -1    0    0    0    0 -0.0000000000e+00 -0.0000000000e+00 +0.0000000000e+00 1.3100000000e+02 1.3100000000e+02 0.0000e+00 0.0000e+00
       13  1    1    2    0    0 +4.5431138520e+00 -9.2508966308e+00 +5.2325150783e+01 5.3330587288e+01 1.0566000000e-01 0.0000e+00 1.0000e+00
      994  1    1    2    0    0 -4.4555793834e+00 -4.1186507554e+00 +1.4663119217e+00 1.3114863912e+02 1.3100000000e+02 0.0000e+00 0.0000e+00
      997  1    1    2    0    0 -8.7534468580e-02 +1.3369547386e+01 +4.4620852613e+02 4.4652077360e+02 1.0000000000e+01 0.0000e+00 0.0000e+00
</event>
<event>
 5      1 +4.4770400e-06 2.12905000e+02 7.95774700e-02 4.81766900e-01
       13 -1    0    0    0    0 +0.0000000000e+00 +0.0000000000e+00 +4.9999998884e+02 5.0000000000e+02 1.0566000000e-01 0.0000e+00 -1.0000e+00
      994 -1    0    0    0    0 -0.0000000000e+00 -0.0000000000e+00 +0.0000000000e+00 1.3100000000e+02 1.3100000000e+02 0.0000e+00 0.0000e+00
       13  1    1    2    0    0 +3.8750172117e+00 -1.0360248691e+01 +4.6811232485e+01 4.8100448669e+01 1.0566000000e-01 0.0000e+00 1.0000e+00
      994  1    1    2    0    0 +1.8948689266e+00 +5.7728046581e+00 +1.6107745055e+00 1.3115071634e+02 1.3100000000e+02 0.0000e+00 0.0000e+00
      997  1    1    2    0    0 -5.7698861383e+00 +4.5874440328e+00 +4.5157798185e+02 4.5174883499e+02 1.0000000000e+01 0.0000e+00 0.0000e+00
</event>
<event>
 5      1 +4.4770400e-06 2.12811600e+02 7.95774700e-02 4.81915200e-01
       13 -1    0    0    0    0 +0.0000000000e+00 +0.0000000000e+00 +4.9999998884e+02 5.0000000000e+02 1.0566000000e-01 0.0000e+00 -1.0000e+00
      994 -1    0    0    0    0 -0.0000000000e+00 -0.0000000000e+00 +0.0000000000e+00 1.3100000000e+02 1.3100000000e+02 0.0000e+00 0.0000e+00
       13  1    1    2    0    0 +9.0387125019e+00 +1.1049382924e+01 +6.9041415267e+01 7.0501882051e+01 1.0566000000e-01 0.0000e+00 1.0000e+00
      994  1    1    2    0    0 -6.9416021016e+00 -7.3320644242e+00 +2.0020073595e+00 1.3140377864e+02 1.3100000000e+02 0.0000e+00 0.0000e+00
      997  1    1    2    0    0 -2.0971104003e+00 -3.7173185002e+00 +4.2895656621e+02 4.2909433930e+02 1.0000000000e+01 0.0000e+00 0.0000e+00
</event>
<event>
 5      1 +4.4770400e-06 2.08627900e+02 7.95774700e-02 4.88732600e-01
       13 -1    0    0    0    0 +0.0000000000e+00 +0.0000000000e+00 +4.9999998884e+02 5.0000000000e+02 1.0566000000e-01 0.0000e+00 -1.0000e+00
      994 -1    0    0    0    0 -0.0000000000e+00 -0.0000000000e+00 +0.0000000000e+00 1.3100000000e+02 1.3100000000e+02 0.0000e+00 0.0000e+00
       13  1    1    2    0    0 -4.9311229840e+01 -1.5551272460e+01 +2.6086972369e+02 2.6594447421e+02 1.0566000000e-01 0.0000e+00 1.0000e+00
      994  1    1    2    0    0 +2.9514838680e+01 +2.9722570582e+01 +1.3834819391e+01 1.3822792457e+02 1.3100000000e+02 0.0000e+00 0.0000e+00
      997  1    1    2    0    0 +1.9796391160e+01 -1.4171298122e+01 +2.2529544576e+02 2.2682760121e+02 1.0000000000e+01 0.0000e+00 0.0000e+00
</event>
<event>
 5      1 +4.4770400e-06 2.09745700e+02 7.95774700e-02 4.86877500e-01
       13 -1    0    0    0    0 +0.0000000000e+00 +0.0000000000e+00 +4.9999998884e+02 5.0000000000e+02 1.0566000000e-01 0.0000e+00 -1.0000e+00
      994 -1    0    0    0    0 -0.0000000000e+00 -0.0000000000e+00 +0.0000000000e+00 1.3100000000e+02 1.3100000000e+02 0.0000e+00 0.0000e+00
       13  1    1    2    0    0 -5.9530441007e+00 +3.5243549616e+01 +1.2453632792e+02 1.2956409479e+02 1.0566000000e-01 0.0000e+00 1.0000e+00
      994  1    1    2    0    0 +7.2987550626e+00 -3.4401935851e+01 +1.0188541869e+01 1.3602048155e+02 1.3100000000e+02 0.0000e+00 0.0000e+00
      997  1    1    2    0    0 -1.3457109619e+00 -8.4161376443e-01 +3.6527511905e+02 3.6541542366e+02 1.0000000000e+01 0.0000e+00 0.0000e+00
</event>
<event>
 5      1 +4.4770400e-06 2.10424300e+02 7.95774700e-02 4.85763400e-01
       13 -1    0    0    0    0 +0.0000000000e+00 +0.0000000000e+00 +4.9999998884e+02 5.0000000000e+02 1.0566000000e-01 0.0000e+00 1.0000e+00
      994 -1    0    0    0    0 -0.0000000000e+00 -0.0000000000e+00 +0.0000000000e+00 1.3100000000e+02 1.3100000000e+02 0.0000e+00 0.0000e+00
       13  1    1    2    0    0 +2.3319217372e+00 -2.7413802648e+01 +1.1317991890e+02 1.1647600457e+02 1.0566000000e-01 0.0000e+00 -1.0000e+00
      994  1    1    2    0    0 +4.0511857407e+00 +1.6423808806e+01 +4.8135781374e+00 1.3217535374e+02 1.3100000000e+02 0.0000e+00 0.0000e+00
      997  1    1    2    0    0 -6.3831074780e+00 +1.0989993842e+01 +3.8200649180e+02 3.8234864169e+02 1.0000000000e+01 0.0000e+00 0.0000e+00
</event>
<event>
 5      1 +4.4770400e-06 2.12752300e+02 7.95774700e-02 4.82009400e-01
       13 -1    0    0    0    0 +0.0000000000e+00 +0.0000000000e+00 +4.9999998884e+02 5.0000000000e+02 1.0566000000e-01 0.0000e+00 -1.0000e+00
      994 -1    0    0    0    0 -0.0000000000e+00 -0.0000000000e+00 +0.0000000000e+00 1.3100000000e+02 1.3100000000e+02 0.0000e+00 0.0000e+00
       13  1    1    2    0    0 +8.0251883470e+00 -1.5344325126e+01 +7.9090880731e+01 8.0964378219e+01 1.0566000000e-01 0.0000e+00 1.0000e+00
      994  1    1    2    0    0 -9.8953230843e+00 +1.9176852967e+01 +3.8360193025e+00 1.3282087243e+02 1.3100000000e+02 0.0000e+00 0.0000e+00
      997  1    1    2    0    0 +1.8701347373e+00 -3.8325278404e+00 +4.1707308880e+02 4.1721474935e+02 1.0000000000e+01 0.0000e+00 0.0000e+00
</event>
<event>
 5      1 +4.4770400e-06 2.05031900e+02 7.95774700e-02 4.94876500e-01
       13 -1    0    0    0    0 +0.0000000000e+00 +0.0000000000e+00 +4.9999998884e+02 5.0000000000e+02 1.0566000000e-01 0.0000e+00 1.0000e+00
      994 -1    0    0    0    0 -0.0000000000e+00 -0.0000000000e+00 +0.0000000000e+00 1.3100000000e+02 1.3100000000e+02 0.0000e+00 0.0000e+00
       13  1    1    2    0    0 +4.4982962199e+00 -1.1722444421e+01 +6.1841832472e+00 1.3996630257e+01 1.0566000000e-01 0.0000e+00 -1.0000e+00
      994  1    1    2    0    0 -2.9887300223e+01 +8.6121655225e+00 +1.2849498256e+01 1.3525357561e+02 1.3100000000e+02 0.0000e+00 0.0000e+00
      997  1    1    2    0    0 +2.5389004003e+01 +3.1102788981e+00 +4.8096630733e+02 4.8174979413e+02 1.0000000000e+01 0.0000e+00 0.0000e+00
</event>
<event>
 5      1 +4.4770400e-06 2.10174200e+02 7.95774700e-02 4.86172900e-01
       13 -1    0    0    0    0 +0.0000000000e+00 +0.0000000000e+00 +4.9999998884e+02 5.0000000000e+02 1.0566000000e-01 0.0000e+00 1.0000e+00
      994 -1    0    0    0    0 -0.0000000000e+00 -0.0000000000e+00 +0.0000000000e+00 1.3100000000e+02 1.3100000000e+02 0.0000e+00 0.0000e+00
       13  1    1    2    0    0 -1.4478688719e+01 +1.4298695344e+01 +6.2438560455e+01 6.5670922876e+01 1.0566000000e-01 0.0000e+00 -1.0000e+00
      994  1    1    2    0    0 +4.8565866199e+00 -3.9927838808e+00 +3.7819292043e+00 1.3120530380e+02 1.3100000000e+02 0.0000e+00 0.0000e+00
      997  1    1    2    0    0 +9.6221020992e+00 -1.0305911463e+01 +4.3377949918e+02 4.3412377332e+02 1.0000000000e+01 0.0000e+00 0.0000e+00
</event>
<event>
 5      1 +4.4770400e-06 2.10798400e+02 7.95774700e-02 4.85152900e-01
       13 -1    0    0    0    0 +0.0000000000e+00 +0.0000000000e+00 +4.9999998884e+02 5.0000000000e+02 1.0566000000e-01 0.0000e+00 -1.0000e+00
      994 -1    0    0    0    0 -0.0000000000e+00 -0.0000000000e+00 +0.0000000000e+00 1.3100000000e+02 1.3100000000e+02 0.0000e+00 0.0000e+00
       13  1    1    2    0    0 +1.3204435842e+01 -4.2569018326e+00 +2.9089185492e+01 3.2228406969e+01 1.0566000000e-01 0.0000e+00 1.0000e+00
      994  1    1    2    0    0 -1.9052874548e+01 -1.2931592375e+01 +5.7326884758e+00 1.3313189635e+02 1.3100000000e+02 0.0000e+00 0.0000e+00
      997  1    1    2    0    0 +5.8484387057e+00 +1.7188494208e+01 +4.6517811487e+02 4.6563969668e+02 1.0000000000e+01 0.0000e+00 0.0000e+00
</event>
<event>
 5      1 +4.4770400e-06 2.03087200e+02 7.95774700e-02 4.98315700e-01
       13 -1    0    0    0    0 +0.0000000000e+00 +0.0000000000e+00 +4.9999998884e+02 5.0000000000e+02 1.0566000000e-01 0.0000e+00 1.0000e+00
      994 -1    0    0    0    0 -0.0000000000e+00 -0.0000000000e+00 +0.0000000000e+00 1.3100000000e+02 1.3100000000e+02 0.0000e+00 0.0000e+00
       13  1    1    2    0    0 +1.8395111894e+01 -5.7113671406e-01 +1.3280039488e+01 2.2695306818e+01 1.0566000000e-01 0.0000e+00 -1.0000e+00
      994  1    1    2    0    0 -2.0502490840e+01 -4.5171935381e+00 +1.1742705731e+01 1.3319027106e+02 1.3100000000e+02 0.0000e+00 0.0000e+00
      997  1    1    2    0    0 +2.1073789460e+00 +5.0883302522e+00 +4.7497724362e+02 4.7511442212e+02 1.0000000000e+01 0.0000e+00 0.0000e+00
</event>
<event>
 5      1 +4.4770400e-06 2.10298900e+02 7.95774700e-02 4.85968500e-01
       13 -1    0    0    0    0 +0.0000000000e+00 +0.0000000000e+00 +4.9999998884e+02 5.0000000000e+02 1.0566000000e-01 0.0000e+00 1.0000e+00
      994 -1    0    0    0    0 -0.0000000000e+00 -0.0000000000e+00 +0.0000000000e+00 1.3100000000e+02 1.3100000000e+02 0.0000e+00 0.0000e+00
       13  1    1    2    0    0 +2.4172212859e+01 +9.4308118298e+00 +1.1558349175e+02 1.1846008110e+02 1.0566000000e-01 0.0000e+00 -1.0000e+00
      994  1    1    2    0    0 -4.4179970670e+00 -7.8759133462e+00 +3.8919031185e+00 1.3136854882e+02 1.3100000000e+02 0.0000e+00 0.0000e+00
      997  1    1    2    0    0 -1.9754215792e+01 -1.5548984837e+00 +3.8052459397e+02 3.8117137008e+02 1.0000000000e+01 0.0000e+00 0.0000e+00
</event>
<event>
 5      1 +4.4770400e-06 2.02989000e+02 7.95774700e-02 4.98491700e-01
       13 -1    0    0    0    0 +0.0000000000e+00 +0.0000000000e+00 +4.9999998884e+02 5.0000000000e+02 1.0566000000e-01 0.0000e+00 1.0000e+00
      994 -1    0    0    0    0 -0.0000000000e+00 -0.0000000000e+00 +0.0000000000e+00 1.3100000000e+02 1.3100000000e+02 0.0000e+00 0.0000e+00
       13  1    1    2    0    0 +1.3507450611e+01 -3.0922041834e+01 +6.2155449423e+01 7.0724358959e+01 1.0566000000e-01 0.0000e+00 -1.0000e+00
      994  1    1    2    0    0 -1.7806721101e+01 +4.6313701741e+00 +1.1283019113e+01 1.3276609291e+02 1.3100000000e+02 0.0000e+00 0.0000e+00
      997  1    1    2    0    0 +4.2992704903e+00 +2.6290671660e+01 +4.2656152030e+02 4.2750954813e+02 1.0000000000e+01 0.0000e+00 0.0000e+00
</event>
<event>
 5      1 +4.4770400e-06 2.12809600e+02 7.95774700e-02 4.81918300e-01
       13 -1    0    0    0    0 +0.0000000000e+00 +0.0000000000e+00 +4.9999998884e+02 5.0000000000e+02 1.0566000000e-01 0.0000e+00 -1.0000e+00
      994 -1    0    0    0    0 -0.0000000000e+00 -0.0000000000e+00 +0.0000000000e+00 1.3100000000e+02 1.3100000000e+02 0.0000e+00 0.0000e+00
       13  1    1    2    0    0 +5.1319921785e+00 +1.1658572065e+01 +5.9389731344e+01 6.0740521890e+01 1.0566000000e-01 0.0000e+00 1.0000e+00
      994  1    1    2    0    0 -4.9251528820e-01 -5.7064612085e+00 +1.6652553433e+00 1.3113572872e+02 1.3100000000e+02 0.0000e+00 0.0000e+00
      997  1    1    2    0    0 -4.6394768903e+00 -5.9521108568e+00 +4.3894500215e+02 4.3912374939e+02 1.0000000000e+01 0.0000e+00 0.0000e+00
</event>
<event>
 5      1 +4.4770400e-06 2.12220100e+02 7.95774700e-02 4.82858400e-01
       13 -1    0    0    0    0 +0.0000000000e+00 +0.0000000000e+00 +4.9999998884e+02 5.0000000000e+02 1.0566000000e-01 0.0000e+00 1.0000e+00
      994 -1    0    0    0    0 -0.0000000000e+00 -0.0000000000e+00 +0.0000000000e+00 1.3100000000e+02 1.3100000000e+02 0.0000e+00 0.0000e+00
       13  1    1    2    0    0 +6.3586733036e+00 +8.9349205316e+00 +2.9231644316e+01 3.1221238357e+01 1.0566000000e-01 0.0000e+00 -1.0000e+00
      994  1    1    2    0    0 -2.1831606642e+00 -1.3206145151e+01 +2.8473951230e+00 1.3171285480e+02 1.3100000000e+02 0.0000e+00 0.0000e+00
      997  1    1    2    0    0 -4.1755126393e+00 +4.2712246191e+00 +4.6792094940e+02 4.6806590684e+02 1.0000000000e+01 0.0000e+00 0.0000e+00
</event>
<event>
 5      1 +4.4770400e-06 2.02537800e+02 7.95774700e-02 4.99302800e-01
       13 -1    0    0    0    0 +0.0000000000e+00 +0.0000000000e+00 +4.9999998884e+02 5.0000000000e+02 1.0566000000e-01 0.0000e+00 1.0000e+00
      994 -1    0    0    0    0 -0.0000000000e+00 -0.0000000000e+00 +0.0000000000e+00 1.3100000000e+02 1.3100000000e+02 0.0000e+00 0.0000e+00
       13  1    1    2    0    0 -1.2748079224e+01 +1.7610157880e+00 +4.0152091115e+00 1.3481386010e+01 1.0566000000e-01 0.0000e+00 -1.0000e+00
      994  1    1    2    0    0 +8.0539873544e+00 -6.0568054436e+00 +1.0409555751e+01 1.3179874982e+02 1.3100000000e+02 0.0000e+00 0.0000e+00
      997  1    1    2    0    0 +4.6940918699e+00 +4.2957896555e+00 +4.8557522397e+02 4.8571986416e+02 1.0000000000e+01 0.0000e+00 0.0000e+00
</event>
<event>
 5      1 +4.4770400e-06 2.13033500e+02 7.95774700e-02 4.81563000e-01
       13 -1    0    0    0    0 +0.0000000000e+00 +0.0000000000e+00 +4.9999998884e+02 5.0000000000e+02 1.0566000000e-01 0.0000e+00 1.0000e+00
      994 -1    0    0    0    0 -0.0000000000e+00 -0.0000000000e+00 +0.0000000000e+00 1.3100000000e+02 1.3100000000e+02 0.0000e+00 0.0000e+00
       13  1    1    2    0    0 -5.2207502417e+00 +8.9801923165e+00 +5.1270915460e+01 5.2312694666e+01 1.0566000000e-01 0.0000e+00 -1.0000e+00
      994  1    1    2    0    0 -4.3725285543e+00 -1.8415021853e-01 +1.4236180219e+00 1.3108081326e+02 1.3100000000e+02 0.0000e+00 0.0000e+00
      997  1    1    2    0    0 +9.5932787960e+00 -8.7960420980e+00 +4.4730545535e+02 4.4760649207e+02 1.0000000000e+01 0.0000e+00 0.0000e+00
</event>
<event>
 5      1 +4.4770400e-06 2.03520600e+02 7.95774700e-02 4.97542000e-01
       13 -1    0    0    0    0 +0.0000000000e+00 +0.0000000000e+00 +4.9999998884e+02 5.0000000000e+02 1.0566000000e-01 0.0000e+00 1.0000e+00
      994 -1    0    0    0    0 -0.0000000000e+00 -0.0000000000e+00 +0.0000000000e+00 1.3100000000e+02 1.3100000000e+02 0.0000e+00 0.0000e+00
       13  1    1    2    0    0 -2.1258875578e+01 +1.8811427362e+01 +6.2879000364e+01 6.8989777801e+01 1.0566000000e-01 0.0000e+00 -1.0000e+00
      994  1    1    2    0    0 -7.3663832730e+00 +2.5658413624e+01 +1.2816063375e+01 1.3430513495e+02 1.3100000000e+02 0.0000e+00 0.0000e+00
      997  1    1    2    0    0 +2.8625258851e+01 -4.4469840985e+01 +4.2430492510e+02 4.2770508725e+02 1.0000000000e+01 0.0000e+00 0.0000e+00
</event>
<event>
 5      1 +4.4770400e-06 2.12348600e+02 7.95774700e-02 4.82652900e-01
       13 -1    0    0    0    0 +0.0000000000e+00 +0.0000000000e+00 +4.9999998884e+02 5.0000000000e+02 1.0566000000e-01 0.0000e+00 1.0000e+00
      994 -1    0    0    0    0 -0.0000000000e+00 -0.0000000000e+00 +0.0000000000e+00 1.3100000000e+02 1.3100000000e+02 0.0000e+00 0.0000e+00
       13  1    1    2    0    0 +1.5416858594e+01 -2.3624016023e-01 +6.5798086748e+01 6.7580579474e+01 1.0566000000e-01 0.0000e+00 -1.0000e+00
      994  1    1    2    0    0 -9.9333028024e+00 -1.0107225826e+01 +2.8523318178e+00 1.3179515285e+02 1.3100000000e+02 0.0000e+00 0.0000e+00
      997  1    1    2    0    0 -5.4835557920e+00 +1.0343465987e+01 +4.3134957027e+02 4.3162426767e+02 1.0000000000e+01 0.0000e+00 0.0000e+00
</event>
<event>
 5      1 +4.4770400e-06 2.13241000e+02 7.95774700e-02 4.81234500e-01
       13 -1    0    0    0    0 +0.0000000000e+00 +0.0000000000e+00 +4.9999998884e+02 5.0000000000e+02 1.0566000000e-01 0.0000e+00 1.0000e+00
      994 -1    0    0    0    0 -0.0000000000e+00 -0.0000000000e+00 +0.0000000000e+00 1.3100000000e+02 1.3100000000e+02 0.0000e+00 0.0000e+00
       13  1    1    2    0    0 +1.1548917836e+01 -1.0162249453e+01 +8.0234420810e+01 8.1695913385e+01 1.0566000000e-01 0.0000e+00 -1.0000e+00
      994  1    1    2    0    0 -1.2777922627e+01 +1.7943488646e+01 +3.5425059131e+00 1.3288639298e+02 1.3100000000e+02 0.0000e+00 0.0000e+00
      997  1    1    2    0    0 +1.2290047915e+00 -7.7812391934e+00 +4.1622306211e+02 4.1641769363e+02 1.0000000000e+01 0.0000e+00 0.0000e+00
</event>
<event>
 5      1 +4.4770400e-06 2.11734500e+02 7.95774700e-02 4.83637800e-01
       13 -1    0    0    0    0 +0.0000000000e+00 +0.0000000000e+00 +4.9999998884e+02 5.0000000000e+02 1.0566000000e-01 0.0000e+00 1.0000e+00
      994 -1    0    0    0    0 -0.0000000000e+00 -0.0000000000e+00 +0.0000000000e+00 1.3100000000e+02 1.3100000000e+02 0.0000e+00 0.0000e+00
       13  1    1    2    0    0 +1.5387589953e+01 -1.1536196943e+01 +6.9061545292e+01 7.1689399262e+01 1.0566000000e-01 0.0000e+00 -1.0000e+00
      994  1    1    2    0    0 -1.2125008972e+01 +1.7796817093e+01 +4.6429270956e+00 1.3283937411e+02 1.3100000000e+02 0.0000e+00 0.0000e+00
      997  1    1    2    0    0 -3.2625809809e+00 -6.2606201500e+00 +4.2629551645e+02 4.2647122663e+02 1.0000000000e+01 0.0000e+00 0.0000e+00
</event>
<event>
 5      1 +4.4770400e-06 1.89839100e+02 7.95774700e-02 5.24228400e-01
       13 -1    0    0    0    0 +0.0000000000e+00 +0.0000000000e+00 +4.9999998884e+02 5.0000000000e+02 1.0566000000e-01 0.0000e+00 1.0000e+00
      994 -1    0    0    0    0 -0.0000000000e+00 -0.0000000000e+00 +0.0000000000e+00 1.3100000000e+02 1.3100000000e+02 0.0000e+00 0.0000e+00
       13  1    1    2    0    0 -3.8869055720e+01 +8.9656869762e+01 +2.9524557586e+02 3.1099697590e+02 1.0566000000e-01 0.0000e+00 -1.0000e+00
      994  1    1    2    0    0 +4.9134473601e+01 -7.5552482279e+01 +5.4019614971e+01 1.6793300115e+02 1.3100000000e+02 0.0000e+00 0.0000e+00
      997  1    1    2    0    0 -1.0265417881e+01 -1.4104387483e+01 +1.5073479800e+02 1.5207002295e+02 1.0000000000e+01 0.0000e+00 0.0000e+00
</event>
<event>
 5      1 +4.4770400e-06 2.11956200e+02 7.95774700e-02 4.83281500e-01
       13 -1    0    0    0    0 +0.0000000000e+00 +0.0000000000e+00 +4.9999998884e+02 5.0000000000e+02 1.0566000000e-01 0.0000e+00 1.0000e+00
      994 -1    0    0    0    0 -0.0000000000e+00 -0.0000000000e+00 +0.0000000000e+00 1.3100000000e+02 1.3100000000e+02 0.0000e+00 0.0000e+00
       13  1    1    2    0    0 -1.2530884006e+01 -2.3409029573e+00 +5.0427071076e+01 5.2013493845e+01 1.0566000000e-01 0.0000e+00 -1.0000e+00
      994  1    1    2    0    0 -6.8831622297e+00 -1.2170987681e+01 +3.1371952799e+00 1.3178145870e+02 1.3100000000e+02 0.0000e+00 0.0000e+00
      997  1    1    2    0    0 +1.9414046236e+01 +1.4511890638e+01 +4.4643572248e+02 4.4720504745e+02 1.0000000000e+01 0.0000e+00 0.0000e+00
</event>
<event>
 5      1 +4.4770400e-06 2.00236200e+02 7.95774700e-02 5.03514300e-01
       13 -1    0    0    0    0 +0.0000000000e+00 +0.0000000000e+00 +4.9999998884e+02 5.0000000000e+02 1.0566000000e-01 0.0000e+00 1.0000e+00
      994 -1    0    0    0    0 -0.0000000000e+00 -0.0000000000e+00 +0.0000000000e+00 1.3100000000e+02 1.3100000000e+02 0.0000e+00 0.0000e+00
       13  1    1    2    0    0 +1.1179736782e+01 -1.1197094848e+01 +6.6859662432e+00 1.7177740136e+01 1.0566000000e-01 0.0000e+00 -1.0000e+00
      994  1    1    2    0    0 +1.0917986640e+01 -9.5224949618e+00 +1.2986805114e+01 1.3243691876e+02 1.3100000000e+02 0.0000e+00 0.0000e+00
      997  1    1    2    0    0 -2.2097723421e+01 +2.0719589810e+01 +4.8032721748e+02 4.8138534111e+02 1.0000000000e+01 0.0000e+00 0.0000e+00
</event>
<event>
 5      1 +4.4770400e-06 1.49735200e+02 7.95774700e-02 6.44912600e-01
       13 -1    0    0    0    0 +0.0000000000e+00 +0.0000000000e+00 +4.9999998884e+02 5.0000000000e+02 1.0566000000e-01 0.0000e+00 -1.0000e+00
      994 -1    0    0    0    0 -0.0000000000e+00 -0.0000000000e+00 +0.0000000000e+00 1.3100000000e+02 1.3100000000e+02 0.0000e+00 0.0000e+00
       13  1    1    2    0    0 +7.3332128058e+01 +9.9974746470e+00 +4.6959588634e+01 8.7651381242e+01 1.0566000000e-01 0.0000e+00 1.0000e+00
      994  1    1    2    0    0 -6.3770295229e+01 -3.3701572497e+01 +8.0568398587e+01 1.6986675188e+02 1.3100000000e+02 0.0000e+00 0.0000e+00
      997  1    1    2    0    0 -9.5618328289e+00 +2.3704097850e+01 +3.7247200162e+02 3.7348186688e+02 1.0000000000e+01 0.0000e+00 0.0000e+00
</event>
<event>
 5      1 +4.4770400e-06 2.06719200e+02 7.95774700e-02 4.91959800e-01
       13 -1    0    0    0    0 +0.0000000000e+00 +0.0000000000e+00 +4.9999998884e+02 5.0000000000e+02 1.0566000000e-01 0.0000e+00 -1.0000e+00
      994 -1    0    0    0    0 -0.0000000000e+00 -0.0000000000e+00 +0.0000000000e+00 1.3100000000e+02 1.3100000000e+02 0.0000e+00 0.0000e+00
       13  1    1    2    0    0 +7.3600959561e-01 -1.8762018605e+01 +2.2904576911e+01 2.9617323643e+01 1.0566000000e-01 0.0000e+00 1.0000e+00
      994  1    1    2    0    0 -6.1350439338e+00 +2.3998528081e+01 +9.5425057666e+00 1.3366236393e+02 1.3100000000e+02 0.0000e+00 0.0000e+00
      997  1    1    2    0    0 +5.3990343382e+00 -5.2365094763e+00 +4.6755290616e+02 4.6772031243e+02 1.0000000000e+01 0.0000e+00 0.0000e+00
</event>
<event>
 5      1 +4.4770400e-06 2.10848500e+02 7.95774700e-02 4.85071600e-01
       13 -1    0    0    0    0 +0.0000000000e+00 +0.0000000000e+00 +4.9999998884e+02 5.0000000000e+02 1.0566000000e-01 0.0000e+00 -1.0000e+00
      994 -1    0    0    0    0 -0.0000000000e+00 -0.0000000000e+00 +0.0000000000e+00 1.3100000000e+02 1.3100000000e+02 0.0000e+00 0.0000e+00
       13  1    1    2    0    0 -1.8028536631e+01 -1.3877323130e+01 +1.2747468394e+02 1.2948905143e+02 1.0566000000e-01 0.0000e+00 1.0000e+00
      994  1    1    2    0    0 -4.3222877673e+00 +1.4269530561e+00 +3.1512955487e+00 1.3111692885e+02 1.3100000000e+02 0.0000e+00 0.0000e+00
      997  1    1    2    0    0 +2.2350824399e+01 +1.2450370074e+01 +3.6937400935e+02 3.7039401972e+02 1.0000000000e+01 0.0000e+00 0.0000e+00
</event>
<event>
 5      1 +4.4770400e-06 2.10840400e+02 7.95774700e-02 4.85084700e-01
       13 -1    0    0    0    0 +0.0000000000e+00 +0.0000000000e+00 +4.9999998884e+02 5.0000000000e+02 1.0566000000e-01 0.0000e+00 1.0000e+00
      994 -1    0    0    0    0 -0.0000000000e+00 -0.0000000000e+00 +0.0000000000e+00 1.3100000000e+02 1.3100000000e+02 0.0000e+00 0.0000e+00
       13  1    1    2    0    0 -6.2742525146e+00 +1.7923674432e+01 +6.8482586916e+01 7.1066871498e+01 1.0566000000e-01 0.0000e+00 -1.0000e+00
      994  1    1    2    0    0 +5.0339655524e+00 -7.7116809905e-01 +3.1835875908e+00 1.3113760231e+02 1.3100000000e+02 0.0000e+00 0.0000e+00
      997  1    1    2    0    0 +1.2402869621e+00 -1.7152506333e+01 +4.2833381433e+02 4.2879552619e+02 1.0000000000e+01 0.0000e+00 0.0000e+00
</event>
<event>
 5      1 +4.4770400e-06 2.13347700e+02 7.95774700e-02 4.81065900e-01
       13 -1    0    0    0    0 +0.0000000000e+00 +0.0000000000e+00 +4.9999998884e+02 5.0000000000e+02 1.0566000000e-01 0.0000e+00 -1.0000e+00
      994 -1    0    0    0    0 -0.0000000000e+00 -0.0000000000e+00 +0.0000000000e+00 1.3100000000e+02 1.3100000000e+02 0.0000e+00 0.0000e+00
       13  1    1    2    0    0 +1.5693360076e+00 -1.0386947550e+01 +5.1122022600e+01 5.2190265890e+01 1.0566000000e-01 0.0000e+00 1.0000e+00
      994  1    1    2    0    0 +2.8332749989e-01 +1.0088823477e+01 +1.5816770130e+00 1.3139774098e+02 1.3100000000e+02 0.0000e+00 0.0000e+00
      997  1    1    2    0    0 -1.8526635075e+00 +2.9812407336e-01 +4.4729628922e+02 4.4741199313e+02 1.0000000000e+01 0.0000e+00 0.0000e+00
</event>
<event>
 5      1 +4.4770400e-06 1.96697100e+02 7.95774700e-02 5.10241700e-01
       13 -1    0    0    0    0 +0.0000000000e+00 +0.0000000000e+00 +4.9999998884e+02 5.0000000000e+02 1.0566000000e-01 0.0000e+00 1.0000e+00
      994 -1    0    0    0    0 -0.0000000000e+00 -0.0000000000e+00 +0.0000000000e+00 1.3100000000e+02 1.3100000000e+02 0.0000e+00 0.0000e+00
       13  1    1    2    0    0 -5.9238035135e+01 -7.3369128630e+00 +8.2465447485e+01 1.0180145524e+02 1.0566000000e-01 0.0000e+00 -1.0000e+00
      994  1    1    2    0    0 +1.7996220045e+01 +1.8544487934e+01 +2.7027180721e+01 1.3623226661e+02 1.3100000000e+02 0.0000e+00 0.0000e+00
      997  1    1    2    0    0 +4.1241815090e+01 -1.1207575071e+01 +3.9050736063e+02 3.9296627814e+02 1.0000000000e+01 0.0000e+00 0.0000e+00
</event>
<event>
 5      1 +4.4770400e-06 2.09095700e+02 7.95774700e-02 4.87953200e-01
       13 -1    0    0    0    0 +0.0000000000e+00 +0.0000000000e+00 +4.9999998884e+02 5.0000000000e+02 1.0566000000e-01 0.0000e+00 1.0000e+00
      994 -1    0    0    0    0 -0.0000000000e+00 -0.0000000000e+00 +0.0000000000e+00 1.3100000000e+02 1.3100000000e+02 0.0000e+00 0.0000e+00
       13  1    1    2    0    0 +8.0075126503e+00 +7.3804168472e+00 +1.1684895443e+01 1.5973063489e+01 1.0566000000e-01 0.0000e+00 -1.0000e+00
      994  1    1    2    0    0 -8.9306693467e+00 +4.8629556675e-01 +4.8509715333e+00 1.3139454046e+02 1.3100000000e+02 0.0000e+00 0.0000e+00
      997  1    1    2    0    0 +9.2315669636e-01 -7.8667124140e+00 +4.8346412186e+02 4.8363239605e+02 1.0000000000e+01 0.0000e+00 0.0000e+00
</event>
<event>
 5      1 +4.4770400e-06 2.13497400e+02 7.95774700e-02 4.80829700e-01
       13 -1    0    0    0    0 +0.0000000000e+00 +0.0000000000e+00 +4.9999998884e+02 5.0000000000e+02 1.0566000000e-01 0.0000e+00 1.0000e+00
      994 -1    0    0    0    0 -0.0000000000e+00 -0.0000000000e+00 +0.0000000000e+00 1.3100000000e+02 1.3100000000e+02 0.0000e+00 0.0000e+00
       13  1    1    2    0    0 -5.8938380361e+00 +8.2091062051e+00 +5.7911035520e+01 5.8786273488e+01 1.0566000000e-01 0.0000e+00 -1.0000e+00
      994  1    1    2    0    0 -1.8383220651e+00 -9.3990958839e+00 +1.4153375927e+00 1.3135724423e+02 1.3100000000e+02 0.0000e+00 0.0000e+00
      997  1    1    2    0    0 +7.7321601012e+00 +1.1899896787e+00 +4.4067361572e+02 4.4085648228e+02 1.0000000000e+01 0.0000e+00 0.0000e+00
</event>
<event>
 5      1 +4.4770400e-06 2.11634900e+02 7.95774700e-02 4.83798200e-01
       13 -1    0    0    0    0 +0.0000000000e+00 +0.0000000000e+00 +4.9999998884e+02 5.0000000000e+02 1.0566000000e-01 0.0000e+00 1.0000e+00
      994 -1    0    0    0    0 -0.0000000000e+00 -0.0000000000e+00 +0.0000000000e+00 1.3100000000e+02 1.3100000000e+02 0.0000e+00 0.0000e+00
       13  1    1    2    0    0 -2.7057988982e+01 -1.1858298331e+01 +1.2551554495e+02 1.2894540394e+02 1.0566000000e-01 0.0000e+00 -1.0000e+00
      994  1    1    2    0    0 +2.8987989446e+01 +1.8676549251e+01 +8.3549409159e+00 1.3572001349e+02 1.3100000000e+02 0.0000e+00 0.0000e+00
      997  1    1    2    0    0 -1.9300004639e+00 -6.8182509199e+00 +3.6612950297e+02 3.6633458257e+02 1.0000000000e+01 0.0000e+00 0.0000e+00
</event>
<event>
 5      1 +4.4770400e-06 2.11767700e+02 7.95774700e-02 4.83584400e-01
       13 -1    0    0    0    0 +0.0000000000e+00 +0.0000000000e+00 +4.9999998884e+02 5.0000000000e+02 1.0566000000e-01 0.0000e+00 -1.0000e+00
      994 -1    0    0    0    0 -0.0000000000e+00 -0.0000000000e+00 +0.0000000000e+00 1.3100000000e+02 1.3100000000e+02 0.0000e+00 0.0000e+00
       13  1    1    2    0    0 -1.2019186391e+01 +8.9013375980e+00 +5.7519714473e+01 5.9432511049e+01 1.0566000000e-01 0.0000e+00 1.0000e+00
      994  1    1    2    0    0 +1.5125370477e+00 +3.0227853540e+00 +2.3783436311e+00 1.3106518042e+02 1.3100000000e+02 0.0000e+00 0.0000e+00
      997  1    1    2    0    0 +1.0506649343e+01 -1.1924122952e+01 +4.4010193073e+02 4.4050230853e+02 1.0000000000e+01 0.0000e+00 0.0000e+00
</event>
<event>
 5      1 +4.4770400e-06 2.00091500e+02 7.95774700e-02 5.03783200e-01
       13 -1    0    0    0    0 +0.0000000000e+00 +0.0000000000e+00 +4.9999998884e+02 5.0000000000e+02 1.0566000000e-01 0.0000e+00 -1.0000e+00
      994 -1    0    0    0    0 -0.0000000000e+00 -0.0000000000e+00 +0.0000000000e+00 1.3100000000e+02 1.3100000000e+02 0.0000e+00 0.0000e+00
       13  1    1    2    0    0 +2.5739852363e+01 +2.0592361380e+01 +6.5203512393e+01 7.3062264811e+01 1.0566000000e-01 0.0000e+00 1.0000e+00
      994  1    1    2    0    0 +3.0280228183e+01 +5.1001317505e+00 +1.7137625271e+01 1.3563775935e+02 1.3100000000e+02 0.0000e+00 0.0000e+00
      997  1    1    2    0    0 -5.6020080547e+01 -2.5692493131e+01 +4.1765885117e+02 4.2229997583e+02 1.0000000000e+01 0.0000e+00 0.0000e+00
</event>
<event>
 5      1 +4.4770400e-06 2.06288800e+02 7.95774700e-02 4.92697900e-01
       13 -1    0    0    0    0 +0.0000000000e+00 +0.0000000000e+00 +4.9999998884e+02 5.0000000000e+02 1.0566000000e-01 0.0000e+00 -1.0000e+00
      994 -1    0    0    0    0 -0.0000000000e+00 -0.0000000000e+00 +0.0000000000e+00 1.3100000000e+02 1.3100000000e+02 0.0000e+00 0.0000e+00
       13  1    1    2    0    0 +1.5748065102e+01 -2.1962561344e+00 +1.5581746425e+01 2.2262683602e+01 1.0566000000e-01 0.0000e+00 1.0000e+00
      994  1    1    2    0    0 -1.3672946284e+01 +7.5773413088e+00 +7.9920054485e+00 1.3217124389e+02 1.3100000000e+02 0.0000e+00 0.0000e+00
      997  1    1    2    0    0 -2.0751188184e+00 -5.3810851744e+00 +4.7642623696e+02 4.7656607250e+02 1.0000000000e+01 0.0000e+00 0.0000e+00
</event>
<event>
 5      1 +4.4770400e-06 2.09767100e+02 7.95774700e-02 4.86842200e-01
       13 -1    0    0    0    0 +0.0000000000e+00 +0.0000000000e+00 +4.9999998884e+02 5.0000000000e+02 1.0566000000e-01 0.0000e+00 1.0000e+00
      994 -1    0    0    0    0 -0.0000000000e+00 -0.0000000000e+00 +0.0000000000e+00 1.3100000000e+02 1.3100000000e+02 0.0000e+00 0.0000e+00
       13  1    1    2    0    0 +1.3952311982e+01 +9.7773387020e+00 +3.7641138225e+01 4.1317427469e+01 1.0566000000e-01 0.0000e+00 -1.0000e+00
      994  1    1    2    0    0 -4.6718103597e+00 -5.1957595652e+00 +4.1542014199e+00 1.3125196806e+02 1.3100000000e+02 0.0000e+00 0.0000e+00
      997  1    1    2    0    0 -9.2805016227e+00 -4.5815791368e+00 +4.5820464919e+02 4.5843060447e+02 1.0000000000e+01 0.0000e+00 0.0000e+00
</event>
<event>
 5      1 +4.4770400e-06 2.07786800e+02 7.95774700e-02 4.90145400e-01
       13 -1    0    0    0    0 +0.0000000000e+00 +0.0000000000e+00 +4.9999998884e+02 5.0000000000e+02 1.0566000000e-01 0.0000e+00 1.0000e+00
      994 -1    0    0    0    0 -0.0000000000e+00 -0.0000000000e+00 +0.0000000000e+00 1.3100000000e+02 1.3100000000e+02 0.0000e+00 0.0000e+00
       13  1    1    2    0    0 -9.6811411316e+00 +8.0031058078e+00 +1.2691176753e+01 1.7856408586e+01 1.0566000000e-01 0.0000e+00 -1.0000e+00
      994  1    1    2    0    0 -2.1520881852e+00 -5.0825764459e+00 +5.6615769372e+00 1.3123839956e+02 1.3100000000e+02 0.0000e+00 0.0000e+00
      997  1    1    2    0    0 +1.1833229317e+01 -2.9205293618e+00 +4.8164723515e+02 4.8190519185e+02 1.0000000000e+01 0.0000e+00 0.0000e+00
</event>
<event>
 5      1 +4.4770400e-06 2.13158000e+02 7.95774700e-02 4.81365800e-01
       13 -1    0    0    0    0 +0.0000000000e+00 +0.0000000000e+00 +4.9999998884e+02 5.0000000000e+02 1.0566000000e-01 0.0000e+00 1.0000e+00
      994 -1    0    0    0    0 -0.0000000000e+00 -0.0000000000e+00 +0.0000000000e+00 1.3100000000e+02 1.3100000000e+02 0.0000e+00 0.0000e+00
       13  1    1    2    0    0 -1.2770099942e+01 -5.7462239272e-01 +5.4305581045e+01 5.5789899983e+01 1.0566000000e-01 0.0000e+00 -1.0000e+00
      994  1    1    2    0    0 +2.1113642731e+01 -2.4409884065e+00 +3.4440008444e+00 1.3275769460e+02 1.3100000000e+02 0.0000e+00 0.0000e+00
      997  1    1    2    0    0 -8.3435427891e+00 +3.0156107992e+00 +4.4225040695e+02 4.4245240542e+02 1.0000000000e+01 0.0000e+00 0.0000e+00
</event>
<event>
 5      1 +4.4770400e-06 2.11606700e+02 7.95774700e-02 4.83843700e-01
       13 -1    0    0    0    0 +0.0000000000e+00 +0.0000000000e+00 +4.9999998884e+02 5.0000000000e+02 1.0566000000e-01 0.0000e+00 1.0000e+00
      994 -1    0    0    0    0 -0.0000000000e+00 -0.0000000000e+00 +0.0000000000e+00 1.3100000000e+02 1.3100000000e+02 0.0000e+00 0.0000e+00
       13  1    1    2    0    0 +1.3374267196e+01 +2.2979270063e+00 +3.8971323718e+01 4.1266532783e+01 1.0566000000e-01 0.0000e+00 -1.0000e+00
      994  1    1    2    0    0 -6.9665587694e+00 +3.9610276564e+00 +2.7658401548e+00 1.3127403610e+02 1.3100000000e+02 0.0000e+00 0.0000e+00
      997  1    1    2    0    0 -6.4077084263e+00 -6.2589546626e+00 +4.5826282496e+02 4.5845943112e+02 1.0000000000e+01 0.0000e+00 0.0000e+00
</event>
<event>
 5      1 +4.4770400e-06 1.98729100e+02 7.95774700e-02 5.06340900e-01
       13 -1    0    0    0    0 +0.0000000000e+00 +0.0000000000e+00 +4.9999998884e+02 5.0000000000e+02 1.0566000000e-01 0.0000e+00 -1.0000e+00
      994 -1    0    0    0    0 -0.0000000000e+00 -0.0000000000e+00 +0.0000000000e+00 1.3100000000e+02 1.3100000000e+02 0.0000e+00 0.0000e+00
       13  1    1    2    0    0 -2.7081655962e+00 -9.8263776330e+00 -2.1678965460e+00 1.0421266610e+01 1.0566000000e-01 0.0000e+00 1.0000e+00
      994  1    1    2    0    0 +6.2503508732e+00 +1.1731077484e+01 +1.4137602961e+01 1.3242944115e+02 1.3100000000e+02 0.0000e+00 0.0000e+00
      997  1    1    2    0    0 -3.5421852770e+00 -1.9046998515e+00 +4.8803028242e+02 4.8814929224e+02 1.0000000000e+01 0.0000e+00 0.0000e+00
</event>
<event>
 5      1 +4.4770400e-06 2.06939100e+02 7.95774700e-02 4.91584100e-01
       13 -1    0    0    0    0 +0.0000000000e+00 +0.0000000000e+00 +4.9999998884e+02 5.0000000000e+02 1.0566000000e-01 0.0000e+00 -1.0000e+00
      994 -1    0    0    0    0 -0.0000000000e+00 -0.0000000000e+00 +0.0000000000e+00 1.3100000000e+02 1.3100000000e+02 0.0000e+00 0.0000e+00
       13  1    1    2    0    0 -1.0960361240e+01 +2.9530006696e+01 +7.9709155879e+01 8.5707126360e+01 1.0566000000e-01 0.0000e+00 1.0000e+00
      994  1    1    2    0    0 +2.8724160769e+01 -8.9437922956e+00 +1.0870674213e+01 1.3484895398e+02 1.3100000000e+02 0.0000e+00 0.0000e+00
      997  1    1    2    0    0 -1.7763799530e+01 -2.0586214400e+01 +4.0942015874e+02 4.1044391966e+02 1.0000000000e+01 0.0000e+00 0.0000e+00
</event>
<event>
 5      1 +4.4770400e-06 2.10627500e+02 7.95774700e-02 4.85431500e-01
       13 -1    0    0    0    0 +0.0000000000e+00 +0.0000000000e+00 +4.9999998884e+02 5.0000000000e+02 1.0566000000e-01 0.0000e+00 1.0000e+00
      994 -1    0    0    0    0 -0.0000000000e+00 -0.0000000000e+00 +0.0000000000e+00 1.3100000000e+02 1.3100000000e+02 0.0000e+00 0.0000e+00
       13  1    1    2    0    0 -1.1201739776e+01 -1.3241175187e+01 +2.5795318354e+01 3.1084036215e+01 1.0566000000e-01 0.0000e+00 -1.0000e+00
      994  1    1    2    0    0 +1.0025746978e+01 +8.4774559745e+01 +4.2256196045e+01 1.6196860093e+02 1.3100000000e+02 0.0000e+00 0.0000e+00
      997  1    1    2    0    0 +1.1759927983e+00 -7.1533384557e+01 +4.3194847444e+02 4.3794736286e+02 1.0000000000e+01 0.0000e+00 0.0000e+00
</event>
<event>
 5      1 +4.4770400e-06 2.12398300e+02 7.95774700e-02 4.82573600e-01
       13 -1    0    0    0    0 +0.0000000000e+00 +0.0000000000e+00 +4.9999998884e+02 5.0000000000e+02 1.0566000000e-01 0.0000e+00 1.0000e+00
      994 -1    0    0    0    0 -0.0000000000e+00 -0.0000000000e+00 +0.0000000000e+00 1.3100000000e+02 1.3100000000e+02 0.0000e+00 0.0000e+00
       13  1    1    2    0    0 -1.4957037969e+01 -5.6248113145e+00 +6.3600589130e+01 6.5577416759e+01 1.0566000000e-01 0.0000e+00 -1.0000e+00
      994  1    1    2    0    0 +1.2860809304e+01 +1.3506481129e+01 +3.5373064763e+00 1.3236819099e+02 1.3100000000e+02 0.0000e+00 0.0000e+00
      997  1    1    2    0    0 +2.0962286643e+00 -7.8816698147e+00 +4.3286209323e+02 4.3305439225e+02 1.0000000000e+01 0.0000e+00 0.0000e+00
</event>
<event>
 5      1 +4.4770400e-06 2.13146000e+02 7.95774700e-02 4.81384800e-01
       13 -1    0    0    0    0 +0.0000000000e+00 +0.0000000000e+00 +4.9999998884e+02 5.0000000000e+02 1.0566000000e-01 0.0000e+00 1.0000e+00
      994 -1    0    0    0    0 -0.0000000000e+00 -0.0000000000e+00 +0.0000000000e+00 1.3100000000e+02 1.3100000000e+02 0.0000e+00 0.0000e+00
       13  1    1    2    0    0 +9.2366527096e+00 +6.3145173597e+00 +5.7267443252e+01 5.8350322222e+01 1.0566000000e-01 0.0000e+00 -1.0000e+00
      994  1    1    2    0    0 -7.5807505759e+00 +3.4161852347e+00 +1.5797012632e+00 1.3127312580e+02 1.3100000000e+02 0.0000e+00 0.0000e+00
      997  1    1    2    0    0 -1.6559021337e+00 -9.7307025944e+00 +4.4115284432e+02 4.4137655198e+02 1.0000000000e+01 0.0000e+00 0.0000e+00
</event>
<event>
 5      1 +4.4770400e-06 2.13291200e+02 7.95774700e-02 4.81155200e-01
       13 -1    0    0    0    0 +0.0000000000e+00 +0.0000000000e+00 +4.9999998884e+02 5.0000000000e+02 1.0566000000e-01 0.0000e+00 1.0000e+00
      994 -1    0    0    0    0 -0.0000000000e+00 -0.0000000000e+00 +0.0000000000e+00 1.3100000000e+02 1.3100000000e+02 0.0000e+00 0.0000e+00
       13  1    1    2    0    0 +1.0817554627e+00 +2.3400730853e+01 +1.2462755859e+02 1.2681010970e+02 1.0566000000e-01 0.0000e+00 -1.0000e+00
      994  1    1    2    0    0 -7.1814309064e-02 -3.8173747249e+01 +8.3192285851e+00 1.3670204717e+02 1.3100000000e+02 0.0000e+00 0.0000e+00
      997  1    1    2    0    0 -1.0099411536e+00 +1.4773016397e+01 +3.6705320166e+02 3.6748784313e+02 1.0000000000e+01 0.0000e+00 0.0000e+00
</event>
<event>
 5      1 +4.4770400e-06 2.12545800e+02 7.95774700e-02 4.82338200e-01
       13 -1    0    0    0    0 +0.0000000000e+00 +0.0000000000e+00 +4.9999998884e+02 5.0000000000e+02 1.0566000000e-01 0.0000e+00 -1.0000e+00
      994 -1    0    0    0    0 -0.0000000000e+00 -0.0000000000e+00 +0.0000000000e+00 1.3100000000e+02 1.3100000000e+02 0.0000e+00 0.0000e+00
       13  1    1    2    0    0 -1.2897116254e+01 +1.0547848165e+01 +9.7995538715e+01 9.9401858538e+01 1.0566000000e-01 0.0000e+00 1.0000e+00
      994  1    1    2    0    0 -1.2602682236e+01 -3.4107247871e+01 +8.2639975592e+00 1.3620361821e+02 1.3100000000e+02 0.0000e+00 0.0000e+00
      997  1    1    2    0    0 +2.5499798489e+01 +2.3559399706e+01 +3.9374045256e+02 3.9539452326e+02 1.0000000000e+01 0.0000e+00 0.0000e+00
</event>
<event>
 5      1 +4.4770400e-06 2.12322000e+02 7.95774700e-02 4.82695500e-01
       13 -1    0    0    0    0 +0.0000000000e+00 +0.0000000000e+00 +4.9999998884e+02 5.0000000000e+02 1.0566000000e-01 0.0000e+00 1.0000e+00
      994 -1    0    0    0    0 -0.0000000000e+00 -0.0000000000e+00 +0.0000000000e+00 1.3100000000e+02 1.3100000000e+02 0.0000e+00 0.0000e+00
       13  1    1    2    0    0 -1.3944488663e+00 +1.0361365401e+01 +3.1975399633e+01 3.3641339544e+01 1.0566000000e-01 0.0000e+00 -1.0000e+00
      994  1    1    2    0    0 -4.4566771608e+00 -1.4411410959e+00 +1.9941396158e+00 1.3109887662e+02 1.3100000000e+02 0.0000e+00 0.0000e+00
      997  1    1    2    0    0 +5.8511260270e+00 -8.9202243049e+00 +4.6603044959e+02 4.6625978383e+02 1.0000000000e+01 0.0000e+00 0.0000e+00
</event>
<event>
 5      1 +4.4770400e-06 2.12207900e+02 7.95774700e-02 4.82878000e-01
       13 -1    0    0    0    0 +0.0000000000e+00 +0.0000000000e+00 +4.9999998884e+02 5.0000000000e+02 1.0566000000e-01 0.0000e+00 1.0000e+00
      994 -1    0    0    0    0 -0.0000000000e+00 -0.0000000000e+00 +0.0000000000e+00 1.3100000000e+02 1.3100000000e+02 0.0000e+00 0.0000e+00
       13  1    1    2    0    0 +3.9603878918e+00 +1.4445470263e+01 +6.0180647805e+01 6.2016754330e+01 1.0566000000e-01 0.0000e+00 -1.0000e+00
      994  1    1    2    0    0 +1.3282117447e+00 -8.0511896534e+00 +2.3031273836e+00 1.3127410330e+02 1.3100000000e+02 0.0000e+00 0.0000e+00
      997  1    1    2    0    0 -5.2885996365e+00 -6.3942806092e+00 +4.3751621365e+02 4.3770914237e+02 1.0000000000e+01 0.0000e+00 0.0000e+00
</event>
<event>
 5      1 +4.4770400e-06 2.12182900e+02 7.95774700e-02 4.82917900e-01
       13 -1    0    0    0    0 +0.0000000000e+00 +0.0000000000e+00 +4.9999998884e+02 5.0000000000e+02 1.0566000000e-01 0.0000e+00 1.0000e+00
      994 -1    0    0    0    0 -0.0000000000e+00 -0.0000000000e+00 +0.0000000000e+00 1.3100000000e+02 1.3100000000e+02 0.0000e+00 0.0000e+00
       13  1    1    2    0    0 -1.0361802513e+01 -3.5864704938e+00 +2.7747432391e+01 2.9835564185e+01 1.0566000000e-01 0.0000e+00 -1.0000e+00
      994  1    1    2    0    0 +2.1571856815e+01 -1.3790754251e+01 +5.2338214310e+00 1.3358114686e+02 1.3100000000e+02 0.0000e+00 0.0000e+00
      997  1    1    2    0    0 -1.1210054302e+01 +1.7377224745e+01 +4.6701873501e+02 4.6758328896e+02 1.0000000000e+01 0.0000e+00 0.0000e+00
</event>
<event>
 5      1 +4.4770400e-06 2.12331900e+02 7.95774700e-02 4.82679700e-01
       13 -1    0    0    0    0 +0.0000000000e+00 +0.0000000000e+00 +4.9999998884e+02 5.0000000000e+02 1.0566000000e-01 0.0000e+00 -1.0000e+00
      994 -1    0    0    0    0 -0.0000000000e+00 -0.0000000000e+00 +0.0000000000e+00 1.3100000000e+02 1.3100000000e+02 0.0000e+00 0.0000e+00
       13  1    1    2    0    0 +8.1830115435e+00 -1.0303633795e+01 +3.8736586229e+01 4.0910399949e+01 1.0566000000e-01 0.0000e+00 1.0000e+00
      994  1    1    2    0    0 -2.4717876788e+00 +2.7321224872e+01 +5.5953121095e+00 1.3395845095e+02 1.3100000000e+02 0.0000e+00 0.0000e+00
      997  1    1    2    0    0 -5.7112238647e+00 -1.7017591077e+01 +4.5566809050e+02 4.5613114910e+02 1.0000000000e+01 0.0000e+00 0.0000e+00
</event>
<event>
 5      1 +4.4770400e-06 2.10348700e+02 7.95774700e-02 4.85887000e-01
       13 -1    0    0    0    0 +0.0000000000e+00 +0.0000000000e+00 +4.9999998884e+02 5.0000000000e+02 1.0566000000e-01 0.0000e+00 1.0000e+00
      994 -1    0    0    0    0 -0.0000000000e+00 -0.0000000000e+00 +0.0000000000e+00 1.3100000000e+02 1.3100000000e+02 0.0000e+00 0.0000e+00
       13  1    1    2    0    0 -1.1043031527e+00 -2.1796429773e+01 +7.9442163137e+01 8.2385510160e+01 1.0566000000e-01 0.0000e+00 -1.0000e+00
      994  1    1    2    0    0 -1.7560946577e+00 +4.6380432667e+00 +3.5681861890e+00 1.3114239309e+02 1.3100000000e+02 0.0000e+00 0.0000e+00
      997  1    1    2    0    0 +2.8603978104e+00 +1.7158386507e+01 +4.1698963951e+02 4.1747209675e+02 1.0000000000e+01 0.0000e+00 0.0000e+00
</event>
<event>
 5      1 +4.4770400e-06 2.12702600e+02 7.95774700e-02 4.82088500e-01
       13 -1    0    0    0    0 +0.0000000000e+00 +0.0000000000e+00 +4.9999998884e+02 5.0000000000e+02 1.0566000000e-01 0.0000e+00 -1.0000e+00
      994 -1    0    0    0    0 -0.0000000000e+00 -0.0000000000e+00 +0.0000000000e+00 1.3100000000e+02 1.3100000000e+02 0.0000e+00 0.0000e+00
       13  1    1    2    0    0 -1.4759691595e+01 +8.1453373025e+00 +9.1730923010e+01 9.3267188315e+01 1.0566000000e-01 0.0000e+00 1.0000e+00
      994  1    1    2    0    0 +1.3767672705e+01 +1.4384198575e+00 +2.5273932471e+00 1.3175357900e+02 1.3100000000e+02 0.0000e+00 0.0000e+00
      997  1    1    2    0    0 +9.9201889076e-01 -9.5837571600e+00 +4.0574167258e+02 4.0597923268e+02 1.0000000000e+01 0.0000e+00 0.0000e+00
</event>
<event>
 5      1 +4.4770400e-06 2.08744500e+02 7.95774700e-02 4.88537900e-01
       13 -1    0    0    0    0 +0.0000000000e+00 +0.0000000000e+00 +4.9999998884e+02 5.0000000000e+02 1.0566000000e-01 0.0000e+00 1.0000e+00
      994 -1    0    0    0    0 -0.0000000000e+00 -0.0000000000e+00 +0.0000000000e+00 1.3100000000e+02 1.3100000000e+02 0.0000e+00 0.0000e+00
       13  1    1    2    0    0 -8.9817701814e+00 -1.3487667592e+01 +3.3232987675e+01 3.6973395929e+01 1.0566000000e-01 0.0000e+00 -1.0000e+00
      994  1    1    2    0    0 -2.2325330716e+01 -1.9937467476e+00 +7.2771136148e+00 1.3310278660e+02 1.3100000000e+02 0.0000e+00 0.0000e+00
      997  1    1    2    0    0 +3.1307100898e+01 +1.5481414340e+01 +4.5948988755e+02 4.6092381747e+02 1.0000000000e+01 0.0000e+00 0.0000e+00
</event>
<event>
 5      1 +4.4770400e-06 2.07263300e+02 7.95774700e-02 4.91032100e-01
       13 -1    0    0    0    0 +0.0000000000e+00 +0.0000000000e+00 +4.9999998884e+02 5.0000000000e+02 1.0566000000e-01 0.0000e+00 -1.0000e+00
      994 -1    0    0    0    0 -0.0000000000e+00 -0.0000000000e+00 +0.0000000000e+00 1.3100000000e+02 1.3100000000e+02 0.0000e+00 0.0000e+00
       13  1    1    2    0    0 -3.2288524296e+01 +1.6478125407e+01 +9.9448801338e+01 1.0584967014e+02 1.0566000000e-01 0.0000e+00 1.0000e+00
      994  1    1    2    0    0 +2.3404585091e+01 -1.5242872753e+01 +9.9449230459e+00 1.3431314629e+02 1.3100000000e+02 0.0000e+00 0.0000e+00
      997  1    1    2    0    0 +8.8839392054e+00 -1.2352526540e+00 +3.9060626445e+02 3.9083718356e+02 1.0000000000e+01 0.0000e+00 0.0000e+00
</event>
<event>
 5      1 +4.4770400e-06 2.07219700e+02 7.95774700e-02 4.91106100e-01
       13 -1    0    0    0    0 +0.0000000000e+00 +0.0000000000e+00 +4.9999998884e+02 5.0000000000e+02 1.0566000000e-01 0.0000e+00 1.0000e+00
      994 -1    0    0    0    0 -0.0000000000e+00 -0.0000000000e+00 +0.0000000000e+00 1.3100000000e+02 1.3100000000e+02 0.0000e+00 0.0000e+00
       13  1    1    2    0    0 -1.3438549297e+00 +3.4128192705e+01 +1.1633437297e+02 1.2124453382e+02 1.0566000000e-01 0.0000e+00 -1.0000e+00
      994  1    1    2    0    0 +1.2037427735e+00 -8.5081871122e+00 +6.3459720155e+00 1.3143481124e+02 1.3100000000e+02 0.0000e+00 0.0000e+00
      997  1    1    2    0    0 +1.4011215619e-01 -2.5620005593e+01 +3.7731964385e+02 3.7832065494e+02 1.0000000000e+01 0.0000e+00 0.0000e+00
</event>
<event>
 5      1 +4.4770400e-06 2.10506900e+02 7.95774700e-02 4.85628400e-01
       13 -1    0    0    0    0 +0.0000000000e+00 +0.0000000000e+00 +4.9999998884e+02 5.0000000000e+02 1.0566000000e-01 0.0000e+00 1.0000e+00
      994 -1    0    0    0    0 -0.0000000000e+00 -0.0000000000e+00 +0.0000000000e+00 1.3100000000e+02 1.3100000000e+02 0.0000e+00 0.0000e+00
       13  1    1    2    0    0 -3.9991003009e+00 -2.2997993288e+01 +6.4717877882e+01 6.8799094326e+01 1.0566000000e-01 0.0000e+00 -1.0000e+00
      994  1    1    2    0    0 +5.1208155733e+00 +3.0311318612e+01 +8.0621097453e+00 1.3479983829e+02 1.3100000000e+02 0.0000e+00 0.0000e+00
      997  1    1    2    0    0 -1.1217152724e+00 -7.3133253247e+00 +4.2722000121e+02 4.2740106739e+02 1.0000000000e+01 0.0000e+00 0.0000e+00
</event>
<event>
 5      1 +4.4770400e-06 2.11857100e+02 7.95774700e-02 4.83440700e-01
       13 -1    0    0    0    0 +0.0000000000e+00 +0.0000000000e+00 +4.9999998884e+02 5.0000000000e+02 1.0566000000e-01 0.0000e+00 -1.0000e+00
      994 -1    0    0    0    0 -0.0000000000e+00 -0.0000000000e+00 +0.0000000000e+00 1.3100000000e+02 1.3100000000e+02 0.0000e+00 0.0000e+00
       13  1    1    2    0    0 -1.4594444609e+01 -5.0753952107e-01 +5.2243087470e+01 5.4245799490e+01 1.0566000000e-01 0.0000e+00 1.0000e+00
      994  1    1    2    0    0 +4.3359409532e+00 -8.9023246937e+00 +2.7348277275e+00 1.3140217293e+02 1.3100000000e+02 0.0000e+00 0.0000e+00
      997  1    1    2    0    0 +1.0258503656e+01 +9.4098642147e+00 +4.4502207364e+02 4.4535202758e+02 1.0000000000e+01 0.0000e+00 0.0000e+00
</event>
<event>
 5      1 +4.4770400e-06 1.95758000e+02 7.95774700e-02 5.12080600e-01
       13 -1    0    0    0    0 +0.0000000000e+00 +0.0000000000e+00 +4.9999998884e+02 5.0000000000e+02 1.0566000000e-01 0.0000e+00 -1.0000e+00
      994 -1    0    0    0    0 -0.0000000000e+00 -0.0000000000e+00 +0.0000000000e+00 1.3100000000e+02 1.3100000000e+02 0.0000e+00 0.0000e+00
       13  1    1    2    0    0 -1.5843763501e+01 -4.7259399580e+00 +1.3899941317e+00 1.6592245119e+01 1.0566000000e-01 0.0000e+00 1.0000e+00
      994  1    1    2    0    0 +1.9235052657e+01 +3.5250809349e+00 +1.7987018852e+01 1.3366729702e+02 1.3100000000e+02 0.0000e+00 0.0000e+00
      997  1    1    2    0    0 -3.3912891559e+00 +1.2008590231e+00 +4.8062297585e+02 4.8074045786e+02 1.0000000000e+01 0.0000e+00 0.0000e+00
</event>
<event>
 5      1 +4.4770400e-06 2.11410700e+02 7.95774700e-02 4.84160100e-01
       13 -1    0    0    0    0 +0.0000000000e+00 +0.0000000000e+00 +4.9999998884e+02 5.0000000000e+02 1.0566000000e-01 0.0000e+00 1.0000e+00
      994 -1    0    0    0    0 -0.0000000000e+00 -0.0000000000e+00 +0.0000000000e+00 1.3100000000e+02 1.3100000000e+02 0.0000e+00 0.0000e+00
       13  1    1    2    0    0 +1.9127939792e+01 -8.1355916228e+00 +6.8675876894e+01 7.1752722338e+01 1.0566000000e-01 0.0000e+00 -1.0000e+00
      994  1    1    2    0    0 -1.8578957443e+01 +2.0982616379e+01 +6.5115420079e+00 1.3412251127e+02 1.3100000000e+02 0.0000e+00 0.0000e+00
      997  1    1    2    0    0 -5.4898234827e-01 -1.2847024756e+01 +4.2481256993e+02 4.2512476639e+02 1.0000000000e+01 0.0000e+00 0.0000e+00
</event>
<event>
 5      1 +4.4770400e-06 2.11504000e+02 7.95774700e-02 4.84009300e-01
       13 -1    0    0    0    0 +0.0000000000e+00 +0.0000000000e+00 +4.9999998884e+02 5.0000000000e+02 1.0566000000e-01 0.0000e+00 1.0000e+00
      994 -1    0    0    0    0 -0.0000000000e+00 -0.0000000000e+00 +0.0000000000e+00 1.3100000000e+02 1.3100000000e+02 0.0000e+00 0.0000e+00
       13  1    1    2    0    0 -1.5694137420e+01 +1.3463959611e+01 +1.0846181975e+02 1.1041540501e+02 1.0566000000e-01 0.0000e+00 -1.0000e+00
      994  1    1    2    0    0 -1.4121133736e+01 -2.7512411677e+01 +7.2922262120e+00 1.3479805554e+02 1.3100000000e+02 0.0000e+00 0.0000e+00
      997  1    1    2    0    0 +2.9815271156e+01 +1.4048452066e+01 +3.8424594288e+02 3.8578653945e+02 1.0000000000e+01 0.0000e+00 0.0000e+00
</event>
<event>
 5      1 +4.4770400e-06 2.11567900e+02 7.95774700e-02 4.83906200e-01
       13 -1    0    0    0    0 +0.0000000000e+00 +0.0000000000e+00 +4.9999998884e+02 5.0000000000e+02 1.0566000000e-01 0.0000e+00 -1.0000e+00
      994 -1    0    0    0    0 -0.0000000000e+00 -0.0000000000e+00 +0.0000000000e+00 1.3100000000e+02 1.3100000000e+02 0.0000e+00 0.0000e+00
       13  1    1    2    0    0 +8.1136065443e+00 +7.2793154961e+00 +2.3367819866e+01 2.5785368226e+01 1.0566000000e-01 0.0000e+00 1.0000e+00
      994  1    1    2    0    0 -2.4695169069e+00 -9.9810593172e+00 +3.0015867758e+00 1.3143716971e+02 1.3100000000e+02 0.0000e+00 0.0000e+00
      997  1    1    2    0    0 -5.6440896374e+00 +2.7017438211e+00 +4.7363058219e+02 4.7377746206e+02 1.0000000000e+01 0.0000e+00 0.0000e+00
</event>
<event>
 5      1 +4.4770400e-06 1.96876200e+02 7.95774700e-02 5.09893700e-01
       13 -1    0    0    0    0 +0.0000000000e+00 +0.0000000000e+00 +4.9999998884e+02 5.0000000000e+02 1.0566000000e-01 0.0000e+00 1.0000e+00
      994 -1    0    0    0    0 -0.0000000000e+00 -0.0000000000e+00 +0.0000000000e+00 1.3100000000e+02 1.3100000000e+02 0.0000e+00 0.0000e+00
       13  1    1    2    0    0 +1.2157639664e+01 +4.2777417416e+01 +1.0070467689e+02 1.1008705080e+02 1.0566000000e-01 0.0000e+00 -1.0000e+00
      994  1    1    2    0    0 +6.0640228103e-02 +1.6761948644e+01 +1.6385843686e+01 1.3308066153e+02 1.3100000000e+02 0.0000e+00 0.0000e+00
      997  1    1    2    0    0 -1.2218279892e+01 -5.9539366061e+01 +3.8290946826e+02 3.8783228767e+02 1.0000000000e+01 0.0000e+00 0.0000e+00
</event>
<event>
 5      1 +4.4770400e-06 1.94615800e+02 7.95774700e-02 5.14348600e-01
       13 -1    0    0    0    0 +0.0000000000e+00 +0.0000000000e+00 +4.9999998884e+02 5.0000000000e+02 1.0566000000e-01 0.0000e+00 -1.0000e+00
      994 -1    0    0    0    0 -0.0000000000e+00 -0.0000000000e+00 +0.0000000000e+00 1.3100000000e+02 1.3100000000e+02 0.0000e+00 0.0000e+00
       13  1    1    2    0    0 -6.1496430213e+01 -1.1186286471e+01 +1.4870583084e+02 1.6130833588e+02 1.0566000000e-01 0.0000e+00 1.0000e+00
      994  1    1    2    0    0 -3.9889651947e+00 +2.7919578948e+00 +2.1056568796e+01 1.3277080237e+02 1.3100000000e+02 0.0000e+00 0.0000e+00
      997  1    1    2    0    0 +6.5485395407e+01 +8.3943285765e+00 +3.3023758920e+02 3.3692086175e+02 1.0000000000e+01 0.0000e+00 0.0000e+00
</event>
<event>
 5      1 +4.4770400e-06 2.09303500e+02 7.95774700e-02 4.87608400e-01
       13 -1    0    0    0    0 +0.0000000000e+00 +0.0000000000e+00 +4.9999998884e+02 5.0000000000e+02 1.0566000000e-01 0.0000e+00 1.0000e+00
      994 -1    0    0    0    0 -0.0000000000e+00 -0.0000000000e+00 +0.0000000000e+00 1.3100000000e+02 1.3100000000e+02 0.0000e+00 0.0000e+00
       13  1    1    2    0    0 +3.0682660706e+01 -8.5350225570e-01 +1.2329795977e+02 1.2706121431e+02 1.0566000000e-01 0.0000e+00 -1.0000e+00
      994  1    1    2    0    0 -1.4372616691e+01 +2.7511700569e+01 +9.1637000389e+00 1.3493864968e+02 1.3100000000e+02 0.0000e+00 0.0000e+00
      997  1    1    2    0    0 -1.6310044016e+01 -2.6658198314e+01 +3.6753832903e+02 3.6900013602e+02 1.0000000000e+01 0.0000e+00 0.0000e+00
</event>
<event>
 5      1 +4.4770400e-06 2.11822300e+02 7.95774700e-02 4.83496500e-01
       13 -1    0    0    0    0 +0.0000000000e+00 +0.0000000000e+00 +4.9999998884e+02 5.0000000000e+02 1.0566000000e-01 0.0000e+00 -1.0000e+00
      994 -1    0    0    0    0 -0.0000000000e+00 -0.0000000000e+00 +0.0000000000e+00 1.3100000000e+02 1.3100000000e+02 0.0000e+00 0.0000e+00
       13  1    1    2    0    0 -2.3419791529e+01 -1.6493112419e+01 +5.0004911689e+01 5.7628220080e+01 1.0566000000e-01 0.0000e+00 1.0000e+00
      994  1    1    2    0    0 +6.8719594450e+01 +9.6394221744e+01 +8.3322171980e+01 1.9523783698e+02 1.3100000000e+02 0.0000e+00 0.0000e+00
      997  1    1    2    0    0 -4.5299802921e+01 -7.9901109325e+01 +3.6667290517e+02 3.7813394294e+02 1.0000000000e+01 0.0000e+00 0.0000e+00
</event>
<event>
 5      1 +4.4770400e-06 2.02880300e+02 7.95774700e-02 4.98686700e-01
       13 -1    0    0    0    0 +0.0000000000e+00 +0.0000000000e+00 +4.9999998884e+02 5.0000000000e+02 1.0566000000e-01 0.0000e+00 1.0000e+00
      994 -1    0    0    0    0 -0.0000000000e+00 -0.0000000000e+00 +0.0000000000e+00 1.3100000000e+02 1.3100000000e+02 0.0000e+00 0.0000e+00
       13  1    1    2    0    0 -9.9869812360e+00 -1.3412717204e+00 +8.1834565178e-01 1.0110373766e+01 1.0566000000e-01 0.0000e+00 -1.0000e+00
      994  1    1    2    0    0 +1.0194369332e+01 +1.3716744619e+01 +1.1129384598e+01 1.3257804287e+02 1.3100000000e+02 0.0000e+00 0.0000e+00
      997  1    1    2    0    0 -2.0738809612e-01 -1.2375472898e+01 +4.8805225859e+02 4.8831158337e+02 1.0000000000e+01 0.0000e+00 0.0000e+00
</event>
<event>
 5      1 +4.4770400e-06 2.08423500e+02 7.95774700e-02 4.89074600e-01
       13 -1    0    0    0    0 +0.0000000000e+00 +0.0000000000e+00 +4.9999998884e+02 5.0000000000e+02 1.0566000000e-01 0.0000e+00 -1.0000e+00
      994 -1    0    0    0    0 -0.0000000000e+00 -0.0000000000e+00 +0.0000000000e+00 1.3100000000e+02 1.3100000000e+02 0.0000e+00 0.0000e+00
       13  1    1    2    0    0 -2.6269491773e+01 -9.9239217582e+00 +6.6335420819e+01 7.2034503124e+01 1.0566000000e-01 0.0000e+00 1.0000e+00
      994  1    1    2    0    0 +2.9717038089e+01 +5.1119874724e+00 +9.6282153465e+00 1.3476994212e+02 1.3100000000e+02 0.0000e+00 0.0000e+00
      997  1    1    2    0    0 -3.4475463167e+00 +4.8119342858e+00 +4.2403635267e+02 4.2419555475e+02 1.0000000000e+01 0.0000e+00 0.0000e+00
</event>
<event>
 5      1 +4.4770400e-06 2.13545300e+02 7.95774700e-02 4.80754200e-01
       13 -1    0    0    0    0 +0.0000000000e+00 +0.0000000000e+00 +4.9999998884e+02 5.0000000000e+02 1.0566000000e-01 0.0000e+00 1.0000e+00
      994 -1    0    0    0    0 -0.0000000000e+00 -0.0000000000e+00 +0.0000000000e+00 1.3100000000e+02 1.3100000000e+02 0.0000e+00 0.0000e+00
       13  1    1    2    0    0 +3.0891418340e+00 +1.1908009413e+01 +7.2102265905e+01 7.3144318974e+01 1.0566000000e-01 0.0000e+00 -1.0000e+00
      994  1    1    2    0    0 -4.6510700990e+00 -1.4812901495e+01 +2.1058787926e+00 1.3193365465e+02 1.3100000000e+02 0.0000e+00 0.0000e+00
      997  1    1    2    0    0 +1.5619282650e+00 +2.9048920823e+00 +4.2579184414e+02 4.2592202638e+02 1.0000000000e+01 0.0000e+00 0.0000e+00
</event>
<event>
 5      1 +4.4770400e-06 2.11451100e+02 7.95774700e-02 4.84094800e-01
       13 -1    0    0    0    0 +0.0000000000e+00 +0.0000000000e+00 +4.9999998884e+02 5.0000000000e+02 1.0566000000e-01 0.0000e+00 1.0000e+00
      994 -1    0    0    0    0 -0.0000000000e+00 -0.0000000000e+00 +0.0000000000e+00 1.3100000000e+02 1.3100000000e+02 0.0000e+00 0.0000e+00
       13  1    1    2    0    0 -1.3333825660e+00 -1.7527620822e+01 +6.1013146138e+01 6.3494964890e+01 1.0566000000e-01 0.0000e+00 -1.0000e+00
      994  1    1    2    0    0 +2.9566804641e+00 +1.0171565101e+01 +3.1263184236e+00 1.3146473505e+02 1.3100000000e+02 0.0000e+00 0.0000e+00
      997  1    1    2    0    0 -1.6232978980e+00 +7.3560557205e+00 +4.3586052427e+02 4.3604030006e+02 1.0000000000e+01 0.0000e+00 0.0000e+00
</event>
<event>
 5      1 +4.4770400e-06 2.10846700e+02 7.95774700e-02 4.85074500e-01
       13 -1    0    0    0    0 +0.0000000000e+00 +0.0000000000e+00 +4.9999998884e+02 5.0000000000e+02 1.0566000000e-01 0.0000e+00 -1.0000e+00
      994 -1    0    0    0    0 -0.0000000000e+00 -0.0000000000e+00 +0.0000000000e+00 1.3100000000e+02 1.3100000000e+02 0.0000e+00 0.0000e+00
       13  1    1    2    0    0 -1.2951802465e+00 +1.0751728159e+01 +1.8184931768e+01 2.1165539391e+01 1.0566000000e-01 0.0000e+00 1.0000e+00
      994  1    1    2    0    0 +1.2464284016e+00 -8.4968930900e+00 +3.4160417309e+00 1.3132562628e+02 1.3100000000e+02 0.0000e+00 0.0000e+00
      997  1    1    2    0    0 +4.8751844912e-02 -2.2548350693e+00 +4.7839901534e+02 4.7850883433e+02 1.0000000000e+01 0.0000e+00 0.0000e+00
</event>
<event>
 5      1 +4.4770400e-06 2.08347900e+02 7.95774700e-02 4.89201300e-01
       13 -1    0    0    0    0 +0.0000000000e+00 +0.0000000000e+00 +4.9999998884e+02 5.0000000000e+02 1.0566000000e-01 0.0000e+00 -1.0000e+00
      994 -1    0    0    0    0 -0.0000000000e+00 -0.0000000000e+00 +0.0000000000e+00 1.3100000000e+02 1.3100000000e+02 0.0000e+00 0.0000e+00
       13  1    1    2    0    0 -5.9330993247e+00 +2.1845494415e+01 +3.8636437692e+01 4.4779602224e+01 1.0566000000e-01 0.0000e+00 1.0000e+00
      994  1    1    2    0    0 +6.6546549723e+00 -3.8121365593e+01 +1.2739198832e+01 1.3718895777e+02 1.3100000000e+02 0.0000e+00 0.0000e+00
      997  1    1    2    0    0 -7.2155564761e-01 +1.6275871178e+01 +4.4862435231e+02 4.4903144000e+02 1.0000000000e+01 0.0000e+00 0.0000e+00
</event>
<event>
 5      1 +4.4770400e-06 2.12923200e+02 7.95774700e-02 4.81737900e-01
       13 -1    0    0    0    0 +0.0000000000e+00 +0.0000000000e+00 +4.9999998884e+02 5.0000000000e+02 1.0566000000e-01 0.0000e+00 1.0000e+00
      994 -1    0    0    0    0 -0.0000000000e+00 -0.0000000000e+00 +0.0000000000e+00 1.3100000000e+02 1.3100000000e+02 0.0000e+00 0.0000e+00
       13  1    1    2    0    0 -1.4944679189e+01 -7.0015166850e+00 +8.6979154014e+01 8.8531062735e+01 1.0566000000e-01 0.0000e+00 -1.0000e+00
      994  1    1    2    0    0 +2.4359446198e+01 -9.0105403321e+00 +4.7301471572e+00 1.3363362881e+02 1.3100000000e+02 0.0000e+00 0.0000e+00
      997  1    1    2    0    0 -9.4147670085e+00 +1.6012057017e+01 +4.0829068766e+02 4.0883530846e+02 1.0000000000e+01 0.0000e+00 0.0000e+00
</event>
<event>
 5      1 +4.4770400e-06 2.10776100e+02 7.95774700e-02 4.85189300e-01
       13 -1    0    0    0    0 +0.0000000000e+00 +0.0000000000e+00 +4.9999998884e+02 5.0000000000e+02 1.0566000000e-01 0.0000e+00 -1.0000e+00
      994 -1    0    0    0    0 -0.0000000000e+00 -0.0000000000e+00 +0.0000000000e+00 1.3100000000e+02 1.3100000000e+02 0.0000e+00 0.0000e+00
       13  1    1    2    0    0 +1.8853012284e+00 +1.7777947830e+01 +4.8983298990e+01 5.2143882994e+01 1.0566000000e-01 0.0000e+00 1.0000e+00
      994  1    1    2    0    0 -5.2325698800e+00 -1.4032411399e+01 +4.2215437095e+00 1.3192084668e+02 1.3100000000e+02 0.0000e+00 0.0000e+00
      997  1    1    2    0    0 +3.3472686515e+00 -3.7455364307e+00 +4.4679514614e+02 4.4693527033e+02 1.0000000000e+01 0.0000e+00 0.0000e+00
</event>
<event>
 5      1 +4.4770400e-06 1.93343100e+02 7.95774700e-02 5.16917700e-01
       13 -1    0    0    0    0 +0.0000000000e+00 +0.0000000000e+00 +4.9999998884e+02 5.0000000000e+02 1.0566000000e-01 0.0000e+00 -1.0000e+00
      994 -1    0    0    0    0 -0.0000000000e+00 -0.0000000000e+00 +0.0000000000e+00 1.3100000000e+02 1.3100000000e+02 0.0000e+00 0.0000e+00
       13  1    1    2    0    0 +3.1708029838e+01 +1.5137812662e+01 +2.5264305461e+01 4.3276423407e+01 1.0566000000e-01 0.0000e+00 1.0000e+00
      994  1    1    2    0    0 -1.6384788638e+01 -2.3094451323e+00 +2.1312225710e+01 1.3374978804e+02 1.3100000000e+02 0.0000e+00 0.0000e+00
      997  1    1    2    0    0 -1.5323241200e+01 -1.2828367530e+01 +4.5342345766e+02 4.5397378856e+02 1.0000000000e+01 0.0000e+00 0.0000e+00
</event>
<event>
 5      1 +4.4770400e-06 2.10833200e+02 7.95774700e-02 4.85096400e-01
       13 -1    0    0    0    0 +0.0000000000e+00 +0.0000000000e+00 +4.9999998884e+02 5.0000000000e+02 1.0566000000e-01 0.0000e+00 -1.0000e+00
      994 -1    0    0    0    0 -0.0000000000e+00 -0.0000000000e+00 +0.0000000000e+00 1.3100000000e+02 1.3100000000e+02 0.0000e+00 0.0000e+00
       13  1    1    2    0    0 -1.3358289341e+01 -1.6836778066e+01 +8.8505546819e+01 9.1077790769e+01 1.0566000000e-01 0.0000e+00 1.0000e+00
      994  1    1    2    0    0 +5.0814122548e+00 +1.8097008792e+00 +3.2050129757e+00 1.3115017299e+02 1.3100000000e+02 0.0000e+00 0.0000e+00
      997  1    1    2    0    0 +8.2768770863e+00 +1.5027077187e+01 +4.0828942904e+02 4.0877203624e+02 1.0000000000e+01 0.0000e+00 0.0000e+00
</event>
<event>
 5      1 +4.4770400e-06 2.07960900e+02 7.95774700e-02 4.89851800e-01
       13 -1    0    0    0    0 +0.0000000000e+00 +0.0000000000e+00 +4.9999998884e+02 5.0000000000e+02 1.0566000000e-01 0.0000e+00 1.0000e+00
      994 -1    0    0    0    0 -0.0000000000e+00 -0.0000000000e+00 +0.0000000000e+00 1.3100000000e+02 1.3100000000e+02 0.0000e+00 0.0000e+00
       13  1    1    2    0    0 +2.8416530349e+01 -3.7541854029e+00 +7.8415225490e+01 8.3489830865e+01 1.0566000000e-01 0.0000e+00 -1.0000e+00
      994  1    1    2    0    0 -3.3612402955e+01 +1.1097397800e+02 +8.5820355972e+01 1.9486187653e+02 1.3100000000e+02 0.0000e+00 0.0000e+00
      997  1    1    2    0    0 +5.1958726062e+00 -1.0721979260e+02 +3.3576440737e+02 3.5264829260e+02 1.0000000000e+01 0.0000e+00 0.0000e+00
</event>
<event>
 5      1 +4.4770400e-06 2.08324000e+02 7.95774700e-02 4.89241500e-01
       13 -1    0    0    0    0 +0.0000000000e+00 +0.0000000000e+00 +4.9999998884e+02 5.0000000000e+02 1.0566000000e-01 0.0000e+00 -1.0000e+00
      994 -1    0    0    0    0 -0.0000000000e+00 -0.0000000000e+00 +0.0000000000e+00 1.3100000000e+02 1.3100000000e+02 0.0000e+00 0.0000e+00
       13  1    1    2    0    0 -2.6392861804e+01 +1.1307149108e+01 +9.4725827034e+01 9.8981959197e+01 1.0566000000e-01 0.0000e+00 1.0000e+00
      994  1    1    2    0    0 +5.2931391449e+00 -3.4215113145e+00 +5.2720774587e+00 1.3125745260e+02 1.3100000000e+02 0.0000e+00 0.0000e+00
      997  1    1    2    0    0 +2.1099722659e+01 -7.8856377939e+00 +4.0000208434e+02 4.0076058821e+02 1.0000000000e+01 0.0000e+00 0.0000e+00
</event>
<event>
 5      1 +4.4770400e-06 2.09871900e+02 7.95774700e-02 4.86669600e-01
       13 -1    0    0    0    0 +0.0000000000e+00 +0.0000000000e+00 +4.9999998884e+02 5.0000000000e+02 1.0566000000e-01 0.0000e+00 -1.0000e+00
      994 -1    0    0    0    0 -0.0000000000e+00 -0.0000000000e+00 +0.0000000000e+00 1.3100000000e+02 1.3100000000e+02 0.0000e+00 0.0000e+00
       13  1    1    2    0    0 +3.8711286870e-02 -4.3431214367e+01 +2.3275934138e+02 2.3677667546e+02 1.0566000000e-01 0.0000e+00 1.0000e+00
      994  1    1    2    0    0 -8.3989884375e-01 +2.8672684019e+01 +7.9712344072e+00 1.3434049582e+02 1.3100000000e+02 0.0000e+00 0.0000e+00
      997  1    1    2    0    0 +8.0118755688e-01 +1.4758530348e+01 +2.5926941305e+02 2.5988282872e+02 1.0000000000e+01 0.0000e+00 0.0000e+00
</event>
<event>
 5      1 +4.4770400e-06 2.11470300e+02 7.95774700e-02 4.84063800e-01
       13 -1    0    0    0    0 +0.0000000000e+00 +0.0000000000e+00 +4.9999998884e+02 5.0000000000e+02 1.0566000000e-01 0.0000e+00 -1.0000e+00
      994 -1    0    0    0    0 -0.0000000000e+00 -0.0000000000e+00 +0.0000000000e+00 1.3100000000e+02 1.3100000000e+02 0.0000e+00 0.0000e+00
       13  1    1    2    0    0 +1.2475397667e+01 +8.7963077910e+00 +3.8666429158e+01 4.1570596406e+01 1.0566000000e-01 0.0000e+00 1.0000e+00
      994  1    1    2    0    0 -1.4910042440e+01 -1.9103858448e+01 +5.4717556479e+00 1.3333494247e+02 1.3100000000e+02 0.0000e+00 0.0000e+00
      997  1    1    2    0    0 +2.4346447729e+00 +1.0307550657e+01 +4.5586180403e+02 4.5609446113e+02 1.0000000000e+01 0.0000e+00 0.0000e+00
</event>
<event>
 5      1 +4.4770400e-06 2.13028800e+02 7.95774700e-02 4.81570500e-01
       13 -1    0    0    0    0 +0.0000000000e+00 +0.0000000000e+00 +4.9999998884e+02 5.0000000000e+02 1.0566000000e-01 0.0000e+00 -1.0000e+00
      994 -1    0    0    0    0 -0.0000000000e+00 -0.0000000000e+00 +0.0000000000e+00 1.3100000000e+02 1.3100000000e+02 0.0000e+00 0.0000e+00
       13  1    1    2    0    0 -7.9932662292e+00 +7.4217995298e+00 +3.4783130428e+01 3.6453432481e+01 1.0566000000e-01 0.0000e+00 1.0000e+00
      994  1    1    2    0    0 +2.2805708629e+01 -1.4486294625e+01 +4.9187640026e+00 1.3384747781e+02 1.3100000000e+02 0.0000e+00 0.0000e+00
      997  1    1    2    0    0 -1.4812442400e+01 +7.0644950947e+00 +4.6029809441e+02 4.6069908970e+02 1.0000000000e+01 0.0000e+00 0.0000e+00
</event>
<event>
 5      1 +4.4770400e-06 2.12364600e+02 7.95774700e-02 4.82627400e-01
       13 -1    0    0    0    0 +0.0000000000e+00 +0.0000000000e+00 +4.9999998884e+02 5.0000000000e+02 1.0566000000e-01 0.0000e+00 1.0000e+00
      994 -1    0    0    0    0 -0.0000000000e+00 -0.0000000000e+00 +0.0000000000e+00 1.3100000000e+02 1.3100000000e+02 0.0000e+00 0.0000e+00
       13  1    1    2    0    0 -1.5646460232e+01 +8.8901056253e-01 +7.9729869919e+01 8.1255555988e+01 1.0566000000e-01 0.0000e+00 -1.0000e+00
      994  1    1    2    0    0 +2.5258509733e+00 -3.4897880587e+00 +1.9441446421e+00 1.3108523274e+02 1.3100000000e+02 0.0000e+00 0.0000e+00
      997  1    1    2    0    0 +1.3120609258e+01 +2.6007774961e+00 +4.1832597427e+02 4.1865921127e+02 1.0000000000e+01 0.0000e+00 0.0000e+00
</event>
<event>
 5      1 +4.4770400e-06 2.12853000e+02 7.95774700e-02 4.81849400e-01
       13 -1    0    0    0    0 +0.0000000000e+00 +0.0000000000e+00 +4.9999998884e+02 5.0000000000e+02 1.0566000000e-01 0.0000e+00 -1.0000e+00
      994 -1    0    0    0    0 -0.0000000000e+00 -0.0000000000e+00 +0.0000000000e+00 1.3100000000e+02 1.3100000000e+02 0.0000e+00 0.0000e+00
       13  1    1    2    0    0 +1.4197885840e+01 -6.0348230759e+00 +7.4553153059e+01 7.6132666097e+01 1.0566000000e-01 0.0000e+00 1.0000e+00
      994  1    1    2    0    0 -1.2150496548e+01 +1.0628224666e+01 +2.7471497697e+00 1.3201947037e+02 1.3100000000e+02 0.0000e+00 0.0000e+00
      997  1    1    2    0    0 -2.0473892912e+00 -4.5934015899e+00 +4.2269968601e+02 4.2284786353e+02 1.0000000000e+01 0.0000e+00 0.0000e+00
</event>
<event>
 5      1 +4.4770400e-06 2.10876900e+02 7.95774700e-02 4.85025400e-01
       13 -1    0    0    0    0 +0.0000000000e+00 +0.0000000000e+00 +4.9999998884e+02 5.0000000000e+02 1.0566000000e-01 0.0000e+00 -1.0000e+00
      994 -1    0    0    0    0 -0.0000000000e+00 -0.0000000000e+00 +0.0000000000e+00 1.3100000000e+02 1.3100000000e+02 0.0000e+00 0.0000e+00
       13  1    1    2    0    0 +7.7592462192e+00 +1.7086198450e+01 +6.0417301213e+01 6.3264567723e+01 1.0566000000e-01 0.0000e+00 1.0000e+00
      994  1    1    2    0    0 +2.0145912858e+00 -1.0835279511e+01 +3.6290994012e+00 1.3151285953e+02 1.3100000000e+02 0.0000e+00 0.0000e+00
      997  1    1    2    0    0 -9.7738375050e+00 -6.2509189391e+00 +4.3595358822e+02 4.3622257274e+02 1.0000000000e+01 0.0000e+00 0.0000e+00
</event>
<event>
 5      1 +4.4770400e-06 2.11188900e+02 7.95774700e-02 4.84519000e-01
       13 -1    0    0    0    0 +0.0000000000e+00 +0.0000000000e+00 +4.9999998884e+02 5.0000000000e+02 1.0566000000e-01 0.0000e+00 1.0000e+00
      994 -1    0    0    0    0 -0.0000000000e+00 -0.0000000000e+00 +0.0000000000e+00 1.3100000000e+02 1.3100000000e+02 0.0000e+00 0.0000e+00
       13  1    1    2    0    0 -9.4640090794e+01 +1.3934841322e+01 +3.6763162915e+02 3.7987360069e+02 1.0566000000e-01 0.0000e+00 -1.0000e+00
      994  1    1    2    0    0 +9.9222515040e+01 -3.1484173355e+01 +6.3098052195e+01 1.7882596247e+02 1.3100000000e+02 0.0000e+00 0.0000e+00
      997  1    1    2    0    0 -4.5824242463e+00 +1.7549332033e+01 +6.9270307491e+01 7.2300436836e+01 1.0000000000e+01 0.0000e+00 0.0000e+00
</event>
<event>
 5      1 +4.4770400e-06 2.11793900e+02 7.95774700e-02 4.83542200e-01
       13 -1    0    0    0    0 +0.0000000000e+00 +0.0000000000e+00 +4.9999998884e+02 5.0000000000e+02 1.0566000000e-01 0.0000e+00 -1.0000e+00
      994 -1    0    0    0    0 -0.0000000000e+00 -0.0000000000e+00 +0.0000000000e+00 1.3100000000e+02 1.3100000000e+02 0.0000e+00 0.0000e+00
       13  1    1    2    0    0 +1.2062263016e+01 +1.3305108796e+01 +9.2953001262e+01 9.4672042952e+01 1.0566000000e-01 0.0000e+00 1.0000e+00
      994  1    1    2    0    0 +3.5705725241e+00 -2.1176988305e+00 +2.3862666896e+00 1.3108748188e+02 1.3100000000e+02 0.0000e+00 0.0000e+00
      997  1    1    2    0    0 -1.5632835540e+01 -1.1187409965e+01 +4.0466072088e+02 4.0524047517e+02 1.0000000000e+01 0.0000e+00 0.0000e+00
</event>
<event>
 5      1 +4.4770400e-06 2.10300000e+02 7.95774700e-02 4.85966800e-01
       13 -1    0    0    0    0 +0.0000000000e+00 +0.0000000000e+00 +4.9999998884e+02 5.0000000000e+02 1.0566000000e-01 0.0000e+00 -1.0000e+00
      994 -1    0    0    0    0 -0.0000000000e+00 -0.0000000000e+00 +0.0000000000e+00 1.3100000000e+02 1.3100000000e+02 0.0000e+00 0.0000e+00
       13  1    1    2    0    0 -1.4458245181e+01 +1.3264108495e+01 +5.5793745222e+01 5.9143305604e+01 1.0566000000e-01 0.0000e+00 1.0000e+00
      994  1    1    2    0    0 +2.0887945476e+01 +5.8452786327e+00 +5.8387597985e+00 1.3291186803e+02 1.3100000000e+02 0.0000e+00 0.0000e+00
      997  1    1    2    0    0 -6.4297002951e+00 -1.9109387127e+01 +4.3836748382e+02 4.3894482636e+02 1.0000000000e+01 0.0000e+00 0.0000e+00
</event>
<event>
 5      1 +4.4770400e-06 2.11334200e+02 7.95774700e-02 4.84283700e-01
       13 -1    0    0    0    0 +0.0000000000e+00 +0.0000000000e+00 +4.9999998884e+02 5.0000000000e+02 1.0566000000e-01 0.0000e+00 1.0000e+00
      994 -1    0    0    0    0 -0.0000000000e+00 -0.0000000000e+00 +0.0000000000e+00 1.3100000000e+02 1.3100000000e+02 0.0000e+00 0.0000e+00
       13  1    1    2    0    0 +1.1198593769e+01 -2.3163953860e+00 +2.3556656846e+01 2.6185901470e+01 1.0566000000e-01 0.0000e+00 -1.0000e+00
      994  1    1    2    0    0 -9.7830142563e+00 +1.5415387999e+00 +3.1491861594e+00 1.3141157134e+02 1.3100000000e+02 0.0000e+00 0.0000e+00
      997  1    1    2    0    0 -1.4155795130e+00 +7.7485658613e-01 +4.7329414583e+02 4.7340252719e+02 1.0000000000e+01 0.0000e+00 0.0000e+00
</event>
<event>
 5      1 +4.4770400e-06 2.09276900e+02 7.95774700e-02 4.87652400e-01
       13 -1    0    0    0    0 +0.0000000000e+00 +0.0000000000e+00 +4.9999998884e+02 5.0000000000e+02 1.0566000000e-01 0.0000e+00 1.0000e+00
      994 -1    0    0    0    0 -0.0000000000e+00 -0.0000000000e+00 +0.0000000000e+00 1.3100000000e+02 1.3100000000e+02 0.0000e+00 0.0000e+00
       13  1    1    2    0    0 +1.5295783609e+00 -1.0782432617e+01 +1.1403655255e+01 1.5768797682e+01 1.0566000000e-01 0.0000e+00 -1.0000e+00
      994  1    1    2    0    0 +2.6797942546e+00 +1.6352487766e+01 +5.6853287018e+00 1.3216621397e+02 1.3100000000e+02 0.0000e+00 0.0000e+00
      997  1    1    2    0    0 -4.2093726155e+00 -5.5700551489e+00 +4.8291100488e+02 4.8306498835e+02 1.0000000000e+01 0.0000e+00 0.0000e+00
</event>
<event>
 5      1 +4.4770400e-06 2.02329300e+02 7.95774700e-02 4.99679300e-01
       13 -1    0    0    0    0 +0.0000000000e+00 +0.0000000000e+00 +4.9999998884e+02 5.0000000000e+02 1.0566000000e-01 0.0000e+00 1.0000e+00
      994 -1    0    0    0    0 -0.0000000000e+00 -0.0000000000e+00 +0.0000000000e+00 1.3100000000e+02 1.3100000000e+02 0.0000e+00 0.0000e+00
       13  1    1    2    0    0 +6.3134293691e+00 +3.4070244629e+01 +5.0800726566e+01 6.1492812126e+01 1.0566000000e-01 0.0000e+00 -1.0000e+00
      994  1    1    2    0    0 +9.0869468809e+00 -3.4437785101e+01 +1.6883248819e+01 1.3680123441e+02 1.3100000000e+02 0.0000e+00 0.0000e+00
      997  1    1    2    0    0 -1.5400376250e+01 +3.6754047215e-01 +4.3231601345e+02 4.3270595346e+02 1.0000000000e+01 0.0000e+00 0.0000e+00
</event>
<event>
 5      1 +4.4770400e-06 2.11577600e+02 7.95774700e-02 4.83890600e-01
       13 -1    0    0    0    0 +0.0000000000e+00 +0.0000000000e+00 +4.9999998884e+02 5.0000000000e+02 1.0566000000e-01 0.0000e+00 1.0000e+00
      994 -1    0    0    0    0 -0.0000000000e+00 -0.0000000000e+00 +0.0000000000e+00 1.3100000000e+02 1.3100000000e+02 0.0000e+00 0.0000e+00
       13  1    1    2    0    0 +1.3510609195e+01 +2.5484413633e+00 +5.2882802953e+01 5.4640947341e+01 1.0566000000e-01 0.0000e+00 -1.0000e+00
      994  1    1    2    0    0 +1.2457590482e+01 -5.6884823368e+00 +3.3986688535e+00 1.3175773731e+02 1.3100000000e+02 0.0000e+00 0.0000e+00
      997  1    1    2    0    0 -2.5968199677e+01 +3.1400409735e+00 +4.4371851703e+02 4.4460131535e+02 1.0000000000e+01 0.0000e+00 0.0000e+00
</event>
<event>
 5      1 +4.4770400e-06 2.12714300e+02 7.95774700e-02 4.82069800e-01
       13 -1    0    0    0    0 +0.0000000000e+00 +0.0000000000e+00 +4.9999998884e+02 5.0000000000e+02 1.0566000000e-01 0.0000e+00 1.0000e+00
      994 -1    0    0    0    0 -0.0000000000e+00 -0.0000000000e+00 +0.0000000000e+00 1.3100000000e+02 1.3100000000e+02 0.0000e+00 0.0000e+00
       13  1    1    2    0    0 -2.6614721531e-01 +1.3510929330e+01 +4.3378089495e+01 4.5434412706e+01 1.0566000000e-01 0.0000e+00 -1.0000e+00
      994  1    1    2    0    0 +6.0716226790e+01 -4.0643986828e+01 +2.9063353687e+01 1.5278767093e+02 1.3100000000e+02 0.0000e+00 0.0000e+00
      997  1    1    2    0    0 -6.0450079575e+01 +2.7133057498e+01 +4.2755854565e+02 4.3277791636e+02 1.0000000000e+01 0.0000e+00 0.0000e+00
</event>
<event>
 5      1 +4.4770400e-06 2.10979800e+02 7.95774700e-02 4.84858100e-01
       13 -1    0    0    0    0 +0.0000000000e+00 +0.0000000000e+00 +4.9999998884e+02 5.0000000000e+02 1.0566000000e-01 0.0000e+00 1.0000e+00
      994 -1    0    0    0    0 -0.0000000000e+00 -0.0000000000e+00 +0.0000000000e+00 1.3100000000e+02 1.3100000000e+02 0.0000e+00 0.0000e+00
       13  1    1    2    0    0 +1.3745248967e+01 -1.9769914475e+00 +3.0425528579e+01 3.3444944577e+01 1.0566000000e-01 0.0000e+00 -1.0000e+00
      994  1    1    2    0    0 -1.6374038309e+01 -1.0529518384e+01 +4.8292230535e+00 1.3252660594e+02 1.3100000000e+02 0.0000e+00 0.0000e+00
      997  1    1    2    0    0 +2.6287893415e+00 +1.2506509832e+01 +4.6474523720e+02 4.6502844948e+02 1.0000000000e+01 0.0000e+00 0.0000e+00
</event>
<event>
 5      1 +4.4770400e-06 2.07209500e+02 7.95774700e-02 4.91123500e-01
       13 -1    0    0    0    0 +0.0000000000e+00 +0.0000000000e+00 +4.9999998884e+02 5.0000000000e+02 1.0566000000e-01 0.0000e+00 -1.0000e+00
      994 -1    0    0    0    0 -0.0000000000e+00 -0.0000000000e+00 +0.0000000000e+00 1.3100000000e+02 1.3100000000e+02 0.0000e+00 0.0000e+00
       13  1    1    2    0    0 +1.0448912664e+01 -3.0139039444e+00 +6.9506340418e+00 1.2906814885e+01 1.0566000000e-01 0.0000e+00 1.0000e+00
      994  1    1    2    0    0 -1.5117454537e+01 +1.1586603619e+00 +7.1533815639e+00 1.3206835652e+02 1.3100000000e+02 0.0000e+00 0.0000e+00
      997  1    1    2    0    0 +4.6685418729e+00 +1.8552435825e+00 +4.8589597323e+02 4.8602482860e+02 1.0000000000e+01 0.0000e+00 0.0000e+00
</event>
<event>
 5      1 +4.4770400e-06 2.09337700e+02 7.95774700e-02 4.87551700e-01
       13 -1    0    0    0    0 +0.0000000000e+00 +0.0000000000e+00 +4.9999998884e+02 5.0000000000e+02 1.0566000000e-01 0.0000e+00 1.0000e+00
      994 -1    0    0    0    0 -0.0000000000e+00 -0.0000000000e+00 +0.0000000000e+00 1.3100000000e+02 1.3100000000e+02 0.0000e+00 0.0000e+00
       13  1    1    2    0    0 +5.2935221072e+01 -1.6992434444e+01 +2.0003814104e+02 2.0762020493e+02 1.0566000000e-01 0.0000e+00 -1.0000e+00
      994  1    1    2    0    0 -5.9130734377e+01 +6.9956891778e+00 +2.2685876801e+01 1.4567440551e+02 1.3100000000e+02 0.0000e+00 0.0000e+00
      997  1    1    2    0    0 +6.1955133049e+00 +9.9967452665e+00 +2.7727597099e+02 2.7770538956e+02 1.0000000000e+01 0.0000e+00 0.0000e+00
</event>
<event>
 5      1 +4.4770400e-06 2.13358600e+02 7.95774700e-02 4.81048800e-01
       13 -1    0    0    0    0 +0.0000000000e+00 +0.0000000000e+00 +4.9999998884e+02 5.0000000000e+02 1.0566000000e-01 0.0000e+00 1.0000e+00
      994 -1    0    0    0    0 -0.0000000000e+00 -0.0000000000e+00 +0.0000000000e+00 1.3100000000e+02 1.3100000000e+02 0.0000e+00 0.0000e+00
       13  1    1    2    0    0 -7.0224226901e+00 -7.6643768755e+00 +5.0196340587e+01 5.1261494961e+01 1.0566000000e-01 0.0000e+00 -1.0000e+00
      994  1    1    2    0    0 +3.5745601082e+00 +1.0630811119e+01 +1.6898882563e+00 1.3149010361e+02 1.3100000000e+02 0.0000e+00 0.0000e+00
      997  1    1    2    0    0 +3.4478625820e+00 -2.9664342435e+00 +4.4811375999e+02 4.4824840143e+02 1.0000000000e+01 0.0000e+00 0.0000e+00
</event>
<event>
 5      1 +4.4770400e-06 2.10345400e+02 7.95774700e-02 4.85892300e-01
       13 -1    0    0    0    0 +0.0000000000e+00 +0.0000000000e+00 +4.9999998884e+02 5.0000000000e+02 1.0566000000e-01 0.0000e+00 1.0000e+00
      994 -1    0    0    0    0 -0.0000000000e+00 -0.0000000000e+00 +0.0000000000e+00 1.3100000000e+02 1.3100000000e+02 0.0000e+00 0.0000e+00
       13  1    1    2    0    0 -5.1916271717e+01 -5.0612541822e+00 +1.9418885012e+02 2.0107271381e+02 1.0566000000e-01 0.0000e+00 -1.0000e+00
      994  1    1    2    0    0 +6.0629710340e+01 +3.1695426592e+01 +2.7864730534e+01 1.5039283577e+02 1.3100000000e+02 0.0000e+00 0.0000e+00
      997  1    1    2    0    0 -8.7134386227e+00 -2.6634172410e+01 +2.7794640818e+02 2.7953445042e+02 1.0000000000e+01 0.0000e+00 0.0000e+00
</event>
<event>
 5      1 +4.4770400e-06 2.11477000e+02 7.95774700e-02 4.84052900e-01
       13 -1    0    0    0    0 +0.0000000000e+00 +0.0000000000e+00 +4.9999998884e+02 5.0000000000e+02 1.0566000000e-01 0.0000e+00 1.0000e+00
      994 -1    0    0    0    0 -0.0000000000e+00 -0.0000000000e+00 +0.0000000000e+00 1.3100000000e+02 1.3100000000e+02 0.0000e+00 0.0000e+00
       13  1    1    2    0    0 -1.1802382357e+01 +1.5239365104e+00 +2.9797839710e+01 3.2086461744e+01 1.0566000000e-01 0.0000e+00 -1.0000e+00
      994  1    1    2    0    0 +3.8926577639e-01 -3.4598735368e+00 +2.6110394415e+00 1.3107226930e+02 1.3100000000e+02 0.0000e+00 0.0000e+00
      997  1    1    2    0    0 +1.1413116580e+01 +1.9359370263e+00 +4.6759110968e+02 4.6784126896e+02 1.0000000000e+01 0.0000e+00 0.0000e+00
</event>
<event>
 5      1 +4.4770400e-06 2.10283200e+02 7.95774700e-02 4.85994300e-01
       13 -1    0    0    0    0 +0.0000000000e+00 +0.0000000000e+00 +4.9999998884e+02 5.0000000000e+02 1.0566000000e-01 0.0000e+00 -1.0000e+00
      994 -1    0    0    0    0 -0.0000000000e+00 -0.0000000000e+00 +0.0000000000e+00 1.3100000000e+02 1.3100000000e+02 0.0000e+00 0.0000e+00
       13  1    1    2    0    0 -5.2786686493e+01 +2.0905957108e+01 +2.9529584697e+01 6.3996100271e+01 1.0566000000e-01 0.0000e+00 1.0000e+00
      994  1    1    2    0    0 +3.8475082416e+01 -1.5119580412e+01 +5.0080991216e+01 1.4621230919e+02 1.3100000000e+02 0.0000e+00 0.0000e+00
      997  1    1    2    0    0 +1.4311604077e+01 -5.7863766964e+00 +4.2038941292e+02 4.2079159053e+02 1.0000000000e+01 0.0000e+00 0.0000e+00
</event>
<event>
 5      1 +4.4770400e-06 2.11202000e+02 7.95774700e-02 4.84497700e-01
       13 -1    0    0    0    0 +0.0000000000e+00 +0.0000000000e+00 +4.9999998884e+02 5.0000000000e+02 1.0566000000e-01 0.0000e+00 1.0000e+00
      994 -1    0    0    0    0 -0.0000000000e+00 -0.0000000000e+00 +0.0000000000e+00 1.3100000000e+02 1.3100000000e+02 0.0000e+00 0.0000e+00
       13  1    1    2    0    0 +1.1805530121e+01 -4.8257546234e-01 +3.3306253354e+01 3.5340077773e+01 1.0566000000e-01 0.0000e+00 -1.0000e+00
      994  1    1    2    0    0 +1.7128415525e+01 +9.3878851836e+00 +4.6627251393e+00 1.3253020792e+02 1.3100000000e+02 0.0000e+00 0.0000e+00
      997  1    1    2    0    0 -2.8933945646e+01 -8.9053097213e+00 +4.6203101034e+02 4.6312971430e+02 1.0000000000e+01 0.0000e+00 0.0000e+00
</event>
<event>
 5      1 +4.4770400e-06 2.09441000e+02 7.95774700e-02 4.87380700e-01
       13 -1    0    0    0    0 +0.0000000000e+00 +0.0000000000e+00 +4.9999998884e+02 5.0000000000e+02 1.0566000000e-01 0.0000e+00 -1.0000e+00
      994 -1    0    0    0    0 -0.0000000000e+00 -0.0000000000e+00 +0.0000000000e+00 1.3100000000e+02 1.3100000000e+02 0.0000e+00 0.0000e+00
       13  1    1    2    0    0 -1.3294920369e+01 -7.5687687974e+00 +2.8122022114e+01 3.2014066604e+01 1.0566000000e-01 0.0000e+00 1.0000e+00
      994  1    1    2    0    0 +1.2271886973e-01 +8.8521015874e+00 +4.5644549243e+00 1.3137811466e+02 1.3100000000e+02 0.0000e+00 0.0000e+00
      997  1    1    2    0    0 +1.3172201500e+01 -1.2833327899e+00 +4.6731351180e+02 4.6760781874e+02 1.0000000000e+01 0.0000e+00 0.0000e+00
</event>
<event>
 5      1 +4.4770400e-06 2.01715000e+02 7.95774700e-02 5.00794100e-01
       13 -1    0    0    0    0 +0.0000000000e+00 +0.0000000000e+00 +4.9999998884e+02 5.0000000000e+02 1.0566000000e-01 0.0000e+00 -1.0000e+00
      994 -1    0    0    0    0 -0.0000000000e+00 -0.0000000000e+00 +0.0000000000e+00 1.3100000000e+02 1.3100000000e+02 0.0000e+00 0.0000e+00
       13  1    1    2    0    0 +2.7285198435e+01 +6.1812488932e+01 +1.3155033679e+02 1.4788768750e+02 1.0566000000e-01 0.0000e+00 1.0000e+00
      994  1    1    2    0    0 -3.7951068675e+01 -6.3820885891e+01 +4.1998049414e+01 1.5632730166e+02 1.3100000000e+02 0.0000e+00 0.0000e+00
      997  1    1    2    0    0 +1.0665870240e+01 +2.0083969589e+00 +3.2645160264e+02 3.2678501084e+02 1.0000000000e+01 0.0000e+00 0.0000e+00
</event>
<event>
 5      1 +4.4770400e-06 2.12770600e+02 7.95774700e-02 4.81980400e-01
       13 -1    0    0    0    0 +0.0000000000e+00 +0.0000000000e+00 +4.9999998884e+02 5.0000000000e+02 1.0566000000e-01 0.0000e+00 1.0000e+00
      994 -1    0    0    0    0 -0.0000000000e+00 -0.0000000000e+00 +0.0000000000e+00 1.3100000000e+02 1.3100000000e+02 0.0000e+00 0.0000e+00
       13  1    1    2    0    0 +1.2605156769e+01 +1.2552018724e+00 +6.0657842729e+01 6.1966527718e+01 1.0566000000e-01 0.0000e+00 -1.0000e+00
      994  1    1    2    0    0 -2.4222155741e+00 -4.7509983750e+00 +1.6744610102e+00 1.3111919361e+02 1.3100000000e+02 0.0000e+00 0.0000e+00
      997  1    1    2    0    0 -1.0182941195e+01 +3.4957965026e+00 +4.3766768510e+02 4.3791427867e+02 1.0000000000e+01 0.0000e+00 0.0000e+00
</event>
<event>
 5      1 +4.4770400e-06 2.07549600e+02 7.95774700e-02 4.90546500e-01
       13 -1    0    0    0    0 +0.0000000000e+00 +0.0000000000e+00 +4.9999998884e+02 5.0000000000e+02 1.0566000000e-01 0.0000e+00 -1.0000e+00
      994 -1    0    0    0    0 -0.0000000000e+00 -0.0000000000e+00 +0.0000000000e+00 1.3100000000e+02 1.3100000000e+02 0.0000e+00 0.0000e+00
       13  1    1    2    0    0 -1.1085947814e+01 -4.7336733582e+00 +1.0394316549e+01 1.5917251112e+01 1.0566000000e-01 0.0000e+00 1.0000e+00
      994  1    1    2    0    0 +7.0437872313e+00 +3.8534395133e+00 +6.0281798602e+00 1.3138418051e+02 1.3100000000e+02 0.0000e+00 0.0000e+00
      997  1    1    2    0    0 +4.0421605832e+00 +8.8023384494e-01 +4.8357749243e+02 4.8369856838e+02 1.0000000000e+01 0.0000e+00 0.0000e+00
</event>
<event>
 5      1 +4.4770400e-06 2.11595000e+02 7.95774700e-02 4.83862600e-01
       13 -1    0    0    0    0 +0.0000000000e+00 +0.0000000000e+00 +4.9999998884e+02 5.0000000000e+02 1.0566000000e-01 0.0000e+00 -1.0000e+00
      994 -1    0    0    0    0 -0.0000000000e+00 -0.0000000000e+00 +0.0000000000e+00 1.3100000000e+02 1.3100000000e+02 0.0000e+00 0.0000e+00
       13  1    1    2    0    0 -5.6847338654e+00 -1.0048469052e+01 +2.7377232967e+01 2.9712152032e+01 1.0566000000e-01 0.0000e+00 1.0000e+00
      994  1    1    2    0    0 +1.7029299207e+01 -2.1576342907e+00 +3.9154867563e+00 1.3217784782e+02 1.3100000000e+02 0.0000e+00 0.0000e+00
      997  1    1    2    0    0 -1.1344565342e+01 +1.2206103343e+01 +4.6870726911e+02 4.6911000015e+02 1.0000000000e+01 0.0000e+00 0.0000e+00
</event>
<event>
 5      1 +4.4770400e-06 2.12688200e+02 7.95774700e-02 4.82111500e-01
       13 -1    0    0    0    0 +0.0000000000e+00 +0.0000000000e+00 +4.9999998884e+02 5.0000000000e+02 1.0566000000e-01 0.0000e+00 1.0000e+00
      994 -1    0    0    0    0 -0.0000000000e+00 -0.0000000000e+00 +0.0000000000e+00 1.3100000000e+02 1.3100000000e+02 0.0000e+00 0.0000e+00
       13  1    1    2    0    0 +6.3557817671e+00 +1.2166509776e+01 +5.1722336012e+01 5.3512906187e+01 1.0566000000e-01 0.0000e+00 -1.0000e+00
      994  1    1    2    0    0 -5.4608332596e+00 -1.7642484020e+01 +3.2733952260e+00 1.3233590994e+02 1.3100000000e+02 0.0000e+00 0.0000e+00
      997  1    1    2    0    0 -8.9494850755e-01 +5.4759742440e+00 +4.4500425760e+02 4.4515118388e+02 1.0000000000e+01 0.0000e+00 0.0000e+00
</event>
<event>
 5      1 +4.4770400e-06 2.08473200e+02 7.95774700e-02 4.88991400e-01
       13 -1    0    0    0    0 +0.0000000000e+00 +0.0000000000e+00 +4.9999998884e+02 5.0000000000e+02 1.0566000000e-01 0.0000e+00 -1.0000e+00
      994 -1    0    0    0    0 -0.0000000000e+00 -0.0000000000e+00 +0.0000000000e+00 1.3100000000e+02 1.3100000000e+02 0.0000e+00 0.0000e+00
       13  1    1    2    0    0 +8.5623360246e-01 +1.3222084588e+01 +1.5957541380e+01 2.0741527132e+01 1.0566000000e-01 0.0000e+00 1.0000e+00
      994  1    1    2    0    0 +3.9188109051e+00 -8.0210309176e+00 +5.3533815532e+00 1.3141290922e+02 1.3100000000e+02 0.0000e+00 0.0000e+00
      997  1    1    2    0    0 -4.7750445076e+00 -5.2010536706e+00 +4.7868906590e+02 4.7884556365e+02 1.0000000000e+01 0.0000e+00 0.0000e+00
</event>
<event>
 5      1 +4.4770400e-06 1.93921300e+02 7.95774700e-02 5.15745000e-01
       13 -1    0    0    0    0 +0.0000000000e+00 +0.0000000000e+00 +4.9999998884e+02 5.0000000000e+02 1.0566000000e-01 0.0000e+00 1.0000e+00
      994 -1    0    0    0    0 -0.0000000000e+00 -0.0000000000e+00 +0.0000000000e+00 1.3100000000e+02 1.3100000000e+02 0.0000e+00 0.0000e+00
       13  1    1    2    0    0 +5.1588419001e+00 +1.7822265884e+01 +3.9385826196e+00 1.8967614718e+01 1.0566000000e-01 0.0000e+00 -1.0000e+00
      994  1    1    2    0    0 +4.2483945806e-02 +2.5022813259e+01 +2.1121447831e+01 1.3503058375e+02 1.3100000000e+02 0.0000e+00 0.0000e+00
      997  1    1    2    0    0 -5.2013258459e+00 -4.2845079144e+01 +4.7493995839e+02 4.7700180154e+02 1.0000000000e+01 0.0000e+00 0.0000e+00
</event>
<event>
 5      1 +4.4770400e-06 2.12092700e+02 7.95774700e-02 4.83062500e-01
       13 -1    0    0    0    0 +0.0000000000e+00 +0.0000000000e+00 +4.9999998884e+02 5.0000000000e+02 1.0566000000e-01 0.0000e+00 1.0000e+00
      994 -1    0    0    0    0 -0.0000000000e+00 -0.0000000000e+00 +0.0000000000e+00 1.3100000000e+02 1.3100000000e+02 0.0000e+00 0.0000e+00
       13  1    1    2    0    0 -4.1777021923e+00 +9.9906434896e+00 +2.9490067045e+01 3.1415623045e+01 1.0566000000e-01 0.0000e+00 -1.0000e+00
      994  1    1    2    0    0 -1.6288204490e+00 -5.7932217045e+00 +2.2444632033e+00 1.3115735621e+02 1.3100000000e+02 0.0000e+00 0.0000e+00
      997  1    1    2    0    0 +5.8065226413e+00 -4.1974217851e+00 +4.6826545859e+02 4.6842702074e+02 1.0000000000e+01 0.0000e+00 0.0000e+00
</event>
<event>
 5      1 +4.4770400e-06 2.10845500e+02 7.95774700e-02 4.85076400e-01
       13 -1    0    0    0    0 +0.0000000000e+00 +0.0000000000e+00 +4.9999998884e+02 5.0000000000e+02 1.0566000000e-01 0.0000e+00 1.0000e+00
      994 -1    0    0    0    0 -0.0000000000e+00 -0.0000000000e+00 +0.0000000000e+00 1.3100000000e+02 1.3100000000e+02 0.0000e+00 0.0000e+00
       13  1    1    2    0    0 +1.5113286742e+01 +1.0360649549e+01 +7.4128877418e+01 7.6360042735e+01 1.0566000000e-01 0.0000e+00 -1.0000e+00
      994  1    1    2    0    0 +5.0689573224e+00 +3.3664086668e+00 +3.2346001157e+00 1.3118113307e+02 1.3100000000e+02 0.0000e+00 0.0000e+00
      997  1    1    2    0    0 -2.0182244064e+01 -1.3727058216e+01 +4.2263651130e+02 4.2345882419e+02 1.0000000000e+01 0.0000e+00 0.0000e+00
</event>
<event>
 5      1 +4.4770400e-06 2.12624000e+02 7.95774700e-02 4.82213600e-01
       13 -1    0    0    0    0 +0.0000000000e+00 +0.0000000000e+00 +4.9999998884e+02 5.0000000000e+02 1.0566000000e-01 0.0000e+00 1.0000e+00
      994 -1    0    0    0    0 -0.0000000000e+00 -0.0000000000e+00 +0.0000000000e+00 1.3100000000e+02 1.3100000000e+02 0.0000e+00 0.0000e+00
       13  1    1    2    0    0 -2.8089746611e+00 -1.1903943508e+01 +4.5278474781e+01 4.6901446163e+01 1.0566000000e-01 0.0000e+00 -1.0000e+00
      994  1    1    2    0    0 +4.5037193403e+00 +9.1341249387e+00 +2.1580609874e+00 1.3141298624e+02 1.3100000000e+02 0.0000e+00 0.0000e+00
      997  1    1    2    0    0 -1.6947446793e+00 +2.7698185690e+00 +4.5256345307e+02 4.5268556759e+02 1.0000000000e+01 0.0000e+00 0.0000e+00
</event>
<event>
 5      1 +4.4770400e-06 2.10138300e+02 7.95774700e-02 4.86231700e-01
       13 -1    0    0    0    0 +0.0000000000e+00 +0.0000000000e+00 +4.9999998884e+02 5.0000000000e+02 1.0566000000e-01 0.0000e+00 -1.0000e+00
      994 -1    0    0    0    0 -0.0000000000e+00 -0.0000000000e+00 +0.0000000000e+00 1.3100000000e+02 1.3100000000e+02 0.0000e+00 0.0000e+00
       13  1    1    2    0    0 +2.0893467914e+01 -3.8726895020e+01 +1.1618425095e+01 4.5511628900e+01 1.0566000000e-01 0.0000e+00 1.0000e+00
      994  1    1    2    0    0 -8.8380347964e+00 +3.5689817417e+01 +4.7196962844e+01 1.4401537150e+02 1.3100000000e+02 0.0000e+00 0.0000e+00
      997  1    1    2    0    0 -1.2055433118e+01 +3.0370776032e+00 +4.4118460090e+02 4.4147299960e+02 1.0000000000e+01 0.0000e+00 0.0000e+00
</event>
<event>
 5      1 +4.4770400e-06 2.13017400e+02 7.95774700e-02 4.81588500e-01
       13 -1    0    0    0    0 +0.0000000000e+00 +0.0000000000e+00 +4.9999998884e+02 5.0000000000e+02 1.0566000000e-01 0.0000e+00 -1.0000e+00
      994 -1    0    0    0    0 -0.0000000000e+00 -0.0000000000e+00 +0.0000000000e+00 1.3100000000e+02 1.3100000000e+02 0.0000e+00 0.0000e+00
       13  1    1    2    0    0 +6.0427922037e+00 -1.3746429956e+01 +8.6686460708e+01 8.7977459092e+01 1.0566000000e-01 0.0000e+00 1.0000e+00
      994  1    1    2    0    0 +9.8234435266e-01 +1.1769154662e+01 +2.0241191556e+00 1.3154685500e+02 1.3100000000e+02 0.0000e+00 0.0000e+00
      997  1    1    2    0    0 -7.0251365563e+00 +1.9772752931e+00 +4.1128940897e+02 4.1147568591e+02 1.0000000000e+01 0.0000e+00 0.0000e+00
</event>
<event>
 5      1 +4.4770400e-06 1.98553600e+02 7.95774700e-02 5.06673600e-01
       13 -1    0    0    0    0 +0.0000000000e+00 +0.0000000000e+00 +4.9999998884e+02 5.0000000000e+02 1.0566000000e-01 0.0000e+00 -1.0000e+00
      994 -1    0    0    0    0 -0.0000000000e+00 -0.0000000000e+00 +0.0000000000e+00 1.3100000000e+02 1.3100000000e+02 0.0000e+00 0.0000e+00
       13  1    1    2    0    0 +4.0055058543e+00 +2.3381964102e+01 +1.6911408643e+01 2.9133609950e+01 1.0566000000e-01 0.0000e+00 1.0000e+00
      994  1    1    2    0    0 +1.8723422061e+00 -5.9243100280e+00 +1.3533445492e+01 1.3184368495e+02 1.3100000000e+02 0.0000e+00 0.0000e+00
      997  1    1    2    0    0 -5.8778480604e+00 -1.7457654074e+01 +4.6955513470e+02 4.7002270510e+02 1.0000000000e+01 0.0000e+00 0.0000e+00
</event>
<event>
 5      1 +4.4770400e-06 2.12348600e+02 7.95774700e-02 4.82653000e-01
       13 -1    0    0    0    0 +0.0000000000e+00 +0.0000000000e+00 +4.9999998884e+02 5.0000000000e+02 1.0566000000e-01 0.0000e+00 1.0000e+00
      994 -1    0    0    0    0 -0.0000000000e+00 -0.0000000000e+00 +0.0000000000e+00 1.3100000000e+02 1.3100000000e+02 0.0000e+00 0.0000e+00
       13  1    1    2    0    0 -7.7840263530e+00 -6.2791077370e+00 +2.7794923166e+01 2.9539586626e+01 1.0566000000e-01 0.0000e+00 -1.0000e+00
      994  1    1    2    0    0 +5.7417447106e+00 +8.5604243751e-01 +2.0309771388e+00 1.3114429194e+02 1.3100000000e+02 0.0000e+00 0.0000e+00
      997  1    1    2    0    0 +2.0422816424e+00 +5.4230652995e+00 +4.7017408853e+02 4.7031612143e+02 1.0000000000e+01 0.0000e+00 0.0000e+00
</event>
<event>
 5      1 +4.4770400e-06 2.05269400e+02 7.95774700e-02 4.94462400e-01
       13 -1    0    0    0    0 +0.0000000000e+00 +0.0000000000e+00 +4.9999998884e+02 5.0000000000e+02 1.0566000000e-01 0.0000e+00 1.0000e+00
      994 -1    0    0    0    0 -0.0000000000e+00 -0.0000000000e+00 +0.0000000000e+00 1.3100000000e+02 1.3100000000e+02 0.0000e+00 0.0000e+00
       13  1    1    2    0    0 -1.0075856142e+01 +7.9962470534e+00 +7.1769997083e+00 1.4730354130e+01 1.0566000000e-01 0.0000e+00 -1.0000e+00
      994  1    1    2    0    0 +1.7306922241e+01 -5.7872152590e+00 +9.3079191697e+00 1.3259207660e+02 1.3100000000e+02 0.0000e+00 0.0000e+00
      997  1    1    2    0    0 -7.2310660991e+00 -2.2090317944e+00 +4.8351506996e+02 4.8367756927e+02 1.0000000000e+01 0.0000e+00 0.0000e+00
</event>
<event>
 5      1 +4.4770400e-06 2.11256900e+02 7.95774700e-02 4.84408800e-01
       13 -1    0    0    0    0 +0.0000000000e+00 +0.0000000000e+00 +4.9999998884e+02 5.0000000000e+02 1.0566000000e-01 0.0000e+00 1.0000e+00
      994 -1    0    0    0    0 -0.0000000000e+00 -0.0000000000e+00 +0.0000000000e+00 1.3100000000e+02 1.3100000000e+02 0.0000e+00 0.0000e+00
       13  1    1    2    0    0 +1.0874527282e+01 -2.3388687034e+01 +1.0196607546e+02 1.0517783861e+02 1.0566000000e-01 0.0000e+00 -1.0000e+00
      994  1    1    2    0    0 -1.5074646561e+01 +2.0637410585e+01 +5.9747143573e+00 1.3360331170e+02 1.3100000000e+02 0.0000e+00 0.0000e+00
      997  1    1    2    0    0 +4.2001192787e+00 +2.7512764494e+00 +3.9205919902e+02 3.9221884970e+02 1.0000000000e+01 0.0000e+00 0.0000e+00
</event>
<event>
 5      1 +4.4770400e-06 2.10019500e+02 7.95774700e-02 4.86426900e-01
       13 -1    0    0    0    0 +0.0000000000e+00 +0.0000000000e+00 +4.9999998884e+02 5.0000000000e+02 1.0566000000e-01 0.0000e+00 1.0000e+00
      994 -1    0    0    0    0 -0.0000000000e+00 -0.0000000000e+00 +0.0000000000e+00 1.3100000000e+02 1.3100000000e+02 0.0000e+00 0.0000e+00
       13  1    1    2    0    0 -2.3576121823e+01 -1.0147517307e+01 +8.6663057611e+01 9.0384193011e+01 1.0566000000e-01 0.0000e+00 -1.0000e+00
      994  1    1    2    0    0 +1.6150724542e+01 +4.5999949953e+00 +5.1199482714e+00 1.3217117586e+02 1.3100000000e+02 0.0000e+00 0.0000e+00
      997  1    1    2    0    0 +7.4253972814e+00 +5.5475223118e+00 +4.0821698295e+02 4.0844463113e+02 1.0000000000e+01 0.0000e+00 0.0000e+00
</event>
<event>
 5      1 +4.4770400e-06 2.08942000e+02 7.95774700e-02 4.88208800e-01
       13 -1    0    0    0    0 +0.0000000000e+00 +0.0000000000e+00 +4.9999998884e+02 5.0000000000e+02 1.0566000000e-01 0.0000e+00 1.0000e+00
      994 -1    0    0    0    0 -0.0000000000e+00 -0.0000000000e+00 +0.0000000000e+00 1.3100000000e+02 1.3100000000e+02 0.0000e+00 0.0000e+00
       13  1    1    2    0    0 -1.0965705975e+01 -3.4737605947e+01 +1.1839818503e+02 1.2387529760e+02 1.0566000000e-01 0.0000e+00 -1.0000e+00
      994  1    1    2    0    0 +1.7472409684e+01 +2.9119643046e+01 +1.0443792412e+01 1.3573249983e+02 1.3100000000e+02 0.0000e+00 0.0000e+00
      997  1    1    2    0    0 -6.5067037092e+00 +5.6179629015e+00 +3.7115801140e+02 3.7139220256e+02 1.0000000000e+01 0.0000e+00 0.0000e+00
</event>
<event>
 5      1 +4.4770400e-06 1.92588100e+02 7.95774700e-02 5.18462900e-01
       13 -1    0    0    0    0 +0.0000000000e+00 +0.0000000000e+00 +4.9999998884e+02 5.0000000000e+02 1.0566000000e-01 0.0000e+00 1.0000e+00
      994 -1    0    0    0    0 -0.0000000000e+00 -0.0000000000e+00 +0.0000000000e+00 1.3100000000e+02 1.3100000000e+02 0.0000e+00 0.0000e+00
       13  1    1    2    0    0 +6.6721826667e+00 +1.6653161581e+01 +2.4737387862e-01 1.7942078198e+01 1.0566000000e-01 0.0000e+00 -1.0000e+00
      994  1    1    2    0    0 -1.2147411919e+01 -8.8622233963e+00 +2.0308378905e+01 1.3341487501e+02 1.3100000000e+02 0.0000e+00 0.0000e+00
      997  1    1    2    0    0 +5.4752292526e+00 -7.7909381847e+00 +4.7944423605e+02 4.7964304679e+02 1.0000000000e+01 0.0000e+00 0.0000e+00
</event>
<event>
 5      1 +4.4770400e-06 2.03285700e+02 7.95774700e-02 4.97960800e-01
       13 -1    0    0    0    0 +0.0000000000e+00 +0.0000000000e+00 +4.9999998884e+02 5.0000000000e+02 1.0566000000e-01 0.0000e+00 -1.0000e+00
      994 -1    0    0    0    0 -0.0000000000e+00 -0.0000000000e+00 +0.0000000000e+00 1.3100000000e+02 1.3100000000e+02 0.0000e+00 0.0000e+00
       13  1    1    2    0    0 +2.1112298426e+01 +3.9860805517e-01 +1.8918839351e+01 2.8351749146e+01 1.0566000000e-01 0.0000e+00 1.0000e+00
      994  1    1    2    0    0 -2.4015409178e+01 -2.6448620731e+00 +1.2332985096e+01 1.3377906299e+02 1.3100000000e+02 0.0000e+00 0.0000e+00
      997  1    1    2    0    0 +2.9031107520e+00 +2.2462540179e+00 +4.6874816439e+02 4.6886918786e+02 1.0000000000e+01 0.0000e+00 0.0000e+00
</event>
<event>
 5      1 +4.4770400e-06 2.11116200e+02 7.95774700e-02 4.84636700e-01
       13 -1    0    0    0    0 +0.0000000000e+00 +0.0000000000e+00 +4.9999998884e+02 5.0000000000e+02 1.0566000000e-01 0.0000e+00 -1.0000e+00
      994 -1    0    0    0    0 -0.0000000000e+00 -0.0000000000e+00 +0.0000000000e+00 1.3100000000e+02 1.3100000000e+02 0.0000e+00 0.0000e+00
       13  1    1    2    0    0 -1.3333208611e+01 -4.9616509373e+00 +3.7703588547e+01 4.0298438993e+01 1.0566000000e-01 0.0000e+00 1.0000e+00
      994  1    1    2    0    0 -9.0759634492e-01 +1.4625608716e+01 +3.9015553564e+00 1.3187476747e+02 1.3100000000e+02 0.0000e+00 0.0000e+00
      997  1    1    2    0    0 +1.4240804956e+01 -9.6639577786e+00 +4.5839484493e+02 4.5882679354e+02 1.0000000000e+01 0.0000e+00 0.0000e+00
</event>
</LesHouchesEvents>
