<event>
 5    1  0.1087513E-008  0.3731591E+03  0.7957747E-01  0.3481497E+00
         13   -1    0    0    0    0  0.00000000000E+00  0.00000000000E+00  0.14999999963E+04  0.15000000000E+04  0.10566000000E+00 0.  1.
        994   -1    0    0    0    0 -0.00000000000E+00 -0.00000000000E+00  0.11368683772E-12  0.17120000000E+03  0.17120000000E+03 0.  0.
         13    1    1    2    0    0  0.47947800588E+02 -0.37569333550E+02  0.21336781951E+03  0.22189250544E+03  0.10566000000E+00 0.  1.
        994    1    1    2    0    0 -0.41585978524E+02  0.38105528383E+02  0.18588326033E+02  0.18120814211E+03  0.17120000000E+03 0.  0.
        998    1    1    2    0    0 -0.63618220638E+01 -0.53619483251E+00  0.12680438507E+04  0.12680993524E+04  0.10000000000E+02 0.  1.
</event>
<event>
 5    1  0.1087513E-008  0.3819067E+03  0.7957747E-01  0.3442898E+00
         13   -1    0    0    0    0  0.00000000000E+00  0.00000000000E+00  0.14999999963E+04  0.15000000000E+04  0.10566000000E+00 0. -1.
        994   -1    0    0    0    0 -0.00000000000E+00 -0.00000000000E+00  0.11368683772E-12  0.17120000000E+03  0.17120000000E+03 0.  0.
         13    1    1    2    0    0  0.18781067367E+02  0.77562303409E+01  0.62621788469E+02  0.65836062729E+02  0.10566000000E+00 0. -1.
        994    1    1    2    0    0  0.97400063032E+00 -0.52557699781E+02  0.12408175939E+02  0.17951786349E+03  0.17120000000E+03 0.  0.
        998    1    1    2    0    0 -0.19755067997E+02  0.44801469440E+02  0.14249700319E+04  0.14258460738E+04  0.10000000000E+02 0. -1.
</event>
<event>
 5    1  0.1087513E-008  0.3801707E+03  0.7957747E-01  0.3450415E+00
         13   -1    0    0    0    0  0.00000000000E+00  0.00000000000E+00  0.14999999963E+04  0.15000000000E+04  0.10566000000E+00 0.  1.
        994   -1    0    0    0    0 -0.00000000000E+00 -0.00000000000E+00  0.11368683772E-12  0.17120000000E+03  0.17120000000E+03 0.  0.
         13    1    1    2    0    0  0.13588383889E+02 -0.81662865847E+01  0.31117931339E+02  0.34923763087E+02  0.10566000000E+00 0.  1.
        994    1    1    2    0    0  0.13015224963E+02  0.84627894253E+01  0.48526344432E+01  0.17197093634E+03  0.17120000000E+03 0.  0.
        998    1    1    2    0    0 -0.26603608851E+02 -0.29650284064E+00  0.14640294305E+04  0.14643053006E+04  0.10000000000E+02 0.  1.
</event>
<event>
 5    1  0.1087513E-008  0.3845938E+03  0.7957747E-01  0.3431397E+00
         13   -1    0    0    0    0  0.00000000000E+00  0.00000000000E+00  0.14999999963E+04  0.15000000000E+04  0.10566000000E+00 0.  1.
        994   -1    0    0    0    0 -0.00000000000E+00 -0.00000000000E+00  0.11368683772E-12  0.17120000000E+03  0.17120000000E+03 0.  0.
         13    1    1    2    0    0  0.37076113992E+01  0.16111953090E+02  0.88151236434E+02  0.89688310629E+02  0.10566000000E+00 0.  1.
        994    1    1    2    0    0  0.20608478717E+01  0.12635403090E+02  0.23718675916E+01  0.17169439787E+03  0.17120000000E+03 0.  0.
        998    1    1    2    0    0 -0.57684592709E+01 -0.28747356180E+02  0.14094768923E+04  0.14098172915E+04  0.10000000000E+02 0.  1.
</event>
<event>
 5    1  0.1087513E-008  0.3702019E+03  0.7957747E-01  0.3494963E+00
         13   -1    0    0    0    0  0.00000000000E+00  0.00000000000E+00  0.14999999963E+04  0.15000000000E+04  0.10566000000E+00 0. -1.
        994   -1    0    0    0    0 -0.00000000000E+00 -0.00000000000E+00  0.11368683772E-12  0.17120000000E+03  0.17120000000E+03 0.  0.
         13    1    1    2    0    0 -0.14373839219E+02 -0.62248798521E+02  0.20328078106E+03  0.21308356877E+03  0.10566000000E+00 0. -1.
        994    1    1    2    0    0 -0.25031753905E+02  0.60545125664E+02  0.24144147556E+02  0.18489099709E+03  0.17120000000E+03 0.  0.
        998    1    1    2    0    0  0.39405593124E+02  0.17036728572E+01  0.12725750677E+04  0.12732254341E+04  0.10000000000E+02 0. -1.
</event>
<event>
 5    1  0.1087513E-008  0.3707434E+03  0.7957747E-01  0.3492481E+00
         13   -1    0    0    0    0  0.00000000000E+00  0.00000000000E+00  0.14999999963E+04  0.15000000000E+04  0.10566000000E+00 0.  1.
        994   -1    0    0    0    0 -0.00000000000E+00 -0.00000000000E+00  0.11368683772E-12  0.17120000000E+03  0.17120000000E+03 0.  0.
         13    1    1    2    0    0  0.18427402435E+02  0.33907841319E+02  0.59762462922E+02  0.71139820087E+02  0.10566000000E+00 0.  1.
        994    1    1    2    0    0 -0.14990010044E+02 -0.32425648282E+02  0.15818601450E+02  0.17560122784E+03  0.17120000000E+03 0.  0.
        998    1    1    2    0    0 -0.34373923906E+01 -0.14821930374E+01  0.14244189319E+04  0.14244589521E+04  0.10000000000E+02 0.  1.
</event>
<event>
 5    1  0.1087513E-008  0.3773789E+03  0.7957747E-01  0.3462651E+00
         13   -1    0    0    0    0  0.00000000000E+00  0.00000000000E+00  0.14999999963E+04  0.15000000000E+04  0.10566000000E+00 0. -1.
        994   -1    0    0    0    0 -0.00000000000E+00 -0.00000000000E+00  0.11368683772E-12  0.17120000000E+03  0.17120000000E+03 0.  0.
         13    1    1    2    0    0  0.68420036286E+01 -0.13012057083E+02  0.17704618558E+02  0.23012851312E+02  0.10566000000E+00 0. -1.
        994    1    1    2    0    0 -0.56396398080E+01  0.15750941669E+01  0.55777559960E+01  0.17139089188E+03  0.17120000000E+03 0.  0.
        998    1    1    2    0    0 -0.12023638205E+01  0.11436962916E+02  0.14767176217E+04  0.14767962568E+04  0.10000000000E+02 0. -1.
</event>
<event>
 5    1  0.1087513E-008  0.3840964E+03  0.7957747E-01  0.3433513E+00
         13   -1    0    0    0    0  0.00000000000E+00  0.00000000000E+00  0.14999999963E+04  0.15000000000E+04  0.10566000000E+00 0.  1.
        994   -1    0    0    0    0 -0.00000000000E+00 -0.00000000000E+00  0.11368683772E-12  0.17120000000E+03  0.17120000000E+03 0.  0.
         13    1    1    2    0    0  0.13483026093E+02  0.77670162340E+01  0.58719194072E+02  0.60745974767E+02  0.10566000000E+00 0.  1.
        994    1    1    2    0    0 -0.56044880978E+01 -0.49822328435E+01  0.22649034261E+01  0.17137911984E+03  0.17120000000E+03 0.  0.
        998    1    1    2    0    0 -0.78785379954E+01 -0.27847833904E+01  0.14390158988E+04  0.14390749054E+04  0.10000000000E+02 0.  1.
</event>
<event>
 5    1  0.1087513E-008  0.3828323E+03  0.7957747E-01  0.3438918E+00
         13   -1    0    0    0    0  0.00000000000E+00  0.00000000000E+00  0.14999999963E+04  0.15000000000E+04  0.10566000000E+00 0. -1.
        994   -1    0    0    0    0 -0.00000000000E+00 -0.00000000000E+00  0.11368683772E-12  0.17120000000E+03  0.17120000000E+03 0.  0.
         13    1    1    2    0    0  0.15511432605E+02 -0.15166658932E+02  0.81975099776E+02  0.84797171132E+02  0.10566000000E+00 0. -1.
        994    1    1    2    0    0 -0.35963968221E+02 -0.38501049544E+01  0.70550834931E+01  0.17512122807E+03  0.17120000000E+03 0.  0.
        998    1    1    2    0    0  0.20452535615E+02  0.19016763886E+02  0.14109698130E+04  0.14112816008E+04  0.10000000000E+02 0. -1.
</event>
<event>
 5    1  0.1087513E-008  0.3820216E+03  0.7957747E-01  0.3442403E+00
         13   -1    0    0    0    0  0.00000000000E+00  0.00000000000E+00  0.14999999963E+04  0.15000000000E+04  0.10566000000E+00 0. -1.
        994   -1    0    0    0    0 -0.00000000000E+00 -0.00000000000E+00  0.11368683772E-12  0.17120000000E+03  0.17120000000E+03 0.  0.
         13    1    1    2    0    0 -0.66308697805E+01  0.80841476433E+01  0.16180491063E+02  0.19265028737E+02  0.10566000000E+00 0. -1.
        994    1    1    2    0    0  0.76572777180E+01 -0.60303841825E+01  0.34316501864E+01  0.17151156130E+03  0.17120000000E+03 0.  0.
        998    1    1    2    0    0 -0.10264079375E+01 -0.20537634609E+01  0.14803878550E+04  0.14804234100E+04  0.10000000000E+02 0. -1.
</event>
<event>
 5    1  0.1087513E-008  0.3696468E+03  0.7957747E-01  0.3497516E+00
         13   -1    0    0    0    0  0.00000000000E+00  0.00000000000E+00  0.14999999963E+04  0.15000000000E+04  0.10566000000E+00 0. -1.
        994   -1    0    0    0    0 -0.00000000000E+00 -0.00000000000E+00  0.11368683772E-12  0.17120000000E+03  0.17120000000E+03 0.  0.
         13    1    1    2    0    0  0.12909518649E+02  0.89626855505E+00  0.45830922179E+01  0.13728614911E+02  0.10566000000E+00 0. -1.
        994    1    1    2    0    0 -0.52818344271E+01  0.87263108373E+01  0.98140933179E+01  0.17178417478E+03  0.17120000000E+03 0.  0.
        998    1    1    2    0    0 -0.76276842216E+01 -0.96225793923E+01  0.14856028107E+04  0.14856872103E+04  0.10000000000E+02 0. -1.
</event>
<event>
 5    1  0.1087513E-008  0.3821841E+03  0.7957747E-01  0.3441703E+00
         13   -1    0    0    0    0  0.00000000000E+00  0.00000000000E+00  0.14999999963E+04  0.15000000000E+04  0.10566000000E+00 0.  1.
        994   -1    0    0    0    0 -0.00000000000E+00 -0.00000000000E+00  0.11368683772E-12  0.17120000000E+03  0.17120000000E+03 0.  0.
         13    1    1    2    0    0 -0.18190770332E+02  0.20792832662E+02  0.14401110611E+03  0.14663715717E+03  0.10566000000E+00 0.  1.
        994    1    1    2    0    0  0.77726827893E+01  0.10544898308E+02  0.36044512557E+01  0.17173829377E+03  0.17120000000E+03 0.  0.
        998    1    1    2    0    0  0.10418087543E+02 -0.31337730970E+02  0.13523844389E+04  0.13528245491E+04  0.10000000000E+02 0.  1.
</event>
<event>
 5    1  0.1087513E-008  0.3742650E+03  0.7957747E-01  0.3476516E+00
         13   -1    0    0    0    0  0.00000000000E+00  0.00000000000E+00  0.14999999963E+04  0.15000000000E+04  0.10566000000E+00 0.  1.
        994   -1    0    0    0    0 -0.00000000000E+00 -0.00000000000E+00  0.11368683772E-12  0.17120000000E+03  0.17120000000E+03 0.  0.
         13    1    1    2    0    0  0.29624514555E+02 -0.22559094902E+02  0.45706881733E+02  0.58954684523E+02  0.10566000000E+00 0.  1.
        994    1    1    2    0    0 -0.36264739614E+02  0.18242437917E+02  0.19083396759E+02  0.17697890810E+03  0.17120000000E+03 0.  0.
        998    1    1    2    0    0  0.66402250587E+01  0.43166569851E+01  0.14352097178E+04  0.14352664074E+04  0.10000000000E+02 0.  1.
</event>
<event>
 5    1  0.1087513E-008  0.3748270E+03  0.7957747E-01  0.3473997E+00
         13   -1    0    0    0    0  0.00000000000E+00  0.00000000000E+00  0.14999999963E+04  0.15000000000E+04  0.10566000000E+00 0. -1.
        994   -1    0    0    0    0 -0.00000000000E+00 -0.00000000000E+00  0.11368683772E-12  0.17120000000E+03  0.17120000000E+03 0.  0.
         13    1    1    2    0    0 -0.19322054878E+01 -0.10910747532E+02  0.60627985664E+01  0.12631172560E+02  0.10566000000E+00 0. -1.
        994    1    1    2    0    0  0.12550912948E+02 -0.12077068022E+01  0.73085174662E+01  0.17181920265E+03  0.17120000000E+03 0.  0.
        998    1    1    2    0    0 -0.10618707460E+02  0.12118454334E+02  0.14866286802E+04  0.14867496248E+04  0.10000000000E+02 0. -1.
</event>
<event>
 5    1  0.1087513E-008  0.3786823E+03  0.7957747E-01  0.3456916E+00
         13   -1    0    0    0    0  0.00000000000E+00  0.00000000000E+00  0.14999999963E+04  0.15000000000E+04  0.10566000000E+00 0.  1.
        994   -1    0    0    0    0 -0.00000000000E+00 -0.00000000000E+00  0.11368683772E-12  0.17120000000E+03  0.17120000000E+03 0.  0.
         13    1    1    2    0    0 -0.68651465109E+01 -0.22635178065E+02  0.60720399469E+02  0.65164864754E+02  0.10566000000E+00 0.  1.
        994    1    1    2    0    0  0.82802239256E+02 -0.26264314587E+02  0.30568578770E+02  0.19439625268E+03  0.17120000000E+03 0.  0.
        998    1    1    2    0    0 -0.75937092745E+02  0.48899492653E+02  0.14087110180E+04  0.14116388826E+04  0.10000000000E+02 0.  1.
</event>
<event>
 5    1  0.1087513E-008  0.3751437E+03  0.7957747E-01  0.3472580E+00
         13   -1    0    0    0    0  0.00000000000E+00  0.00000000000E+00  0.14999999963E+04  0.15000000000E+04  0.10566000000E+00 0.  1.
        994   -1    0    0    0    0 -0.00000000000E+00 -0.00000000000E+00  0.11368683772E-12  0.17120000000E+03  0.17120000000E+03 0.  0.
         13    1    1    2    0    0  0.21020973075E+02 -0.23644552024E+02  0.78855612234E+02  0.84965668916E+02  0.10566000000E+00 0.  1.
        994    1    1    2    0    0 -0.55769186901E+01 -0.36520404404E+01  0.67559616343E+01  0.17146288939E+03  0.17120000000E+03 0.  0.
        998    1    1    2    0    0 -0.15444054385E+02  0.27296592465E+02  0.14143884224E+04  0.14147714417E+04  0.10000000000E+02 0.  1.
</event>
<event>
 5    1  0.1087513E-008  0.3787792E+03  0.7957747E-01  0.3456492E+00
         13   -1    0    0    0    0  0.00000000000E+00  0.00000000000E+00  0.14999999963E+04  0.15000000000E+04  0.10566000000E+00 0.  1.
        994   -1    0    0    0    0 -0.00000000000E+00 -0.00000000000E+00  0.11368683772E-12  0.17120000000E+03  0.17120000000E+03 0.  0.
         13    1    1    2    0    0 -0.49761965325E+01  0.14593677905E+02  0.22840379537E+02  0.27557795053E+02  0.10566000000E+00 0.  1.
        994    1    1    2    0    0  0.15819297620E+01 -0.14233583147E+02  0.54393865804E+01  0.17188404323E+03  0.17120000000E+03 0.  0.
        998    1    1    2    0    0  0.33942667705E+01 -0.36009475779E+00  0.14717202302E+04  0.14717581617E+04  0.10000000000E+02 0.  1.
</event>
<event>
 5    1  0.1087513E-008  0.3753600E+03  0.7957747E-01  0.3471614E+00
         13   -1    0    0    0    0  0.00000000000E+00  0.00000000000E+00  0.14999999963E+04  0.15000000000E+04  0.10566000000E+00 0.  1.
        994   -1    0    0    0    0 -0.00000000000E+00 -0.00000000000E+00  0.11368683772E-12  0.17120000000E+03  0.17120000000E+03 0.  0.
         13    1    1    2    0    0  0.84698615249E+02 -0.32462328116E+02  0.45646091114E+03  0.46538611145E+03  0.10566000000E+00 0.  1.
        994    1    1    2    0    0 -0.18545084216E+02 -0.46679130352E+02  0.22845445953E+02  0.17987277659E+03  0.17120000000E+03 0.  0.
        998    1    1    2    0    0 -0.66153531033E+02  0.79141458469E+02  0.10206936392E+04  0.10259411120E+04  0.10000000000E+02 0.  1.
</event>
<event>
 5    1  0.1087513E-008  0.3813353E+03  0.7957747E-01  0.3445365E+00
         13   -1    0    0    0    0  0.00000000000E+00  0.00000000000E+00  0.14999999963E+04  0.15000000000E+04  0.10566000000E+00 0. -1.
        994   -1    0    0    0    0 -0.00000000000E+00 -0.00000000000E+00  0.11368683772E-12  0.17120000000E+03  0.17120000000E+03 0.  0.
         13    1    1    2    0    0 -0.22731386356E+02  0.15398852605E+02  0.10836999744E+03  0.11179404321E+03  0.10566000000E+00 0. -1.
        994    1    1    2    0    0 -0.61451373287E+01 -0.39420881141E+02  0.87765917002E+01  0.17600635541E+03  0.17120000000E+03 0.  0.
        998    1    1    2    0    0  0.28876523685E+02  0.24022028537E+02  0.13828534071E+04  0.13833996014E+04  0.10000000000E+02 0. -1.
</event>
<event>
 5    1  0.1087513E-008  0.3763571E+03  0.7957747E-01  0.3467175E+00
         13   -1    0    0    0    0  0.00000000000E+00  0.00000000000E+00  0.14999999963E+04  0.15000000000E+04  0.10566000000E+00 0. -1.
        994   -1    0    0    0    0 -0.00000000000E+00 -0.00000000000E+00  0.11368683772E-12  0.17120000000E+03  0.17120000000E+03 0.  0.
         13    1    1    2    0    0  0.16588063714E+02  0.40271822207E+02  0.62241335774E+02  0.75966957058E+02  0.10566000000E+00 0. -1.
        994    1    1    2    0    0 -0.18941811606E+02 -0.16120065606E+02  0.16555686147E+02  0.17378774262E+03  0.17120000000E+03 0.  0.
        998    1    1    2    0    0  0.23537478920E+01 -0.24151756601E+02  0.14212029744E+04  0.14214453003E+04  0.10000000000E+02 0. -1.
</event>
<event>
 5    1  0.1087513E-008  0.3711991E+03  0.7957747E-01  0.3490398E+00
         13   -1    0    0    0    0  0.00000000000E+00  0.00000000000E+00  0.14999999963E+04  0.15000000000E+04  0.10566000000E+00 0. -1.
        994   -1    0    0    0    0 -0.00000000000E+00 -0.00000000000E+00  0.11368683772E-12  0.17120000000E+03  0.17120000000E+03 0.  0.
         13    1    1    2    0    0  0.12524681247E+03 -0.13647960772E+03  0.80974064667E+03  0.83065839753E+03  0.10566000000E+00 0. -1.
        994    1    1    2    0    0 -0.13542407882E+03  0.12259148879E+03  0.13406616798E+03  0.28399213307E+03  0.17120000000E+03 0.  0.
        998    1    1    2    0    0  0.10177266353E+02  0.13888118927E+02  0.55619318163E+03  0.55654946940E+03  0.10000000000E+02 0. -1.
</event>
<event>
 5    1  0.1087513E-008  0.3845436E+03  0.7957747E-01  0.3431610E+00
         13   -1    0    0    0    0  0.00000000000E+00  0.00000000000E+00  0.14999999963E+04  0.15000000000E+04  0.10566000000E+00 0. -1.
        994   -1    0    0    0    0 -0.00000000000E+00 -0.00000000000E+00  0.11368683772E-12  0.17120000000E+03  0.17120000000E+03 0.  0.
         13    1    1    2    0    0 -0.10778118165E+01  0.24593748458E+02  0.14482298050E+03  0.14690037776E+03  0.10566000000E+00 0. -1.
        994    1    1    2    0    0 -0.48764789349E+01 -0.28732325866E+02  0.46591666934E+01  0.17372528437E+03  0.17120000000E+03 0.  0.
        998    1    1    2    0    0  0.59542907514E+01  0.41385774083E+01  0.13505178491E+04  0.13505743379E+04  0.10000000000E+02 0. -1.
</event>
<event>
 5    1  0.1087513E-008  0.3852803E+03  0.7957747E-01  0.3428484E+00
         13   -1    0    0    0    0  0.00000000000E+00  0.00000000000E+00  0.14999999963E+04  0.15000000000E+04  0.10566000000E+00 0.  1.
        994   -1    0    0    0    0 -0.00000000000E+00 -0.00000000000E+00  0.11368683772E-12  0.17120000000E+03  0.17120000000E+03 0.  0.
         13    1    1    2    0    0  0.79346044141E+01  0.96915283502E+01  0.53655751996E+02  0.55098407919E+02  0.10566000000E+00 0.  1.
        994    1    1    2    0    0  0.81887017869E+01 -0.14090250839E+02  0.23641599672E+01  0.17199017198E+03  0.17120000000E+03 0.  0.
        998    1    1    2    0    0 -0.16123306201E+02  0.43987224890E+01  0.14439800843E+04  0.14441114201E+04  0.10000000000E+02 0.  1.
</event>
<event>
 5    1  0.1087513E-008  0.3823659E+03  0.7957747E-01  0.3440921E+00
         13   -1    0    0    0    0  0.00000000000E+00  0.00000000000E+00  0.14999999963E+04  0.15000000000E+04  0.10566000000E+00 0.  1.
        994   -1    0    0    0    0 -0.00000000000E+00 -0.00000000000E+00  0.11368683772E-12  0.17120000000E+03  0.17120000000E+03 0.  0.
         13    1    1    2    0    0 -0.15690625989E+02 -0.19021381375E+02  0.92814784677E+02  0.96034390257E+02  0.10566000000E+00 0.  1.
        994    1    1    2    0    0  0.19278763248E+02  0.26171137756E+02  0.64562406321E+01  0.17437810128E+03  0.17120000000E+03 0.  0.
        998    1    1    2    0    0 -0.35881372584E+01 -0.71497563812E+01  0.14007289710E+04  0.14007875085E+04  0.10000000000E+02 0.  1.
</event>
<event>
 5    1  0.1087513E-008  0.3725168E+03  0.7957747E-01  0.3484403E+00
         13   -1    0    0    0    0  0.00000000000E+00  0.00000000000E+00  0.14999999963E+04  0.15000000000E+04  0.10566000000E+00 0. -1.
        994   -1    0    0    0    0 -0.00000000000E+00 -0.00000000000E+00  0.11368683772E-12  0.17120000000E+03  0.17120000000E+03 0.  0.
         13    1    1    2    0    0  0.80812175784E+02  0.15720215103E+02  0.30107460740E+03  0.31212763944E+03  0.10566000000E+00 0. -1.
        994    1    1    2    0    0 -0.94140886109E+02 -0.27818372163E+02  0.41751327475E+02  0.20171510011E+03  0.17120000000E+03 0.  0.
        998    1    1    2    0    0  0.13328710325E+02  0.12098157059E+02  0.11571740614E+04  0.11573572605E+04  0.10000000000E+02 0. -1.
</event>
<event>
 5    1  0.1087513E-008  0.3790149E+03  0.7957747E-01  0.3455459E+00
         13   -1    0    0    0    0  0.00000000000E+00  0.00000000000E+00  0.14999999963E+04  0.15000000000E+04  0.10566000000E+00 0.  1.
        994   -1    0    0    0    0 -0.00000000000E+00 -0.00000000000E+00  0.11368683772E-12  0.17120000000E+03  0.17120000000E+03 0.  0.
         13    1    1    2    0    0  0.25133057412E+02 -0.38232907356E+02  0.23654626683E+03  0.24093064001E+03  0.10566000000E+00 0.  1.
        994    1    1    2    0    0 -0.15810012052E+02  0.12969855086E+02  0.60349989954E+01  0.17252256326E+03  0.17120000000E+03 0.  0.
        998    1    1    2    0    0 -0.93230453605E+01  0.25263052270E+02  0.12574187305E+04  0.12577467967E+04  0.10000000000E+02 0.  1.
</event>
<event>
 5    1  0.1087513E-008  0.3776392E+03  0.7957747E-01  0.3461503E+00
         13   -1    0    0    0    0  0.00000000000E+00  0.00000000000E+00  0.14999999963E+04  0.15000000000E+04  0.10566000000E+00 0. -1.
        994   -1    0    0    0    0 -0.00000000000E+00 -0.00000000000E+00  0.11368683772E-12  0.17120000000E+03  0.17120000000E+03 0.  0.
         13    1    1    2    0    0  0.13952864454E+02  0.38169692255E+01  0.17265749564E+02  0.22524851888E+02  0.10566000000E+00 0. -1.
        994    1    1    2    0    0 -0.11014043520E+02 -0.46748834270E+01  0.58121248766E+01  0.17171599950E+03  0.17120000000E+03 0.  0.
        998    1    1    2    0    0 -0.29388209341E+01  0.85791420145E+00  0.14769221218E+04  0.14769591486E+04  0.10000000000E+02 0. -1.
</event>
<event>
 5    1  0.1087513E-008  0.3803926E+03  0.7957747E-01  0.3449451E+00
         13   -1    0    0    0    0  0.00000000000E+00  0.00000000000E+00  0.14999999963E+04  0.15000000000E+04  0.10566000000E+00 0. -1.
        994   -1    0    0    0    0 -0.00000000000E+00 -0.00000000000E+00  0.11368683772E-12  0.17120000000E+03  0.17120000000E+03 0.  0.
         13    1    1    2    0    0 -0.70895646067E+02 -0.17398937937E+03  0.95887292037E+03  0.97710582096E+03  0.10566000000E+00 0. -1.
        994    1    1    2    0    0  0.64181258297E+02  0.18697418331E+03  0.14783808423E+03  0.30040658829E+03  0.17120000000E+03 0.  0.
        998    1    1    2    0    0  0.67143877707E+01 -0.12984803937E+02  0.39328899168E+03  0.39368759075E+03  0.10000000000E+02 0. -1.
</event>
<event>
 5    1  0.1087513E-008  0.3775976E+03  0.7957747E-01  0.3461686E+00
         13   -1    0    0    0    0  0.00000000000E+00  0.00000000000E+00  0.14999999963E+04  0.15000000000E+04  0.10566000000E+00 0.  1.
        994   -1    0    0    0    0 -0.00000000000E+00 -0.00000000000E+00  0.11368683772E-12  0.17120000000E+03  0.17120000000E+03 0.  0.
         13    1    1    2    0    0 -0.87007238605E+02  0.80198669928E+01  0.25508266262E+03  0.26963262742E+03  0.10566000000E+00 0.  1.
        994    1    1    2    0    0  0.49097938078E+02  0.64079012059E+01  0.23872686806E+02  0.17980826982E+03  0.17120000000E+03 0.  0.
        998    1    1    2    0    0  0.37909300527E+02 -0.14427768199E+02  0.12210446469E+04  0.12217591028E+04  0.10000000000E+02 0.  1.
</event>
<event>
 5    1  0.1087513E-008  0.4336186E+03  0.7957747E-01  0.3246471E+00
         13   -1    0    0    0    0  0.00000000000E+00  0.00000000000E+00  0.14999999963E+04  0.15000000000E+04  0.10566000000E+00 0.  1.
        994   -1    0    0    0    0 -0.00000000000E+00 -0.00000000000E+00  0.11368683772E-12  0.17120000000E+03  0.17120000000E+03 0.  0.
         13    1    1    2    0    0 -0.46419227900E+02 -0.56613492574E+02  0.37805152840E+02  0.82395831239E+02  0.10566000000E+00 0.  1.
        994    1    1    2    0    0  0.40142201393E+02  0.52062281002E+02  0.69599737757E+02  0.19615157642E+03  0.17120000000E+03 0.  0.
        998    1    1    2    0    0  0.62770265077E+01  0.45512115714E+01  0.13925951057E+04  0.13926525923E+04  0.10000000000E+02 0.  1.
</event>
<event>
 5    1  0.1087513E-008  0.3810954E+03  0.7957747E-01  0.3446403E+00
         13   -1    0    0    0    0  0.00000000000E+00  0.00000000000E+00  0.14999999963E+04  0.15000000000E+04  0.10566000000E+00 0.  1.
        994   -1    0    0    0    0 -0.00000000000E+00 -0.00000000000E+00  0.11368683772E-12  0.17120000000E+03  0.17120000000E+03 0.  0.
         13    1    1    2    0    0 -0.11861187086E+02  0.22880455166E+02  0.76616561154E+02  0.80835088883E+02  0.10566000000E+00 0.  1.
        994    1    1    2    0    0  0.65893723955E+02 -0.27448572453E+02  0.20743674166E+02  0.18664176115E+03  0.17120000000E+03 0.  0.
        998    1    1    2    0    0 -0.54032536870E+02  0.45681172873E+01  0.14026397610E+04  0.14037231500E+04  0.10000000000E+02 0.  1.
</event>
<event>
 5    1  0.1087513E-008  0.4648467E+03  0.7957747E-01  0.3148604E+00
         13   -1    0    0    0    0  0.00000000000E+00  0.00000000000E+00  0.14999999963E+04  0.15000000000E+04  0.10566000000E+00 0.  1.
        994   -1    0    0    0    0 -0.00000000000E+00 -0.00000000000E+00  0.11368683772E-12  0.17120000000E+03  0.17120000000E+03 0.  0.
         13    1    1    2    0    0  0.72509790579E+01  0.16674393757E+02 -0.26815403893E+02  0.32398906686E+02  0.10566000000E+00 0.  1.
        994    1    1    2    0    0  0.54988647611E+02 -0.75178923046E+01  0.91176123008E+02  0.20174933823E+03  0.17120000000E+03 0.  0.
        998    1    1    2    0    0 -0.62239626669E+02 -0.91565014523E+01  0.14356392772E+04  0.14370517551E+04  0.10000000000E+02 0.  1.
</event>
<event>
 5    1  0.1087513E-008  0.3820085E+03  0.7957747E-01  0.3442459E+00
         13   -1    0    0    0    0  0.00000000000E+00  0.00000000000E+00  0.14999999963E+04  0.15000000000E+04  0.10566000000E+00 0.  1.
        994   -1    0    0    0    0 -0.00000000000E+00 -0.00000000000E+00  0.11368683772E-12  0.17120000000E+03  0.17120000000E+03 0.  0.
         13    1    1    2    0    0  0.23511094749E+02 -0.69402358435E+01  0.10240259235E+03  0.10529596637E+03  0.10566000000E+00 0.  1.
        994    1    1    2    0    0 -0.57735876941E+01 -0.89894412452E+01  0.35018486395E+01  0.17156878304E+03  0.17120000000E+03 0.  0.
        998    1    1    2    0    0 -0.17737507055E+02  0.15929677089E+02  0.13940955553E+04  0.13943352506E+04  0.10000000000E+02 0.  1.
</event>
<event>
 5    1  0.1087513E-008  0.3848533E+03  0.7957747E-01  0.3430295E+00
         13   -1    0    0    0    0  0.00000000000E+00  0.00000000000E+00  0.14999999963E+04  0.15000000000E+04  0.10566000000E+00 0.  1.
        994   -1    0    0    0    0 -0.00000000000E+00 -0.00000000000E+00  0.11368683772E-12  0.17120000000E+03  0.17120000000E+03 0.  0.
         13    1    1    2    0    0  0.48457329912E+01  0.17572885149E+02  0.96679815345E+02  0.98383358755E+02  0.10566000000E+00 0.  1.
        994    1    1    2    0    0 -0.99763368885E+01 -0.10600106417E+02  0.24004663598E+01  0.17183448953E+03  0.17120000000E+03 0.  0.
        998    1    1    2    0    0  0.51306038973E+01 -0.69727787319E+01  0.14009197146E+04  0.14009821517E+04  0.10000000000E+02 0.  1.
</event>
<event>
 5    1  0.1087513E-008  0.3713007E+03  0.7957747E-01  0.3489934E+00
         13   -1    0    0    0    0  0.00000000000E+00  0.00000000000E+00  0.14999999963E+04  0.15000000000E+04  0.10566000000E+00 0. -1.
        994   -1    0    0    0    0 -0.00000000000E+00 -0.00000000000E+00  0.11368683772E-12  0.17120000000E+03  0.17120000000E+03 0.  0.
         13    1    1    2    0    0  0.29515852740E+02  0.58292381042E+02  0.23004422804E+03  0.23914335715E+03  0.10566000000E+00 0. -1.
        994    1    1    2    0    0 -0.21270158834E+02 -0.44594597525E+02  0.17040832953E+02  0.17899979825E+03  0.17120000000E+03 0.  0.
        998    1    1    2    0    0 -0.82456939056E+01 -0.13697783517E+02  0.12529149353E+04  0.12530568446E+04  0.10000000000E+02 0. -1.
</event>
<event>
 5    1  0.1087513E-008  0.3826203E+03  0.7957747E-01  0.3439828E+00
         13   -1    0    0    0    0  0.00000000000E+00  0.00000000000E+00  0.14999999963E+04  0.15000000000E+04  0.10566000000E+00 0.  1.
        994   -1    0    0    0    0 -0.00000000000E+00 -0.00000000000E+00  0.11368683772E-12  0.17120000000E+03  0.17120000000E+03 0.  0.
         13    1    1    2    0    0  0.81117800474E+01  0.97827942339E+01  0.27762401907E+02  0.30533033951E+02  0.10566000000E+00 0.  1.
        994    1    1    2    0    0 -0.73181851316E+01 -0.39306473344E+01  0.30449921175E+01  0.17142846263E+03  0.17120000000E+03 0.  0.
        998    1    1    2    0    0 -0.79359491575E+00 -0.58521468995E+01  0.14691926023E+04  0.14692385034E+04  0.10000000000E+02 0.  1.
</event>
<event>
 5    1  0.1180947E-008  0.3862235E+03  0.7957747E-01  0.3424500E+00
         13   -1    0    0    0    0  0.00000000000E+00  0.00000000000E+00  0.14999999963E+04  0.15000000000E+04  0.10566000000E+00 0.  1.
        994   -1    0    0    0    0 -0.00000000000E+00 -0.00000000000E+00  0.11368683772E-12  0.17120000000E+03  0.17120000000E+03 0.  0.
         13    1    1    2    0    0 -0.12722929289E+02 -0.33490326794E+01  0.74948043481E+02  0.76094082131E+02  0.10566000000E+00 0.  1.
        994    1    1    2    0    0  0.25179171819E+02  0.25175187137E+01  0.31242101954E+01  0.17308821243E+03  0.17120000000E+03 0.  0.
        998    1    1    2    0    0 -0.12456242530E+02  0.83151396568E+00  0.14219277426E+04  0.14220177054E+04  0.10000000000E+02 0.  1.
</event>
<event>
 5    1  0.1087513E-008  0.3838098E+03  0.7957747E-01  0.3434736E+00
         13   -1    0    0    0    0  0.00000000000E+00  0.00000000000E+00  0.14999999963E+04  0.15000000000E+04  0.10566000000E+00 0. -1.
        994   -1    0    0    0    0 -0.00000000000E+00 -0.00000000000E+00  0.11368683772E-12  0.17120000000E+03  0.17120000000E+03 0.  0.
         13    1    1    2    0    0  0.10887686128E+02 -0.11007454824E+02  0.53218408262E+02  0.55424867279E+02  0.10566000000E+00 0. -1.
        994    1    1    2    0    0 -0.13235038945E+02  0.23537257542E+01  0.28190089917E+01  0.17175008906E+03  0.17120000000E+03 0.  0.
        998    1    1    2    0    0  0.23473528166E+01  0.86537290702E+01  0.14439625790E+04  0.14440250437E+04  0.10000000000E+02 0. -1.
</event>
<event>
 5    1  0.1087513E-008  0.3775203E+03  0.7957747E-01  0.3462027E+00
         13   -1    0    0    0    0  0.00000000000E+00  0.00000000000E+00  0.14999999963E+04  0.15000000000E+04  0.10566000000E+00 0.  1.
        994   -1    0    0    0    0 -0.00000000000E+00 -0.00000000000E+00  0.11368683772E-12  0.17120000000E+03  0.17120000000E+03 0.  0.
         13    1    1    2    0    0 -0.10982766745E+02  0.46584699948E+01  0.10773854350E+02  0.16075123939E+02  0.10566000000E+00 0.  1.
        994    1    1    2    0    0  0.83704632657E+01 -0.47412432636E+01  0.57021226745E+01  0.17156485143E+03  0.17120000000E+03 0.  0.
        998    1    1    2    0    0  0.26123034791E+01  0.82773268874E-01  0.14835240193E+04  0.14835600246E+04  0.10000000000E+02 0.  1.
</event>
<event>
 5    1  0.1087513E-008  0.3771542E+03  0.7957747E-01  0.3463644E+00
         13   -1    0    0    0    0  0.00000000000E+00  0.00000000000E+00  0.14999999963E+04  0.15000000000E+04  0.10566000000E+00 0. -1.
        994   -1    0    0    0    0 -0.00000000000E+00 -0.00000000000E+00  0.11368683772E-12  0.17120000000E+03  0.17120000000E+03 0.  0.
         13    1    1    2    0    0  0.12976636351E+02 -0.13521059383E+02  0.46755189162E+01  0.19315376750E+02  0.10566000000E+00 0. -1.
        994    1    1    2    0    0 -0.99166779705E+02 -0.80783379405E+02  0.76044136250E+02  0.22683067527E+03  0.17120000000E+03 0.  0.
        998    1    1    2    0    0  0.86190143354E+02  0.94304438788E+02  0.14192803411E+04  0.14250539480E+04  0.10000000000E+02 0. -1.
</event>
<event>
 5    1  0.1087513E-008  0.3808400E+03  0.7957747E-01  0.3447509E+00
         13   -1    0    0    0    0  0.00000000000E+00  0.00000000000E+00  0.14999999963E+04  0.15000000000E+04  0.10566000000E+00 0.  1.
        994   -1    0    0    0    0 -0.00000000000E+00 -0.00000000000E+00  0.11368683772E-12  0.17120000000E+03  0.17120000000E+03 0.  0.
         13    1    1    2    0    0 -0.41775783634E+01  0.21458821851E+02  0.65696459115E+02  0.69238494355E+02  0.10566000000E+00 0.  1.
        994    1    1    2    0    0  0.82376337708E+01 -0.34061083332E+01  0.39746486330E+01  0.17147798114E+03  0.17120000000E+03 0.  0.
        998    1    1    2    0    0 -0.40600554075E+01 -0.18052713518E+02  0.14303288885E+04  0.14304835245E+04  0.10000000000E+02 0.  1.
</event>
<event>
 5    1  0.1087513E-008  0.3845908E+03  0.7957747E-01  0.3431410E+00
         13   -1    0    0    0    0  0.00000000000E+00  0.00000000000E+00  0.14999999963E+04  0.15000000000E+04  0.10566000000E+00 0.  1.
        994   -1    0    0    0    0 -0.00000000000E+00 -0.00000000000E+00  0.11368683772E-12  0.17120000000E+03  0.17120000000E+03 0.  0.
         13    1    1    2    0    0 -0.13298532714E+02 -0.60774552111E+01  0.61125232705E+02  0.62849754744E+02  0.10566000000E+00 0.  1.
        994    1    1    2    0    0 -0.16217755412E+01  0.60246932250E+01  0.19616568256E+01  0.17132488197E+03  0.17120000000E+03 0.  0.
        998    1    1    2    0    0  0.14920308255E+02  0.52761986032E-01  0.14369131067E+04  0.14370253633E+04  0.10000000000E+02 0.  1.
</event>
<event>
 5    1  0.1087513E-008  0.3835375E+03  0.7957747E-01  0.3435899E+00
         13   -1    0    0    0    0  0.00000000000E+00  0.00000000000E+00  0.14999999963E+04  0.15000000000E+04  0.10566000000E+00 0. -1.
        994   -1    0    0    0    0 -0.00000000000E+00 -0.00000000000E+00  0.11368683772E-12  0.17120000000E+03  0.17120000000E+03 0.  0.
         13    1    1    2    0    0 -0.65861102641E+00  0.24598684955E+02  0.13674006577E+03  0.13893662520E+03  0.10566000000E+00 0. -1.
        994    1    1    2    0    0 -0.16215736412E+00 -0.63775239394E+01  0.24924852059E+01  0.17133695337E+03  0.17120000000E+03 0.  0.
        998    1    1    2    0    0  0.82076839052E+00 -0.18221161016E+02  0.13607674453E+04  0.13609264214E+04  0.10000000000E+02 0. -1.
</event>
<event>
 5    1  0.1087513E-008  0.3801269E+03  0.7957747E-01  0.3450606E+00
         13   -1    0    0    0    0  0.00000000000E+00  0.00000000000E+00  0.14999999963E+04  0.15000000000E+04  0.10566000000E+00 0.  1.
        994   -1    0    0    0    0 -0.00000000000E+00 -0.00000000000E+00  0.11368683772E-12  0.17120000000E+03  0.17120000000E+03 0.  0.
         13    1    1    2    0    0 -0.82752836831E+01 -0.17783004569E+02  0.45418341680E+02  0.49472744987E+02  0.10566000000E+00 0.  1.
        994    1    1    2    0    0  0.96987284964E+01  0.11906376210E+02  0.48574872245E+01  0.17195598946E+03  0.17120000000E+03 0.  0.
        998    1    1    2    0    0 -0.14234448133E+01  0.58766283596E+01  0.14497241674E+04  0.14497712656E+04  0.10000000000E+02 0.  1.
</event>
<event>
 5    1  0.1087513E-008  0.3819561E+03  0.7957747E-01  0.3442685E+00
         13   -1    0    0    0    0  0.00000000000E+00  0.00000000000E+00  0.14999999963E+04  0.15000000000E+04  0.10566000000E+00 0. -1.
        994   -1    0    0    0    0 -0.00000000000E+00 -0.00000000000E+00  0.11368683772E-12  0.17120000000E+03  0.17120000000E+03 0.  0.
         13    1    1    2    0    0 -0.10097178381E+02  0.26930952517E+01  0.16960444293E+02  0.19921686875E+02  0.10566000000E+00 0. -1.
        994    1    1    2    0    0 -0.12670852932E+02  0.10786024677E+01  0.36862540193E+01  0.17171121794E+03  0.17120000000E+03 0.  0.
        998    1    1    2    0    0  0.22768031314E+02 -0.37716977194E+01  0.14793532980E+04  0.14795670952E+04  0.10000000000E+02 0. -1.
</event>
<event>
 5    1  0.1087513E-008  0.3797572E+03  0.7957747E-01  0.3452217E+00
         13   -1    0    0    0    0  0.00000000000E+00  0.00000000000E+00  0.14999999963E+04  0.15000000000E+04  0.10566000000E+00 0.  1.
        994   -1    0    0    0    0 -0.00000000000E+00 -0.00000000000E+00  0.11368683772E-12  0.17120000000E+03  0.17120000000E+03 0.  0.
         13    1    1    2    0    0  0.23640764168E+02 -0.30114302567E+02  0.21248369615E+03  0.21590527840E+03  0.10566000000E+00 0.  1.
        994    1    1    2    0    0  0.51618145526E+01 -0.31788828077E+01  0.43787382960E+01  0.17136324861E+03  0.17120000000E+03 0.  0.
        998    1    1    2    0    0 -0.28802578721E+02  0.33293185375E+02  0.12831375618E+04  0.12839314730E+04  0.10000000000E+02 0.  1.
</event>
<event>
 5    1  0.1087513E-008  0.3816667E+03  0.7957747E-01  0.3443933E+00
         13   -1    0    0    0    0  0.00000000000E+00  0.00000000000E+00  0.14999999963E+04  0.15000000000E+04  0.10566000000E+00 0. -1.
        994   -1    0    0    0    0 -0.00000000000E+00 -0.00000000000E+00  0.11368683772E-12  0.17120000000E+03  0.17120000000E+03 0.  0.
         13    1    1    2    0    0  0.22364516936E+02 -0.55124022433E+01  0.88690600135E+02  0.91632919372E+02  0.10566000000E+00 0. -1.
        994    1    1    2    0    0  0.85946970086E+01  0.11035722140E+02  0.39449172597E+01  0.17181576864E+03  0.17120000000E+03 0.  0.
        998    1    1    2    0    0 -0.30959213945E+02 -0.55233198963E+01  0.14073644789E+04  0.14077513120E+04  0.10000000000E+02 0. -1.
</event>
<event>
 5    1  0.1087513E-008  0.3854085E+03  0.7957747E-01  0.3427942E+00
         13   -1    0    0    0    0  0.00000000000E+00  0.00000000000E+00  0.14999999963E+04  0.15000000000E+04  0.10566000000E+00 0. -1.
        994   -1    0    0    0    0 -0.00000000000E+00 -0.00000000000E+00  0.11368683772E-12  0.17120000000E+03  0.17120000000E+03 0.  0.
         13    1    1    2    0    0 -0.16450210832E+02  0.24154042819E+01  0.88879038506E+02  0.90420895063E+02  0.10566000000E+00 0. -1.
        994    1    1    2    0    0  0.21461567789E+02 -0.74019408203E+01  0.31219897049E+01  0.17272687816E+03  0.17120000000E+03 0.  0.
        998    1    1    2    0    0 -0.50113569568E+01  0.49865365383E+01  0.14079989681E+04  0.14080522268E+04  0.10000000000E+02 0. -1.
</event>
<event>
 5    1  0.1087513E-008  0.3842936E+03  0.7957747E-01  0.3432674E+00
         13   -1    0    0    0    0  0.00000000000E+00  0.00000000000E+00  0.14999999963E+04  0.15000000000E+04  0.10566000000E+00 0. -1.
        994   -1    0    0    0    0 -0.00000000000E+00 -0.00000000000E+00  0.11368683772E-12  0.17120000000E+03  0.17120000000E+03 0.  0.
         13    1    1    2    0    0 -0.92836532076E+01  0.55360416927E+01  0.29084430156E+02  0.31028200335E+02  0.10566000000E+00 0. -1.
        994    1    1    2    0    0  0.10581234899E+01 -0.10988061175E+02  0.23830416987E+01  0.17157207232E+03  0.17120000000E+03 0.  0.
        998    1    1    2    0    0  0.82255297178E+01  0.54520194818E+01  0.14685325244E+04  0.14685997273E+04  0.10000000000E+02 0. -1.
</event>
<event>
 5    1  0.1087513E-008  0.3832003E+03  0.7957747E-01  0.3437341E+00
         13   -1    0    0    0    0  0.00000000000E+00  0.00000000000E+00  0.14999999963E+04  0.15000000000E+04  0.10566000000E+00 0.  1.
        994   -1    0    0    0    0 -0.00000000000E+00 -0.00000000000E+00  0.11368683772E-12  0.17120000000E+03  0.17120000000E+03 0.  0.
         13    1    1    2    0    0 -0.21094413449E+02 -0.15054688457E+02  0.14198347896E+03  0.14432926725E+03  0.10566000000E+00 0.  1.
        994    1    1    2    0    0  0.10539212608E+02 -0.33796527115E+01  0.29315981441E+01  0.17158243302E+03  0.17120000000E+03 0.  0.
        998    1    1    2    0    0  0.10555200841E+02  0.18434341168E+02  0.13550849192E+04  0.13552882997E+04  0.10000000000E+02 0.  1.
</event>
<event>
 5    1  0.1087513E-008  0.3810093E+03  0.7957747E-01  0.3446776E+00
         13   -1    0    0    0    0  0.00000000000E+00  0.00000000000E+00  0.14999999963E+04  0.15000000000E+04  0.10566000000E+00 0.  1.
        994   -1    0    0    0    0 -0.00000000000E+00 -0.00000000000E+00  0.11368683772E-12  0.17120000000E+03  0.17120000000E+03 0.  0.
         13    1    1    2    0    0  0.21773996783E+03 -0.17278731654E+02  0.11618047436E+04  0.11821588394E+04  0.10566000000E+00 0.  1.
        994    1    1    2    0    0 -0.21342034841E+03  0.63280009354E+01  0.17440118268E+03  0.32452041728E+03  0.17120000000E+03 0.  0.
        998    1    1    2    0    0 -0.43196194264E+01  0.10950730718E+02  0.16379406999E+03  0.16452074331E+03  0.10000000000E+02 0.  0.
</event>
<event>
 5    1  0.1214394E-008  0.3862475E+03  0.7957747E-01  0.3424398E+00
         13   -1    0    0    0    0  0.00000000000E+00  0.00000000000E+00  0.14999999963E+04  0.15000000000E+04  0.10566000000E+00 0.  1.
        994   -1    0    0    0    0 -0.00000000000E+00 -0.00000000000E+00  0.11368683772E-12  0.17120000000E+03  0.17120000000E+03 0.  0.
         13    1    1    2    0    0 -0.38900201943E+00  0.11856395536E+02  0.69015885735E+02  0.70028059273E+02  0.10566000000E+00 0.  1.
        994    1    1    2    0    0  0.10379104308E+01 -0.10693622836E+02  0.13901891346E+01  0.17154242465E+03  0.17120000000E+03 0.  0.
        998    1    1    2    0    0 -0.64890841135E+00 -0.11627727005E+01  0.14295939214E+04  0.14296295161E+04  0.10000000000E+02 0.  1.
</event>
<event>
 5    1  0.1087513E-008  0.3748853E+03  0.7957747E-01  0.3473736E+00
         13   -1    0    0    0    0  0.00000000000E+00  0.00000000000E+00  0.14999999963E+04  0.15000000000E+04  0.10566000000E+00 0. -1.
        994   -1    0    0    0    0 -0.00000000000E+00 -0.00000000000E+00  0.11368683772E-12  0.17120000000E+03  0.17120000000E+03 0.  0.
         13    1    1    2    0    0  0.29574735540E+02  0.96263055649E+01  0.67869634222E+02  0.74656742191E+02  0.10566000000E+00 0. -1.
        994    1    1    2    0    0 -0.25925694052E+02 -0.29367545419E+01  0.90560723701E+01  0.17341343254E+03  0.17120000000E+03 0.  0.
        998    1    1    2    0    0 -0.36490414884E+01 -0.66895510230E+01  0.14230742897E+04  0.14231298253E+04  0.10000000000E+02 0. -1.
</event>
<event>
 5    1  0.1087513E-008  0.3777210E+03  0.7957747E-01  0.3461142E+00
         13   -1    0    0    0    0  0.00000000000E+00  0.00000000000E+00  0.14999999963E+04  0.15000000000E+04  0.10566000000E+00 0. -1.
        994   -1    0    0    0    0 -0.00000000000E+00 -0.00000000000E+00  0.11368683772E-12  0.17120000000E+03  0.17120000000E+03 0.  0.
         13    1    1    2    0    0  0.39611786385E+02 -0.59134570337E+02  0.38801080922E+03  0.39448496836E+03  0.10566000000E+00 0. -1.
        994    1    1    2    0    0 -0.38829407604E+02  0.49006000827E+02  0.18570858739E+02  0.18320378764E+03  0.17120000000E+03 0.  0.
        998    1    1    2    0    0 -0.78237878094E+00  0.10128569510E+02  0.10934183283E+04  0.10935112440E+04  0.10000000000E+02 0. -1.
</event>
<event>
 5    1  0.1087513E-008  0.3839024E+03  0.7957747E-01  0.3434341E+00
         13   -1    0    0    0    0  0.00000000000E+00  0.00000000000E+00  0.14999999963E+04  0.15000000000E+04  0.10566000000E+00 0.  1.
        994   -1    0    0    0    0 -0.00000000000E+00 -0.00000000000E+00  0.11368683772E-12  0.17120000000E+03  0.17120000000E+03 0.  0.
         13    1    1    2    0    0  0.13730606900E+02  0.26132422204E+01  0.42731701996E+02  0.44959627670E+02  0.10566000000E+00 0.  1.
        994    1    1    2    0    0 -0.17058284903E+02 -0.43857166753E+01  0.32005839623E+01  0.17213338820E+03  0.17120000000E+03 0.  0.
        998    1    1    2    0    0  0.33276780030E+01  0.17724744549E+01  0.14540677103E+04  0.14541069841E+04  0.10000000000E+02 0.  1.
</event>
<event>
 5    1  0.1087513E-008  0.3749151E+03  0.7957747E-01  0.3473603E+00
         13   -1    0    0    0    0  0.00000000000E+00  0.00000000000E+00  0.14999999963E+04  0.15000000000E+04  0.10566000000E+00 0. -1.
        994   -1    0    0    0    0 -0.00000000000E+00 -0.00000000000E+00  0.11368683772E-12  0.17120000000E+03  0.17120000000E+03 0.  0.
         13    1    1    2    0    0  0.61178242151E+02 -0.42342397362E+01  0.25608224919E+03  0.26332268344E+03  0.10566000000E+00 0. -1.
        994    1    1    2    0    0 -0.47178514512E+02 -0.44213010165E+00  0.14329073779E+02  0.17815939511E+03  0.17120000000E+03 0.  0.
        998    1    1    2    0    0 -0.13999727638E+02  0.46763698378E+01  0.12295886733E+04  0.12297179215E+04  0.10000000000E+02 0. -1.
</event>
<event>
 5    1  0.1087513E-008  0.3732245E+03  0.7957747E-01  0.3481202E+00
         13   -1    0    0    0    0  0.00000000000E+00  0.00000000000E+00  0.14999999963E+04  0.15000000000E+04  0.10566000000E+00 0.  1.
        994   -1    0    0    0    0 -0.00000000000E+00 -0.00000000000E+00  0.11368683772E-12  0.17120000000E+03  0.17120000000E+03 0.  0.
         13    1    1    2    0    0 -0.50574826853E+02  0.34528540501E+02  0.21468158200E+03  0.22324476709E+03  0.10566000000E+00 0.  1.
        994    1    1    2    0    0  0.57491875609E+02 -0.18872522672E+02  0.20219785547E+02  0.18270130706E+03  0.17120000000E+03 0.  0.
        998    1    1    2    0    0 -0.69170487554E+01 -0.15656017830E+02  0.12650986287E+04  0.12652539258E+04  0.10000000000E+02 0.  1.
</event>
<event>
 5    1  0.1087513E-008  0.3712546E+03  0.7957747E-01  0.3490145E+00
         13   -1    0    0    0    0  0.00000000000E+00  0.00000000000E+00  0.14999999963E+04  0.15000000000E+04  0.10566000000E+00 0. -1.
        994   -1    0    0    0    0 -0.00000000000E+00 -0.00000000000E+00  0.11368683772E-12  0.17120000000E+03  0.17120000000E+03 0.  0.
         13    1    1    2    0    0  0.30944532312E+02  0.31605762351E+02  0.10926785818E+03  0.11788114476E+03  0.10566000000E+00 0. -1.
        994    1    1    2    0    0 -0.25321079642E+02 -0.17506905068E+02  0.11884239443E+02  0.17435115126E+03  0.17120000000E+03 0.  0.
        998    1    1    2    0    0 -0.56234526699E+01 -0.14098857283E+02  0.13788478987E+04  0.13789677040E+04  0.10000000000E+02 0. -1.
</event>
<event>
 5    1  0.1087513E-008  0.3796131E+03  0.7957747E-01  0.3452845E+00
         13   -1    0    0    0    0  0.00000000000E+00  0.00000000000E+00  0.14999999963E+04  0.15000000000E+04  0.10566000000E+00 0. -1.
        994   -1    0    0    0    0 -0.00000000000E+00 -0.00000000000E+00  0.11368683772E-12  0.17120000000E+03  0.17120000000E+03 0.  0.
         13    1    1    2    0    0 -0.10301651578E+02 -0.29478035188E+02  0.11221924136E+03  0.11648282225E+03  0.10566000000E+00 0. -1.
        994    1    1    2    0    0  0.52541301886E+01  0.16167826454E+02  0.52965230090E+01  0.17212349535E+03  0.17120000000E+03 0.  0.
        998    1    1    2    0    0  0.50475213895E+01  0.13310208733E+02  0.13824842319E+04  0.13825936824E+04  0.10000000000E+02 0. -1.
</event>
<event>
 5    1  0.1087513E-008  0.3835655E+03  0.7957747E-01  0.3435779E+00
         13   -1    0    0    0    0  0.00000000000E+00  0.00000000000E+00  0.14999999963E+04  0.15000000000E+04  0.10566000000E+00 0.  1.
        994   -1    0    0    0    0 -0.00000000000E+00 -0.00000000000E+00  0.11368683772E-12  0.17120000000E+03  0.17120000000E+03 0.  0.
         13    1    1    2    0    0  0.20651797149E+01  0.10279952247E+02  0.22843799818E+02  0.25135487654E+02  0.10566000000E+00 0.  1.
        994    1    1    2    0    0 -0.70366042990E+01 -0.35941398266E+01  0.25503403835E+01  0.17140121317E+03  0.17120000000E+03 0.  0.
        998    1    1    2    0    0  0.49714245841E+01 -0.66858124200E+01  0.14746058561E+04  0.14746632992E+04  0.10000000000E+02 0.  1.
</event>
<event>
 5    1  0.1087513E-008  0.3793479E+03  0.7957747E-01  0.3454003E+00
         13   -1    0    0    0    0  0.00000000000E+00  0.00000000000E+00  0.14999999963E+04  0.15000000000E+04  0.10566000000E+00 0. -1.
        994   -1    0    0    0    0 -0.00000000000E+00 -0.00000000000E+00  0.11368683772E-12  0.17120000000E+03  0.17120000000E+03 0.  0.
         13    1    1    2    0    0  0.16686128652E+02 -0.32207081343E+02  0.21774712895E+03  0.22074769831E+03  0.10566000000E+00 0. -1.
        994    1    1    2    0    0 -0.14192387332E+02 -0.37773283547E+02  0.99369174376E+01  0.17617158436E+03  0.17120000000E+03 0.  0.
        998    1    1    2    0    0 -0.24937413199E+01  0.69980364890E+02  0.12723159499E+04  0.12742807173E+04  0.10000000000E+02 0. -1.
</event>
<event>
 5    1  0.1087513E-008  0.3833322E+03  0.7957747E-01  0.3436776E+00
         13   -1    0    0    0    0  0.00000000000E+00  0.00000000000E+00  0.14999999963E+04  0.15000000000E+04  0.10566000000E+00 0.  1.
        994   -1    0    0    0    0 -0.00000000000E+00 -0.00000000000E+00  0.11368683772E-12  0.17120000000E+03  0.17120000000E+03 0.  0.
         13    1    1    2    0    0 -0.24181849045E+02 -0.12819970736E+02  0.13778783613E+03  0.14047993601E+03  0.10566000000E+00 0.  1.
        994    1    1    2    0    0  0.22343138980E+02  0.20153681009E+02  0.54598668734E+01  0.17390985269E+03  0.17120000000E+03 0.  0.
        998    1    1    2    0    0  0.18387100651E+01 -0.73337102729E+01  0.13567522933E+04  0.13568102113E+04  0.10000000000E+02 0.  1.
</event>
<event>
 5    1  0.1087513E-008  0.3739270E+03  0.7957747E-01  0.3478036E+00
         13   -1    0    0    0    0  0.00000000000E+00  0.00000000000E+00  0.14999999963E+04  0.15000000000E+04  0.10566000000E+00 0.  1.
        994   -1    0    0    0    0 -0.00000000000E+00 -0.00000000000E+00  0.11368683772E-12  0.17120000000E+03  0.17120000000E+03 0.  0.
         13    1    1    2    0    0 -0.30607072946E+02  0.10295838273E+02  0.75229218162E+02  0.81867231720E+02  0.10566000000E+00 0.  1.
        994    1    1    2    0    0 -0.55733657622E+01 -0.11550878165E+02  0.77921303587E+01  0.17185645896E+03  0.17120000000E+03 0.  0.
        998    1    1    2    0    0  0.36180438709E+02  0.12550398918E+01  0.14169786478E+04  0.14174763093E+04  0.10000000000E+02 0.  1.
</event>
<event>
 5    1  0.1087513E-008  0.3751770E+03  0.7957747E-01  0.3472432E+00
         13   -1    0    0    0    0  0.00000000000E+00  0.00000000000E+00  0.14999999963E+04  0.15000000000E+04  0.10566000000E+00 0.  1.
        994   -1    0    0    0    0 -0.00000000000E+00 -0.00000000000E+00  0.11368683772E-12  0.17120000000E+03  0.17120000000E+03 0.  0.
         13    1    1    2    0    0  0.13696798365E+02  0.17847097709E+02  0.35944845086E+02  0.42404766647E+02  0.10566000000E+00 0.  1.
        994    1    1    2    0    0 -0.25410771040E+01 -0.14836112945E+02  0.73579351276E+01  0.17201786689E+03  0.17120000000E+03 0.  0.
        998    1    1    2    0    0 -0.11155721261E+02 -0.30109847639E+01  0.14566972161E+04  0.14567773665E+04  0.10000000000E+02 0.  1.
</event>
<event>
 5    1  0.1087513E-008  0.3812506E+03  0.7957747E-01  0.3445731E+00
         13   -1    0    0    0    0  0.00000000000E+00  0.00000000000E+00  0.14999999963E+04  0.15000000000E+04  0.10566000000E+00 0. -1.
        994   -1    0    0    0    0 -0.00000000000E+00 -0.00000000000E+00  0.11368683772E-12  0.17120000000E+03  0.17120000000E+03 0.  0.
         13    1    1    2    0    0 -0.94857191223E+02 -0.19508424143E+03  0.87372935802E+03  0.90025482515E+03  0.10566000000E+00 0. -1.
        994    1    1    2    0    0  0.13474773643E+03  0.21211696624E+03  0.25450983432E+03  0.39652900979E+03  0.17120000000E+03 0.  0.
        998    1    1    2    0    0 -0.39890545207E+02 -0.17032724813E+02  0.37176080395E+03  0.37441616506E+03  0.10000000000E+02 0. -1.
</event>
<event>
 5    1  0.1087513E-008  0.3789517E+03  0.7957747E-01  0.3455736E+00
         13   -1    0    0    0    0  0.00000000000E+00  0.00000000000E+00  0.14999999963E+04  0.15000000000E+04  0.10566000000E+00 0. -1.
        994   -1    0    0    0    0 -0.00000000000E+00 -0.00000000000E+00  0.11368683772E-12  0.17120000000E+03  0.17120000000E+03 0.  0.
         13    1    1    2    0    0 -0.52708887071E+00  0.26583716466E+02  0.71390352838E+02  0.76181135764E+02  0.10566000000E+00 0. -1.
        994    1    1    2    0    0 -0.68747184642E+01 -0.25817426370E+02  0.70614155751E+01  0.17341598787E+03  0.17120000000E+03 0.  0.
        998    1    1    2    0    0  0.74018073349E+01 -0.76629009542E+00  0.14215482279E+04  0.14216028764E+04  0.10000000000E+02 0. -1.
</event>
<event>
 5    1  0.1087513E-008  0.3903495E+03  0.7957747E-01  0.3407296E+00
         13   -1    0    0    0    0  0.00000000000E+00  0.00000000000E+00  0.14999999963E+04  0.15000000000E+04  0.10566000000E+00 0.  1.
        994   -1    0    0    0    0 -0.00000000000E+00 -0.00000000000E+00  0.11368683772E-12  0.17120000000E+03  0.17120000000E+03 0.  0.
         13    1    1    2    0    0  0.40891712947E+00 -0.86304532638E+02  0.18380276516E+03  0.20305690634E+03  0.10566000000E+00 0.  1.
        994    1    1    2    0    0 -0.52177091334E+01  0.21923049222E+02  0.24047938766E+02  0.17434330482E+03  0.17120000000E+03 0.  0.
        998    1    1    2    0    0  0.48087920040E+01  0.64381483416E+02  0.12921492923E+04  0.12937997888E+04  0.10000000000E+02 0.  1.
</event>
<event>
 5    1  0.1087513E-008  0.3726231E+03  0.7957747E-01  0.3483922E+00
         13   -1    0    0    0    0  0.00000000000E+00  0.00000000000E+00  0.14999999963E+04  0.15000000000E+04  0.10566000000E+00 0. -1.
        994   -1    0    0    0    0 -0.00000000000E+00 -0.00000000000E+00  0.11368683772E-12  0.17120000000E+03  0.17120000000E+03 0.  0.
         13    1    1    2    0    0 -0.51388862372E+02 -0.45666405596E+02  0.23297920817E+03  0.24291059750E+03  0.10566000000E+00 0. -1.
        994    1    1    2    0    0 -0.11605666920E+02  0.12407638782E+02  0.13351659358E+02  0.17255824470E+03  0.17120000000E+03 0.  0.
        998    1    1    2    0    0  0.62994529292E+02  0.33258766814E+02  0.12536691288E+04  0.12557311578E+04  0.10000000000E+02 0. -1.
</event>
<event>
 5    1  0.1087513E-008  0.3817320E+03  0.7957747E-01  0.3443651E+00
         13   -1    0    0    0    0  0.00000000000E+00  0.00000000000E+00  0.14999999963E+04  0.15000000000E+04  0.10566000000E+00 0. -1.
        994   -1    0    0    0    0 -0.00000000000E+00 -0.00000000000E+00  0.11368683772E-12  0.17120000000E+03  0.17120000000E+03 0.  0.
         13    1    1    2    0    0 -0.65291932134E+01  0.27781326573E+02  0.14287143859E+03  0.14569382829E+03  0.10566000000E+00 0. -1.
        994    1    1    2    0    0  0.19419700189E+02  0.73646849668E+01  0.46965088093E+01  0.17251915991E+03  0.17120000000E+03 0.  0.
        998    1    1    2    0    0 -0.12890506976E+02 -0.35146011540E+02  0.13524320489E+04  0.13529870118E+04  0.10000000000E+02 0. -1.
</event>
<event>
 5    1  0.1087513E-008  0.3811816E+03  0.7957747E-01  0.3446030E+00
         13   -1    0    0    0    0  0.00000000000E+00  0.00000000000E+00  0.14999999963E+04  0.15000000000E+04  0.10566000000E+00 0.  1.
        994   -1    0    0    0    0 -0.00000000000E+00 -0.00000000000E+00  0.11368683772E-12  0.17120000000E+03  0.17120000000E+03 0.  0.
         13    1    1    2    0    0 -0.65916426750E+01 -0.13995462173E+02  0.27225492727E+02  0.31313915962E+02  0.10566000000E+00 0.  1.
        994    1    1    2    0    0  0.44690623495E+02  0.51705341847E+02  0.19250392070E+02  0.18533945020E+03  0.17120000000E+03 0.  0.
        998    1    1    2    0    0 -0.38098980820E+02 -0.37709879673E+02  0.14535241115E+04  0.14545466338E+04  0.10000000000E+02 0.  1.
</event>
<event>
 5    1  0.1087513E-008  0.3745218E+03  0.7957747E-01  0.3475364E+00
         13   -1    0    0    0    0  0.00000000000E+00  0.00000000000E+00  0.14999999963E+04  0.15000000000E+04  0.10566000000E+00 0.  1.
        994   -1    0    0    0    0 -0.00000000000E+00 -0.00000000000E+00  0.11368683772E-12  0.17120000000E+03  0.17120000000E+03 0.  0.
         13    1    1    2    0    0 -0.43748935585E+02 -0.20832501840E+02  0.18577308820E+03  0.19198857768E+03  0.10566000000E+00 0.  1.
        994    1    1    2    0    0  0.81863685834E+01  0.60726873111E+01  0.72783130726E+01  0.17165753116E+03  0.17120000000E+03 0.  0.
        998    1    1    2    0    0  0.35562567001E+02  0.14759814528E+02  0.13069485950E+04  0.13075538912E+04  0.10000000000E+02 0.  1.
</event>
<event>
 5    1  0.1087513E-008  0.3754703E+03  0.7957747E-01  0.3471122E+00
         13   -1    0    0    0    0  0.00000000000E+00  0.00000000000E+00  0.14999999963E+04  0.15000000000E+04  0.10566000000E+00 0. -1.
        994   -1    0    0    0    0 -0.00000000000E+00 -0.00000000000E+00  0.11368683772E-12  0.17120000000E+03  0.17120000000E+03 0.  0.
         13    1    1    2    0    0  0.38625928949E+02 -0.39297227576E+02  0.26418811467E+03  0.26987331395E+03  0.10566000000E+00 0. -1.
        994    1    1    2    0    0 -0.52089149369E+01  0.15541115285E+02  0.73497111503E+01  0.17213981908E+03  0.17120000000E+03 0.  0.
        998    1    1    2    0    0 -0.33417014012E+02  0.23756112291E+02  0.12284621705E+04  0.12291868670E+04  0.10000000000E+02 0. -1.
</event>
<event>
 5    1  0.1087513E-008  0.3851977E+03  0.7957747E-01  0.3428834E+00
         13   -1    0    0    0    0  0.00000000000E+00  0.00000000000E+00  0.14999999963E+04  0.15000000000E+04  0.10566000000E+00 0.  1.
        994   -1    0    0    0    0 -0.00000000000E+00 -0.00000000000E+00  0.11368683772E-12  0.17120000000E+03  0.17120000000E+03 0.  0.
         13    1    1    2    0    0 -0.19305934717E+02 -0.36980939475E+01  0.10957545104E+03  0.11132468571E+03  0.10566000000E+00 0.  1.
        994    1    1    2    0    0  0.26747205392E+02  0.19812570847E+02  0.51818185688E+01  0.17448278483E+03  0.17120000000E+03 0.  0.
        998    1    1    2    0    0 -0.74412706751E+01 -0.16114476900E+02  0.13852427267E+04  0.13853925295E+04  0.10000000000E+02 0.  1.
</event>
<event>
 5    1  0.1087513E-008  0.3817723E+03  0.7957747E-01  0.3443478E+00
         13   -1    0    0    0    0  0.00000000000E+00  0.00000000000E+00  0.14999999963E+04  0.15000000000E+04  0.10566000000E+00 0.  1.
        994   -1    0    0    0    0 -0.00000000000E+00 -0.00000000000E+00  0.11368683772E-12  0.17120000000E+03  0.17120000000E+03 0.  0.
         13    1    1    2    0    0 -0.13456425219E+02 -0.29135868030E+01  0.28306400676E+02  0.31477418112E+02  0.10566000000E+00 0.  1.
        994    1    1    2    0    0  0.61313656870E+01  0.14842146359E+01  0.33734315128E+01  0.17134939912E+03  0.17120000000E+03 0.  0.
        998    1    1    2    0    0  0.73250595322E+01  0.14293721671E+01  0.14683201641E+04  0.14683731828E+04  0.10000000000E+02 0.  1.
</event>
<event>
 5    1  0.1087513E-008  0.3849726E+03  0.7957747E-01  0.3429788E+00
         13   -1    0    0    0    0  0.00000000000E+00  0.00000000000E+00  0.14999999963E+04  0.15000000000E+04  0.10566000000E+00 0. -1.
        994   -1    0    0    0    0 -0.00000000000E+00 -0.00000000000E+00  0.11368683772E-12  0.17120000000E+03  0.17120000000E+03 0.  0.
         13    1    1    2    0    0 -0.60606832536E+01 -0.13215543139E+02  0.65240057305E+02  0.66840546850E+02  0.10566000000E+00 0. -1.
        994    1    1    2    0    0 -0.15326307137E+01  0.87524580643E+01  0.19034540655E+01  0.17144100331E+03  0.17120000000E+03 0.  0.
        998    1    1    2    0    0  0.75933139673E+01  0.44630850747E+01  0.14328564849E+04  0.14329184498E+04  0.10000000000E+02 0. -1.
</event>
<event>
 5    1  0.1087513E-008  0.3857250E+03  0.7957747E-01  0.3426603E+00
         13   -1    0    0    0    0  0.00000000000E+00  0.00000000000E+00  0.14999999963E+04  0.15000000000E+04  0.10566000000E+00 0.  1.
        994   -1    0    0    0    0 -0.00000000000E+00 -0.00000000000E+00  0.11368683772E-12  0.17120000000E+03  0.17120000000E+03 0.  0.
         13    1    1    2    0    0 -0.93906753328E+01 -0.10784864363E+02  0.79504756717E+02  0.80780663449E+02  0.10566000000E+00 0.  1.
        994    1    1    2    0    0  0.75732063021E+01  0.91378206674E+01  0.17328909410E+01  0.17161962630E+03  0.17120000000E+03 0.  0.
        998    1    1    2    0    0  0.18174690307E+01  0.16470436952E+01  0.14187623486E+04  0.14187997103E+04  0.10000000000E+02 0.  1.
</event>
<event>
 5    1  0.1087513E-008  0.3836065E+03  0.7957747E-01  0.3435604E+00
         13   -1    0    0    0    0  0.00000000000E+00  0.00000000000E+00  0.14999999963E+04  0.15000000000E+04  0.10566000000E+00 0.  1.
        994   -1    0    0    0    0 -0.00000000000E+00 -0.00000000000E+00  0.11368683772E-12  0.17120000000E+03  0.17120000000E+03 0.  0.
         13    1    1    2    0    0  0.10707125366E+02  0.13348327843E+01  0.25565992661E+02  0.27749873098E+02  0.10566000000E+00 0.  1.
        994    1    1    2    0    0  0.62152358006E+01  0.56266959027E+01  0.25557950915E+01  0.17142421343E+03  0.17120000000E+03 0.  0.
        998    1    1    2    0    0 -0.16922361166E+02 -0.69615286870E+01  0.14718782085E+04  0.14720259135E+04  0.10000000000E+02 0.  1.
</event>
<event>
 5    1  0.1087513E-008  0.3690669E+03  0.7957747E-01  0.3500190E+00
         13   -1    0    0    0    0  0.00000000000E+00  0.00000000000E+00  0.14999999963E+04  0.15000000000E+04  0.10566000000E+00 0.  1.
        994   -1    0    0    0    0 -0.00000000000E+00 -0.00000000000E+00  0.11368683772E-12  0.17120000000E+03  0.17120000000E+03 0.  0.
         13    1    1    2    0    0 -0.49949472725E+02  0.14279163176E+02  0.12877559660E+03  0.13885967655E+03  0.10566000000E+00 0.  1.
        994    1    1    2    0    0  0.41389890634E+02 -0.12718626074E+02  0.16289469839E+02  0.17734055747E+03  0.17120000000E+03 0.  0.
        998    1    1    2    0    0  0.85595820913E+01 -0.15605371019E+01  0.13549349298E+04  0.13549997660E+04  0.10000000000E+02 0.  1.
</event>
<event>
 5    1  0.1087513E-008  0.3795254E+03  0.7957747E-01  0.3453228E+00
         13   -1    0    0    0    0  0.00000000000E+00  0.00000000000E+00  0.14999999963E+04  0.15000000000E+04  0.10566000000E+00 0.  1.
        994   -1    0    0    0    0 -0.00000000000E+00 -0.00000000000E+00  0.11368683772E-12  0.17120000000E+03  0.17120000000E+03 0.  0.
         13    1    1    2    0    0 -0.84337465010E+02  0.80747259908E+02  0.70244688222E+03  0.71208465893E+03  0.10566000000E+00 0.  1.
        994    1    1    2    0    0  0.76805725870E+02 -0.10045558389E+03  0.59918204565E+02  0.22111100176E+03  0.17120000000E+03 0.  0.
        998    1    1    2    0    0  0.75317391398E+01  0.19708323981E+02  0.73763490950E+03  0.73800433931E+03  0.10000000000E+02 0.  1.
</event>
<event>
 5    1  0.1087513E-008  0.3756169E+03  0.7957747E-01  0.3470468E+00
         13   -1    0    0    0    0  0.00000000000E+00  0.00000000000E+00  0.14999999963E+04  0.15000000000E+04  0.10566000000E+00 0. -1.
        994   -1    0    0    0    0 -0.00000000000E+00 -0.00000000000E+00  0.11368683772E-12  0.17120000000E+03  0.17120000000E+03 0.  0.
         13    1    1    2    0    0  0.15533079985E+02 -0.65679025137E+02  0.30076476745E+03  0.30824416851E+03  0.10566000000E+00 0. -1.
        994    1    1    2    0    0 -0.10067895867E+02  0.60148366680E+02  0.19084470826E+02  0.18273709412E+03  0.17120000000E+03 0.  0.
        998    1    1    2    0    0 -0.54651841176E+01  0.55306584561E+01  0.11801507580E+04  0.11802187374E+04  0.10000000000E+02 0. -1.
</event>
<event>
 5    1  0.1087513E-008  0.3843114E+03  0.7957747E-01  0.3432598E+00
         13   -1    0    0    0    0  0.00000000000E+00  0.00000000000E+00  0.14999999963E+04  0.15000000000E+04  0.10566000000E+00 0.  1.
        994   -1    0    0    0    0 -0.00000000000E+00 -0.00000000000E+00  0.11368683772E-12  0.17120000000E+03  0.17120000000E+03 0.  0.
         13    1    1    2    0    0  0.40760623134E+01  0.25140858248E+02  0.14800799134E+03  0.15018340023E+03  0.10566000000E+00 0.  1.
        994    1    1    2    0    0  0.34638222575E+01 -0.28378608208E+02  0.46710299399E+01  0.17363352784E+03  0.17120000000E+03 0.  0.
        998    1    1    2    0    0 -0.75398845709E+01  0.32377499599E+01  0.13473209750E+04  0.13473830719E+04  0.10000000000E+02 0.  1.
</event>
<event>
 5    1  0.1087513E-008  0.3841839E+03  0.7957747E-01  0.3433141E+00
         13   -1    0    0    0    0  0.00000000000E+00  0.00000000000E+00  0.14999999963E+04  0.15000000000E+04  0.10566000000E+00 0. -1.
        994   -1    0    0    0    0 -0.00000000000E+00 -0.00000000000E+00  0.11368683772E-12  0.17120000000E+03  0.17120000000E+03 0.  0.
         13    1    1    2    0    0  0.19225642356E+02  0.56680768206E+01  0.10965585302E+03  0.11147273067E+03  0.10566000000E+00 0. -1.
        994    1    1    2    0    0  0.42721926611E+01 -0.85916488459E+01  0.23394940956E+01  0.17148463865E+03  0.17120000000E+03 0.  0.
        998    1    1    2    0    0 -0.23497835017E+02  0.29235720253E+01  0.13880046492E+04  0.13882426307E+04  0.10000000000E+02 0. -1.
</event>
<event>
 5    1  0.1087513E-008  0.3830524E+03  0.7957747E-01  0.3437974E+00
         13   -1    0    0    0    0  0.00000000000E+00  0.00000000000E+00  0.14999999963E+04  0.15000000000E+04  0.10566000000E+00 0.  1.
        994   -1    0    0    0    0 -0.00000000000E+00 -0.00000000000E+00  0.11368683772E-12  0.17120000000E+03  0.17120000000E+03 0.  0.
         13    1    1    2    0    0 -0.13500459703E+02 -0.12588289014E+02  0.65386127226E+02  0.67941770879E+02  0.10566000000E+00 0.  1.
        994    1    1    2    0    0  0.67653893871E+01  0.75470479606E+01  0.29402450850E+01  0.17152496456E+03  0.17120000000E+03 0.  0.
        998    1    1    2    0    0  0.67350703159E+01  0.50412410539E+01  0.14316736240E+04  0.14317332646E+04  0.10000000000E+02 0.  1.
</event>
<event>
 5    1  0.1087513E-008  0.3733686E+03  0.7957747E-01  0.3480551E+00
         13   -1    0    0    0    0  0.00000000000E+00  0.00000000000E+00  0.14999999963E+04  0.15000000000E+04  0.10566000000E+00 0. -1.
        994   -1    0    0    0    0 -0.00000000000E+00 -0.00000000000E+00  0.11368683772E-12  0.17120000000E+03  0.17120000000E+03 0.  0.
         13    1    1    2    0    0 -0.37904969497E+02  0.15343244668E+03  0.72785398544E+03  0.74481523728E+03  0.10566000000E+00 0. -1.
        994    1    1    2    0    0  0.26962923634E+02 -0.15963927203E+03  0.10318701247E+03  0.25723276612E+03  0.17120000000E+03 0.  0.
        998    1    1    2    0    0  0.10942045862E+02  0.62068253523E+01  0.66895899837E+03  0.66915199659E+03  0.10000000000E+02 0. -1.
</event>
<event>
 5    1  0.1087513E-008  0.3832190E+03  0.7957747E-01  0.3437261E+00
         13   -1    0    0    0    0  0.00000000000E+00  0.00000000000E+00  0.14999999963E+04  0.15000000000E+04  0.10566000000E+00 0.  1.
        994   -1    0    0    0    0 -0.00000000000E+00 -0.00000000000E+00  0.11368683772E-12  0.17120000000E+03  0.17120000000E+03 0.  0.
         13    1    1    2    0    0  0.18649201551E+01  0.14158275876E+02  0.39103430502E+02  0.41629606581E+02  0.10566000000E+00 0.  1.
        994    1    1    2    0    0 -0.98789895695E-01 -0.13652525345E+02  0.31337497777E+01  0.17177212112E+03  0.17120000000E+03 0.  0.
        998    1    1    2    0    0 -0.17661302594E+01 -0.50575053076E+00  0.14577628160E+04  0.14577982723E+04  0.10000000000E+02 0.  1.
</event>
<event>
 5    1  0.1087513E-008  0.3843675E+03  0.7957747E-01  0.3432359E+00
         13   -1    0    0    0    0  0.00000000000E+00  0.00000000000E+00  0.14999999963E+04  0.15000000000E+04  0.10566000000E+00 0.  1.
        994   -1    0    0    0    0 -0.00000000000E+00 -0.00000000000E+00  0.11368683772E-12  0.17120000000E+03  0.17120000000E+03 0.  0.
         13    1    1    2    0    0  0.12530644839E+02  0.35379329714E+01  0.42588020345E+02  0.44534084371E+02  0.10566000000E+00 0.  1.
        994    1    1    2    0    0 -0.14332941865E+02  0.68648877275E+01  0.27772081915E+01  0.17195846240E+03  0.17120000000E+03 0.  0.
        998    1    1    2    0    0  0.18022970259E+01 -0.10402820699E+02  0.14546347677E+04  0.14547074532E+04  0.10000000000E+02 0.  1.
</event>
<event>
 5    1  0.1087513E-008  0.3783869E+03  0.7957747E-01  0.3458212E+00
         13   -1    0    0    0    0  0.00000000000E+00  0.00000000000E+00  0.14999999963E+04  0.15000000000E+04  0.10566000000E+00 0.  1.
        994   -1    0    0    0    0 -0.00000000000E+00 -0.00000000000E+00  0.11368683772E-12  0.17120000000E+03  0.17120000000E+03 0.  0.
         13    1    1    2    0    0  0.91130631938E+00  0.51563820624E+02  0.28190539977E+03  0.28658388591E+03  0.10566000000E+00 0.  1.
        994    1    1    2    0    0 -0.39103202011E+02 -0.24839805928E+02  0.12196372269E+02  0.17777589224E+03  0.17120000000E+03 0.  0.
        998    1    1    2    0    0  0.38191895692E+02 -0.26724014696E+02  0.12058982242E+04  0.12068402219E+04  0.10000000000E+02 0.  1.
</event>
<event>
 5    1  0.1087513E-008  0.3735847E+03  0.7957747E-01  0.3479577E+00
         13   -1    0    0    0    0  0.00000000000E+00  0.00000000000E+00  0.14999999963E+04  0.15000000000E+04  0.10566000000E+00 0. -1.
        994   -1    0    0    0    0 -0.00000000000E+00 -0.00000000000E+00  0.11368683772E-12  0.17120000000E+03  0.17120000000E+03 0.  0.
         13    1    1    2    0    0  0.25380277068E+02 -0.16454208212E+02  0.53469661517E+02  0.61432200829E+02  0.10566000000E+00 0. -1.
        994    1    1    2    0    0 -0.31289756421E+02  0.44109574449E+02  0.17463305152E+02  0.18038600401E+03  0.17120000000E+03 0.  0.
        998    1    1    2    0    0  0.59094793530E+01 -0.27655366237E+02  0.14290670296E+04  0.14293817952E+04  0.10000000000E+02 0. -1.
</event>
<event>
 5    1  0.1087513E-008  0.3696922E+03  0.7957747E-01  0.3497307E+00
         13   -1    0    0    0    0  0.00000000000E+00  0.00000000000E+00  0.14999999963E+04  0.15000000000E+04  0.10566000000E+00 0. -1.
        994   -1    0    0    0    0 -0.00000000000E+00 -0.00000000000E+00  0.11368683772E-12  0.17120000000E+03  0.17120000000E+03 0.  0.
         13    1    1    2    0    0  0.75674082869E+02  0.79988031370E+02  0.41203504827E+03  0.42649448314E+03  0.10566000000E+00 0. -1.
        994    1    1    2    0    0 -0.72644270843E+02 -0.76311527076E+02  0.50615469461E+02  0.20729690060E+03  0.17120000000E+03 0.  0.
        998    1    1    2    0    0 -0.30298120262E+01 -0.36765042936E+01  0.10373494785E+04  0.10374086163E+04  0.10000000000E+02 0.  0.
</event>
<event>
 5    1  0.1180815E-008  0.3845118E+03  0.7957747E-01  0.3431745E+00
         13   -1    0    0    0    0  0.00000000000E+00  0.00000000000E+00  0.14999999963E+04  0.15000000000E+04  0.10566000000E+00 0. -1.
        994   -1    0    0    0    0 -0.00000000000E+00 -0.00000000000E+00  0.11368683772E-12  0.17120000000E+03  0.17120000000E+03 0.  0.
         13    1    1    2    0    0  0.49202570650E+01  0.18066589669E+02  0.88107964935E+02  0.90075719486E+02  0.10566000000E+00 0. -1.
        994    1    1    2    0    0 -0.57605215742E+01 -0.19674923830E+02  0.32583004145E+01  0.17245388589E+03  0.17120000000E+03 0.  0.
        998    1    1    2    0    0  0.84026450920E+00  0.16083341612E+01  0.14086337309E+04  0.14086703946E+04  0.10000000000E+02 0. -1.
</event>
<event>
 5    1  0.1087513E-008  0.3850361E+03  0.7957747E-01  0.3429519E+00
         13   -1    0    0    0    0  0.00000000000E+00  0.00000000000E+00  0.14999999963E+04  0.15000000000E+04  0.10566000000E+00 0.  1.
        994   -1    0    0    0    0 -0.00000000000E+00 -0.00000000000E+00  0.11368683772E-12  0.17120000000E+03  0.17120000000E+03 0.  0.
         13    1    1    2    0    0  0.73817659985E+01 -0.12450135933E+02  0.73275582368E+02  0.74691488735E+02  0.10566000000E+00 0.  1.
        994    1    1    2    0    0 -0.27257082873E+02 -0.23218446782E+02  0.58393236566E+01  0.17500166439E+03  0.17120000000E+03 0.  0.
        998    1    1    2    0    0  0.19875316874E+02  0.35668582714E+02  0.14208850903E+04  0.14215068469E+04  0.10000000000E+02 0.  1.
</event>
<event>
 5    1  0.1087513E-008  0.3750491E+03  0.7957747E-01  0.3473003E+00
         13   -1    0    0    0    0  0.00000000000E+00  0.00000000000E+00  0.14999999963E+04  0.15000000000E+04  0.10566000000E+00 0. -1.
        994   -1    0    0    0    0 -0.00000000000E+00 -0.00000000000E+00  0.11368683772E-12  0.17120000000E+03  0.17120000000E+03 0.  0.
         13    1    1    2    0    0 -0.25105962188E+02 -0.62110556936E+01  0.48977055214E+02  0.55386367020E+02  0.10566000000E+00 0. -1.
        994    1    1    2    0    0  0.75424508796E+01  0.46393354676E+01  0.69200534737E+01  0.17156846779E+03  0.17120000000E+03 0.  0.
        998    1    1    2    0    0  0.17563511308E+02  0.15717202260E+01  0.14441028876E+04  0.14442451652E+04  0.10000000000E+02 0. -1.
</event>
<event>
 5    1  0.1087513E-008  0.3860581E+03  0.7957747E-01  0.3425197E+00
         13   -1    0    0    0    0  0.00000000000E+00  0.00000000000E+00  0.14999999963E+04  0.15000000000E+04  0.10566000000E+00 0. -1.
        994   -1    0    0    0    0 -0.00000000000E+00 -0.00000000000E+00  0.11368683772E-12  0.17120000000E+03  0.17120000000E+03 0.  0.
         13    1    1    2    0    0 -0.12848882151E+02  0.14470956831E+01  0.77144871905E+02  0.78221034791E+02  0.10566000000E+00 0. -1.
        994    1    1    2    0    0  0.70071055702E+01 -0.59031188121E+01  0.13808771154E+01  0.17145055603E+03  0.17120000000E+03 0.  0.
        998    1    1    2    0    0  0.58417765804E+01  0.44560231290E+01  0.14214742473E+04  0.14215284092E+04  0.10000000000E+02 0. -1.
</event>
<event>
 5    1  0.1087513E-008  0.3842510E+03  0.7957747E-01  0.3432855E+00
         13   -1    0    0    0    0  0.00000000000E+00  0.00000000000E+00  0.14999999963E+04  0.15000000000E+04  0.10566000000E+00 0. -1.
        994   -1    0    0    0    0 -0.00000000000E+00 -0.00000000000E+00  0.11368683772E-12  0.17120000000E+03  0.17120000000E+03 0.  0.
         13    1    1    2    0    0 -0.11474205891E+02 -0.16573193483E+02  0.10599388307E+03  0.10789366318E+03  0.10566000000E+00 0. -1.
        994    1    1    2    0    0  0.12649339728E+02 -0.83264782748E+00  0.25324302531E+01  0.17168736791E+03  0.17120000000E+03 0.  0.
        998    1    1    2    0    0 -0.11751338366E+01  0.17405841310E+02  0.13914736830E+04  0.13916189689E+04  0.10000000000E+02 0. -1.
</event>
<event>
 5    1  0.1087513E-008  0.3716585E+03  0.7957747E-01  0.3488303E+00
         13   -1    0    0    0    0  0.00000000000E+00  0.00000000000E+00  0.14999999963E+04  0.15000000000E+04  0.10566000000E+00 0.  1.
        994   -1    0    0    0    0 -0.00000000000E+00 -0.00000000000E+00  0.11368683772E-12  0.17120000000E+03  0.17120000000E+03 0.  0.
         13    1    1    2    0    0  0.11449118087E+02  0.27612205013E+01  0.43279457428E+01  0.12547865238E+02  0.10566000000E+00 0.  1.
        994    1    1    2    0    0 -0.12639866185E+02 -0.91073803865E+00  0.89570800309E+01  0.17190190500E+03  0.17120000000E+03 0.  0.
        998    1    1    2    0    0  0.11907480982E+01 -0.18504824626E+01  0.14867149705E+04  0.14867502298E+04  0.10000000000E+02 0.  1.
</event>
<event>
 5    1  0.1087513E-008  0.3840780E+03  0.7957747E-01  0.3433592E+00
         13   -1    0    0    0    0  0.00000000000E+00  0.00000000000E+00  0.14999999963E+04  0.15000000000E+04  0.10566000000E+00 0.  1.
        994   -1    0    0    0    0 -0.00000000000E+00 -0.00000000000E+00  0.11368683772E-12  0.17120000000E+03  0.17120000000E+03 0.  0.
         13    1    1    2    0    0  0.19225118822E+02  0.11467521490E+02  0.11152650210E+03  0.11375096077E+03  0.10566000000E+00 0.  1.
        994    1    1    2    0    0 -0.21029376635E+02 -0.10415548541E+02  0.39072310432E+01  0.17284508899E+03  0.17120000000E+03 0.  0.
        998    1    1    2    0    0  0.18042578133E+01 -0.10519729486E+01  0.13845662631E+04  0.13846039502E+04  0.10000000000E+02 0.  1.
</event>
<event>
 5    1  0.1087513E-008  0.3798297E+03  0.7957747E-01  0.3451901E+00
         13   -1    0    0    0    0  0.00000000000E+00  0.00000000000E+00  0.14999999963E+04  0.15000000000E+04  0.10566000000E+00 0. -1.
        994   -1    0    0    0    0 -0.00000000000E+00 -0.00000000000E+00  0.11368683772E-12  0.17120000000E+03  0.17120000000E+03 0.  0.
         13    1    1    2    0    0  0.16842627477E+01  0.19362135018E+02  0.42988742198E+02  0.47178089546E+02  0.10566000000E+00 0. -1.
        994    1    1    2    0    0 -0.23305036827E+01 -0.13818713936E+02  0.48763060971E+01  0.17184180651E+03  0.17120000000E+03 0.  0.
        998    1    1    2    0    0  0.64624093499E+00 -0.55434210819E+01  0.14521349480E+04  0.14521801039E+04  0.10000000000E+02 0. -1.
</event>
<event>
 5    1  0.1087513E-008  0.3715039E+03  0.7957747E-01  0.3489008E+00
         13   -1    0    0    0    0  0.00000000000E+00  0.00000000000E+00  0.14999999963E+04  0.15000000000E+04  0.10566000000E+00 0. -1.
        994   -1    0    0    0    0 -0.00000000000E+00 -0.00000000000E+00  0.11368683772E-12  0.17120000000E+03  0.17120000000E+03 0.  0.
         13    1    1    2    0    0 -0.69265705729E+02  0.27294761337E+02  0.42655432476E+03  0.43300270799E+03  0.10566000000E+00 0. -1.
        994    1    1    2    0    0  0.22576584719E+02  0.20753537034E+02  0.11726807358E+02  0.17431973350E+03  0.17120000000E+03 0.  0.
        998    1    1    2    0    0  0.46689121009E+02 -0.48048298372E+02  0.10617188642E+04  0.10638775585E+04  0.10000000000E+02 0. -1.
</event>
<event>
 5    1  0.1087513E-008  0.3694125E+03  0.7957747E-01  0.3498595E+00
         13   -1    0    0    0    0  0.00000000000E+00  0.00000000000E+00  0.14999999963E+04  0.15000000000E+04  0.10566000000E+00 0.  1.
        994   -1    0    0    0    0 -0.00000000000E+00 -0.00000000000E+00  0.11368683772E-12  0.17120000000E+03  0.17120000000E+03 0.  0.
         13    1    1    2    0    0  0.10920961350E+02  0.19862552264E+02  0.23733659693E+02  0.32818990626E+02  0.10566000000E+00 0.  1.
        994    1    1    2    0    0 -0.77411943764E+01  0.54028614204E+01  0.98853088330E+01  0.17174480002E+03  0.17120000000E+03 0.  0.
        998    1    1    2    0    0 -0.31797669735E+01 -0.25265413684E+02  0.14663810278E+04  0.14666362094E+04  0.10000000000E+02 0.  1.
</event>
<event>
 5    1  0.1087513E-008  0.3800380E+03  0.7957747E-01  0.3450993E+00
         13   -1    0    0    0    0  0.00000000000E+00  0.00000000000E+00  0.14999999963E+04  0.15000000000E+04  0.10566000000E+00 0. -1.
        994   -1    0    0    0    0 -0.00000000000E+00 -0.00000000000E+00  0.11368683772E-12  0.17120000000E+03  0.17120000000E+03 0.  0.
         13    1    1    2    0    0  0.11726968656E+02 -0.46850335300E+02  0.26907860542E+03  0.27337846069E+03  0.10566000000E+00 0. -1.
        994    1    1    2    0    0 -0.61694361013E+01  0.32423980703E+02  0.77637563550E+01  0.17452533449E+03  0.17120000000E+03 0.  0.
        998    1    1    2    0    0 -0.55575325543E+01  0.14426354598E+02  0.12231576345E+04  0.12232962048E+04  0.10000000000E+02 0. -1.
</event>
<event>
 5    1  0.1087513E-008  0.3712598E+03  0.7957747E-01  0.3490121E+00
         13   -1    0    0    0    0  0.00000000000E+00  0.00000000000E+00  0.14999999963E+04  0.15000000000E+04  0.10566000000E+00 0.  1.
        994   -1    0    0    0    0 -0.00000000000E+00 -0.00000000000E+00  0.11368683772E-12  0.17120000000E+03  0.17120000000E+03 0.  0.
         13    1    1    2    0    0  0.86016669400E+01 -0.15020879274E+02  0.13603885101E+02  0.22015729426E+02  0.10566000000E+00 0.  1.
        994    1    1    2    0    0 -0.20504101482E+02  0.25548393535E+01  0.10083276240E+02  0.17273696142E+03  0.17120000000E+03 0.  0.
        998    1    1    2    0    0  0.11902434542E+02  0.12466039920E+02  0.14763128349E+04  0.14764473092E+04  0.10000000000E+02 0.  1.
</event>
<event>
 5    1  0.1087513E-008  0.3855806E+03  0.7957747E-01  0.3427214E+00
         13   -1    0    0    0    0  0.00000000000E+00  0.00000000000E+00  0.14999999963E+04  0.15000000000E+04  0.10566000000E+00 0.  1.
        994   -1    0    0    0    0 -0.00000000000E+00 -0.00000000000E+00  0.11368683772E-12  0.17120000000E+03  0.17120000000E+03 0.  0.
         13    1    1    2    0    0  0.15408919064E+02 -0.29363854491E+01  0.94737193281E+02  0.96027100867E+02  0.10566000000E+00 0.  1.
        994    1    1    2    0    0 -0.71909541596E+01 -0.77598082120E+00  0.15138849257E+01  0.17135939955E+03  0.17120000000E+03 0.  0.
        998    1    1    2    0    0 -0.82179649043E+01  0.37123662703E+01  0.14037489181E+04  0.14038134996E+04  0.10000000000E+02 0.  1.
</event>
<event>
 5    1  0.1087513E-008  0.3849211E+03  0.7957747E-01  0.3430007E+00
         13   -1    0    0    0    0  0.00000000000E+00  0.00000000000E+00  0.14999999963E+04  0.15000000000E+04  0.10566000000E+00 0. -1.
        994   -1    0    0    0    0 -0.00000000000E+00 -0.00000000000E+00  0.11368683772E-12  0.17120000000E+03  0.17120000000E+03 0.  0.
         13    1    1    2    0    0  0.16180162671E+02  0.74181995722E+01  0.91289570743E+02  0.93008732060E+02  0.10566000000E+00 0. -1.
        994    1    1    2    0    0 -0.16623407354E+02 -0.38411602901E+01  0.26274500974E+01  0.17206811349E+03  0.17120000000E+03 0.  0.
        998    1    1    2    0    0  0.44324468308E+00 -0.35770392821E+01  0.14060829754E+04  0.14061231545E+04  0.10000000000E+02 0. -1.
</event>
<event>
 5    1  0.1087513E-008  0.3846021E+03  0.7957747E-01  0.3431361E+00
         13   -1    0    0    0    0  0.00000000000E+00  0.00000000000E+00  0.14999999963E+04  0.15000000000E+04  0.10566000000E+00 0.  1.
        994   -1    0    0    0    0 -0.00000000000E+00 -0.00000000000E+00  0.11368683772E-12  0.17120000000E+03  0.17120000000E+03 0.  0.
         13    1    1    2    0    0  0.71473372360E+01  0.13483320601E+02  0.64991375428E+02  0.66759077346E+02  0.10566000000E+00 0.  1.
        994    1    1    2    0    0  0.10161130086E+02 -0.12705992456E+02  0.26998919533E+01  0.17199250049E+03  0.17120000000E+03 0.  0.
        998    1    1    2    0    0 -0.17308467322E+02 -0.77732814512E+00  0.14323087289E+04  0.14324484222E+04  0.10000000000E+02 0.  1.
</event>
<event>
 5    1  0.1087513E-008  0.3721948E+03  0.7957747E-01  0.3485864E+00
         13   -1    0    0    0    0  0.00000000000E+00  0.00000000000E+00  0.14999999963E+04  0.15000000000E+04  0.10566000000E+00 0.  1.
        994   -1    0    0    0    0 -0.00000000000E+00 -0.00000000000E+00  0.11368683772E-12  0.17120000000E+03  0.17120000000E+03 0.  0.
         13    1    1    2    0    0  0.29144963487E+02 -0.82764312183E+02  0.51308538753E+03  0.52053432772E+03  0.10566000000E+00 0.  1.
        994    1    1    2    0    0 -0.26818135772E+02  0.35758577707E+02  0.15013756002E+02  0.17757460729E+03  0.17120000000E+03 0.  0.
        998    1    1    2    0    0 -0.23268277143E+01  0.47005734476E+02  0.97190085274E+03  0.97309106499E+03  0.10000000000E+02 0. -1.
</event>
<event>
 5    1  0.1087513E-008  0.3846636E+03  0.7957747E-01  0.3431100E+00
         13   -1    0    0    0    0  0.00000000000E+00  0.00000000000E+00  0.14999999963E+04  0.15000000000E+04  0.10566000000E+00 0.  1.
        994   -1    0    0    0    0 -0.00000000000E+00 -0.00000000000E+00  0.11368683772E-12  0.17120000000E+03  0.17120000000E+03 0.  0.
         13    1    1    2    0    0  0.15038916393E+02 -0.14218393587E+00  0.62631122927E+02  0.64411628963E+02  0.10566000000E+00 0.  1.
        994    1    1    2    0    0 -0.10238398054E+02  0.35646450432E+01  0.21842696903E+01  0.17155682010E+03  0.17120000000E+03 0.  0.
        998    1    1    2    0    0 -0.48005183393E+01 -0.34224611073E+01  0.14351846037E+04  0.14352315509E+04  0.10000000000E+02 0.  1.
</event>
<event>
 5    1  0.1087513E-008  0.3833499E+03  0.7957747E-01  0.3436701E+00
         13   -1    0    0    0    0  0.00000000000E+00  0.00000000000E+00  0.14999999963E+04  0.15000000000E+04  0.10566000000E+00 0. -1.
        994   -1    0    0    0    0 -0.00000000000E+00 -0.00000000000E+00  0.11368683772E-12  0.17120000000E+03  0.17120000000E+03 0.  0.
         13    1    1    2    0    0  0.69593168618E+00  0.20070255247E+02  0.78164332178E+02  0.80702995331E+02  0.10566000000E+00 0. -1.
        994    1    1    2    0    0 -0.38103835068E+01 -0.20201705381E+02  0.38502201396E+01  0.17247287357E+03  0.17120000000E+03 0.  0.
        998    1    1    2    0    0  0.31144518206E+01  0.13145013481E+00  0.14179854440E+04  0.14180241311E+04  0.10000000000E+02 0. -1.
</event>
<event>
 5    1  0.1087513E-008  0.3808968E+03  0.7957747E-01  0.3447263E+00
         13   -1    0    0    0    0  0.00000000000E+00  0.00000000000E+00  0.14999999963E+04  0.15000000000E+04  0.10566000000E+00 0.  1.
        994   -1    0    0    0    0 -0.00000000000E+00 -0.00000000000E+00  0.11368683772E-12  0.17120000000E+03  0.17120000000E+03 0.  0.
         13    1    1    2    0    0 -0.96867148435E+00  0.36514609772E+02  0.17480685992E+03  0.17858248652E+03  0.10566000000E+00 0.  1.
        994    1    1    2    0    0 -0.12495660606E+01 -0.25380417030E+02  0.58363509483E+01  0.17317398759E+03  0.17120000000E+03 0.  0.
        998    1    1    2    0    0  0.22182375450E+01 -0.11134192742E+02  0.13193567854E+04  0.13194435259E+04  0.10000000000E+02 0.  0.
</event>
<event>
 5    1  0.1087513E-008  0.3853569E+03  0.7957747E-01  0.3428160E+00
         13   -1    0    0    0    0  0.00000000000E+00  0.00000000000E+00  0.14999999963E+04  0.15000000000E+04  0.10566000000E+00 0. -1.
        994   -1    0    0    0    0 -0.00000000000E+00 -0.00000000000E+00  0.11368683772E-12  0.17120000000E+03  0.17120000000E+03 0.  0.
         13    1    1    2    0    0 -0.14508020201E+02 -0.32187087378E+01  0.76816268453E+02  0.78240609655E+02  0.10566000000E+00 0. -1.
        994    1    1    2    0    0  0.97811580824E+01 -0.34718679062E+01  0.18069666596E+01  0.17152384688E+03  0.17120000000E+03 0.  0.
        998    1    1    2    0    0  0.47268621187E+01  0.66905766440E+01  0.14213767612E+04  0.14214355435E+04  0.10000000000E+02 0. -1.
</event>
<event>
 5    1  0.1087513E-008  0.3701927E+03  0.7957747E-01  0.3495006E+00
         13   -1    0    0    0    0  0.00000000000E+00  0.00000000000E+00  0.14999999963E+04  0.15000000000E+04  0.10566000000E+00 0.  1.
        994   -1    0    0    0    0 -0.00000000000E+00 -0.00000000000E+00  0.11368683772E-12  0.17120000000E+03  0.17120000000E+03 0.  0.
         13    1    1    2    0    0 -0.48289819060E+02  0.26256422683E+02  0.17827494564E+03  0.18655635546E+03  0.10566000000E+00 0.  1.
        994    1    1    2    0    0  0.45100820586E+01 -0.19639065052E+02  0.10572597401E+02  0.17270568471E+03  0.17120000000E+03 0.  0.
        998    1    1    2    0    0  0.43779737002E+02 -0.66173576312E+01  0.13111524532E+04  0.13119379598E+04  0.10000000000E+02 0.  1.
</event>
<event>
 5    1  0.1087513E-008  0.3833673E+03  0.7957747E-01  0.3436626E+00
         13   -1    0    0    0    0  0.00000000000E+00  0.00000000000E+00  0.14999999963E+04  0.15000000000E+04  0.10566000000E+00 0.  1.
        994   -1    0    0    0    0 -0.00000000000E+00 -0.00000000000E+00  0.11368683772E-12  0.17120000000E+03  0.17120000000E+03 0.  0.
         13    1    1    2    0    0  0.21137621734E+02  0.38509648303E-01  0.85292214197E+02  0.87872484329E+02  0.10566000000E+00 0.  1.
        994    1    1    2    0    0 -0.23850828011E+02  0.15258227712E+01  0.43336554212E+01  0.17291446065E+03  0.17120000000E+03 0.  0.
        998    1    1    2    0    0  0.27132062768E+01 -0.15643324195E+01  0.14103741267E+04  0.14104130550E+04  0.10000000000E+02 0.  1.
</event>
<event>
 5    1  0.1087513E-008  0.3840301E+03  0.7957747E-01  0.3433796E+00
         13   -1    0    0    0    0  0.00000000000E+00  0.00000000000E+00  0.14999999963E+04  0.15000000000E+04  0.10566000000E+00 0. -1.
        994   -1    0    0    0    0 -0.00000000000E+00 -0.00000000000E+00  0.11368683772E-12  0.17120000000E+03  0.17120000000E+03 0.  0.
         13    1    1    2    0    0 -0.11482952476E+02  0.15481074529E+02  0.83110727300E+02  0.85316622194E+02  0.10566000000E+00 0. -1.
        994    1    1    2    0    0  0.12025100163E+02 -0.16626328061E+02  0.35026901474E+01  0.17246085543E+03  0.17120000000E+03 0.  0.
        998    1    1    2    0    0 -0.54214768715E+00  0.11452535316E+01  0.14133865788E+04  0.14134225224E+04  0.10000000000E+02 0. -1.
</event>
<event>
 5    1  0.1087513E-008  0.3765297E+03  0.7957747E-01  0.3466410E+00
         13   -1    0    0    0    0  0.00000000000E+00  0.00000000000E+00  0.14999999963E+04  0.15000000000E+04  0.10566000000E+00 0. -1.
        994   -1    0    0    0    0 -0.00000000000E+00 -0.00000000000E+00  0.11368683772E-12  0.17120000000E+03  0.17120000000E+03 0.  0.
         13    1    1    2    0    0 -0.21726376055E+01 -0.26138693110E+02  0.58036975154E+02  0.63688721770E+02  0.10566000000E+00 0. -1.
        994    1    1    2    0    0  0.25560078054E+01  0.70601060675E+01  0.60859699426E+01  0.17147261386E+03  0.17120000000E+03 0.  0.
        998    1    1    2    0    0 -0.38337019990E+00  0.19078587042E+02  0.14358770512E+04  0.14360386644E+04  0.10000000000E+02 0. -1.
</event>
<event>
 5    1  0.1087513E-008  0.3684838E+03  0.7957747E-01  0.3502888E+00
         13   -1    0    0    0    0  0.00000000000E+00  0.00000000000E+00  0.14999999963E+04  0.15000000000E+04  0.10566000000E+00 0. -1.
        994   -1    0    0    0    0 -0.00000000000E+00 -0.00000000000E+00  0.11368683772E-12  0.17120000000E+03  0.17120000000E+03 0.  0.
         13    1    1    2    0    0  0.49994963455E+02  0.64278928105E+01  0.11863953754E+03  0.12890370517E+03  0.10566000000E+00 0. -1.
        994    1    1    2    0    0 -0.39543092325E+02 -0.61965559850E+01  0.15652839927E+02  0.17651205300E+03  0.17120000000E+03 0.  0.
        998    1    1    2    0    0 -0.10451871130E+02 -0.23133682547E+00  0.13657076188E+04  0.13657842418E+04  0.10000000000E+02 0. -1.
</event>
<event>
 5    1  0.1087513E-008  0.3830652E+03  0.7957747E-01  0.3437920E+00
         13   -1    0    0    0    0  0.00000000000E+00  0.00000000000E+00  0.14999999963E+04  0.15000000000E+04  0.10566000000E+00 0.  1.
        994   -1    0    0    0    0 -0.00000000000E+00 -0.00000000000E+00  0.11368683772E-12  0.17120000000E+03  0.17120000000E+03 0.  0.
         13    1    1    2    0    0  0.14962343938E+02 -0.85249250296E+01  0.55973762498E+02  0.58562951898E+02  0.10566000000E+00 0.  1.
        994    1    1    2    0    0 -0.94671135038E+01  0.94182783769E+01  0.31841970274E+01  0.17174955405E+03  0.17120000000E+03 0.  0.
        998    1    1    2    0    0 -0.54952304341E+01 -0.89335334736E+00  0.14408420368E+04  0.14408874941E+04  0.10000000000E+02 0.  1.
</event>
<event>
 5    1  0.1087513E-008  0.3823825E+03  0.7957747E-01  0.3440850E+00
         13   -1    0    0    0    0  0.00000000000E+00  0.00000000000E+00  0.14999999963E+04  0.15000000000E+04  0.10566000000E+00 0. -1.
        994   -1    0    0    0    0 -0.00000000000E+00 -0.00000000000E+00  0.11368683772E-12  0.17120000000E+03  0.17120000000E+03 0.  0.
         13    1    1    2    0    0 -0.37048292303E+02  0.56828676503E+02  0.12327811171E+03  0.14071097479E+03  0.10566000000E+00 0. -1.
        994    1    1    2    0    0  0.14096014722E+02 -0.48350885217E+02  0.26972908349E+02  0.18048125531E+03  0.17120000000E+03 0.  0.
        998    1    1    2    0    0  0.22952277582E+02 -0.84777912858E+01  0.13497489762E+04  0.13500077699E+04  0.10000000000E+02 0. -1.
</event>
<event>
 5    1  0.1087513E-008  0.3729695E+03  0.7957747E-01  0.3482354E+00
         13   -1    0    0    0    0  0.00000000000E+00  0.00000000000E+00  0.14999999963E+04  0.15000000000E+04  0.10566000000E+00 0. -1.
        994   -1    0    0    0    0 -0.00000000000E+00 -0.00000000000E+00  0.11368683772E-12  0.17120000000E+03  0.17120000000E+03 0.  0.
         13    1    1    2    0    0  0.75641317130E+02 -0.14220492090E+03  0.64446605646E+03  0.66428936276E+03  0.10566000000E+00 0. -1.
        994    1    1    2    0    0 -0.15845554321E+03  0.13752982590E+03  0.17758694101E+03  0.32383510280E+03  0.17120000000E+03 0.  0.
        998    1    1    2    0    0  0.82814226084E+02  0.46750949998E+01  0.67794699881E+03  0.68307553444E+03  0.10000000000E+02 0. -1.
</event>
<event>
 5    1  0.1087513E-008  0.3858597E+03  0.7957747E-01  0.3426034E+00
         13   -1    0    0    0    0  0.00000000000E+00  0.00000000000E+00  0.14999999963E+04  0.15000000000E+04  0.10566000000E+00 0. -1.
        994   -1    0    0    0    0 -0.00000000000E+00 -0.00000000000E+00  0.11368683772E-12  0.17120000000E+03  0.17120000000E+03 0.  0.
         13    1    1    2    0    0  0.10977654206E+02 -0.25036762489E+01  0.52890330019E+02  0.54075645722E+02  0.10566000000E+00 0. -1.
        994    1    1    2    0    0 -0.72684215229E+01  0.56087706025E+01  0.14803751206E+01  0.17145238339E+03  0.17120000000E+03 0.  0.
        998    1    1    2    0    0 -0.37092326836E+01 -0.31050943535E+01  0.14456292911E+04  0.14456719709E+04  0.10000000000E+02 0. -1.
</event>
<event>
 5    1  0.1087513E-008  0.3779341E+03  0.7957747E-01  0.3460203E+00
         13   -1    0    0    0    0  0.00000000000E+00  0.00000000000E+00  0.14999999963E+04  0.15000000000E+04  0.10566000000E+00 0. -1.
        994   -1    0    0    0    0 -0.00000000000E+00 -0.00000000000E+00  0.11368683772E-12  0.17120000000E+03  0.17120000000E+03 0.  0.
         13    1    1    2    0    0 -0.48738302382E+02 -0.56016499130E+02  0.31834841693E+03  0.32689294275E+03  0.10566000000E+00 0. -1.
        994    1    1    2    0    0  0.22790568718E+02  0.12944102646E+03  0.65719924354E+02  0.22561679417E+03  0.17120000000E+03 0.  0.
        998    1    1    2    0    0  0.25947733665E+02 -0.73424527329E+02  0.11159316550E+04  0.11186902631E+04  0.10000000000E+02 0. -1.
</event>
<event>
 5    1  0.1087513E-008  0.3810836E+03  0.7957747E-01  0.3446454E+00
         13   -1    0    0    0    0  0.00000000000E+00  0.00000000000E+00  0.14999999963E+04  0.15000000000E+04  0.10566000000E+00 0. -1.
        994   -1    0    0    0    0 -0.00000000000E+00 -0.00000000000E+00  0.11368683772E-12  0.17120000000E+03  0.17120000000E+03 0.  0.
         13    1    1    2    0    0  0.30191779814E+02 -0.79745659628E+01  0.15105658010E+03  0.15425057156E+03  0.10566000000E+00 0. -1.
        994    1    1    2    0    0 -0.39455058219E+01 -0.71711423508E+01  0.38103242977E+01  0.17143789217E+03  0.17120000000E+03 0.  0.
        998    1    1    2    0    0 -0.26246273992E+02  0.15145708314E+02  0.13451330919E+04  0.13455115363E+04  0.10000000000E+02 0. -1.
</event>
<event>
 5    1  0.1087513E-008  0.3810836E+03  0.7957747E-01  0.3446454E+00
         13   -1    0    0    0    0  0.00000000000E+00  0.00000000000E+00  0.14999999963E+04  0.15000000000E+04  0.10566000000E+00 0. -1.
        994   -1    0    0    0    0 -0.00000000000E+00 -0.00000000000E+00  0.11368683772E-12  0.17120000000E+03  0.17120000000E+03 0.  0.
         13    1    1    2    0    0 -0.33083614617E+01 -0.15392393556E+02  0.32262931271E+02  0.35899567312E+02  0.10566000000E+00 0. -1.
        994    1    1    2    0    0  0.14863071144E+01  0.19264092769E+02  0.48316422990E+01  0.17235457391E+03  0.17120000000E+03 0.  0.
        998    1    1    2    0    0  0.18220543473E+01 -0.38716992128E+01  0.14629054227E+04  0.14629458588E+04  0.10000000000E+02 0. -1.
</event>
<event>
 5    1  0.1087513E-008  0.3829877E+03  0.7957747E-01  0.3438251E+00
         13   -1    0    0    0    0  0.00000000000E+00  0.00000000000E+00  0.14999999963E+04  0.15000000000E+04  0.10566000000E+00 0. -1.
        994   -1    0    0    0    0 -0.00000000000E+00 -0.00000000000E+00  0.11368683772E-12  0.17120000000E+03  0.17120000000E+03 0.  0.
         13    1    1    2    0    0 -0.98154229777E+01  0.34630175253E+01  0.19471059061E+02  0.22078684825E+02  0.10566000000E+00 0. -1.
        994    1    1    2    0    0  0.11411857996E+02  0.42922928034E+01  0.31247280818E+01  0.17166204649E+03  0.17120000000E+03 0.  0.
        998    1    1    2    0    0 -0.15964350187E+01 -0.77553103287E+01  0.14774042091E+04  0.14774592687E+04  0.10000000000E+02 0. -1.
</event>
<event>
 5    1  0.1087513E-008  0.3799197E+03  0.7957747E-01  0.3451508E+00
         13   -1    0    0    0    0  0.00000000000E+00  0.00000000000E+00  0.14999999963E+04  0.15000000000E+04  0.10566000000E+00 0. -1.
        994   -1    0    0    0    0 -0.00000000000E+00 -0.00000000000E+00  0.11368683772E-12  0.17120000000E+03  0.17120000000E+03 0.  0.
         13    1    1    2    0    0  0.58380276058E+02 -0.13508291574E+02  0.30597627241E+03  0.31178874421E+03  0.10566000000E+00 0. -1.
        994    1    1    2    0    0 -0.76100041502E+02 -0.54240107329E+01  0.23888916772E+02  0.18894643832E+03  0.17120000000E+03 0.  0.
        998    1    1    2    0    0  0.17719765444E+02  0.18932302307E+02  0.11701348071E+04  0.11704648175E+04  0.10000000000E+02 0. -1.
</event>
<event>
 5    1  0.1087513E-008  0.3747717E+03  0.7957747E-01  0.3474244E+00
         13   -1    0    0    0    0  0.00000000000E+00  0.00000000000E+00  0.14999999963E+04  0.15000000000E+04  0.10566000000E+00 0.  1.
        994   -1    0    0    0    0 -0.00000000000E+00 -0.00000000000E+00  0.11368683772E-12  0.17120000000E+03  0.17120000000E+03 0.  0.
         13    1    1    2    0    0 -0.41574406464E+02 -0.40915602993E+02  0.27939285067E+03  0.28541705277E+03  0.10566000000E+00 0.  1.
        994    1    1    2    0    0  0.27701051000E+02 -0.27486582234E+01  0.94365733895E+01  0.17370489995E+03  0.17120000000E+03 0.  0.
        998    1    1    2    0    0  0.13873355464E+02  0.43664261216E+02  0.12111705722E+04  0.12120780473E+04  0.10000000000E+02 0.  1.
</event>
<event>
 5    1  0.1087513E-008  0.3767202E+03  0.7957747E-01  0.3465565E+00
         13   -1    0    0    0    0  0.00000000000E+00  0.00000000000E+00  0.14999999963E+04  0.15000000000E+04  0.10566000000E+00 0. -1.
        994   -1    0    0    0    0 -0.00000000000E+00 -0.00000000000E+00  0.11368683772E-12  0.17120000000E+03  0.17120000000E+03 0.  0.
         13    1    1    2    0    0  0.60280912441E+01 -0.26513564846E+02  0.62132886282E+02  0.67821926592E+02  0.10566000000E+00 0. -1.
        994    1    1    2    0    0 -0.95383394671E+01  0.13115407449E+02  0.66873401030E+01  0.17209635194E+03  0.17120000000E+03 0.  0.
        998    1    1    2    0    0  0.35102482230E+01  0.13398157397E+02  0.14311797699E+04  0.14312817215E+04  0.10000000000E+02 0. -1.
</event>
<event>
 5    1  0.1087513E-008  0.3845699E+03  0.7957747E-01  0.3431498E+00
         13   -1    0    0    0    0  0.00000000000E+00  0.00000000000E+00  0.14999999963E+04  0.15000000000E+04  0.10566000000E+00 0. -1.
        994   -1    0    0    0    0 -0.00000000000E+00 -0.00000000000E+00  0.11368683772E-12  0.17120000000E+03  0.17120000000E+03 0.  0.
         13    1    1    2    0    0 -0.12061511971E+02  0.57629356526E-03  0.40020790826E+02  0.41798982449E+02  0.10566000000E+00 0. -1.
        994    1    1    2    0    0  0.34755660022E+01 -0.61842823109E+01  0.20095728175E+01  0.17135869774E+03  0.17120000000E+03 0.  0.
        998    1    1    2    0    0  0.85859459683E+01  0.61837060173E+01  0.14579696326E+04  0.14580423198E+04  0.10000000000E+02 0. -1.
</event>
<event>
 5    1  0.1087513E-008  0.3723298E+03  0.7957747E-01  0.3485252E+00
         13   -1    0    0    0    0  0.00000000000E+00  0.00000000000E+00  0.14999999963E+04  0.15000000000E+04  0.10566000000E+00 0. -1.
        994   -1    0    0    0    0 -0.00000000000E+00 -0.00000000000E+00  0.11368683772E-12  0.17120000000E+03  0.17120000000E+03 0.  0.
         13    1    1    2    0    0 -0.90614719250E+00  0.30581034213E+02  0.56113688904E+02  0.63912268014E+02  0.10566000000E+00 0. -1.
        994    1    1    2    0    0  0.11948450589E+02 -0.13329801819E+02  0.91563234146E+01  0.17237670187E+03  0.17120000000E+03 0.  0.
        998    1    1    2    0    0 -0.11042303397E+02 -0.17251232394E+02  0.14347299840E+04  0.14349110301E+04  0.10000000000E+02 0. -1.
</event>
<event>
 5    1  0.1087513E-008  0.3835071E+03  0.7957747E-01  0.3436028E+00
         13   -1    0    0    0    0  0.00000000000E+00  0.00000000000E+00  0.14999999963E+04  0.15000000000E+04  0.10566000000E+00 0. -1.
        994   -1    0    0    0    0 -0.00000000000E+00 -0.00000000000E+00  0.11368683772E-12  0.17120000000E+03  0.17120000000E+03 0.  0.
         13    1    1    2    0    0  0.11041892925E+02 -0.39876709835E+01  0.28610209761E+02  0.30925397101E+02  0.10566000000E+00 0. -1.
        994    1    1    2    0    0 -0.37276313237E+01  0.42284693189E+01  0.24781529036E+01  0.17131070145E+03  0.17120000000E+03 0.  0.
        998    1    1    2    0    0 -0.73142616010E+01 -0.24079833543E+00  0.14689116336E+04  0.14689639015E+04  0.10000000000E+02 0. -1.
</event>
<event>
 5    1  0.1087513E-008  0.3860666E+03  0.7957747E-01  0.3425161E+00
         13   -1    0    0    0    0  0.00000000000E+00  0.00000000000E+00  0.14999999963E+04  0.15000000000E+04  0.10566000000E+00 0. -1.
        994   -1    0    0    0    0 -0.00000000000E+00 -0.00000000000E+00  0.11368683772E-12  0.17120000000E+03  0.17120000000E+03 0.  0.
         13    1    1    2    0    0 -0.85820659031E+01 -0.51626583453E+01  0.49319930027E+02  0.50326648590E+02  0.10566000000E+00 0. -1.
        994    1    1    2    0    0  0.58330788921E+01 -0.15225090345E+02  0.19732191985E+01  0.17198593483E+03  0.17120000000E+03 0.  0.
        998    1    1    2    0    0  0.27489870109E+01  0.20387748690E+02  0.14487068471E+04  0.14488874166E+04  0.10000000000E+02 0. -1.
</event>
<event>
 5    1  0.1087513E-008  0.3685376E+03  0.7957747E-01  0.3502639E+00
         13   -1    0    0    0    0  0.00000000000E+00  0.00000000000E+00  0.14999999963E+04  0.15000000000E+04  0.10566000000E+00 0. -1.
        994   -1    0    0    0    0 -0.00000000000E+00 -0.00000000000E+00  0.11368683772E-12  0.17120000000E+03  0.17120000000E+03 0.  0.
         13    1    1    2    0    0  0.35324400425E+02  0.84253476028E+01  0.62227904179E+02  0.72049448090E+02  0.10566000000E+00 0. -1.
        994    1    1    2    0    0 -0.21360258629E+02  0.13527872176E+02  0.12394259240E+02  0.17350020644E+03  0.17120000000E+03 0.  0.
        998    1    1    2    0    0 -0.13964141796E+02 -0.21953219779E+02  0.14253778329E+04  0.14256503455E+04  0.10000000000E+02 0. -1.
</event>
<event>
 5    1  0.1087513E-008  0.3834700E+03  0.7957747E-01  0.3436187E+00
         13   -1    0    0    0    0  0.00000000000E+00  0.00000000000E+00  0.14999999963E+04  0.15000000000E+04  0.10566000000E+00 0.  1.
        994   -1    0    0    0    0 -0.00000000000E+00 -0.00000000000E+00  0.11368683772E-12  0.17120000000E+03  0.17120000000E+03 0.  0.
         13    1    1    2    0    0 -0.11187092834E+02 -0.90356960790E+01  0.43280405733E+02  0.45607011897E+02  0.10566000000E+00 0.  1.
        994    1    1    2    0    0  0.72565897108E+01  0.25661362276E+00  0.25659227107E+01  0.17137312480E+03  0.17120000000E+03 0.  0.
        998    1    1    2    0    0  0.39305031237E+01  0.87790824563E+01  0.14541536678E+04  0.14542198633E+04  0.10000000000E+02 0.  1.
</event>
<event>
 5    1  0.1087513E-008  0.3840816E+03  0.7957747E-01  0.3433577E+00
         13   -1    0    0    0    0  0.00000000000E+00  0.00000000000E+00  0.14999999963E+04  0.15000000000E+04  0.10566000000E+00 0.  1.
        994   -1    0    0    0    0 -0.00000000000E+00 -0.00000000000E+00  0.11368683772E-12  0.17120000000E+03  0.17120000000E+03 0.  0.
         13    1    1    2    0    0  0.16798812898E+02 -0.14367486096E+02  0.10943393972E+03  0.11164418077E+03  0.10566000000E+00 0.  1.
        994    1    1    2    0    0 -0.15213368624E+02  0.16955094908E+02  0.38003118818E+01  0.17275069956E+03  0.17120000000E+03 0.  0.
        998    1    1    2    0    0 -0.15854442736E+01 -0.25876088130E+01  0.13867657447E+04  0.13868051197E+04  0.10000000000E+02 0.  1.
</event>
<event>
 5    1  0.1087513E-008  0.3805121E+03  0.7957747E-01  0.3448932E+00
         13   -1    0    0    0    0  0.00000000000E+00  0.00000000000E+00  0.14999999963E+04  0.15000000000E+04  0.10566000000E+00 0.  1.
        994   -1    0    0    0    0 -0.00000000000E+00 -0.00000000000E+00  0.11368683772E-12  0.17120000000E+03  0.17120000000E+03 0.  0.
         13    1    1    2    0    0 -0.73367727501E+01 -0.39714053677E+02  0.18094518290E+03  0.18539742358E+03  0.10566000000E+00 0.  1.
        994    1    1    2    0    0  0.15698872898E+02  0.41920544884E+02  0.10591132383E+02  0.17727210378E+03  0.17120000000E+03 0.  0.
        998    1    1    2    0    0 -0.83621001483E+01 -0.22064912065E+01  0.13084636810E+04  0.13085304726E+04  0.10000000000E+02 0.  1.
</event>
<event>
 5    1  0.1087513E-008  0.3858269E+03  0.7957747E-01  0.3426173E+00
         13   -1    0    0    0    0  0.00000000000E+00  0.00000000000E+00  0.14999999963E+04  0.15000000000E+04  0.10566000000E+00 0.  1.
        994   -1    0    0    0    0 -0.00000000000E+00 -0.00000000000E+00  0.11368683772E-12  0.17120000000E+03  0.17120000000E+03 0.  0.
         13    1    1    2    0    0 -0.13231790339E+01  0.10274468322E+02  0.46002777862E+02  0.47154875009E+02  0.10566000000E+00 0.  1.
        994    1    1    2    0    0 -0.97041940862E+01 -0.24447942484E+01  0.15487127400E+01  0.17149923298E+03  0.17120000000E+03 0.  0.
        998    1    1    2    0    0  0.11027373120E+02 -0.78296740737E+01  0.14524485057E+04  0.14525458920E+04  0.10000000000E+02 0.  1.
</event>
<event>
 5    1  0.1087513E-008  0.3843175E+03  0.7957747E-01  0.3432572E+00
         13   -1    0    0    0    0  0.00000000000E+00  0.00000000000E+00  0.14999999963E+04  0.15000000000E+04  0.10566000000E+00 0.  1.
        994   -1    0    0    0    0 -0.00000000000E+00 -0.00000000000E+00  0.11368683772E-12  0.17120000000E+03  0.17120000000E+03 0.  0.
         13    1    1    2    0    0 -0.13722103401E+02 -0.92813097603E+01  0.67965504713E+02  0.69955413139E+02  0.10566000000E+00 0.  1.
        994    1    1    2    0    0  0.14102978844E+02  0.46394665105E+01  0.26961633938E+01  0.17186369005E+03  0.17120000000E+03 0.  0.
        998    1    1    2    0    0 -0.38087544271E+00  0.46418432498E+01  0.14293383282E+04  0.14293808968E+04  0.10000000000E+02 0.  1.
</event>
<event>
 5    1  0.1087513E-008  0.3852465E+03  0.7957747E-01  0.3428628E+00
         13   -1    0    0    0    0  0.00000000000E+00  0.00000000000E+00  0.14999999963E+04  0.15000000000E+04  0.10566000000E+00 0. -1.
        994   -1    0    0    0    0 -0.00000000000E+00 -0.00000000000E+00  0.11368683772E-12  0.17120000000E+03  0.17120000000E+03 0.  0.
         13    1    1    2    0    0 -0.26828299445E+01  0.10098203316E+02  0.36223943679E+02  0.37700882568E+02  0.10566000000E+00 0. -1.
        994    1    1    2    0    0  0.14023149171E+01 -0.65080795914E+01  0.16534733740E+01  0.17133737351E+03  0.17120000000E+03 0.  0.
        998    1    1    2    0    0  0.12805150273E+01 -0.35901237247E+01  0.14621225792E+04  0.14621617439E+04  0.10000000000E+02 0. -1.
</event>
<event>
 5    1  0.1087513E-008  0.3713977E+03  0.7957747E-01  0.3489492E+00
         13   -1    0    0    0    0  0.00000000000E+00  0.00000000000E+00  0.14999999963E+04  0.15000000000E+04  0.10566000000E+00 0. -1.
        994   -1    0    0    0    0 -0.00000000000E+00 -0.00000000000E+00  0.11368683772E-12  0.17120000000E+03  0.17120000000E+03 0.  0.
         13    1    1    2    0    0  0.30879256986E+02 -0.28907776559E+02  0.70291199258E+02  0.82036893619E+02  0.10566000000E+00 0. -1.
        994    1    1    2    0    0 -0.32720212849E+02  0.19874124163E+02  0.16846317435E+02  0.17623515980E+03  0.17120000000E+03 0.  0.
        998    1    1    2    0    0  0.18409558629E+01  0.90336523957E+01  0.14128624796E+04  0.14129279466E+04  0.10000000000E+02 0. -1.
</event>
<event>
 5    1  0.1087513E-008  0.3830698E+03  0.7957747E-01  0.3437900E+00
         13   -1    0    0    0    0  0.00000000000E+00  0.00000000000E+00  0.14999999963E+04  0.15000000000E+04  0.10566000000E+00 0.  1.
        994   -1    0    0    0    0 -0.00000000000E+00 -0.00000000000E+00  0.11368683772E-12  0.17120000000E+03  0.17120000000E+03 0.  0.
         13    1    1    2    0    0  0.37400493439E+02  0.16473864085E+02  0.22771585668E+03  0.23135407421E+03  0.10566000000E+00 0.  1.
        994    1    1    2    0    0 -0.50531010870E+02 -0.37143956742E+02  0.15718103206E+02  0.18300151734E+03  0.17120000000E+03 0.  0.
        998    1    1    2    0    0  0.13130517431E+02  0.20670092657E+02  0.12565660364E+04  0.12568444084E+04  0.10000000000E+02 0.  1.
</event>
<event>
 5    1  0.1087513E-008  0.3733031E+03  0.7957747E-01  0.3480847E+00
         13   -1    0    0    0    0  0.00000000000E+00  0.00000000000E+00  0.14999999963E+04  0.15000000000E+04  0.10566000000E+00 0. -1.
        994   -1    0    0    0    0 -0.00000000000E+00 -0.00000000000E+00  0.11368683772E-12  0.17120000000E+03  0.17120000000E+03 0.  0.
         13    1    1    2    0    0  0.37283600323E+02  0.12510372476E+02  0.97533884477E+02  0.10516390092E+03  0.10566000000E+00 0. -1.
        994    1    1    2    0    0 -0.28415454243E+02 -0.90718230993E+01  0.10600551359E+02  0.17410211861E+03  0.17120000000E+03 0.  0.
        998    1    1    2    0    0 -0.88681460799E+01 -0.34385493768E+01  0.13918655604E+04  0.13919339805E+04  0.10000000000E+02 0. -1.
</event>
<event>
 5    1  0.1087513E-008  0.3850479E+03  0.7957747E-01  0.3429469E+00
         13   -1    0    0    0    0  0.00000000000E+00  0.00000000000E+00  0.14999999963E+04  0.15000000000E+04  0.10566000000E+00 0. -1.
        994   -1    0    0    0    0 -0.00000000000E+00 -0.00000000000E+00  0.11368683772E-12  0.17120000000E+03  0.17120000000E+03 0.  0.
         13    1    1    2    0    0 -0.93589008874E+01  0.10811833265E+02  0.64052054898E+02  0.65628969709E+02  0.10566000000E+00 0. -1.
        994    1    1    2    0    0  0.52239314094E+01 -0.67653124399E+01  0.18466322776E+01  0.17142318677E+03  0.17120000000E+03 0.  0.
        998    1    1    2    0    0  0.41349694780E+01 -0.40465208256E+01  0.14341013091E+04  0.14341478435E+04  0.10000000000E+02 0. -1.
</event>
<event>
 5    1  0.1087513E-008  0.3750287E+03  0.7957747E-01  0.3473094E+00
         13   -1    0    0    0    0  0.00000000000E+00  0.00000000000E+00  0.14999999963E+04  0.15000000000E+04  0.10566000000E+00 0. -1.
        994   -1    0    0    0    0 -0.00000000000E+00 -0.00000000000E+00  0.11368683772E-12  0.17120000000E+03  0.17120000000E+03 0.  0.
         13    1    1    2    0    0 -0.24684125930E+01  0.30359223109E+02  0.63897824872E+02  0.70786430027E+02  0.10566000000E+00 0. -1.
        994    1    1    2    0    0 -0.26094577564E+01 -0.33863147878E+02  0.10594711132E+02  0.17485768487E+03  0.17120000000E+03 0.  0.
        998    1    1    2    0    0  0.50778703494E+01  0.35039247690E+01  0.14255074603E+04  0.14255558851E+04  0.10000000000E+02 0. -1.
</event>
<event>
 5    1  0.1087513E-008  0.3829037E+03  0.7957747E-01  0.3438612E+00
         13   -1    0    0    0    0  0.00000000000E+00  0.00000000000E+00  0.14999999963E+04  0.15000000000E+04  0.10566000000E+00 0. -1.
        994   -1    0    0    0    0 -0.00000000000E+00 -0.00000000000E+00  0.11368683772E-12  0.17120000000E+03  0.17120000000E+03 0.  0.
         13    1    1    2    0    0 -0.91105390754E+00 -0.23616131500E+02  0.95715157916E+02  0.98589828610E+02  0.10566000000E+00 0. -1.
        994    1    1    2    0    0  0.37170890812E+01  0.27710605492E+02  0.52671210152E+01  0.17354790973E+03  0.17120000000E+03 0.  0.
        998    1    1    2    0    0 -0.28060351736E+01 -0.40944739912E+01  0.13990177173E+04  0.13990622617E+04  0.10000000000E+02 0. -1.
</event>
<event>
 5    1  0.1087513E-008  0.3821901E+03  0.7957747E-01  0.3441677E+00
         13   -1    0    0    0    0  0.00000000000E+00  0.00000000000E+00  0.14999999963E+04  0.15000000000E+04  0.10566000000E+00 0. -1.
        994   -1    0    0    0    0 -0.00000000000E+00 -0.00000000000E+00  0.11368683772E-12  0.17120000000E+03  0.17120000000E+03 0.  0.
         13    1    1    2    0    0  0.19777601906E+02  0.14591620630E+02  0.10614921379E+03  0.10895749484E+03  0.10566000000E+00 0. -1.
        994    1    1    2    0    0  0.66652918830E+01 -0.14935032419E+02  0.39198837445E+01  0.17202408784E+03  0.17120000000E+03 0.  0.
        998    1    1    2    0    0 -0.26442893789E+02  0.34341178834E+00  0.13899308987E+04  0.13902184173E+04  0.10000000000E+02 0. -1.
</event>
<event>
 5    1  0.1087513E-008  0.3810782E+03  0.7957747E-01  0.3446477E+00
         13   -1    0    0    0    0  0.00000000000E+00  0.00000000000E+00  0.14999999963E+04  0.15000000000E+04  0.10566000000E+00 0.  1.
        994   -1    0    0    0    0 -0.00000000000E+00 -0.00000000000E+00  0.11368683772E-12  0.17120000000E+03  0.17120000000E+03 0.  0.
         13    1    1    2    0    0  0.15524055536E+02 -0.11131355544E+02  0.47542934836E+02  0.51237146617E+02  0.10566000000E+00 0.  1.
        994    1    1    2    0    0 -0.18437812456E+02  0.13891778280E+02  0.53671370167E+01  0.17283281110E+03  0.17120000000E+03 0.  0.
        998    1    1    2    0    0  0.29137569200E+01 -0.27604227362E+01  0.14470899244E+04  0.14471300423E+04  0.10000000000E+02 0.  1.
</event>
<event>
 5    1  0.1087513E-008  0.3848471E+03  0.7957747E-01  0.3430321E+00
         13   -1    0    0    0    0  0.00000000000E+00  0.00000000000E+00  0.14999999963E+04  0.15000000000E+04  0.10566000000E+00 0. -1.
        994   -1    0    0    0    0 -0.00000000000E+00 -0.00000000000E+00  0.11368683772E-12  0.17120000000E+03  0.17120000000E+03 0.  0.
         13    1    1    2    0    0  0.87118343897E+00 -0.19461916519E+02  0.10392832981E+03  0.10573851737E+03  0.10566000000E+00 0. -1.
        994    1    1    2    0    0 -0.26506354426E+00  0.21052113064E+02  0.31658849184E+01  0.17251876579E+03  0.17120000000E+03 0.  0.
        998    1    1    2    0    0 -0.60611989470E+00 -0.15901965454E+01  0.13929057816E+04  0.13929427168E+04  0.10000000000E+02 0.  0.
</event>
<event>
 5    1  0.1087513E-008  0.3817035E+03  0.7957747E-01  0.3443775E+00
         13   -1    0    0    0    0  0.00000000000E+00  0.00000000000E+00  0.14999999963E+04  0.15000000000E+04  0.10566000000E+00 0.  1.
        994   -1    0    0    0    0 -0.00000000000E+00 -0.00000000000E+00  0.11368683772E-12  0.17120000000E+03  0.17120000000E+03 0.  0.
         13    1    1    2    0    0  0.86045936416E+01 -0.10662510687E+02  0.26553463462E+02  0.29880189955E+02  0.10566000000E+00 0.  1.
        994    1    1    2    0    0 -0.30085745860E+02  0.49180332686E+00  0.62912543013E+01  0.17393795979E+03  0.17120000000E+03 0.  0.
        998    1    1    2    0    0  0.21481152218E+02  0.10170707360E+02  0.14671552785E+04  0.14673818503E+04  0.10000000000E+02 0.  1.
</event>
<event>
 5    1  0.1087513E-008  0.3830979E+03  0.7957747E-01  0.3437780E+00
         13   -1    0    0    0    0  0.00000000000E+00  0.00000000000E+00  0.14999999963E+04  0.15000000000E+04  0.10566000000E+00 0. -1.
        994   -1    0    0    0    0 -0.00000000000E+00 -0.00000000000E+00  0.11368683772E-12  0.17120000000E+03  0.17120000000E+03 0.  0.
         13    1    1    2    0    0  0.22489500410E+02 -0.14816335388E+02  0.14800080154E+03  0.15043121300E+03  0.10566000000E+00 0. -1.
        994    1    1    2    0    0 -0.17756726929E+02 -0.95482588076E+01  0.39236394910E+01  0.17242768207E+03  0.17120000000E+03 0.  0.
        998    1    1    2    0    0 -0.47327734809E+01  0.24364594196E+02  0.13480755552E+04  0.13483411049E+04  0.10000000000E+02 0. -1.
</event>
<event>
 5    1  0.1087513E-008  0.3819802E+03  0.7957747E-01  0.3442581E+00
         13   -1    0    0    0    0  0.00000000000E+00  0.00000000000E+00  0.14999999963E+04  0.15000000000E+04  0.10566000000E+00 0.  1.
        994   -1    0    0    0    0 -0.00000000000E+00 -0.00000000000E+00  0.11368683772E-12  0.17120000000E+03  0.17120000000E+03 0.  0.
         13    1    1    2    0    0 -0.16694644859E+01 -0.32316933001E+02  0.15388459892E+03  0.15725028527E+03  0.10566000000E+00 0.  1.
        994    1    1    2    0    0  0.17365822730E+02  0.29057618702E+02  0.69520167706E+01  0.17465304905E+03  0.17120000000E+03 0.  0.
        998    1    1    2    0    0 -0.15696358245E+02  0.32593142985E+01  0.13391633806E+04  0.13392966657E+04  0.10000000000E+02 0.  1.
</event>
<event>
 5    1  0.1087513E-008  0.3842464E+03  0.7957747E-01  0.3432875E+00
         13   -1    0    0    0    0  0.00000000000E+00  0.00000000000E+00  0.14999999963E+04  0.15000000000E+04  0.10566000000E+00 0. -1.
        994   -1    0    0    0    0 -0.00000000000E+00 -0.00000000000E+00  0.11368683772E-12  0.17120000000E+03  0.17120000000E+03 0.  0.
         13    1    1    2    0    0 -0.99546389195E+01  0.21677873794E+01  0.25191587820E+02  0.27173910265E+02  0.10566000000E+00 0. -1.
        994    1    1    2    0    0  0.91258549849E+01  0.20735569539E+01  0.22935492640E+01  0.17147093408E+03  0.17120000000E+03 0.  0.
        998    1    1    2    0    0  0.82878393466E+00 -0.42413443333E+01  0.14725148592E+04  0.14725551557E+04  0.10000000000E+02 0. -1.
</event>
<event>
 5    1  0.1087513E-008  0.3817316E+03  0.7957747E-01  0.3443653E+00
         13   -1    0    0    0    0  0.00000000000E+00  0.00000000000E+00  0.14999999963E+04  0.15000000000E+04  0.10566000000E+00 0. -1.
        994   -1    0    0    0    0 -0.00000000000E+00 -0.00000000000E+00  0.11368683772E-12  0.17120000000E+03  0.17120000000E+03 0.  0.
         13    1    1    2    0    0  0.31085233895E+02 -0.44978198069E+02  0.31934307316E+03  0.32398972145E+03  0.10566000000E+00 0. -1.
        994    1    1    2    0    0 -0.39258921726E+02  0.53675037195E+02  0.18102873894E+02  0.18455196178E+03  0.17120000000E+03 0.  0.
        998    1    1    2    0    0  0.81736878314E+01 -0.86968391257E+01  0.11625540492E+04  0.11626583168E+04  0.10000000000E+02 0. -1.
</event>
<event>
 5    1  0.1087513E-008  0.3839555E+03  0.7957747E-01  0.3434114E+00
         13   -1    0    0    0    0  0.00000000000E+00  0.00000000000E+00  0.14999999963E+04  0.15000000000E+04  0.10566000000E+00 0. -1.
        994   -1    0    0    0    0 -0.00000000000E+00 -0.00000000000E+00  0.11368683772E-12  0.17120000000E+03  0.17120000000E+03 0.  0.
         13    1    1    2    0    0  0.82826391611E+01 -0.16558325672E+02  0.74309601532E+02  0.76581383537E+02  0.10566000000E+00 0. -1.
        994    1    1    2    0    0 -0.10617001975E+02  0.20304418865E+02  0.38839172493E+01  0.17277012175E+03  0.17120000000E+03 0.  0.
        998    1    1    2    0    0  0.23343628141E+01 -0.37460931927E+01  0.14218064775E+04  0.14218484947E+04  0.10000000000E+02 0. -1.
</event>
<event>
 5    1  0.1087513E-008  0.3816637E+03  0.7957747E-01  0.3443946E+00
         13   -1    0    0    0    0  0.00000000000E+00  0.00000000000E+00  0.14999999963E+04  0.15000000000E+04  0.10566000000E+00 0.  1.
        994   -1    0    0    0    0 -0.00000000000E+00 -0.00000000000E+00  0.11368683772E-12  0.17120000000E+03  0.17120000000E+03 0.  0.
         13    1    1    2    0    0 -0.28451719642E+02  0.45907267192E+01  0.12495597970E+03  0.12823643456E+03  0.10566000000E+00 0.  1.
        994    1    1    2    0    0  0.17828686002E+02  0.19111415360E+01  0.43652960414E+01  0.17219178353E+03  0.17120000000E+03 0.  0.
        998    1    1    2    0    0  0.10623033640E+02 -0.65018682553E+01  0.13706787205E+04  0.13707717819E+04  0.10000000000E+02 0.  1.
</event>
<event>
 5    1  0.1087513E-008  0.3788027E+03  0.7957747E-01  0.3456389E+00
         13   -1    0    0    0    0  0.00000000000E+00  0.00000000000E+00  0.14999999963E+04  0.15000000000E+04  0.10566000000E+00 0. -1.
        994   -1    0    0    0    0 -0.00000000000E+00 -0.00000000000E+00  0.11368683772E-12  0.17120000000E+03  0.17120000000E+03 0.  0.
         13    1    1    2    0    0  0.13469157675E+02  0.12013825257E+01  0.17431505990E+02  0.22061960329E+02  0.10566000000E+00 0. -1.
        994    1    1    2    0    0 -0.55348274380E+01 -0.28175503610E+01  0.48682456923E+01  0.17138177476E+03  0.17120000000E+03 0.  0.
        998    1    1    2    0    0 -0.79343302369E+01  0.16161678353E+01  0.14777002446E+04  0.14777562649E+04  0.10000000000E+02 0. -1.
</event>
<event>
 5    1  0.1087513E-008  0.2719416E+03  0.7957747E-01  0.4119219E+00
         13   -1    0    0    0    0  0.00000000000E+00  0.00000000000E+00  0.14999999963E+04  0.15000000000E+04  0.10566000000E+00 0. -1.
        994   -1    0    0    0    0 -0.00000000000E+00 -0.00000000000E+00  0.11368683772E-12  0.17120000000E+03  0.17120000000E+03 0.  0.
         13    1    1    2    0    0  0.10915708347E+03  0.10595757722E+03  0.61907295383E+03  0.63749008649E+03  0.10566000000E+00 0. -1.
        994    1    1    2    0    0 -0.86177316825E+02  0.61009749147E+01  0.54519235585E+02  0.19936283224E+03  0.17120000000E+03 0.  0.
        998    1    1    2    0    0 -0.22979766649E+02 -0.11205855213E+03  0.82640780686E+03  0.83434708127E+03  0.10000000000E+02 0. -1.
</event>
<event>
 5    1  0.1087513E-008  0.3916338E+03  0.7957747E-01  0.3402016E+00
         13   -1    0    0    0    0  0.00000000000E+00  0.00000000000E+00  0.14999999963E+04  0.15000000000E+04  0.10566000000E+00 0. -1.
        994   -1    0    0    0    0 -0.00000000000E+00 -0.00000000000E+00  0.11368683772E-12  0.17120000000E+03  0.17120000000E+03 0.  0.
         13    1    1    2    0    0  0.90348607117E+01 -0.56794984345E+01 -0.83462836407E+01  0.13548321859E+02  0.10566000000E+00 0. -1.
        994    1    1    2    0    0 -0.68827799711E+02 -0.51623063041E+02  0.51478775361E+02  0.19839786028E+03  0.17120000000E+03 0.  0.
        998    1    1    2    0    0  0.59792938999E+02  0.57302561476E+02  0.14568675046E+04  0.14592538179E+04  0.10000000000E+02 0. -1.
</event>
<event>
 5    1  0.1087513E-008  0.3818631E+03  0.7957747E-01  0.3443086E+00
         13   -1    0    0    0    0  0.00000000000E+00  0.00000000000E+00  0.14999999963E+04  0.15000000000E+04  0.10566000000E+00 0.  1.
        994   -1    0    0    0    0 -0.00000000000E+00 -0.00000000000E+00  0.11368683772E-12  0.17120000000E+03  0.17120000000E+03 0.  0.
         13    1    1    2    0    0 -0.48778777103E+01 -0.13117915347E+02  0.29913123151E+02  0.33025437086E+02  0.10566000000E+00 0.  1.
        994    1    1    2    0    0  0.29116573446E+01  0.42146180697E+01  0.32828134165E+01  0.17130807809E+03  0.17120000000E+03 0.  0.
        998    1    1    2    0    0  0.19662203657E+01  0.89032972772E+01  0.14668040597E+04  0.14668664848E+04  0.10000000000E+02 0.  1.
</event>
<event>
 5    1  0.1087513E-008  0.3689268E+03  0.7957747E-01  0.3500838E+00
         13   -1    0    0    0    0  0.00000000000E+00  0.00000000000E+00  0.14999999963E+04  0.15000000000E+04  0.10566000000E+00 0.  1.
        994   -1    0    0    0    0 -0.00000000000E+00 -0.00000000000E+00  0.11368683772E-12  0.17120000000E+03  0.17120000000E+03 0.  0.
         13    1    1    2    0    0  0.24760939249E+02  0.14836337066E+02  0.39558001984E+02  0.48970069380E+02  0.10566000000E+00 0.  1.
        994    1    1    2    0    0  0.23042843095E+02 -0.61189126584E+01  0.12354706003E+02  0.17329308258E+03  0.17120000000E+03 0.  0.
        998    1    1    2    0    0 -0.47803782345E+02 -0.87174244077E+01  0.14480872883E+04  0.14489368480E+04  0.10000000000E+02 0.  1.
</event>
<event>
 5    1  0.1087513E-008  0.3794276E+03  0.7957747E-01  0.3453655E+00
         13   -1    0    0    0    0  0.00000000000E+00  0.00000000000E+00  0.14999999963E+04  0.15000000000E+04  0.10566000000E+00 0.  1.
        994   -1    0    0    0    0 -0.00000000000E+00 -0.00000000000E+00  0.11368683772E-12  0.17120000000E+03  0.17120000000E+03 0.  0.
         13    1    1    2    0    0  0.14307844229E+02  0.29499617544E+02  0.11397896502E+03  0.11860083251E+03  0.10566000000E+00 0.  1.
        994    1    1    2    0    0 -0.11633218472E+02 -0.27029889727E+02  0.73280773187E+01  0.17386514150E+03  0.17120000000E+03 0.  0.
        998    1    1    2    0    0 -0.26746257571E+01 -0.24697278168E+01  0.13786929539E+04  0.13787340260E+04  0.10000000000E+02 0.  1.
</event>
<event>
 5    1  0.1087513E-008  0.3843550E+03  0.7957747E-01  0.3432412E+00
         13   -1    0    0    0    0  0.00000000000E+00  0.00000000000E+00  0.14999999963E+04  0.15000000000E+04  0.10566000000E+00 0.  1.
        994   -1    0    0    0    0 -0.00000000000E+00 -0.00000000000E+00  0.11368683772E-12  0.17120000000E+03  0.17120000000E+03 0.  0.
         13    1    1    2    0    0  0.57428331566E+01  0.20218633649E+02  0.10443144255E+03  0.10652563370E+03  0.10566000000E+00 0.  1.
        994    1    1    2    0    0 -0.12720730675E+02 -0.21326911797E+02  0.39855599069E+01  0.17303750704E+03  0.17120000000E+03 0.  0.
        998    1    1    2    0    0  0.69778975181E+01  0.11082781486E+01  0.13915829938E+04  0.13916368593E+04  0.10000000000E+02 0.  1.
</event>
<event>
 5    1  0.1087513E-008  0.3832750E+03  0.7957747E-01  0.3437021E+00
         13   -1    0    0    0    0  0.00000000000E+00  0.00000000000E+00  0.14999999963E+04  0.15000000000E+04  0.10566000000E+00 0. -1.
        994   -1    0    0    0    0 -0.00000000000E+00 -0.00000000000E+00  0.11368683772E-12  0.17120000000E+03  0.17120000000E+03 0.  0.
         13    1    1    2    0    0 -0.10079155588E+02 -0.79492536734E+01  0.32623791255E+02  0.35058564306E+02  0.10566000000E+00 0. -1.
        994    1    1    2    0    0  0.30701343974E+01  0.61232939598E+01  0.26441937879E+01  0.17135738156E+03  0.17120000000E+03 0.  0.
        998    1    1    2    0    0  0.70090211908E+01  0.18259597136E+01  0.14647320112E+04  0.14647840541E+04  0.10000000000E+02 0. -1.
</event>
<event>
 5    1  0.1087513E-008  0.3742011E+03  0.7957747E-01  0.3476804E+00
         13   -1    0    0    0    0  0.00000000000E+00  0.00000000000E+00  0.14999999963E+04  0.15000000000E+04  0.10566000000E+00 0. -1.
        994   -1    0    0    0    0 -0.00000000000E+00 -0.00000000000E+00  0.11368683772E-12  0.17120000000E+03  0.17120000000E+03 0.  0.
         13    1    1    2    0    0 -0.50037686160E+02  0.39609183254E+02  0.29965622924E+03  0.30637644217E+03  0.10566000000E+00 0. -1.
        994    1    1    2    0    0  0.37762272591E+02 -0.13005356251E+01  0.11971213188E+02  0.17572828620E+03  0.17120000000E+03 0.  0.
        998    1    1    2    0    0  0.12275413569E+02 -0.38308647629E+02  0.11883725539E+04  0.11890952716E+04  0.10000000000E+02 0. -1.
</event>
<event>
 5    1  0.1087513E-008  0.3854487E+03  0.7957747E-01  0.3427771E+00
         13   -1    0    0    0    0  0.00000000000E+00  0.00000000000E+00  0.14999999963E+04  0.15000000000E+04  0.10566000000E+00 0.  1.
        994   -1    0    0    0    0 -0.00000000000E+00 -0.00000000000E+00  0.11368683772E-12  0.17120000000E+03  0.17120000000E+03 0.  0.
         13    1    1    2    0    0 -0.13782219842E+02 -0.15415564617E+01  0.68391262756E+02  0.69783249892E+02  0.10566000000E+00 0.  1.
        994    1    1    2    0    0  0.91651833886E+01  0.51969047953E+01  0.17721331601E+01  0.17153305472E+03  0.17120000000E+03 0.  0.
        998    1    1    2    0    0  0.46170364533E+01 -0.36553483337E+01  0.14298366004E+04  0.14298836954E+04  0.10000000000E+02 0.  1.
</event>
<event>
 5    1  0.1087513E-008  0.3832243E+03  0.7957747E-01  0.3437238E+00
         13   -1    0    0    0    0  0.00000000000E+00  0.00000000000E+00  0.14999999963E+04  0.15000000000E+04  0.10566000000E+00 0.  1.
        994   -1    0    0    0    0 -0.00000000000E+00 -0.00000000000E+00  0.11368683772E-12  0.17120000000E+03  0.17120000000E+03 0.  0.
         13    1    1    2    0    0  0.33886093816E+01  0.21742309821E+02  0.94718590305E+02  0.97241108711E+02  0.10566000000E+00 0.  1.
        994    1    1    2    0    0 -0.24218645174E+01 -0.15039662347E+02  0.32822696884E+01  0.17190773736E+03  0.17120000000E+03 0.  0.
        998    1    1    2    0    0 -0.96674486420E+00 -0.67026474743E+01  0.14019991363E+04  0.14020511539E+04  0.10000000000E+02 0.  0.
</event>
<event>
 5    1  0.1087513E-008  0.3815185E+03  0.7957747E-01  0.3444573E+00
         13   -1    0    0    0    0  0.00000000000E+00  0.00000000000E+00  0.14999999963E+04  0.15000000000E+04  0.10566000000E+00 0.  1.
        994   -1    0    0    0    0 -0.00000000000E+00 -0.00000000000E+00  0.11368683772E-12  0.17120000000E+03  0.17120000000E+03 0.  0.
         13    1    1    2    0    0 -0.26359749402E+02 -0.85662025802E+01  0.11516270764E+03  0.11845115707E+03  0.10566000000E+00 0.  1.
        994    1    1    2    0    0  0.21713608187E+02 -0.20632936075E+02  0.63586022276E+01  0.17391684983E+03  0.17120000000E+03 0.  0.
        998    1    1    2    0    0  0.46461412147E+01  0.29199138656E+02  0.13784786864E+04  0.13788319931E+04  0.10000000000E+02 0.  1.
</event>
<event>
 5    1  0.1087513E-008  0.3697192E+03  0.7957747E-01  0.3497182E+00
         13   -1    0    0    0    0  0.00000000000E+00  0.00000000000E+00  0.14999999963E+04  0.15000000000E+04  0.10566000000E+00 0. -1.
        994   -1    0    0    0    0 -0.00000000000E+00 -0.00000000000E+00  0.11368683772E-12  0.17120000000E+03  0.17120000000E+03 0.  0.
         13    1    1    2    0    0  0.96528540280E+02  0.79231882518E+02  0.59103965831E+03  0.60408885038E+03  0.10566000000E+00 0. -1.
        994    1    1    2    0    0 -0.85994921559E+02 -0.44302915628E+02  0.44228977107E+02  0.20155276551E+03  0.17120000000E+03 0.  0.
        998    1    1    2    0    0 -0.10533618721E+02 -0.34928966889E+02  0.86473136086E+03  0.86555838411E+03  0.10000000000E+02 0. -1.
</event>
<event>
 5    1  0.1087513E-008  0.3687020E+03  0.7957747E-01  0.3501878E+00
         13   -1    0    0    0    0  0.00000000000E+00  0.00000000000E+00  0.14999999963E+04  0.15000000000E+04  0.10566000000E+00 0. -1.
        994   -1    0    0    0    0 -0.00000000000E+00 -0.00000000000E+00  0.11368683772E-12  0.17120000000E+03  0.17120000000E+03 0.  0.
         13    1    1    2    0    0 -0.54409407085E+02 -0.13992907914E+02  0.15582856920E+03  0.16564642826E+03  0.10566000000E+00 0. -1.
        994    1    1    2    0    0  0.31288865650E+02  0.11696522390E+02  0.13834402371E+02  0.17497609105E+03  0.17120000000E+03 0.  0.
        998    1    1    2    0    0  0.23120541435E+02  0.22963855245E+01  0.13303370247E+04  0.13305774807E+04  0.10000000000E+02 0. -1.
</event>
<event>
 5    1  0.1087513E-008  0.3836335E+03  0.7957747E-01  0.3435488E+00
         13   -1    0    0    0    0  0.00000000000E+00  0.00000000000E+00  0.14999999963E+04  0.15000000000E+04  0.10566000000E+00 0. -1.
        994   -1    0    0    0    0 -0.00000000000E+00 -0.00000000000E+00  0.11368683772E-12  0.17120000000E+03  0.17120000000E+03 0.  0.
         13    1    1    2    0    0  0.17828443281E+02  0.86087086941E+00  0.66281371654E+02  0.68642740919E+02  0.10566000000E+00 0. -1.
        994    1    1    2    0    0 -0.17525973853E+02  0.30066559096E+01  0.33552854180E+01  0.17215370365E+03  0.17120000000E+03 0.  0.
        998    1    1    2    0    0 -0.30246942787E+00 -0.38675267790E+01  0.14303633392E+04  0.14304035554E+04  0.10000000000E+02 0. -1.
</event>
<event>
 5    1  0.1087513E-008  0.4068588E+03  0.7957747E-01  0.3341946E+00
         13   -1    0    0    0    0  0.00000000000E+00  0.00000000000E+00  0.14999999963E+04  0.15000000000E+04  0.10566000000E+00 0. -1.
        994   -1    0    0    0    0 -0.00000000000E+00 -0.00000000000E+00  0.11368683772E-12  0.17120000000E+03  0.17120000000E+03 0.  0.
         13    1    1    2    0    0  0.15350292249E+02 -0.80472484478E+02  0.88239824439E+02  0.12040651980E+03  0.10566000000E+00 0. -1.
        994    1    1    2    0    0 -0.89055651353E+01  0.87178370124E+02  0.63605564011E+02  0.20256970425E+03  0.17120000000E+03 0.  0.
        998    1    1    2    0    0 -0.64447271136E+01 -0.67058856460E+01  0.13481546078E+04  0.13482237759E+04  0.10000000000E+02 0. -1.
</event>
<event>
 5    1  0.1087513E-008  0.3743559E+03  0.7957747E-01  0.3476109E+00
         13   -1    0    0    0    0  0.00000000000E+00  0.00000000000E+00  0.14999999963E+04  0.15000000000E+04  0.10566000000E+00 0.  1.
        994   -1    0    0    0    0 -0.00000000000E+00 -0.00000000000E+00  0.11368683772E-12  0.17120000000E+03  0.17120000000E+03 0.  0.
         13    1    1    2    0    0  0.98908921671E+01 -0.47180604161E+01 -0.16647846387E+01  0.11084787498E+02  0.10566000000E+00 0.  1.
        994    1    1    2    0    0 -0.84642983587E+01  0.51859235774E+01  0.13610758225E+02  0.17202683189E+03  0.17120000000E+03 0.  0.
        998    1    1    2    0    0 -0.14265938085E+01 -0.46786316138E+00  0.14880540227E+04  0.14880883806E+04  0.10000000000E+02 0.  1.
</event>
<event>
 5    1  0.1087513E-008  0.3775684E+03  0.7957747E-01  0.3461815E+00
         13   -1    0    0    0    0  0.00000000000E+00  0.00000000000E+00  0.14999999963E+04  0.15000000000E+04  0.10566000000E+00 0.  1.
        994   -1    0    0    0    0 -0.00000000000E+00 -0.00000000000E+00  0.11368683772E-12  0.17120000000E+03  0.17120000000E+03 0.  0.
         13    1    1    2    0    0  0.33385736106E+02 -0.13095285783E+01  0.31965104260E+02  0.46239607425E+02  0.10566000000E+00 0.  1.
        994    1    1    2    0    0 -0.14838524707E+02  0.44608920524E+01  0.15860685292E+02  0.17262990098E+03  0.17120000000E+03 0.  0.
        998    1    1    2    0    0 -0.18547211400E+02 -0.31513634741E+01  0.14521742067E+04  0.14523304916E+04  0.10000000000E+02 0.  1.
</event>
<event>
 5    1  0.1087513E-008  0.3852366E+03  0.7957747E-01  0.3428669E+00
         13   -1    0    0    0    0  0.00000000000E+00  0.00000000000E+00  0.14999999963E+04  0.15000000000E+04  0.10566000000E+00 0. -1.
        994   -1    0    0    0    0 -0.00000000000E+00 -0.00000000000E+00  0.11368683772E-12  0.17120000000E+03  0.17120000000E+03 0.  0.
         13    1    1    2    0    0 -0.81580627722E+02  0.17515469759E+02  0.15886353345E+03  0.17944309383E+03  0.10566000000E+00 0. -1.
        994    1    1    2    0    0  0.77970969656E+02 -0.18060589615E+02  0.43305909402E+02  0.19388269339E+03  0.17120000000E+03 0.  0.
        998    1    1    2    0    0  0.36096580661E+01  0.54511985600E+00  0.12978305534E+04  0.12978742128E+04  0.10000000000E+02 0. -1.
</event>
<event>
 5    1  0.1087513E-008  0.3835166E+03  0.7957747E-01  0.3435988E+00
         13   -1    0    0    0    0  0.00000000000E+00  0.00000000000E+00  0.14999999963E+04  0.15000000000E+04  0.10566000000E+00 0.  1.
        994   -1    0    0    0    0 -0.00000000000E+00 -0.00000000000E+00  0.11368683772E-12  0.17120000000E+03  0.17120000000E+03 0.  0.
         13    1    1    2    0    0  0.45812450647E+00 -0.19591606940E+02  0.84354365119E+02  0.86600871931E+02  0.10566000000E+00 0.  1.
        994    1    1    2    0    0  0.12884855557E+02  0.52568083473E+01  0.30086274940E+01  0.17179099329E+03  0.17120000000E+03 0.  0.
        998    1    1    2    0    0 -0.13342980063E+02  0.14334798592E+02  0.14126370037E+04  0.14128081348E+04  0.10000000000E+02 0.  1.
</event>
<event>
 5    1  0.1087513E-008  0.3840013E+03  0.7957747E-01  0.3433919E+00
         13   -1    0    0    0    0  0.00000000000E+00  0.00000000000E+00  0.14999999963E+04  0.15000000000E+04  0.10566000000E+00 0. -1.
        994   -1    0    0    0    0 -0.00000000000E+00 -0.00000000000E+00  0.11368683772E-12  0.17120000000E+03  0.17120000000E+03 0.  0.
         13    1    1    2    0    0 -0.57022735419E+00 -0.16590520075E+02  0.61641535135E+02  0.63837767296E+02  0.10566000000E+00 0. -1.
        994    1    1    2    0    0  0.18355311977E+01  0.18714051825E+02  0.32942711676E+01  0.17226107260E+03  0.17120000000E+03 0.  0.
        998    1    1    2    0    0 -0.12653038435E+01 -0.21235317502E+01  0.14350641900E+04  0.14351011601E+04  0.10000000000E+02 0. -1.
</event>
<event>
 5    1  0.1087513E-008  0.3834494E+03  0.7957747E-01  0.3436275E+00
         13   -1    0    0    0    0  0.00000000000E+00  0.00000000000E+00  0.14999999963E+04  0.15000000000E+04  0.10566000000E+00 0. -1.
        994   -1    0    0    0    0 -0.00000000000E+00 -0.00000000000E+00  0.11368683772E-12  0.17120000000E+03  0.17120000000E+03 0.  0.
         13    1    1    2    0    0 -0.21873320233E+02 -0.22589574533E+01  0.97343770606E+02  0.99796622521E+02  0.10566000000E+00 0. -1.
        994    1    1    2    0    0  0.17627147368E+02  0.42267217521E+01  0.34887229721E+01  0.17219231310E+03  0.17120000000E+03 0.  0.
        998    1    1    2    0    0  0.42461728656E+01 -0.19677642988E+01  0.13991675027E+04  0.13992110644E+04  0.10000000000E+02 0. -1.
</event>
<event>
 5    1  0.1087513E-008  0.3052211E+03  0.7957747E-01  0.3859436E+00
         13   -1    0    0    0    0  0.00000000000E+00  0.00000000000E+00  0.14999999963E+04  0.15000000000E+04  0.10566000000E+00 0. -1.
        994   -1    0    0    0    0 -0.00000000000E+00 -0.00000000000E+00  0.11368683772E-12  0.17120000000E+03  0.17120000000E+03 0.  0.
         13    1    1    2    0    0  0.15005813195E+03 -0.15425725151E+03  0.63482251097E+03  0.67030767130E+03  0.10566000000E+00 0. -1.
        994    1    1    2    0    0 -0.14376997117E+03  0.14145657188E+03  0.19053676334E+03  0.32602678498E+03  0.17120000000E+03 0.  0.
        998    1    1    2    0    0 -0.62881607815E+01  0.12800679624E+02  0.67464072197E+03  0.67486554373E+03  0.10000000000E+02 0.  1.
</event>
<event>
 5    1  0.1087513E-008  0.3811732E+03  0.7957747E-01  0.3446066E+00
         13   -1    0    0    0    0  0.00000000000E+00  0.00000000000E+00  0.14999999963E+04  0.15000000000E+04  0.10566000000E+00 0.  1.
        994   -1    0    0    0    0 -0.00000000000E+00 -0.00000000000E+00  0.11368683772E-12  0.17120000000E+03  0.17120000000E+03 0.  0.
         13    1    1    2    0    0 -0.11504317036E+02  0.17536204896E+02  0.57840220493E+02  0.61525361139E+02  0.10566000000E+00 0.  1.
        994    1    1    2    0    0  0.13392469494E+02 -0.21668298525E+02  0.57058514906E+01  0.17317872312E+03  0.17120000000E+03 0.  0.
        998    1    1    2    0    0 -0.18881524581E+01  0.41320936282E+01  0.14364539243E+04  0.14364959157E+04  0.10000000000E+02 0.  1.
</event>
<event>
 5    1  0.1087513E-008  0.3780224E+03  0.7957747E-01  0.3459815E+00
         13   -1    0    0    0    0  0.00000000000E+00  0.00000000000E+00  0.14999999963E+04  0.15000000000E+04  0.10566000000E+00 0. -1.
        994   -1    0    0    0    0 -0.00000000000E+00 -0.00000000000E+00  0.11368683772E-12  0.17120000000E+03  0.17120000000E+03 0.  0.
         13    1    1    2    0    0 -0.28774307194E+02  0.46418110426E+01  0.80183633022E+02  0.85316665036E+02  0.10566000000E+00 0. -1.
        994    1    1    2    0    0  0.20354129621E+02 -0.12291156018E+00  0.65300953903E+01  0.17252938256E+03  0.17120000000E+03 0.  0.
        998    1    1    2    0    0  0.84201775733E+01 -0.45188994824E+01  0.14132862679E+04  0.14133539524E+04  0.10000000000E+02 0. -1.
</event>
<event>
 5    1  0.1087513E-008  0.3813068E+03  0.7957747E-01  0.3445488E+00
         13   -1    0    0    0    0  0.00000000000E+00  0.00000000000E+00  0.14999999963E+04  0.15000000000E+04  0.10566000000E+00 0.  1.
        994   -1    0    0    0    0 -0.00000000000E+00 -0.00000000000E+00  0.11368683772E-12  0.17120000000E+03  0.17120000000E+03 0.  0.
         13    1    1    2    0    0 -0.14830412480E+02  0.20091056021E+02  0.93343469258E+02  0.96626114915E+02  0.10566000000E+00 0.  1.
        994    1    1    2    0    0  0.84940648717E+01 -0.84806646346E+00  0.37175409394E+01  0.17145299200E+03  0.17120000000E+03 0.  0.
        998    1    1    2    0    0  0.63363476086E+01 -0.19242989558E+02  0.14029389861E+04  0.14031208931E+04  0.10000000000E+02 0.  1.
</event>
<event>
 5    1  0.1087513E-008  0.3808919E+03  0.7957747E-01  0.3447284E+00
         13   -1    0    0    0    0  0.00000000000E+00  0.00000000000E+00  0.14999999963E+04  0.15000000000E+04  0.10566000000E+00 0.  1.
        994   -1    0    0    0    0 -0.00000000000E+00 -0.00000000000E+00  0.11368683772E-12  0.17120000000E+03  0.17120000000E+03 0.  0.
         13    1    1    2    0    0 -0.73319332737E+01  0.15706190761E+02  0.41081243211E+02  0.44588354775E+02  0.10566000000E+00 0.  1.
        994    1    1    2    0    0 -0.67467381494E+02 -0.32844260611E+02  0.22684400621E+02  0.18829395915E+03  0.17120000000E+03 0.  0.
        998    1    1    2    0    0  0.74799314768E+02  0.17138069850E+02  0.14362343524E+04  0.14383176861E+04  0.10000000000E+02 0.  1.
</event>
<event>
 5    1  0.1087513E-008  0.3839963E+03  0.7957747E-01  0.3433940E+00
         13   -1    0    0    0    0  0.00000000000E+00  0.00000000000E+00  0.14999999963E+04  0.15000000000E+04  0.10566000000E+00 0. -1.
        994   -1    0    0    0    0 -0.00000000000E+00 -0.00000000000E+00  0.11368683772E-12  0.17120000000E+03  0.17120000000E+03 0.  0.
         13    1    1    2    0    0  0.11199816071E+02  0.15143091467E+02  0.88976288924E+02  0.90948008521E+02  0.10566000000E+00 0. -1.
        994    1    1    2    0    0  0.97743078526E+01 -0.91016898995E+01  0.27180310967E+01  0.17174168261E+03  0.17120000000E+03 0.  0.
        998    1    1    2    0    0 -0.20974123924E+02 -0.60414015673E+01  0.14083056763E+04  0.14085103089E+04  0.10000000000E+02 0. -1.
</event>
<event>
 5    1  0.1087513E-008  0.3743246E+03  0.7957747E-01  0.3476249E+00
         13   -1    0    0    0    0  0.00000000000E+00  0.00000000000E+00  0.14999999963E+04  0.15000000000E+04  0.10566000000E+00 0.  1.
        994   -1    0    0    0    0 -0.00000000000E+00 -0.00000000000E+00  0.11368683772E-12  0.17120000000E+03  0.17120000000E+03 0.  0.
         13    1    1    2    0    0 -0.10865032632E+01  0.13140659728E+02  0.93258450269E+01  0.16150541073E+02  0.10566000000E+00 0.  1.
        994    1    1    2    0    0 -0.11826800778E+02 -0.47223592413E+01  0.75787002123E+01  0.17184018910E+03  0.17120000000E+03 0.  0.
        998    1    1    2    0    0  0.12913304041E+02 -0.84183004871E+01  0.14830954510E+04  0.14832092698E+04  0.10000000000E+02 0.  1.
</event>
<event>
 5    1  0.1087513E-008  0.2861449E+03  0.7957747E-01  0.4000183E+00
         13   -1    0    0    0    0  0.00000000000E+00  0.00000000000E+00  0.14999999963E+04  0.15000000000E+04  0.10566000000E+00 0. -1.
        994   -1    0    0    0    0 -0.00000000000E+00 -0.00000000000E+00  0.11368683772E-12  0.17120000000E+03  0.17120000000E+03 0.  0.
         13    1    1    2    0    0 -0.19101543805E+03 -0.97771519012E+02  0.43629865336E+03  0.48621260123E+03  0.10566000000E+00 0. -1.
        994    1    1    2    0    0  0.20621649968E+03  0.73150092642E+02  0.25938022749E+03  0.38008383707E+03  0.17120000000E+03 0.  0.
        998    1    1    2    0    0 -0.15201061625E+02  0.24621426370E+02  0.80432111542E+03  0.80490356169E+03  0.10000000000E+02 0.  1.
</event>
<event>
 5    1  0.1087513E-008  0.3987561E+03  0.7957747E-01  0.3373347E+00
         13   -1    0    0    0    0  0.00000000000E+00  0.00000000000E+00  0.14999999963E+04  0.15000000000E+04  0.10566000000E+00 0. -1.
        994   -1    0    0    0    0 -0.00000000000E+00 -0.00000000000E+00  0.11368683772E-12  0.17120000000E+03  0.17120000000E+03 0.  0.
         13    1    1    2    0    0 -0.36410244552E+02 -0.58619462176E+02  0.75364146693E+02  0.10218470054E+03  0.10566000000E+00 0. -1.
        994    1    1    2    0    0  0.43509070127E+02  0.54438072719E+02  0.46210748917E+02  0.19052930552E+03  0.17120000000E+03 0.  0.
        998    1    1    2    0    0 -0.70988255756E+01  0.41813894563E+01  0.13784251007E+04  0.13784859939E+04  0.10000000000E+02 0.  0.
</event>
<event>
 5    1  0.1087513E-008  0.3803879E+03  0.7957747E-01  0.3449471E+00
         13   -1    0    0    0    0  0.00000000000E+00  0.00000000000E+00  0.14999999963E+04  0.15000000000E+04  0.10566000000E+00 0. -1.
        994   -1    0    0    0    0 -0.00000000000E+00 -0.00000000000E+00  0.11368683772E-12  0.17120000000E+03  0.17120000000E+03 0.  0.
         13    1    1    2    0    0 -0.33510050775E+02  0.10162059626E+02  0.16413223292E+03  0.16782607666E+03  0.10566000000E+00 0. -1.
        994    1    1    2    0    0  0.85742681870E+01 -0.11935755516E+02  0.46588712541E+01  0.17189277302E+03  0.17120000000E+03 0.  0.
        998    1    1    2    0    0  0.24935782588E+02  0.17736958897E+01  0.13312088921E+04  0.13314811503E+04  0.10000000000E+02 0. -1.
</event>
<event>
 5    1  0.1087513E-008  0.3838965E+03  0.7957747E-01  0.3434366E+00
         13   -1    0    0    0    0  0.00000000000E+00  0.00000000000E+00  0.14999999963E+04  0.15000000000E+04  0.10566000000E+00 0.  1.
        994   -1    0    0    0    0 -0.00000000000E+00 -0.00000000000E+00  0.11368683772E-12  0.17120000000E+03  0.17120000000E+03 0.  0.
         13    1    1    2    0    0 -0.10259868621E+02 -0.38350979523E+01  0.26837973214E+02  0.28987253245E+02  0.10566000000E+00 0.  1.
        994    1    1    2    0    0  0.79534583453E+01  0.13579604649E+01  0.23939115385E+01  0.17140674540E+03  0.17120000000E+03 0.  0.
        998    1    1    2    0    0  0.23064102756E+01  0.24771374875E+01  0.14707681115E+04  0.14708060014E+04  0.10000000000E+02 0.  1.
</event>
<event>
 5    1  0.1087513E-008  0.3850096E+03  0.7957747E-01  0.3429632E+00
         13   -1    0    0    0    0  0.00000000000E+00  0.00000000000E+00  0.14999999963E+04  0.15000000000E+04  0.10566000000E+00 0.  1.
        994   -1    0    0    0    0 -0.00000000000E+00 -0.00000000000E+00  0.11368683772E-12  0.17120000000E+03  0.17120000000E+03 0.  0.
         13    1    1    2    0    0  0.93398943350E+01 -0.10724113181E+02  0.59995607146E+02  0.61658124124E+02  0.10566000000E+00 0.  1.
        994    1    1    2    0    0 -0.10772580424E+02  0.11065560324E+02  0.24100703036E+01  0.17191202271E+03  0.17120000000E+03 0.  0.
        998    1    1    2    0    0  0.14326860890E+01 -0.34144714351E+00  0.14375943188E+04  0.14376298532E+04  0.10000000000E+02 0.  1.
</event>
<event>
 5    1  0.1087513E-008  0.3771655E+03  0.7957747E-01  0.3463594E+00
         13   -1    0    0    0    0  0.00000000000E+00  0.00000000000E+00  0.14999999963E+04  0.15000000000E+04  0.10566000000E+00 0.  1.
        994   -1    0    0    0    0 -0.00000000000E+00 -0.00000000000E+00  0.11368683772E-12  0.17120000000E+03  0.17120000000E+03 0.  0.
         13    1    1    2    0    0 -0.18577148436E+02 -0.33568011812E+02  0.14380440776E+03  0.14883427266E+03  0.10566000000E+00 0.  1.
        994    1    1    2    0    0  0.42493456970E+01  0.29647223709E+01  0.56614757328E+01  0.17137193126E+03  0.17120000000E+03 0.  0.
        998    1    1    2    0    0  0.14327802739E+02  0.30603289442E+02  0.13505341128E+04  0.13509937961E+04  0.10000000000E+02 0.  1.
</event>
<event>
 5    1  0.1087513E-008  0.3813280E+03  0.7957747E-01  0.3445396E+00
         13   -1    0    0    0    0  0.00000000000E+00  0.00000000000E+00  0.14999999963E+04  0.15000000000E+04  0.10566000000E+00 0. -1.
        994   -1    0    0    0    0 -0.00000000000E+00 -0.00000000000E+00  0.11368683772E-12  0.17120000000E+03  0.17120000000E+03 0.  0.
         13    1    1    2    0    0  0.24072478020E+01 -0.20178011528E+02  0.56496628214E+02  0.60040212815E+02  0.10566000000E+00 0. -1.
        994    1    1    2    0    0 -0.59432257835E+01  0.20356707967E+02  0.49624841502E+01  0.17257978949E+03  0.17120000000E+03 0.  0.
        998    1    1    2    0    0  0.35359779815E+01 -0.17869643945E+00  0.14385408839E+04  0.14385799977E+04  0.10000000000E+02 0. -1.
</event>
<event>
 5    1  0.1087513E-008  0.3821807E+03  0.7957747E-01  0.3441718E+00
         13   -1    0    0    0    0  0.00000000000E+00  0.00000000000E+00  0.14999999963E+04  0.15000000000E+04  0.10566000000E+00 0. -1.
        994   -1    0    0    0    0 -0.00000000000E+00 -0.00000000000E+00  0.11368683772E-12  0.17120000000E+03  0.17120000000E+03 0.  0.
         13    1    1    2    0    0  0.35110360404E+02 -0.88157277912E+01  0.21190742946E+03  0.21497726459E+03  0.10566000000E+00 0. -1.
        994    1    1    2    0    0 -0.19523200420E+02  0.15475724124E+02  0.50990523386E+01  0.17307828785E+03  0.17120000000E+03 0.  0.
        998    1    1    2    0    0 -0.15587159984E+02 -0.66599963330E+01  0.12829935145E+04  0.12831444476E+04  0.10000000000E+02 0. -1.
</event>
<event>
 5    1  0.1087513E-008  0.3850163E+03  0.7957747E-01  0.3429603E+00
         13   -1    0    0    0    0  0.00000000000E+00  0.00000000000E+00  0.14999999963E+04  0.15000000000E+04  0.10566000000E+00 0. -1.
        994   -1    0    0    0    0 -0.00000000000E+00 -0.00000000000E+00  0.11368683772E-12  0.17120000000E+03  0.17120000000E+03 0.  0.
         13    1    1    2    0    0  0.13372857011E+02 -0.11992052248E+01  0.56975273271E+02  0.58536008800E+02  0.10566000000E+00 0. -1.
        994    1    1    2    0    0 -0.42720161584E+01  0.53275762130E+01  0.17754080500E+01  0.17134533920E+03  0.17120000000E+03 0.  0.
        998    1    1    2    0    0 -0.91008408530E+01 -0.41283709881E+01  0.14412493150E+04  0.14413186520E+04  0.10000000000E+02 0. -1.
</event>
<event>
 5    1  0.1087513E-008  0.2910481E+03  0.7957747E-01  0.3962075E+00
         13   -1    0    0    0    0  0.00000000000E+00  0.00000000000E+00  0.14999999963E+04  0.15000000000E+04  0.10566000000E+00 0.  1.
        994   -1    0    0    0    0 -0.00000000000E+00 -0.00000000000E+00  0.11368683772E-12  0.17120000000E+03  0.17120000000E+03 0.  0.
         13    1    1    2    0    0  0.84899393813E+02 -0.11792996626E+03  0.77267981665E+03  0.78622483695E+03  0.10566000000E+00 0.  1.
        994    1    1    2    0    0 -0.10337166496E+03 -0.48637111255E+01  0.63966416515E+02  0.21002499671E+03  0.17120000000E+03 0.  0.
        998    1    1    2    0    0  0.18472271144E+02  0.12279367738E+03  0.66335376311E+03  0.67495016634E+03  0.10000000000E+02 0.  1.
</event>
<event>
 5    1  0.1087513E-008  0.3771022E+03  0.7957747E-01  0.3463874E+00
         13   -1    0    0    0    0  0.00000000000E+00  0.00000000000E+00  0.14999999963E+04  0.15000000000E+04  0.10566000000E+00 0. -1.
        994   -1    0    0    0    0 -0.00000000000E+00 -0.00000000000E+00  0.11368683772E-12  0.17120000000E+03  0.17120000000E+03 0.  0.
         13    1    1    2    0    0  0.37261094981E+02  0.27783911590E+02  0.17184169341E+03  0.17801661074E+03  0.10566000000E+00 0. -1.
        994    1    1    2    0    0 -0.37801832043E+02 -0.24544211515E+02  0.12490536355E+02  0.17747352006E+03  0.17120000000E+03 0.  0.
        998    1    1    2    0    0  0.54073706194E+00 -0.32397000752E+01  0.13156677665E+04  0.13157098692E+04  0.10000000000E+02 0. -1.
</event>
<event>
 5    1  0.1087513E-008  0.3784725E+03  0.7957747E-01  0.3457837E+00
         13   -1    0    0    0    0  0.00000000000E+00  0.00000000000E+00  0.14999999963E+04  0.15000000000E+04  0.10566000000E+00 0.  1.
        994   -1    0    0    0    0 -0.00000000000E+00 -0.00000000000E+00  0.11368683772E-12  0.17120000000E+03  0.17120000000E+03 0.  0.
         13    1    1    2    0    0 -0.21150703629E+02 -0.23927969813E+02  0.96294434720E+02  0.10145210360E+03  0.10566000000E+00 0.  1.
        994    1    1    2    0    0  0.25193747141E+02  0.20722104151E+02  0.84898559567E+01  0.17448681368E+03  0.17120000000E+03 0.  0.
        998    1    1    2    0    0 -0.40430435124E+01  0.32058656623E+01  0.13952157056E+04  0.13952610827E+04  0.10000000000E+02 0.  1.
</event>
<event>
 5    1  0.1087513E-008  0.3711464E+03  0.7957747E-01  0.3490639E+00
         13   -1    0    0    0    0  0.00000000000E+00  0.00000000000E+00  0.14999999963E+04  0.15000000000E+04  0.10566000000E+00 0.  1.
        994   -1    0    0    0    0 -0.00000000000E+00 -0.00000000000E+00  0.11368683772E-12  0.17120000000E+03  0.17120000000E+03 0.  0.
         13    1    1    2    0    0 -0.51176462360E+01  0.94889234595E+01  0.26482894602E+01  0.11102007590E+02  0.10566000000E+00 0.  1.
        994    1    1    2    0    0  0.78447575518E+01 -0.71832094196E+01  0.90608513865E+01  0.17176925728E+03  0.17120000000E+03 0.  0.
        998    1    1    2    0    0 -0.27271113158E+01 -0.23057140399E+01  0.14882908554E+04  0.14883287351E+04  0.10000000000E+02 0.  1.
</event>
<event>
 5    1  0.1087513E-008  0.3838261E+03  0.7957747E-01  0.3434666E+00
         13   -1    0    0    0    0  0.00000000000E+00  0.00000000000E+00  0.14999999963E+04  0.15000000000E+04  0.10566000000E+00 0. -1.
        994   -1    0    0    0    0 -0.00000000000E+00 -0.00000000000E+00  0.11368683772E-12  0.17120000000E+03  0.17120000000E+03 0.  0.
         13    1    1    2    0    0 -0.83786515602E+01  0.73412821257E+02  0.42020645410E+03  0.42665339488E+03  0.10566000000E+00 0. -1.
        994    1    1    2    0    0  0.27764745198E+02 -0.12575605978E+03  0.59037787379E+02  0.22221693902E+03  0.17120000000E+03 0.  0.
        998    1    1    2    0    0 -0.19386093637E+02  0.52343238526E+02  0.10207557548E+04  0.10223296661E+04  0.10000000000E+02 0. -1.
</event>
<event>
 5    1  0.1087513E-008  0.3795641E+03  0.7957747E-01  0.3453058E+00
         13   -1    0    0    0    0  0.00000000000E+00  0.00000000000E+00  0.14999999963E+04  0.15000000000E+04  0.10566000000E+00 0. -1.
        994   -1    0    0    0    0 -0.00000000000E+00 -0.00000000000E+00  0.11368683772E-12  0.17120000000E+03  0.17120000000E+03 0.  0.
         13    1    1    2    0    0  0.19664914994E+02  0.32995160888E+02  0.40541033529E+02  0.55847793934E+02  0.10566000000E+00 0. -1.
        994    1    1    2    0    0  0.73118535578E+01 -0.26255540923E+02  0.18779891787E+02  0.17437012636E+03  0.17120000000E+03 0.  0.
        998    1    1    2    0    0 -0.26976768552E+02 -0.67396199648E+01  0.14406790710E+04  0.14409820797E+04  0.10000000000E+02 0. -1.
</event>
<event>
 5    1  0.1087513E-008  0.3804825E+03  0.7957747E-01  0.3449060E+00
         13   -1    0    0    0    0  0.00000000000E+00  0.00000000000E+00  0.14999999963E+04  0.15000000000E+04  0.10566000000E+00 0.  1.
        994   -1    0    0    0    0 -0.00000000000E+00 -0.00000000000E+00  0.11368683772E-12  0.17120000000E+03  0.17120000000E+03 0.  0.
         13    1    1    2    0    0 -0.62009889449E+01  0.94762957420E+01  0.14838969390E+02  0.18667046405E+02  0.10566000000E+00 0.  1.
        994    1    1    2    0    0  0.60133224978E+01 -0.53228978642E+01  0.41050763710E+01  0.17143740823E+03  0.17120000000E+03 0.  0.
        998    1    1    2    0    0  0.18766644712E+00 -0.41533978779E+01  0.14810559505E+04  0.14810955454E+04  0.10000000000E+02 0.  1.
</event>
<event>
 5    1  0.1087513E-008  0.3732782E+03  0.7957747E-01  0.3480959E+00
         13   -1    0    0    0    0  0.00000000000E+00  0.00000000000E+00  0.14999999963E+04  0.15000000000E+04  0.10566000000E+00 0.  1.
        994   -1    0    0    0    0 -0.00000000000E+00 -0.00000000000E+00  0.11368683772E-12  0.17120000000E+03  0.17120000000E+03 0.  0.
         13    1    1    2    0    0 -0.12961532915E+01  0.22559673671E+02  0.31342050629E+02  0.38638765394E+02  0.10566000000E+00 0.  1.
        994    1    1    2    0    0 -0.20427699724E+02 -0.78714174549E+01  0.92058802276E+01  0.17283934263E+03  0.17120000000E+03 0.  0.
        998    1    1    2    0    0  0.21723853016E+02 -0.14688256216E+02  0.14594520654E+04  0.14597218920E+04  0.10000000000E+02 0.  1.
</event>
<event>
 5    1  0.1087513E-008  0.3845171E+03  0.7957747E-01  0.3431723E+00
         13   -1    0    0    0    0  0.00000000000E+00  0.00000000000E+00  0.14999999963E+04  0.15000000000E+04  0.10566000000E+00 0.  1.
        994   -1    0    0    0    0 -0.00000000000E+00 -0.00000000000E+00  0.11368683772E-12  0.17120000000E+03  0.17120000000E+03 0.  0.
         13    1    1    2    0    0  0.13067585734E+02  0.10652473704E+02  0.78025868956E+02  0.79826589450E+02  0.10566000000E+00 0.  1.
        994    1    1    2    0    0  0.74575283566E+00 -0.11315470056E+02  0.22937816866E+01  0.17159049346E+03  0.17120000000E+03 0.  0.
        998    1    1    2    0    0 -0.13813338570E+02  0.66299635225E+00  0.14196803456E+04  0.14197829171E+04  0.10000000000E+02 0.  1.
</event>
<event>
 5    1  0.1087513E-008  0.3712709E+03  0.7957747E-01  0.3490070E+00
         13   -1    0    0    0    0  0.00000000000E+00  0.00000000000E+00  0.14999999963E+04  0.15000000000E+04  0.10566000000E+00 0. -1.
        994   -1    0    0    0    0 -0.00000000000E+00 -0.00000000000E+00  0.11368683772E-12  0.17120000000E+03  0.17120000000E+03 0.  0.
         13    1    1    2    0    0 -0.84658881881E+02 -0.18843887178E+02  0.31938856854E+03  0.33095511364E+03  0.10566000000E+00 0. -1.
        994    1    1    2    0    0  0.50934641968E+02  0.59838542787E+01  0.20906300094E+02  0.17993514845E+03  0.17120000000E+03 0.  0.
        998    1    1    2    0    0  0.33724239912E+02  0.12860032899E+02  0.11597051276E+04  0.11603097379E+04  0.10000000000E+02 0. -1.
</event>
<event>
 5    1  0.1087513E-008  0.3836826E+03  0.7957747E-01  0.3435279E+00
         13   -1    0    0    0    0  0.00000000000E+00  0.00000000000E+00  0.14999999963E+04  0.15000000000E+04  0.10566000000E+00 0.  1.
        994   -1    0    0    0    0 -0.00000000000E+00 -0.00000000000E+00  0.11368683772E-12  0.17120000000E+03  0.17120000000E+03 0.  0.
         13    1    1    2    0    0 -0.95803108663E+01 -0.44508409366E+01  0.23178444720E+02  0.25472412626E+02  0.10566000000E+00 0.  1.
        994    1    1    2    0    0  0.11634312563E+02  0.65957900719E+01  0.28765512526E+01  0.17174567308E+03  0.17120000000E+03 0.  0.
        998    1    1    2    0    0 -0.20540016962E+01 -0.21449491353E+01  0.14739450003E+04  0.14739819143E+04  0.10000000000E+02 0.  1.
</event>
<event>
 5    1  0.1087513E-008  0.2971210E+03  0.7957747E-01  0.3916789E+00
         13   -1    0    0    0    0  0.00000000000E+00  0.00000000000E+00  0.14999999963E+04  0.15000000000E+04  0.10566000000E+00 0. -1.
        994   -1    0    0    0    0 -0.00000000000E+00 -0.00000000000E+00  0.11368683772E-12  0.17120000000E+03  0.17120000000E+03 0.  0.
         13    1    1    2    0    0 -0.57914448275E+02  0.18964125644E+03  0.56062821160E+03  0.59466115753E+03  0.10566000000E+00 0. -1.
        994    1    1    2    0    0  0.76954987995E+02 -0.20160140977E+03  0.20903946264E+03  0.34579204089E+03  0.17120000000E+03 0.  0.
        998    1    1    2    0    0 -0.19040539721E+02  0.11960153325E+02  0.73033232204E+03  0.73074680159E+03  0.10000000000E+02 0. -1.
</event>
<event>
 5    1  0.1087513E-008  0.3260492E+03  0.7957747E-01  0.3725980E+00
         13   -1    0    0    0    0  0.00000000000E+00  0.00000000000E+00  0.14999999963E+04  0.15000000000E+04  0.10566000000E+00 0.  1.
        994   -1    0    0    0    0 -0.00000000000E+00 -0.00000000000E+00  0.11368683772E-12  0.17120000000E+03  0.17120000000E+03 0.  0.
         13    1    1    2    0    0  0.87156523455E+02  0.23052322962E+03  0.87252483661E+03  0.90666246235E+03  0.10566000000E+00 0.  1.
        994    1    1    2    0    0 -0.44167765172E+02 -0.17005178849E+03  0.16406487496E+03  0.29511883275E+03  0.17120000000E+03 0.  0.
        998    1    1    2    0    0 -0.42988758283E+02 -0.60471441125E+02  0.46341028471E+03  0.46941870489E+03  0.10000000000E+02 0.  1.
</event>
<event>
 5    1  0.1087513E-008  0.3718603E+03  0.7957747E-01  0.3487385E+00
         13   -1    0    0    0    0  0.00000000000E+00  0.00000000000E+00  0.14999999963E+04  0.15000000000E+04  0.10566000000E+00 0. -1.
        994   -1    0    0    0    0 -0.00000000000E+00 -0.00000000000E+00  0.11368683772E-12  0.17120000000E+03  0.17120000000E+03 0.  0.
         13    1    1    2    0    0  0.71977337961E+02 -0.24837462168E+01  0.29499819321E+03  0.30366239698E+03  0.10566000000E+00 0. -1.
        994    1    1    2    0    0 -0.48596308658E+02  0.29604667171E+02  0.19507861416E+02  0.18146083376E+03  0.17120000000E+03 0.  0.
        998    1    1    2    0    0 -0.23381029303E+02 -0.27120920954E+02  0.11854939417E+04  0.11860767693E+04  0.10000000000E+02 0. -1.
</event>
<event>
 5    1  0.1087513E-008  0.3823945E+03  0.7957747E-01  0.3440798E+00
         13   -1    0    0    0    0  0.00000000000E+00  0.00000000000E+00  0.14999999963E+04  0.15000000000E+04  0.10566000000E+00 0. -1.
        994   -1    0    0    0    0 -0.00000000000E+00 -0.00000000000E+00  0.11368683772E-12  0.17120000000E+03  0.17120000000E+03 0.  0.
         13    1    1    2    0    0 -0.15073122018E+02 -0.51233544618E+02  0.32075318033E+03  0.32516870845E+03  0.10566000000E+00 0. -1.
        994    1    1    2    0    0  0.27756583057E+02  0.64690628028E+02  0.19542139167E+02  0.18613608049E+03  0.17120000000E+03 0.  0.
        998    1    1    2    0    0 -0.12683461039E+02 -0.13457083410E+02  0.11597046768E+04  0.11598952111E+04  0.10000000000E+02 0. -1.
</event>
<event>
 5    1  0.1087513E-008  0.3805987E+03  0.7957747E-01  0.3448556E+00
         13   -1    0    0    0    0  0.00000000000E+00  0.00000000000E+00  0.14999999963E+04  0.15000000000E+04  0.10566000000E+00 0. -1.
        994   -1    0    0    0    0 -0.00000000000E+00 -0.00000000000E+00  0.11368683772E-12  0.17120000000E+03  0.17120000000E+03 0.  0.
         13    1    1    2    0    0  0.67551459652E+01  0.24046939497E+02  0.68785084545E+02  0.73179821783E+02  0.10566000000E+00 0. -1.
        994    1    1    2    0    0 -0.69023757516E+02 -0.34235430492E+02  0.23897431929E+02  0.18925345718E+03  0.17120000000E+03 0.  0.
        998    1    1    2    0    0  0.62268611551E+02  0.10188490995E+02  0.14073174798E+04  0.14087667210E+04  0.10000000000E+02 0. -1.
</event>
<event>
 5    1  0.1087513E-008  0.3756920E+03  0.7957747E-01  0.3470134E+00
         13   -1    0    0    0    0  0.00000000000E+00  0.00000000000E+00  0.14999999963E+04  0.15000000000E+04  0.10566000000E+00 0. -1.
        994   -1    0    0    0    0 -0.00000000000E+00 -0.00000000000E+00  0.11368683772E-12  0.17120000000E+03  0.17120000000E+03 0.  0.
         13    1    1    2    0    0  0.37940213441E+02 -0.34307913331E+02  0.18419028365E+03  0.19116109559E+03  0.10566000000E+00 0. -1.
        994    1    1    2    0    0 -0.45664952424E+02  0.21422136795E+02  0.15001196638E+02  0.17910519737E+03  0.17120000000E+03 0.  0.
        998    1    1    2    0    0  0.77247389823E+01  0.12885776536E+02  0.13008085160E+04  0.13009337070E+04  0.10000000000E+02 0. -1.
</event>
<event>
 5    1  0.1087513E-008  0.3773808E+03  0.7957747E-01  0.3462643E+00
         13   -1    0    0    0    0  0.00000000000E+00  0.00000000000E+00  0.14999999963E+04  0.15000000000E+04  0.10566000000E+00 0. -1.
        994   -1    0    0    0    0 -0.00000000000E+00 -0.00000000000E+00  0.11368683772E-12  0.17120000000E+03  0.17120000000E+03 0.  0.
         13    1    1    2    0    0 -0.19914593623E+02 -0.42546884427E+02  0.17898854663E+03  0.18505064011E+03  0.10566000000E+00 0. -1.
        994    1    1    2    0    0  0.18487134395E+02  0.41873838670E+02  0.12559261270E+02  0.17765800727E+03  0.17120000000E+03 0.  0.
        998    1    1    2    0    0  0.14274592281E+01  0.67304575633E+00  0.13084521884E+04  0.13084913526E+04  0.10000000000E+02 0.  0.
</event>
<event>
 5    1  0.1087513E-008  0.3860621E+03  0.7957747E-01  0.3425180E+00
         13   -1    0    0    0    0  0.00000000000E+00  0.00000000000E+00  0.14999999963E+04  0.15000000000E+04  0.10566000000E+00 0. -1.
        994   -1    0    0    0    0 -0.00000000000E+00 -0.00000000000E+00  0.11368683772E-12  0.17120000000E+03  0.17120000000E+03 0.  0.
         13    1    1    2    0    0 -0.12000740628E+02  0.49520360183E+01  0.76140422226E+02  0.77239339051E+02  0.10566000000E+00 0. -1.
        994    1    1    2    0    0  0.13638372017E+02  0.53350227144E+01  0.18069476490E+01  0.17183472501E+03  0.17120000000E+03 0.  0.
        998    1    1    2    0    0 -0.16376313893E+01 -0.10287058733E+02  0.14220526264E+04  0.14221259359E+04  0.10000000000E+02 0. -1.
</event>
<event>
 5    1  0.1087513E-008  0.3816898E+03  0.7957747E-01  0.3443834E+00
         13   -1    0    0    0    0  0.00000000000E+00  0.00000000000E+00  0.14999999963E+04  0.15000000000E+04  0.10566000000E+00 0.  1.
        994   -1    0    0    0    0 -0.00000000000E+00 -0.00000000000E+00  0.11368683772E-12  0.17120000000E+03  0.17120000000E+03 0.  0.
         13    1    1    2    0    0 -0.23278114801E+02 -0.17316223981E+02  0.12055473932E+03  0.12399668777E+03  0.10566000000E+00 0.  1.
        994    1    1    2    0    0  0.18644850609E+02  0.18521617453E+02  0.55820336375E+01  0.17329535443E+03  0.17120000000E+03 0.  0.
        998    1    1    2    0    0  0.46332641913E+01 -0.12053934721E+01  0.13738632233E+04  0.13739079578E+04  0.10000000000E+02 0. -1.
</event>
<event>
 5    1  0.1087513E-008  0.3811987E+03  0.7957747E-01  0.3445956E+00
         13   -1    0    0    0    0  0.00000000000E+00  0.00000000000E+00  0.14999999963E+04  0.15000000000E+04  0.10566000000E+00 0. -1.
        994   -1    0    0    0    0 -0.00000000000E+00 -0.00000000000E+00  0.11368683772E-12  0.17120000000E+03  0.17120000000E+03 0.  0.
         13    1    1    2    0    0 -0.82582221181E+01  0.63686378282E+01  0.14079266144E+02  0.17521263639E+02  0.10566000000E+00 0. -1.
        994    1    1    2    0    0  0.45818979132E+01  0.14238553351E+01  0.36059428839E+01  0.17130517790E+03  0.17120000000E+03 0.  0.
        998    1    1    2    0    0  0.36763242049E+01 -0.77924931634E+01  0.14823147873E+04  0.14823735585E+04  0.10000000000E+02 0. -1.
</event>
<event>
 5    1  0.1087513E-008  0.3726420E+03  0.7957747E-01  0.3483836E+00
         13   -1    0    0    0    0  0.00000000000E+00  0.00000000000E+00  0.14999999963E+04  0.15000000000E+04  0.10566000000E+00 0.  1.
        994   -1    0    0    0    0 -0.00000000000E+00 -0.00000000000E+00  0.11368683772E-12  0.17120000000E+03  0.17120000000E+03 0.  0.
         13    1    1    2    0    0  0.15503170764E+02 -0.42326333449E+02  0.12851945369E+03  0.13619518328E+03  0.10566000000E+00 0.  1.
        994    1    1    2    0    0 -0.60268158108E+01  0.22050233093E+02  0.96871415276E+01  0.17299079744E+03  0.17120000000E+03 0.  0.
        998    1    1    2    0    0 -0.94763549531E+01  0.20276100356E+02  0.13617934011E+04  0.13620140193E+04  0.10000000000E+02 0.  1.
</event>
<event>
 5    1  0.1087513E-008  0.4090535E+03  0.7957747E-01  0.3333653E+00
         13   -1    0    0    0    0  0.00000000000E+00  0.00000000000E+00  0.14999999963E+04  0.15000000000E+04  0.10566000000E+00 0.  1.
        994   -1    0    0    0    0 -0.00000000000E+00 -0.00000000000E+00  0.11368683772E-12  0.17120000000E+03  0.17120000000E+03 0.  0.
         13    1    1    2    0    0 -0.48145109021E+02 -0.11843879973E+03  0.29501680029E+03  0.32152857482E+03  0.10566000000E+00 0.  1.
        994    1    1    2    0    0  0.64313466577E+02  0.86719211368E+01  0.50634492829E+02  0.18995977486E+03  0.17120000000E+03 0.  0.
        998    1    1    2    0    0 -0.16168357556E+02  0.10976687860E+03  0.11543487032E+04  0.11597116503E+04  0.10000000000E+02 0.  1.
</event>
<event>
 5    1  0.1087513E-008  0.3788509E+03  0.7957747E-01  0.3456177E+00
         13   -1    0    0    0    0  0.00000000000E+00  0.00000000000E+00  0.14999999963E+04  0.15000000000E+04  0.10566000000E+00 0.  1.
        994   -1    0    0    0    0 -0.00000000000E+00 -0.00000000000E+00  0.11368683772E-12  0.17120000000E+03  0.17120000000E+03 0.  0.
         13    1    1    2    0    0 -0.21030845189E+01 -0.16815457445E+02  0.28413468145E+02  0.33083514167E+02  0.10566000000E+00 0.  1.
        994    1    1    2    0    0  0.86121947024E+01  0.12177724806E+02  0.54611825422E+01  0.17193525349E+03  0.17120000000E+03 0.  0.
        998    1    1    2    0    0 -0.65091101835E+01  0.46377326388E+01  0.14661253456E+04  0.14661812323E+04  0.10000000000E+02 0.  1.
</event>
<event>
 5    1  0.1087513E-008  0.3729470E+03  0.7957747E-01  0.3482456E+00
         13   -1    0    0    0    0  0.00000000000E+00  0.00000000000E+00  0.14999999963E+04  0.15000000000E+04  0.10566000000E+00 0.  1.
        994   -1    0    0    0    0 -0.00000000000E+00 -0.00000000000E+00  0.11368683772E-12  0.17120000000E+03  0.17120000000E+03 0.  0.
         13    1    1    2    0    0  0.27826578696E+01 -0.60910711302E+02  0.21181740517E+03  0.22041887903E+03  0.10566000000E+00 0.  1.
        994    1    1    2    0    0 -0.73529435990E+01  0.55308317907E+02  0.18468631990E+02  0.18100719924E+03  0.17120000000E+03 0.  0.
        998    1    1    2    0    0  0.45702857295E+01  0.56023933951E+01  0.12697139591E+04  0.12697739217E+04  0.10000000000E+02 0.  1.
</event>
<event>
 5    1  0.2150365E-008  0.3856436E+03  0.7957747E-01  0.3426947E+00
         13   -1    0    0    0    0  0.00000000000E+00  0.00000000000E+00  0.14999999963E+04  0.15000000000E+04  0.10566000000E+00 0. -1.
        994   -1    0    0    0    0 -0.00000000000E+00 -0.00000000000E+00  0.11368683772E-12  0.17120000000E+03  0.17120000000E+03 0.  0.
         13    1    1    2    0    0  0.69685495162E+01  0.78250562266E+01  0.41238030734E+02  0.42548543220E+02  0.10566000000E+00 0. -1.
        994    1    1    2    0    0 -0.71088153235E+01 -0.80799447118E+01  0.16911166668E+01  0.17154626384E+03  0.17120000000E+03 0.  0.
        998    1    1    2    0    0  0.14026580731E+00  0.25488848517E+00  0.14570708489E+04  0.14571051929E+04  0.10000000000E+02 0. -1.
</event>
<event>
 5    1  0.1087513E-008  0.3877113E+03  0.7957747E-01  0.3418254E+00
         13   -1    0    0    0    0  0.00000000000E+00  0.00000000000E+00  0.14999999963E+04  0.15000000000E+04  0.10566000000E+00 0. -1.
        994   -1    0    0    0    0 -0.00000000000E+00 -0.00000000000E+00  0.11368683772E-12  0.17120000000E+03  0.17120000000E+03 0.  0.
         13    1    1    2    0    0 -0.10610574669E+03  0.81462622044E+02  0.39342428091E+03  0.41554453942E+03  0.10566000000E+00 0. -1.
        994    1    1    2    0    0  0.64979294468E+02 -0.71045705646E+02  0.56092688962E+02  0.20426852610E+03  0.17120000000E+03 0.  0.
        998    1    1    2    0    0  0.41126452219E+02 -0.10416916398E+02  0.10504830264E+04  0.10513869345E+04  0.10000000000E+02 0. -1.
</event>
<event>
 5    1  0.1087513E-008  0.3817500E+03  0.7957747E-01  0.3443574E+00
         13   -1    0    0    0    0  0.00000000000E+00  0.00000000000E+00  0.14999999963E+04  0.15000000000E+04  0.10566000000E+00 0. -1.
        994   -1    0    0    0    0 -0.00000000000E+00 -0.00000000000E+00  0.11368683772E-12  0.17120000000E+03  0.17120000000E+03 0.  0.
         13    1    1    2    0    0 -0.76726133887E+01  0.16728630712E+02  0.52692444905E+02  0.55814164831E+02  0.10566000000E+00 0. -1.
        994    1    1    2    0    0  0.67389431325E+01 -0.14355177202E+01  0.34101585055E+01  0.17137252769E+03  0.17120000000E+03 0.  0.
        998    1    1    2    0    0  0.93367025624E+00 -0.15293112992E+02  0.14438973929E+04  0.14440133075E+04  0.10000000000E+02 0. -1.
</event>
<event>
 5    1  0.1087513E-008  0.3795228E+03  0.7957747E-01  0.3453239E+00
         13   -1    0    0    0    0  0.00000000000E+00  0.00000000000E+00  0.14999999963E+04  0.15000000000E+04  0.10566000000E+00 0. -1.
        994   -1    0    0    0    0 -0.00000000000E+00 -0.00000000000E+00  0.11368683772E-12  0.17120000000E+03  0.17120000000E+03 0.  0.
         13    1    1    2    0    0 -0.50532927425E+01 -0.14189796129E+02  0.24362379865E+02  0.28643023556E+02  0.10566000000E+00 0. -1.
        994    1    1    2    0    0 -0.23989524696E+02  0.15886124238E+02  0.71510478080E+01  0.17374821934E+03  0.17120000000E+03 0.  0.
        998    1    1    2    0    0  0.29042817439E+02 -0.16963281088E+01  0.14684865686E+04  0.14688087571E+04  0.10000000000E+02 0. -1.
</event>
<event>
 5    1  0.1087513E-008  0.3824798E+03  0.7957747E-01  0.3440432E+00
         13   -1    0    0    0    0  0.00000000000E+00  0.00000000000E+00  0.14999999963E+04  0.15000000000E+04  0.10566000000E+00 0. -1.
        994   -1    0    0    0    0 -0.00000000000E+00 -0.00000000000E+00  0.11368683772E-12  0.17120000000E+03  0.17120000000E+03 0.  0.
         13    1    1    2    0    0 -0.13107352644E+02 -0.24442528494E+02  0.14371265657E+03  0.14636454050E+03  0.10566000000E+00 0. -1.
        994    1    1    2    0    0  0.11384449431E+01  0.55763530581E+01  0.29939825321E+01  0.17132073926E+03  0.17120000000E+03 0.  0.
        998    1    1    2    0    0  0.11968907701E+02  0.18866175435E+02  0.13532933572E+04  0.13535147202E+04  0.10000000000E+02 0. -1.
</event>
<event>
 5    1  0.1087513E-008  0.3834839E+03  0.7957747E-01  0.3436128E+00
         13   -1    0    0    0    0  0.00000000000E+00  0.00000000000E+00  0.14999999963E+04  0.15000000000E+04  0.10566000000E+00 0. -1.
        994   -1    0    0    0    0 -0.00000000000E+00 -0.00000000000E+00  0.11368683772E-12  0.17120000000E+03  0.17120000000E+03 0.  0.
         13    1    1    2    0    0 -0.60175347293E+01 -0.16492998877E+02  0.73034863223E+02  0.75115458770E+02  0.10566000000E+00 0. -1.
        994    1    1    2    0    0 -0.82322929975E+01 -0.92850767023E+01  0.28937893666E+01  0.17167351955E+03  0.17120000000E+03 0.  0.
        998    1    1    2    0    0  0.14249827727E+02  0.25778075579E+02  0.14240713437E+04  0.14244110217E+04  0.10000000000E+02 0. -1.
</event>
<event>
 5    1  0.1087513E-008  0.3797663E+03  0.7957747E-01  0.3452177E+00
         13   -1    0    0    0    0  0.00000000000E+00  0.00000000000E+00  0.14999999963E+04  0.15000000000E+04  0.10566000000E+00 0. -1.
        994   -1    0    0    0    0 -0.00000000000E+00 -0.00000000000E+00  0.11368683772E-12  0.17120000000E+03  0.17120000000E+03 0.  0.
         13    1    1    2    0    0 -0.78244500773E+00  0.43536422515E+02  0.25742415571E+03  0.26108090588E+03  0.10566000000E+00 0. -1.
        994    1    1    2    0    0 -0.10850247550E+02 -0.80319109680E+01  0.48610970228E+01  0.17180020294E+03  0.17120000000E+03 0.  0.
        998    1    1    2    0    0  0.11632692558E+02 -0.35504511547E+02  0.12377147435E+04  0.12383188912E+04  0.10000000000E+02 0. -1.
</event>
<event>
 5    1  0.1087513E-008  0.3814249E+03  0.7957747E-01  0.3444978E+00
         13   -1    0    0    0    0  0.00000000000E+00  0.00000000000E+00  0.14999999963E+04  0.15000000000E+04  0.10566000000E+00 0. -1.
        994   -1    0    0    0    0 -0.00000000000E+00 -0.00000000000E+00  0.11368683772E-12  0.17120000000E+03  0.17120000000E+03 0.  0.
         13    1    1    2    0    0 -0.36110670851E+01  0.17140967557E+02  0.44291699365E+02  0.47630015442E+02  0.10566000000E+00 0. -1.
        994    1    1    2    0    0  0.20137330402E+01 -0.78013749640E+01  0.36316177601E+01  0.17142795927E+03  0.17120000000E+03 0.  0.
        998    1    1    2    0    0  0.15973340449E+01 -0.93395925932E+01  0.14520766792E+04  0.14521420253E+04  0.10000000000E+02 0. -1.
</event>
<event>
 5    1  0.1087513E-008  0.3772761E+03  0.7957747E-01  0.3463106E+00
         13   -1    0    0    0    0  0.00000000000E+00  0.00000000000E+00  0.14999999963E+04  0.15000000000E+04  0.10566000000E+00 0.  1.
        994   -1    0    0    0    0 -0.00000000000E+00 -0.00000000000E+00  0.11368683772E-12  0.17120000000E+03  0.17120000000E+03 0.  0.
         13    1    1    2    0    0  0.19489965221E+02  0.11382795677E+02  0.45007723747E+02  0.50350105687E+02  0.10566000000E+00 0.  1.
        994    1    1    2    0    0 -0.66518089030E+01 -0.47591952245E+01  0.57402348953E+01  0.17149136071E+03  0.17120000000E+03 0.  0.
        998    1    1    2    0    0 -0.12838156318E+02 -0.66236004524E+01  0.14492520376E+04  0.14493585336E+04  0.10000000000E+02 0.  1.
</event>
<event>
 5    1  0.1087513E-008  0.3762046E+03  0.7957747E-01  0.3467853E+00
         13   -1    0    0    0    0  0.00000000000E+00  0.00000000000E+00  0.14999999963E+04  0.15000000000E+04  0.10566000000E+00 0. -1.
        994   -1    0    0    0    0 -0.00000000000E+00 -0.00000000000E+00  0.11368683772E-12  0.17120000000E+03  0.17120000000E+03 0.  0.
         13    1    1    2    0    0 -0.15444826572E+02  0.20705108106E+01  0.17753876044E+02  0.23622890625E+02  0.10566000000E+00 0. -1.
        994    1    1    2    0    0  0.48505206735E+01  0.15632453600E+02  0.69689276113E+01  0.17212177988E+03  0.17120000000E+03 0.  0.
        998    1    1    2    0    0  0.10594305899E+02 -0.17702964410E+02  0.14752771926E+04  0.14754553295E+04  0.10000000000E+02 0. -1.
</event>
<event>
 5    1  0.1087513E-008  0.3817810E+03  0.7957747E-01  0.3443440E+00
         13   -1    0    0    0    0  0.00000000000E+00  0.00000000000E+00  0.14999999963E+04  0.15000000000E+04  0.10566000000E+00 0.  1.
        994   -1    0    0    0    0 -0.00000000000E+00 -0.00000000000E+00  0.11368683772E-12  0.17120000000E+03  0.17120000000E+03 0.  0.
         13    1    1    2    0    0 -0.11006360623E+02 -0.18587101520E+02  0.63953719108E+02  0.67503404869E+02  0.10566000000E+00 0.  1.
        994    1    1    2    0    0  0.10160221490E+02  0.36570243714E+02  0.80392859494E+01  0.17554111468E+03  0.17120000000E+03 0.  0.
        998    1    1    2    0    0  0.84613913224E+00 -0.17983142193E+02  0.14280069912E+04  0.14281554804E+04  0.10000000000E+02 0.  1.
</event>
<event>
 5    1  0.1087513E-008  0.3845941E+03  0.7957747E-01  0.3431395E+00
         13   -1    0    0    0    0  0.00000000000E+00  0.00000000000E+00  0.14999999963E+04  0.15000000000E+04  0.10566000000E+00 0.  1.
        994   -1    0    0    0    0 -0.00000000000E+00 -0.00000000000E+00  0.11368683772E-12  0.17120000000E+03  0.17120000000E+03 0.  0.
         13    1    1    2    0    0  0.17652500078E+03  0.16316794490E+03  0.11909351857E+04  0.12149532838E+04  0.10566000000E+00 0.  1.
        994    1    1    2    0    0 -0.17264645055E+03 -0.17058198168E+03  0.22877020392E+03  0.37490032750E+03  0.17120000000E+03 0.  0.
        998    1    1    2    0    0 -0.38785502231E+01  0.74140367793E+01  0.80294606703E+02  0.81346388726E+02  0.10000000000E+02 0.  1.
</event>
<event>
 5    1  0.1087513E-008  0.3731090E+03  0.7957747E-01  0.3481723E+00
         13   -1    0    0    0    0  0.00000000000E+00  0.00000000000E+00  0.14999999963E+04  0.15000000000E+04  0.10566000000E+00 0. -1.
        994   -1    0    0    0    0 -0.00000000000E+00 -0.00000000000E+00  0.11368683772E-12  0.17120000000E+03  0.17120000000E+03 0.  0.
         13    1    1    2    0    0 -0.14651724333E+03  0.19656241163E+02  0.58208723225E+03  0.60056575620E+03  0.10566000000E+00 0. -1.
        994    1    1    2    0    0  0.17081071244E+03 -0.68936340849E+02  0.13440012168E+03  0.28513391815E+03  0.17120000000E+03 0.  0.
        998    1    1    2    0    0 -0.24293469110E+02  0.49280099687E+02  0.78351264235E+03  0.78550032564E+03  0.10000000000E+02 0. -1.
</event>
<event>
 5    1  0.1087513E-008  0.3857264E+03  0.7957747E-01  0.3426597E+00
         13   -1    0    0    0    0  0.00000000000E+00  0.00000000000E+00  0.14999999963E+04  0.15000000000E+04  0.10566000000E+00 0. -1.
        994   -1    0    0    0    0 -0.00000000000E+00 -0.00000000000E+00  0.11368683772E-12  0.17120000000E+03  0.17120000000E+03 0.  0.
         13    1    1    2    0    0  0.50246950856E+01 -0.11152616537E+02  0.59655551918E+02  0.60896834523E+02  0.10566000000E+00 0. -1.
        994    1    1    2    0    0 -0.39152631584E+01  0.64249113061E+01  0.14556537910E+01  0.17137143198E+03  0.17120000000E+03 0.  0.
        998    1    1    2    0    0 -0.11094319272E+01  0.47277052307E+01  0.14388887906E+04  0.14389317335E+04  0.10000000000E+02 0. -1.
</event>
<event>
 5    1  0.1087513E-008  0.3813621E+03  0.7957747E-01  0.3445249E+00
         13   -1    0    0    0    0  0.00000000000E+00  0.00000000000E+00  0.14999999963E+04  0.15000000000E+04  0.10566000000E+00 0.  1.
        994   -1    0    0    0    0 -0.00000000000E+00 -0.00000000000E+00  0.11368683772E-12  0.17120000000E+03  0.17120000000E+03 0.  0.
         13    1    1    2    0    0 -0.28450557930E+02  0.47172461426E+01  0.14017595989E+03  0.14311183583E+03  0.10566000000E+00 0.  1.
        994    1    1    2    0    0 -0.38486545395E+01  0.13469582195E+02  0.41005003272E+01  0.17182111596E+03  0.17120000000E+03 0.  0.
        998    1    1    2    0    0  0.32299212469E+02 -0.18186828337E+02  0.13557235361E+04  0.13562670482E+04  0.10000000000E+02 0.  1.
</event>
<event>
 5    1  0.1087513E-008  0.3762422E+03  0.7957747E-01  0.3467686E+00
         13   -1    0    0    0    0  0.00000000000E+00  0.00000000000E+00  0.14999999963E+04  0.15000000000E+04  0.10566000000E+00 0. -1.
        994   -1    0    0    0    0 -0.00000000000E+00 -0.00000000000E+00  0.11368683772E-12  0.17120000000E+03  0.17120000000E+03 0.  0.
         13    1    1    2    0    0  0.36507946946E+02 -0.24303399519E+02  0.17683005481E+03  0.18218771876E+03  0.10566000000E+00 0. -1.
        994    1    1    2    0    0 -0.35470390663E+01  0.50427476060E+01  0.61708767078E+01  0.17142208291E+03  0.17120000000E+03 0.  0.
        998    1    1    2    0    0 -0.32960907879E+02  0.19260651913E+02  0.13169990648E+04  0.13175901983E+04  0.10000000000E+02 0. -1.
</event>
<event>
 5    1  0.1087513E-008  0.3847011E+03  0.7957747E-01  0.3430941E+00
         13   -1    0    0    0    0  0.00000000000E+00  0.00000000000E+00  0.14999999963E+04  0.15000000000E+04  0.10566000000E+00 0.  1.
        994   -1    0    0    0    0 -0.00000000000E+00 -0.00000000000E+00  0.11368683772E-12  0.17120000000E+03  0.17120000000E+03 0.  0.
         13    1    1    2    0    0 -0.71591894767E+01 -0.96418389670E+02  0.21969523002E+03  0.24002867562E+03  0.10566000000E+00 0.  1.
        994    1    1    2    0    0 -0.19583616936E+02  0.83600355877E+02  0.46656808041E+02  0.19712644493E+03  0.17120000000E+03 0.  0.
        998    1    1    2    0    0  0.26742806413E+02  0.12818033793E+02  0.12336479582E+04  0.12340448795E+04  0.10000000000E+02 0.  1.
</event>
<event>
 5    1  0.1087513E-008  0.3857480E+03  0.7957747E-01  0.3426506E+00
         13   -1    0    0    0    0  0.00000000000E+00  0.00000000000E+00  0.14999999963E+04  0.15000000000E+04  0.10566000000E+00 0. -1.
        994   -1    0    0    0    0 -0.00000000000E+00 -0.00000000000E+00  0.11368683772E-12  0.17120000000E+03  0.17120000000E+03 0.  0.
         13    1    1    2    0    0  0.14945848376E+01  0.13990476681E+02  0.75094953754E+02  0.76401770038E+02  0.10566000000E+00 0. -1.
        994    1    1    2    0    0  0.70436279418E+00 -0.16453679942E+02  0.21495078234E+01  0.17200372116E+03  0.17120000000E+03 0.  0.
        998    1    1    2    0    0 -0.21989476318E+01  0.24632032606E+01  0.14227555347E+04  0.14227945088E+04  0.10000000000E+02 0. -1.
</event>
<event>
 5    1  0.1087513E-008  0.3826140E+03  0.7957747E-01  0.3439855E+00
         13   -1    0    0    0    0  0.00000000000E+00  0.00000000000E+00  0.14999999963E+04  0.15000000000E+04  0.10566000000E+00 0. -1.
        994   -1    0    0    0    0 -0.00000000000E+00 -0.00000000000E+00  0.11368683772E-12  0.17120000000E+03  0.17120000000E+03 0.  0.
         13    1    1    2    0    0  0.16769686098E+02  0.15339030513E+02  0.96644657805E+02  0.99280961293E+02  0.10566000000E+00 0. -1.
        994    1    1    2    0    0 -0.11312170839E+02  0.65913107742E+01  0.33877060142E+01  0.17173330236E+03  0.17120000000E+03 0.  0.
        998    1    1    2    0    0 -0.54575152588E+01 -0.21930341287E+02  0.13999676325E+04  0.14001857363E+04  0.10000000000E+02 0. -1.
</event>
<event>
 5    1  0.1087513E-008  0.3829595E+03  0.7957747E-01  0.3438372E+00
         13   -1    0    0    0    0  0.00000000000E+00  0.00000000000E+00  0.14999999963E+04  0.15000000000E+04  0.10566000000E+00 0. -1.
        994   -1    0    0    0    0 -0.00000000000E+00 -0.00000000000E+00  0.11368683772E-12  0.17120000000E+03  0.17120000000E+03 0.  0.
         13    1    1    2    0    0  0.12547055407E+02 -0.27448274371E+01  0.29573631001E+02  0.32242417584E+02  0.10566000000E+00 0. -1.
        994    1    1    2    0    0 -0.17284164011E+02 -0.76620286292E+01  0.38308305205E+01  0.17228338362E+03  0.17120000000E+03 0.  0.
        998    1    1    2    0    0  0.47371086040E+01  0.10406856066E+02  0.14665955348E+04  0.14666741988E+04  0.10000000000E+02 0. -1.
</event>
<event>
 5    1  0.1087513E-008  0.3825058E+03  0.7957747E-01  0.3440320E+00
         13   -1    0    0    0    0  0.00000000000E+00  0.00000000000E+00  0.14999999963E+04  0.15000000000E+04  0.10566000000E+00 0.  1.
        994   -1    0    0    0    0 -0.00000000000E+00 -0.00000000000E+00  0.11368683772E-12  0.17120000000E+03  0.17120000000E+03 0.  0.
         13    1    1    2    0    0 -0.25392857562E+02  0.13323921627E+02  0.12766766360E+03  0.13084864384E+03  0.10566000000E+00 0.  1.
        994    1    1    2    0    0  0.28592748443E+02 -0.17014712323E+02  0.65525998641E+01  0.17452627958E+03  0.17120000000E+03 0.  0.
        998    1    1    2    0    0 -0.31998908804E+01  0.36907906965E+01  0.13657797328E+04  0.13658250766E+04  0.10000000000E+02 0.  1.
</event>
<event>
 5    1  0.1087513E-008  0.3848422E+03  0.7957747E-01  0.3430342E+00
         13   -1    0    0    0    0  0.00000000000E+00  0.00000000000E+00  0.14999999963E+04  0.15000000000E+04  0.10566000000E+00 0. -1.
        994   -1    0    0    0    0 -0.00000000000E+00 -0.00000000000E+00  0.11368683772E-12  0.17120000000E+03  0.17120000000E+03 0.  0.
         13    1    1    2    0    0 -0.71273076383E+01  0.12262288608E+02  0.67207370193E+02  0.68687728223E+02  0.10566000000E+00 0. -1.
        994    1    1    2    0    0  0.78369264696E+01  0.17365674793E+02  0.29037372175E+01  0.17228132739E+03  0.17120000000E+03 0.  0.
        998    1    1    2    0    0 -0.70961883127E+00 -0.29627963401E+02  0.14298888889E+04  0.14302309444E+04  0.10000000000E+02 0. -1.
</event>
<event>
 5    1  0.1087513E-008  0.3796069E+03  0.7957747E-01  0.3452872E+00
         13   -1    0    0    0    0  0.00000000000E+00  0.00000000000E+00  0.14999999963E+04  0.15000000000E+04  0.10566000000E+00 0. -1.
        994   -1    0    0    0    0 -0.00000000000E+00 -0.00000000000E+00  0.11368683772E-12  0.17120000000E+03  0.17120000000E+03 0.  0.
         13    1    1    2    0    0  0.35309931475E+02 -0.90908366550E+01  0.15438337558E+03  0.15863061618E+03  0.10566000000E+00 0. -1.
        994    1    1    2    0    0 -0.14833555672E+02  0.19235238428E+02  0.63091905553E+01  0.17302969299E+03  0.17120000000E+03 0.  0.
        998    1    1    2    0    0 -0.20476375802E+02 -0.10144401773E+02  0.13393074301E+04  0.13395396908E+04  0.10000000000E+02 0. -1.
</event>
<event>
 5    1  0.1087513E-008  0.3800644E+03  0.7957747E-01  0.3450878E+00
         13   -1    0    0    0    0  0.00000000000E+00  0.00000000000E+00  0.14999999963E+04  0.15000000000E+04  0.10566000000E+00 0. -1.
        994   -1    0    0    0    0 -0.00000000000E+00 -0.00000000000E+00  0.11368683772E-12  0.17120000000E+03  0.17120000000E+03 0.  0.
         13    1    1    2    0    0 -0.38040423114E+01 -0.93253264513E+01  0.10659713254E+02  0.14665370845E+02  0.10566000000E+00 0. -1.
        994    1    1    2    0    0 -0.24668700656E+01  0.44740258237E+01  0.41878902040E+01  0.17132740814E+03  0.17120000000E+03 0.  0.
        998    1    1    2    0    0  0.62709123770E+01  0.48513006276E+01  0.14851523928E+04  0.14852072210E+04  0.10000000000E+02 0. -1.
</event>
<event>
 5    1  0.1087513E-008  0.3815581E+03  0.7957747E-01  0.3444402E+00
         13   -1    0    0    0    0  0.00000000000E+00  0.00000000000E+00  0.14999999963E+04  0.15000000000E+04  0.10566000000E+00 0.  1.
        994   -1    0    0    0    0 -0.00000000000E+00 -0.00000000000E+00  0.11368683772E-12  0.17120000000E+03  0.17120000000E+03 0.  0.
         13    1    1    2    0    0  0.13489965938E+02  0.90927829349E+01  0.37550352684E+02  0.40923074582E+02  0.10566000000E+00 0.  1.
        994    1    1    2    0    0 -0.16049519299E+02 -0.54395817714E+01  0.43043400143E+01  0.17209050951E+03  0.17120000000E+03 0.  0.
        998    1    1    2    0    0  0.25595533611E+01 -0.36532011635E+01  0.14581453036E+04  0.14581864159E+04  0.10000000000E+02 0.  1.
</event>
<event>
 5    1  0.1087513E-008  0.3807756E+03  0.7957747E-01  0.3447788E+00
         13   -1    0    0    0    0  0.00000000000E+00  0.00000000000E+00  0.14999999963E+04  0.15000000000E+04  0.10566000000E+00 0.  1.
        994   -1    0    0    0    0 -0.00000000000E+00 -0.00000000000E+00  0.11368683772E-12  0.17120000000E+03  0.17120000000E+03 0.  0.
         13    1    1    2    0    0 -0.78745461501E+01 -0.36398024717E+02  0.20421396613E+03  0.20758174247E+03  0.10566000000E+00 0.  1.
        994    1    1    2    0    0 -0.89345068958E+01  0.10842026791E+02  0.44005310459E+01  0.17183183533E+03  0.17120000000E+03 0.  0.
        998    1    1    2    0    0  0.16809053046E+02  0.25555997926E+02  0.12913854991E+04  0.12917864222E+04  0.10000000000E+02 0.  1.
</event>
<event>
 5    1  0.1087513E-008  0.3985599E+03  0.7957747E-01  0.3374123E+00
         13   -1    0    0    0    0  0.00000000000E+00  0.00000000000E+00  0.14999999963E+04  0.15000000000E+04  0.10566000000E+00 0. -1.
        994   -1    0    0    0    0 -0.00000000000E+00 -0.00000000000E+00  0.11368683772E-12  0.17120000000E+03  0.17120000000E+03 0.  0.
         13    1    1    2    0    0  0.13510180034E+02 -0.42681849590E+02  0.27501714217E+02  0.52541609205E+02  0.10566000000E+00 0. -1.
        994    1    1    2    0    0 -0.12996971992E+02  0.26454926534E+02  0.30308944030E+02  0.17634300810E+03  0.17120000000E+03 0.  0.
        998    1    1    2    0    0 -0.51320804117E+00  0.16226923056E+02  0.14421893380E+04  0.14423153827E+04  0.10000000000E+02 0. -1.
</event>
<event>
 5    1  0.1087513E-008  0.3838224E+03  0.7957747E-01  0.3434682E+00
         13   -1    0    0    0    0  0.00000000000E+00  0.00000000000E+00  0.14999999963E+04  0.15000000000E+04  0.10566000000E+00 0. -1.
        994   -1    0    0    0    0 -0.00000000000E+00 -0.00000000000E+00  0.11368683772E-12  0.17120000000E+03  0.17120000000E+03 0.  0.
         13    1    1    2    0    0 -0.49822174663E+01  0.18336089256E+02  0.82907484629E+02  0.85057021060E+02  0.10566000000E+00 0. -1.
        994    1    1    2    0    0 -0.41053104295E+01 -0.98045423624E+01  0.25889910637E+01  0.17154919265E+03  0.17120000000E+03 0.  0.
        998    1    1    2    0    0  0.90875278958E+01 -0.85315468931E+01  0.14145035206E+04  0.14145937863E+04  0.10000000000E+02 0. -1.
</event>
<event>
 5    1  0.1087513E-008  0.3809449E+03  0.7957747E-01  0.3447054E+00
         13   -1    0    0    0    0  0.00000000000E+00  0.00000000000E+00  0.14999999963E+04  0.15000000000E+04  0.10566000000E+00 0. -1.
        994   -1    0    0    0    0 -0.00000000000E+00 -0.00000000000E+00  0.11368683772E-12  0.17120000000E+03  0.17120000000E+03 0.  0.
         13    1    1    2    0    0  0.90657223458E+01  0.78681276795E+01 -0.35312457425E+01  0.12513017836E+02  0.10566000000E+00 0. -1.
        994    1    1    2    0    0 -0.71016682115E+01 -0.10679232493E+02  0.17445679937E+02  0.17256381847E+03  0.17120000000E+03 0.  0.
        998    1    1    2    0    0 -0.19640541343E+01  0.28111048130E+01  0.14860855621E+04  0.14861231637E+04  0.10000000000E+02 0. -1.
</event>
<event>
 5    1  0.1087513E-008  0.2819098E+03  0.7957747E-01  0.4034279E+00
         13   -1    0    0    0    0  0.00000000000E+00  0.00000000000E+00  0.14999999963E+04  0.15000000000E+04  0.10566000000E+00 0. -1.
        994   -1    0    0    0    0 -0.00000000000E+00 -0.00000000000E+00  0.11368683772E-12  0.17120000000E+03  0.17120000000E+03 0.  0.
         13    1    1    2    0    0 -0.12712634059E+03 -0.60936892667E+02  0.64479057813E+03  0.66002220581E+03  0.10566000000E+00 0. -1.
        994    1    1    2    0    0  0.56223116613E+02  0.76435484210E+02  0.49173223005E+02  0.20181889889E+03  0.17120000000E+03 0.  0.
        998    1    1    2    0    0  0.70903223980E+02 -0.15498591543E+02  0.80603619515E+03  0.80935889530E+03  0.10000000000E+02 0.  1.
</event>
<event>
 5    1  0.1087513E-008  0.3787330E+03  0.7957747E-01  0.3456694E+00
         13   -1    0    0    0    0  0.00000000000E+00  0.00000000000E+00  0.14999999963E+04  0.15000000000E+04  0.10566000000E+00 0. -1.
        994   -1    0    0    0    0 -0.00000000000E+00 -0.00000000000E+00  0.11368683772E-12  0.17120000000E+03  0.17120000000E+03 0.  0.
         13    1    1    2    0    0 -0.10675281202E+02  0.32153986109E+02  0.11681432905E+03  0.12162828243E+03  0.10566000000E+00 0. -1.
        994    1    1    2    0    0 -0.68499958223E+01 -0.26853850108E+02  0.73567080670E+01  0.17358459857E+03  0.17120000000E+03 0.  0.
        998    1    1    2    0    0  0.17525277025E+02 -0.53001360010E+01  0.13758289592E+04  0.13759871190E+04  0.10000000000E+02 0. -1.
</event>
<event>
 5    1  0.1087513E-008  0.3723809E+03  0.7957747E-01  0.3485020E+00
         13   -1    0    0    0    0  0.00000000000E+00  0.00000000000E+00  0.14999999963E+04  0.15000000000E+04  0.10566000000E+00 0.  1.
        994   -1    0    0    0    0 -0.00000000000E+00 -0.00000000000E+00  0.11368683772E-12  0.17120000000E+03  0.17120000000E+03 0.  0.
         13    1    1    2    0    0  0.59997871793E+02 -0.79442353563E+02  0.44135720479E+03  0.45244560506E+03  0.10566000000E+00 0.  1.
        994    1    1    2    0    0 -0.64855288472E+02  0.71365795659E+02  0.40628608998E+02  0.20064747470E+03  0.17120000000E+03 0.  0.
        998    1    1    2    0    0  0.48574166786E+01  0.80765579035E+01  0.10180141825E+04  0.10181069202E+04  0.10000000000E+02 0.  1.
</event>
<event>
 5    1  0.1087513E-008  0.3798219E+03  0.7957747E-01  0.3451934E+00
         13   -1    0    0    0    0  0.00000000000E+00  0.00000000000E+00  0.14999999963E+04  0.15000000000E+04  0.10566000000E+00 0. -1.
        994   -1    0    0    0    0 -0.00000000000E+00 -0.00000000000E+00  0.11368683772E-12  0.17120000000E+03  0.17120000000E+03 0.  0.
         13    1    1    2    0    0  0.18144424151E+02  0.19372899095E+03  0.10424709824E+04  0.10604743761E+04  0.10566000000E+00 0. -1.
        994    1    1    2    0    0 -0.15356314366E+02 -0.19236735391E+03  0.14093996253E+03  0.29396348120E+03  0.17120000000E+03 0.  0.
        998    1    1    2    0    0 -0.27881097853E+01 -0.13616370398E+01  0.31658905133E+03  0.31676214267E+03  0.10000000000E+02 0.  0.
</event>
<event>
 5    1  0.1087513E-008  0.3787038E+03  0.7957747E-01  0.3456822E+00
         13   -1    0    0    0    0  0.00000000000E+00  0.00000000000E+00  0.14999999963E+04  0.15000000000E+04  0.10566000000E+00 0. -1.
        994   -1    0    0    0    0 -0.00000000000E+00 -0.00000000000E+00  0.11368683772E-12  0.17120000000E+03  0.17120000000E+03 0.  0.
         13    1    1    2    0    0  0.12822027115E+02  0.33028166066E+02  0.13671487184E+03  0.14123112787E+03  0.10566000000E+00 0. -1.
        994    1    1    2    0    0 -0.14608420469E+01 -0.11628462870E+02  0.52501578979E+01  0.17168098138E+03  0.17120000000E+03 0.  0.
        998    1    1    2    0    0 -0.11361185068E+02 -0.21399703196E+02  0.13580349665E+04  0.13582878908E+04  0.10000000000E+02 0. -1.
</event>
<event>
 5    1  0.1087513E-008  0.2796364E+03  0.7957747E-01  0.4053055E+00
         13   -1    0    0    0    0  0.00000000000E+00  0.00000000000E+00  0.14999999963E+04  0.15000000000E+04  0.10566000000E+00 0.  1.
        994   -1    0    0    0    0 -0.00000000000E+00 -0.00000000000E+00  0.11368683772E-12  0.17120000000E+03  0.17120000000E+03 0.  0.
         13    1    1    2    0    0  0.59315375892E+02 -0.17196860156E+03  0.72783279073E+03  0.75022136477E+03  0.10566000000E+00 0.  1.
        994    1    1    2    0    0  0.44717848663E+01  0.48094851253E+02  0.49091694197E+02  0.18453331953E+03  0.17120000000E+03 0.  0.
        998    1    1    2    0    0 -0.63787160758E+02  0.12387375031E+03  0.72307551135E+03  0.73644531570E+03  0.10000000000E+02 0.  1.
</event>
<event>
 5    1  0.1087513E-008  0.3752155E+03  0.7957747E-01  0.3472259E+00
         13   -1    0    0    0    0  0.00000000000E+00  0.00000000000E+00  0.14999999963E+04  0.15000000000E+04  0.10566000000E+00 0.  1.
        994   -1    0    0    0    0 -0.00000000000E+00 -0.00000000000E+00  0.11368683772E-12  0.17120000000E+03  0.17120000000E+03 0.  0.
         13    1    1    2    0    0  0.56728984427E+01 -0.23557492731E+02  0.41707301554E+02  0.48235333600E+02  0.10566000000E+00 0.  1.
        994    1    1    2    0    0 -0.52696126594E+01  0.18522005242E+02  0.78287179299E+01  0.17245742176E+03  0.17120000000E+03 0.  0.
        998    1    1    2    0    0 -0.40328578330E+00  0.50354874890E+01  0.14504639768E+04  0.14505072446E+04  0.10000000000E+02 0.  1.
</event>
<event>
 5    1  0.1087513E-008  0.3702832E+03  0.7957747E-01  0.3494590E+00
         13   -1    0    0    0    0  0.00000000000E+00  0.00000000000E+00  0.14999999963E+04  0.15000000000E+04  0.10566000000E+00 0. -1.
        994   -1    0    0    0    0 -0.00000000000E+00 -0.00000000000E+00  0.11368683772E-12  0.17120000000E+03  0.17120000000E+03 0.  0.
         13    1    1    2    0    0 -0.21607018520E+02 -0.97620479405E+02  0.39959878259E+03  0.41191724832E+03  0.10566000000E+00 0. -1.
        994    1    1    2    0    0  0.10348018107E+02  0.98418840939E+02  0.43752855636E+02  0.20252679355E+03  0.17120000000E+03 0.  0.
        998    1    1    2    0    0  0.11259000414E+02 -0.79836153448E+00  0.10566483580E+04  0.10567559581E+04  0.10000000000E+02 0. -1.
</event>
<event>
 5    1  0.1087513E-008  0.3735072E+03  0.7957747E-01  0.3479926E+00
         13   -1    0    0    0    0  0.00000000000E+00  0.00000000000E+00  0.14999999963E+04  0.15000000000E+04  0.10566000000E+00 0. -1.
        994   -1    0    0    0    0 -0.00000000000E+00 -0.00000000000E+00  0.11368683772E-12  0.17120000000E+03  0.17120000000E+03 0.  0.
         13    1    1    2    0    0 -0.56551596901E+02  0.75350507630E+02  0.42563408651E+03  0.43593596878E+03  0.10566000000E+00 0. -1.
        994    1    1    2    0    0  0.68913022691E+02 -0.64702966012E+02  0.38618263683E+02  0.19933963178E+03  0.17120000000E+03 0.  0.
        998    1    1    2    0    0 -0.12361425791E+02 -0.10647541617E+02  0.10357476461E+04  0.10359243994E+04  0.10000000000E+02 0. -1.
</event>
<event>
 5    1  0.1087513E-008  0.3788763E+03  0.7957747E-01  0.3456066E+00
         13   -1    0    0    0    0  0.00000000000E+00  0.00000000000E+00  0.14999999963E+04  0.15000000000E+04  0.10566000000E+00 0.  1.
        994   -1    0    0    0    0 -0.00000000000E+00 -0.00000000000E+00  0.11368683772E-12  0.17120000000E+03  0.17120000000E+03 0.  0.
         13    1    1    2    0    0 -0.65974812415E+02  0.48435928972E+02  0.48790719028E+03  0.49472431977E+03  0.10566000000E+00 0.  1.
        994    1    1    2    0    0  0.81969621701E+02 -0.26806792991E+02  0.30076806121E+02  0.19404040120E+03  0.17120000000E+03 0.  0.
        998    1    1    2    0    0 -0.15994809286E+02 -0.21629135980E+02  0.98201599988E+03  0.98243527902E+03  0.10000000000E+02 0.  1.
</event>
<event>
 5    1  0.1087513E-008  0.3735482E+03  0.7957747E-01  0.3479741E+00
         13   -1    0    0    0    0  0.00000000000E+00  0.00000000000E+00  0.14999999963E+04  0.15000000000E+04  0.10566000000E+00 0. -1.
        994   -1    0    0    0    0 -0.00000000000E+00 -0.00000000000E+00  0.11368683772E-12  0.17120000000E+03  0.17120000000E+03 0.  0.
         13    1    1    2    0    0  0.30215493265E+02 -0.35681029805E+02  0.19193332643E+03  0.19754626010E+03  0.10566000000E+00 0. -1.
        994    1    1    2    0    0 -0.60223726629E+01 -0.31855349751E+02  0.11024836473E+02  0.17459100578E+03  0.17120000000E+03 0.  0.
        998    1    1    2    0    0 -0.24193120602E+02  0.67536379556E+02  0.12970418334E+04  0.12990627341E+04  0.10000000000E+02 0. -1.
</event>
<event>
 5    1  0.1087513E-008  0.3727989E+03  0.7957747E-01  0.3483126E+00
         13   -1    0    0    0    0  0.00000000000E+00  0.00000000000E+00  0.14999999963E+04  0.15000000000E+04  0.10566000000E+00 0.  1.
        994   -1    0    0    0    0 -0.00000000000E+00 -0.00000000000E+00  0.11368683772E-12  0.17120000000E+03  0.17120000000E+03 0.  0.
         13    1    1    2    0    0  0.32292365461E+02  0.19983310544E+02  0.91274775483E+02  0.98859624574E+02  0.10566000000E+00 0.  1.
        994    1    1    2    0    0  0.18926608700E+01 -0.38773680745E+02  0.12991828873E+02  0.17602615743E+03  0.17120000000E+03 0.  0.
        998    1    1    2    0    0 -0.34185026331E+02  0.18790370200E+02  0.13957333919E+04  0.13963142180E+04  0.10000000000E+02 0.  1.
</event>
<event>
 5    1  0.1087513E-008  0.3845798E+03  0.7957747E-01  0.3431456E+00
         13   -1    0    0    0    0  0.00000000000E+00  0.00000000000E+00  0.14999999963E+04  0.15000000000E+04  0.10566000000E+00 0. -1.
        994   -1    0    0    0    0 -0.00000000000E+00 -0.00000000000E+00  0.11368683772E-12  0.17120000000E+03  0.17120000000E+03 0.  0.
         13    1    1    2    0    0 -0.15918192500E+02 -0.60636762754E+01  0.82080654102E+02  0.83829600765E+02  0.10566000000E+00 0. -1.
        994    1    1    2    0    0 -0.15091579698E+01  0.18744213105E+02  0.30042958244E+01  0.17225588198E+03  0.17120000000E+03 0.  0.
        998    1    1    2    0    0  0.17427350470E+02 -0.12680536830E+02  0.14149150464E+04  0.14151145173E+04  0.10000000000E+02 0. -1.
</event>
<event>
 5    1  0.1087513E-008  0.3780625E+03  0.7957747E-01  0.3459638E+00
         13   -1    0    0    0    0  0.00000000000E+00  0.00000000000E+00  0.14999999963E+04  0.15000000000E+04  0.10566000000E+00 0.  1.
        994   -1    0    0    0    0 -0.00000000000E+00 -0.00000000000E+00  0.11368683772E-12  0.17120000000E+03  0.17120000000E+03 0.  0.
         13    1    1    2    0    0 -0.12325363096E+02 -0.76805852592E+01  0.17894918227E+02  0.23046588202E+02  0.10566000000E+00 0.  1.
        994    1    1    2    0    0  0.22822588476E+02  0.48014815834E+01  0.69465654042E+01  0.17292084762E+03  0.17120000000E+03 0.  0.
        998    1    1    2    0    0 -0.10497225380E+02  0.28791036759E+01  0.14751585126E+04  0.14752325642E+04  0.10000000000E+02 0.  1.
</event>
<event>
 5    1  0.1087513E-008  0.3779431E+03  0.7957747E-01  0.3460164E+00
         13   -1    0    0    0    0  0.00000000000E+00  0.00000000000E+00  0.14999999963E+04  0.15000000000E+04  0.10566000000E+00 0. -1.
        994   -1    0    0    0    0 -0.00000000000E+00 -0.00000000000E+00  0.11368683772E-12  0.17120000000E+03  0.17120000000E+03 0.  0.
         13    1    1    2    0    0 -0.56089065060E+02 -0.66760955357E+01  0.26675161236E+03  0.27266643968E+03  0.10566000000E+00 0. -1.
        994    1    1    2    0    0  0.47876559029E+02  0.30972913222E+02  0.16198136260E+02  0.18117203392E+03  0.17120000000E+03 0.  0.
        998    1    1    2    0    0  0.82125060305E+01 -0.24296817686E+02  0.12170502477E+04  0.12173615264E+04  0.10000000000E+02 0. -1.
</event>
<event>
 5    1  0.1087513E-008  0.3799415E+03  0.7957747E-01  0.3451413E+00
         13   -1    0    0    0    0  0.00000000000E+00  0.00000000000E+00  0.14999999963E+04  0.15000000000E+04  0.10566000000E+00 0.  1.
        994   -1    0    0    0    0 -0.00000000000E+00 -0.00000000000E+00  0.11368683772E-12  0.17120000000E+03  0.17120000000E+03 0.  0.
         13    1    1    2    0    0 -0.67852036868E+02  0.67151487386E+01  0.40525120043E+03  0.41094712402E+03  0.10566000000E+00 0.  1.
        994    1    1    2    0    0  0.69976452751E+02  0.60328279335E+01  0.20837109574E+02  0.18621687380E+03  0.17120000000E+03 0.  0.
        998    1    1    2    0    0 -0.21244158828E+01 -0.12747976672E+02  0.10739116863E+04  0.10740360022E+04  0.10000000000E+02 0.  1.
</event>
<event>
 5    1  0.1087513E-008  0.3687823E+03  0.7957747E-01  0.3501506E+00
         13   -1    0    0    0    0  0.00000000000E+00  0.00000000000E+00  0.14999999963E+04  0.15000000000E+04  0.10566000000E+00 0. -1.
        994   -1    0    0    0    0 -0.00000000000E+00 -0.00000000000E+00  0.11368683772E-12  0.17120000000E+03  0.17120000000E+03 0.  0.
         13    1    1    2    0    0 -0.35211707617E+01  0.10658481146E+02  0.17022770259E+01  0.11353888100E+02  0.10566000000E+00 0. -1.
        994    1    1    2    0    0  0.28698857769E+01 -0.13460973551E+02  0.10564995031E+02  0.17207699780E+03  0.17120000000E+03 0.  0.
        998    1    1    2    0    0  0.65128498480E+00  0.28024924050E+01  0.14877327242E+04  0.14877691141E+04  0.10000000000E+02 0. -1.
</event>
<event>
 5    1  0.1087513E-008  0.3830342E+03  0.7957747E-01  0.3438052E+00
         13   -1    0    0    0    0  0.00000000000E+00  0.00000000000E+00  0.14999999963E+04  0.15000000000E+04  0.10566000000E+00 0. -1.
        994   -1    0    0    0    0 -0.00000000000E+00 -0.00000000000E+00  0.11368683772E-12  0.17120000000E+03  0.17120000000E+03 0.  0.
         13    1    1    2    0    0 -0.99475074642E+01 -0.15661872095E+02  0.61330467128E+02  0.64075615522E+02  0.10566000000E+00 0. -1.
        994    1    1    2    0    0  0.18256621254E+02  0.17380628220E+02  0.47150881689E+01  0.17310997231E+03  0.17120000000E+03 0.  0.
        998    1    1    2    0    0 -0.83091137895E+01 -0.17187561255E+01  0.14339544410E+04  0.14340144122E+04  0.10000000000E+02 0. -1.
</event>
<event>
 5    1  0.1087513E-008  0.3693025E+03  0.7957747E-01  0.3499103E+00
         13   -1    0    0    0    0  0.00000000000E+00  0.00000000000E+00  0.14999999963E+04  0.15000000000E+04  0.10566000000E+00 0. -1.
        994   -1    0    0    0    0 -0.00000000000E+00 -0.00000000000E+00  0.11368683772E-12  0.17120000000E+03  0.17120000000E+03 0.  0.
         13    1    1    2    0    0 -0.89795876371E+02  0.61039694321E+01  0.33292022000E+03  0.34487163106E+03  0.10566000000E+00 0. -1.
        994    1    1    2    0    0  0.85115784342E+02 -0.87000218068E+01  0.35453508648E+02  0.19464526298E+03  0.17120000000E+03 0.  0.
        998    1    1    2    0    0  0.46800920290E+01  0.25960523747E+01  0.11316262676E+04  0.11316831060E+04  0.10000000000E+02 0. -1.
</event>
<event>
 5    1  0.1087513E-008  0.3849800E+03  0.7957747E-01  0.3429757E+00
         13   -1    0    0    0    0  0.00000000000E+00  0.00000000000E+00  0.14999999963E+04  0.15000000000E+04  0.10566000000E+00 0.  1.
        994   -1    0    0    0    0 -0.00000000000E+00 -0.00000000000E+00  0.11368683772E-12  0.17120000000E+03  0.17120000000E+03 0.  0.
         13    1    1    2    0    0 -0.67849244960E+01 -0.10178585093E+02  0.54681386216E+02  0.56033061290E+02  0.10566000000E+00 0.  1.
        994    1    1    2    0    0 -0.20750694306E+02 -0.12855863838E+02  0.36022545672E+01  0.17296901684E+03  0.17120000000E+03 0.  0.
        998    1    1    2    0    0  0.27535618802E+02  0.23034448931E+02  0.14417163555E+04  0.14421979219E+04  0.10000000000E+02 0.  1.
</event>
<event>
 5    1  0.1087513E-008  0.3843547E+03  0.7957747E-01  0.3432414E+00
         13   -1    0    0    0    0  0.00000000000E+00  0.00000000000E+00  0.14999999963E+04  0.15000000000E+04  0.10566000000E+00 0. -1.
        994   -1    0    0    0    0 -0.00000000000E+00 -0.00000000000E+00  0.11368683772E-12  0.17120000000E+03  0.17120000000E+03 0.  0.
         13    1    1    2    0    0 -0.29371082436E+01  0.26830206119E+02  0.16063412735E+03  0.16288591283E+03  0.10566000000E+00 0. -1.
        994    1    1    2    0    0 -0.13121727966E+02 -0.34899353153E+02  0.65456510710E+01  0.17533519368E+03  0.17120000000E+03 0.  0.
        998    1    1    2    0    0  0.16058836209E+02  0.80691470344E+01  0.13328202179E+04  0.13329788935E+04  0.10000000000E+02 0. -1.
</event>
<event>
 5    1  0.1087513E-008  0.3815676E+03  0.7957747E-01  0.3444361E+00
         13   -1    0    0    0    0  0.00000000000E+00  0.00000000000E+00  0.14999999963E+04  0.15000000000E+04  0.10566000000E+00 0. -1.
        994   -1    0    0    0    0 -0.00000000000E+00 -0.00000000000E+00  0.11368683772E-12  0.17120000000E+03  0.17120000000E+03 0.  0.
         13    1    1    2    0    0 -0.45453096255E+01  0.21014044619E+02  0.65866511508E+02  0.69286783828E+02  0.10566000000E+00 0. -1.
        994    1    1    2    0    0  0.23583831618E+01 -0.20538668267E+02  0.47665925116E+01  0.17250959182E+03  0.17120000000E+03 0.  0.
        998    1    1    2    0    0  0.21869264637E+01 -0.47537635178E+00  0.14293668923E+04  0.14294036244E+04  0.10000000000E+02 0. -1.
</event>
<event>
 5    1  0.1087513E-008  0.3687749E+03  0.7957747E-01  0.3501540E+00
         13   -1    0    0    0    0  0.00000000000E+00  0.00000000000E+00  0.14999999963E+04  0.15000000000E+04  0.10566000000E+00 0.  1.
        994   -1    0    0    0    0 -0.00000000000E+00 -0.00000000000E+00  0.11368683772E-12  0.17120000000E+03  0.17120000000E+03 0.  0.
         13    1    1    2    0    0 -0.25505303150E+02  0.56630876630E+01  0.27880996377E+02  0.38209320508E+02  0.10566000000E+00 0.  1.
        994    1    1    2    0    0  0.36067279128E+02  0.98368612289E+01  0.15173336878E+02  0.17588997304E+03  0.17120000000E+03 0.  0.
        998    1    1    2    0    0 -0.10561975978E+02 -0.15499948892E+02  0.14569456630E+04  0.14571007065E+04  0.10000000000E+02 0.  1.
</event>
<event>
 5    1  0.1087513E-008  0.3841459E+03  0.7957747E-01  0.3433303E+00
         13   -1    0    0    0    0  0.00000000000E+00  0.00000000000E+00  0.14999999963E+04  0.15000000000E+04  0.10566000000E+00 0.  1.
        994   -1    0    0    0    0 -0.00000000000E+00 -0.00000000000E+00  0.11368683772E-12  0.17120000000E+03  0.17120000000E+03 0.  0.
         13    1    1    2    0    0 -0.66226466468E+01 -0.12426422738E+02  0.48896165526E+02  0.50883411814E+02  0.10566000000E+00 0.  1.
        994    1    1    2    0    0  0.11821024458E+02 -0.61825415876E+00  0.25170125154E+01  0.17162719543E+03  0.17120000000E+03 0.  0.
        998    1    1    2    0    0 -0.51983778117E+01  0.13044676896E+02  0.14485868182E+04  0.14486893928E+04  0.10000000000E+02 0.  1.
</event>
<event>
 5    1  0.1087513E-008  0.3703062E+03  0.7957747E-01  0.3494485E+00
         13   -1    0    0    0    0  0.00000000000E+00  0.00000000000E+00  0.14999999963E+04  0.15000000000E+04  0.10566000000E+00 0. -1.
        994   -1    0    0    0    0 -0.00000000000E+00 -0.00000000000E+00  0.11368683772E-12  0.17120000000E+03  0.17120000000E+03 0.  0.
         13    1    1    2    0    0 -0.34677562509E+02  0.13296525286E+02  0.71383204938E+02  0.80466788413E+02  0.10566000000E+00 0. -1.
        994    1    1    2    0    0  0.26451168543E+02 -0.95960812955E+01  0.11848648098E+02  0.17390106255E+03  0.17120000000E+03 0.  0.
        998    1    1    2    0    0  0.82263939654E+01 -0.37004439900E+01  0.14167681432E+04  0.14168321490E+04  0.10000000000E+02 0. -1.
</event>
<event>
 5    1  0.1087513E-008  0.3844122E+03  0.7957747E-01  0.3432169E+00
         13   -1    0    0    0    0  0.00000000000E+00  0.00000000000E+00  0.14999999963E+04  0.15000000000E+04  0.10566000000E+00 0.  1.
        994   -1    0    0    0    0 -0.00000000000E+00 -0.00000000000E+00  0.11368683772E-12  0.17120000000E+03  0.17120000000E+03 0.  0.
         13    1    1    2    0    0  0.17290290672E+02 -0.62309532185E+01  0.90102562249E+02  0.91957935043E+02  0.10566000000E+00 0.  1.
        994    1    1    2    0    0 -0.61579780018E+01  0.56494029632E+01  0.21523751118E+01  0.17141735375E+03  0.17120000000E+03 0.  0.
        998    1    1    2    0    0 -0.11132312670E+02  0.58155025531E+00  0.14077450589E+04  0.14078247112E+04  0.10000000000E+02 0.  1.
</event>
<event>
 5    1  0.1087513E-008  0.3805090E+03  0.7957747E-01  0.3448945E+00
         13   -1    0    0    0    0  0.00000000000E+00  0.00000000000E+00  0.14999999963E+04  0.15000000000E+04  0.10566000000E+00 0. -1.
        994   -1    0    0    0    0 -0.00000000000E+00 -0.00000000000E+00  0.11368683772E-12  0.17120000000E+03  0.17120000000E+03 0.  0.
         13    1    1    2    0    0 -0.21164591122E+02 -0.51801494887E+01  0.64950794423E+02  0.68508325963E+02  0.10566000000E+00 0. -1.
        994    1    1    2    0    0 -0.44925189259E+01 -0.21033548893E+01  0.39585588119E+01  0.17131759109E+03  0.17120000000E+03 0.  0.
        998    1    1    2    0    0  0.25657110048E+02  0.72835043780E+01  0.14310906430E+04  0.14313740829E+04  0.10000000000E+02 0. -1.
</event>
<event>
 5    1  0.1087513E-008  0.3772051E+03  0.7957747E-01  0.3463419E+00
         13   -1    0    0    0    0  0.00000000000E+00  0.00000000000E+00  0.14999999963E+04  0.15000000000E+04  0.10566000000E+00 0. -1.
        994   -1    0    0    0    0 -0.00000000000E+00 -0.00000000000E+00  0.11368683772E-12  0.17120000000E+03  0.17120000000E+03 0.  0.
         13    1    1    2    0    0 -0.87757922363E+01  0.11317940093E+02  0.16345529236E+02  0.21732413289E+02  0.10566000000E+00 0. -1.
        994    1    1    2    0    0 -0.13199646156E+01 -0.48320781125E+01  0.56353673026E+01  0.17136594951E+03  0.17120000000E+03 0.  0.
        998    1    1    2    0    0  0.10095756852E+02 -0.64858619801E+01  0.14780190997E+04  0.14781016372E+04  0.10000000000E+02 0. -1.
</event>
<event>
 5    1  0.1087513E-008  0.3849616E+03  0.7957747E-01  0.3429835E+00
         13   -1    0    0    0    0  0.00000000000E+00  0.00000000000E+00  0.14999999963E+04  0.15000000000E+04  0.10566000000E+00 0.  1.
        994   -1    0    0    0    0 -0.00000000000E+00 -0.00000000000E+00  0.11368683772E-12  0.17120000000E+03  0.17120000000E+03 0.  0.
         13    1    1    2    0    0 -0.12967878183E+01  0.10477983675E+02  0.33403087757E+02  0.35032088666E+02  0.10566000000E+00 0.  1.
        994    1    1    2    0    0  0.33289781134E+01 -0.80104946393E+01  0.18967466003E+01  0.17143012503E+03  0.17120000000E+03 0.  0.
        998    1    1    2    0    0 -0.20321902951E+01 -0.24674890359E+01  0.14647001619E+04  0.14647377863E+04  0.10000000000E+02 0.  1.
</event>
<event>
 5    1  0.1087513E-008  0.3731573E+03  0.7957747E-01  0.3481505E+00
         13   -1    0    0    0    0  0.00000000000E+00  0.00000000000E+00  0.14999999963E+04  0.15000000000E+04  0.10566000000E+00 0. -1.
        994   -1    0    0    0    0 -0.00000000000E+00 -0.00000000000E+00  0.11368683772E-12  0.17120000000E+03  0.17120000000E+03 0.  0.
         13    1    1    2    0    0 -0.11909070366E+02  0.23488545490E+02  0.43367089372E+02  0.50737100142E+02  0.10566000000E+00 0. -1.
        994    1    1    2    0    0 -0.43767295289E+01 -0.13604911504E+02  0.83269848457E+01  0.17199717456E+03  0.17120000000E+03 0.  0.
        998    1    1    2    0    0  0.16285799895E+02 -0.98836339860E+01  0.14483059221E+04  0.14484657253E+04  0.10000000000E+02 0. -1.
</event>
<event>
 5    1  0.1087513E-008  0.3854280E+03  0.7957747E-01  0.3427859E+00
         13   -1    0    0    0    0  0.00000000000E+00  0.00000000000E+00  0.14999999963E+04  0.15000000000E+04  0.10566000000E+00 0.  1.
        994   -1    0    0    0    0 -0.00000000000E+00 -0.00000000000E+00  0.11368683772E-12  0.17120000000E+03  0.17120000000E+03 0.  0.
         13    1    1    2    0    0 -0.10342571969E+02 -0.86342187983E+01  0.62068522010E+02  0.63514023000E+02  0.10566000000E+00 0.  1.
        994    1    1    2    0    0  0.43578570601E+01  0.17283992769E+02  0.24619096204E+01  0.17214304611E+03  0.17120000000E+03 0.  0.
        998    1    1    2    0    0  0.59847149084E+01 -0.86497739705E+01  0.14354695646E+04  0.14355429309E+04  0.10000000000E+02 0.  1.
</event>
<event>
 5    1  0.1087513E-008  0.3788432E+03  0.7957747E-01  0.3456211E+00
         13   -1    0    0    0    0  0.00000000000E+00  0.00000000000E+00  0.14999999963E+04  0.15000000000E+04  0.10566000000E+00 0.  1.
        994   -1    0    0    0    0 -0.00000000000E+00 -0.00000000000E+00  0.11368683772E-12  0.17120000000E+03  0.17120000000E+03 0.  0.
         13    1    1    2    0    0 -0.38988851345E+02 -0.25737981818E+02  0.21055431520E+03  0.21567499867E+03  0.10566000000E+00 0.  1.
        994    1    1    2    0    0  0.45949726734E+02  0.27775305402E+01  0.11862447371E+02  0.17767737538E+03  0.17120000000E+03 0.  0.
        998    1    1    2    0    0 -0.69608753893E+01  0.22960451278E+02  0.12775832337E+04  0.12778476260E+04  0.10000000000E+02 0.  1.
</event>
<event>
 5    1  0.1087513E-008  0.2258294E+03  0.7957747E-01  0.4626999E+00
         13   -1    0    0    0    0  0.00000000000E+00  0.00000000000E+00  0.14999999963E+04  0.15000000000E+04  0.10566000000E+00 0. -1.
        994   -1    0    0    0    0 -0.00000000000E+00 -0.00000000000E+00  0.11368683772E-12  0.17120000000E+03  0.17120000000E+03 0.  0.
         13    1    1    2    0    0 -0.96983838066E+02 -0.13076394038E+03  0.29737233448E+03  0.33902122268E+03  0.10566000000E+00 0. -1.
        994    1    1    2    0    0  0.49494095070E+02  0.37695869431E+02  0.70697321523E+02  0.19539241359E+03  0.17120000000E+03 0.  0.
        998    1    1    2    0    0  0.47489742996E+02  0.93068070949E+02  0.11319303403E+04  0.11367863637E+04  0.10000000000E+02 0. -1.
</event>
<event>
 5    1  0.1087513E-008  0.4182376E+03  0.7957747E-01  0.3299882E+00
         13   -1    0    0    0    0  0.00000000000E+00  0.00000000000E+00  0.14999999963E+04  0.15000000000E+04  0.10566000000E+00 0.  1.
        994   -1    0    0    0    0 -0.00000000000E+00 -0.00000000000E+00  0.11368683772E-12  0.17120000000E+03  0.17120000000E+03 0.  0.
         13    1    1    2    0    0 -0.96834495341E+02 -0.83573642684E+02  0.25380713609E+03  0.28421742863E+03  0.10566000000E+00 0.  1.
        994    1    1    2    0    0 -0.50197122962E+01  0.41397183274E+02  0.46559478233E+02  0.18225298162E+03  0.17120000000E+03 0.  0.
        998    1    1    2    0    0  0.10185420764E+03  0.42176459410E+02  0.11996333820E+04  0.12047295898E+04  0.10000000000E+02 0. -1.
</event>
<event>
 5    1  0.1087513E-008  0.3741449E+03  0.7957747E-01  0.3477056E+00
         13   -1    0    0    0    0  0.00000000000E+00  0.00000000000E+00  0.14999999963E+04  0.15000000000E+04  0.10566000000E+00 0.  1.
        994   -1    0    0    0    0 -0.00000000000E+00 -0.00000000000E+00  0.11368683772E-12  0.17120000000E+03  0.17120000000E+03 0.  0.
         13    1    1    2    0    0  0.28922605698E+02  0.23041507099E+02  0.93879995204E+02  0.10090041047E+03  0.10566000000E+00 0.  1.
        994    1    1    2    0    0 -0.10216010160E+02 -0.22343010591E+02  0.91788132304E+01  0.17319719281E+03  0.17120000000E+03 0.  0.
        998    1    1    2    0    0 -0.18706595538E+02 -0.69849650744E+00  0.13969411878E+04  0.13971023967E+04  0.10000000000E+02 0.  1.
</event>
<event>
 5    1  0.1087513E-008  0.3832941E+03  0.7957747E-01  0.3436939E+00
         13   -1    0    0    0    0  0.00000000000E+00  0.00000000000E+00  0.14999999963E+04  0.15000000000E+04  0.10566000000E+00 0.  1.
        994   -1    0    0    0    0 -0.00000000000E+00 -0.00000000000E+00  0.11368683772E-12  0.17120000000E+03  0.17120000000E+03 0.  0.
         13    1    1    2    0    0  0.12417958236E+02 -0.27335858277E+01  0.31525079289E+02  0.33992939951E+02  0.10566000000E+00 0.  1.
        994    1    1    2    0    0 -0.10407136377E+02  0.41481344012E+01  0.28946359862E+01  0.17159060121E+03  0.17120000000E+03 0.  0.
        998    1    1    2    0    0 -0.20108218591E+01 -0.14145485734E+01  0.14655802810E+04  0.14656164588E+04  0.10000000000E+02 0.  1.
</event>
<event>
 5    1  0.1087513E-008  0.3838320E+03  0.7957747E-01  0.3434641E+00
         13   -1    0    0    0    0  0.00000000000E+00  0.00000000000E+00  0.14999999963E+04  0.15000000000E+04  0.10566000000E+00 0.  1.
        994   -1    0    0    0    0 -0.00000000000E+00 -0.00000000000E+00  0.11368683772E-12  0.17120000000E+03  0.17120000000E+03 0.  0.
         13    1    1    2    0    0 -0.87273916621E+01  0.95324505988E+01  0.41120806347E+02  0.43104139689E+02  0.10566000000E+00 0.  1.
        994    1    1    2    0    0 -0.18030738894E+02  0.18433089470E+01  0.32963465876E+01  0.17218830168E+03  0.17120000000E+03 0.  0.
        998    1    1    2    0    0  0.26758130556E+02 -0.11375759546E+02  0.14555828433E+04  0.14559075586E+04  0.10000000000E+02 0.  1.
</event>
<event>
 5    1  0.1087513E-008  0.3833568E+03  0.7957747E-01  0.3436671E+00
         13   -1    0    0    0    0  0.00000000000E+00  0.00000000000E+00  0.14999999963E+04  0.15000000000E+04  0.10566000000E+00 0.  1.
        994   -1    0    0    0    0 -0.00000000000E+00 -0.00000000000E+00  0.11368683772E-12  0.17120000000E+03  0.17120000000E+03 0.  0.
         13    1    1    2    0    0  0.13377322807E+02  0.13098530488E+02  0.63952241430E+02  0.66636511121E+02  0.10566000000E+00 0.  1.
        994    1    1    2    0    0 -0.39529540344E+02 -0.62623139737E+01  0.77622262778E+01  0.17598719639E+03  0.17120000000E+03 0.  0.
        998    1    1    2    0    0  0.26152217537E+02 -0.68362165147E+01  0.14282855286E+04  0.14285762925E+04  0.10000000000E+02 0.  1.
</event>
<event>
 5    1  0.1087513E-008  0.3812281E+03  0.7957747E-01  0.3445828E+00
         13   -1    0    0    0    0  0.00000000000E+00  0.00000000000E+00  0.14999999963E+04  0.15000000000E+04  0.10566000000E+00 0.  1.
        994   -1    0    0    0    0 -0.00000000000E+00 -0.00000000000E+00  0.11368683772E-12  0.17120000000E+03  0.17120000000E+03 0.  0.
         13    1    1    2    0    0 -0.17371040255E+02  0.43965569510E+02  0.23903603385E+03  0.24366567461E+03  0.10566000000E+00 0.  1.
        994    1    1    2    0    0  0.33842286560E+02 -0.52081015537E+02  0.16466758715E+02  0.18286149590E+03  0.17120000000E+03 0.  0.
        998    1    1    2    0    0 -0.16471246305E+02  0.81154460271E+01  0.12444972037E+04  0.12446728295E+04  0.10000000000E+02 0.  1.
</event>
<event>
 5    1  0.1087513E-008  0.3780212E+03  0.7957747E-01  0.3459820E+00
         13   -1    0    0    0    0  0.00000000000E+00  0.00000000000E+00  0.14999999963E+04  0.15000000000E+04  0.10566000000E+00 0.  1.
        994   -1    0    0    0    0 -0.00000000000E+00 -0.00000000000E+00  0.11368683772E-12  0.17120000000E+03  0.17120000000E+03 0.  0.
         13    1    1    2    0    0 -0.24156052795E+02  0.21041773152E+02  0.11610866254E+03  0.12044709952E+03  0.10566000000E+00 0.  1.
        994    1    1    2    0    0 -0.74104160199E+01  0.11672703473E+02  0.57789087132E+01  0.17185459568E+03  0.17120000000E+03 0.  0.
        998    1    1    2    0    0  0.31566468815E+02 -0.32714476625E+02  0.13781124250E+04  0.13788983048E+04  0.10000000000E+02 0.  1.
</event>
<event>
 5    1  0.1087513E-008  0.3857494E+03  0.7957747E-01  0.3426500E+00
         13   -1    0    0    0    0  0.00000000000E+00  0.00000000000E+00  0.14999999963E+04  0.15000000000E+04  0.10566000000E+00 0. -1.
        994   -1    0    0    0    0 -0.00000000000E+00 -0.00000000000E+00  0.11368683772E-12  0.17120000000E+03  0.17120000000E+03 0.  0.
         13    1    1    2    0    0  0.38906768418E+00 -0.10143719666E+02  0.44513388549E+02  0.45656317706E+02  0.10566000000E+00 0. -1.
        994    1    1    2    0    0 -0.52857014618E+01 -0.60308857964E+01  0.14695348197E+01  0.17139401902E+03  0.17120000000E+03 0.  0.
        998    1    1    2    0    0  0.48966337777E+01  0.16174605463E+02  0.14540170729E+04  0.14541496633E+04  0.10000000000E+02 0. -1.
</event>
<event>
 5    1  0.1087513E-008  0.3755381E+03  0.7957747E-01  0.3470820E+00
         13   -1    0    0    0    0  0.00000000000E+00  0.00000000000E+00  0.14999999963E+04  0.15000000000E+04  0.10566000000E+00 0.  1.
        994   -1    0    0    0    0 -0.00000000000E+00 -0.00000000000E+00  0.11368683772E-12  0.17120000000E+03  0.17120000000E+03 0.  0.
         13    1    1    2    0    0 -0.70372680650E+01  0.13442601978E+02  0.15112208865E+02  0.21415338208E+02  0.10566000000E+00 0.  1.
        994    1    1    2    0    0  0.60887103953E+01 -0.11141008681E+02  0.69498038808E+01  0.17181075124E+03  0.17120000000E+03 0.  0.
        998    1    1    2    0    0  0.94855766971E+00 -0.23015932970E+01  0.14779379835E+04  0.14779739105E+04  0.10000000000E+02 0.  1.
</event>
<event>
 5    1  0.1087513E-008  0.3856342E+03  0.7957747E-01  0.3426987E+00
         13   -1    0    0    0    0  0.00000000000E+00  0.00000000000E+00  0.14999999963E+04  0.15000000000E+04  0.10566000000E+00 0. -1.
        994   -1    0    0    0    0 -0.00000000000E+00 -0.00000000000E+00  0.11368683772E-12  0.17120000000E+03  0.17120000000E+03 0.  0.
         13    1    1    2    0    0  0.13494751154E+02  0.78548215369E+01  0.90087997189E+02  0.91431203272E+02  0.10566000000E+00 0. -1.
        994    1    1    2    0    0 -0.96173956574E+01 -0.12015201863E+02  0.20933205283E+01  0.17190311622E+03  0.17120000000E+03 0.  0.
        998    1    1    2    0    0 -0.38773554967E+01  0.41603803261E+01  0.14078186786E+04  0.14078656805E+04  0.10000000000E+02 0. -1.
</event>
<event>
 5    1  0.1087513E-008  0.3776783E+03  0.7957747E-01  0.3461330E+00
         13   -1    0    0    0    0  0.00000000000E+00  0.00000000000E+00  0.14999999963E+04  0.15000000000E+04  0.10566000000E+00 0.  1.
        994   -1    0    0    0    0 -0.00000000000E+00 -0.00000000000E+00  0.11368683772E-12  0.17120000000E+03  0.17120000000E+03 0.  0.
         13    1    1    2    0    0  0.23084575282E+02  0.43197989740E+02  0.27304426815E+03  0.27740250083E+03  0.10566000000E+00 0.  1.
        994    1    1    2    0    0  0.26471402939E+01 -0.58264052907E+01  0.54477143441E+01  0.17140616075E+03  0.17120000000E+03 0.  0.
        998    1    1    2    0    0 -0.25731715576E+02 -0.37371584449E+02  0.12215080138E+04  0.12223913384E+04  0.10000000000E+02 0. -1.
</event>
<event>
 5    1  0.1087513E-008  0.4114958E+03  0.7957747E-01  0.3324528E+00
         13   -1    0    0    0    0  0.00000000000E+00  0.00000000000E+00  0.14999999963E+04  0.15000000000E+04  0.10566000000E+00 0. -1.
        994   -1    0    0    0    0 -0.00000000000E+00 -0.00000000000E+00  0.11368683772E-12  0.17120000000E+03  0.17120000000E+03 0.  0.
         13    1    1    2    0    0 -0.11981378753E+03  0.10567608422E+03  0.29491511192E+03  0.33540678714E+03  0.10566000000E+00 0. -1.
        994    1    1    2    0    0  0.10043230410E+03 -0.10306531685E+03  0.12642203572E+03  0.25690675032E+03  0.17120000000E+03 0.  0.
        998    1    1    2    0    0  0.19381483439E+02 -0.26107673621E+01  0.10786628486E+04  0.10788864625E+04  0.10000000000E+02 0. -1.
</event>
<event>
 5    1  0.1087513E-008  0.3846772E+03  0.7957747E-01  0.3431042E+00
         13   -1    0    0    0    0  0.00000000000E+00  0.00000000000E+00  0.14999999963E+04  0.15000000000E+04  0.10566000000E+00 0.  1.
        994   -1    0    0    0    0 -0.00000000000E+00 -0.00000000000E+00  0.11368683772E-12  0.17120000000E+03  0.17120000000E+03 0.  0.
         13    1    1    2    0    0 -0.19209050271E+02  0.66632827481E+01  0.11494698844E+03  0.11673135082E+03  0.10566000000E+00 0.  1.
        994    1    1    2    0    0  0.12687868847E+02 -0.34895240550E+01  0.23607432334E+01  0.17172120400E+03  0.17120000000E+03 0.  0.
        998    1    1    2    0    0  0.65211814238E+01 -0.31737586931E+01  0.13826922646E+04  0.13827474452E+04  0.10000000000E+02 0.  1.
</event>
<event>
 5    1  0.1087513E-008  0.3827977E+03  0.7957747E-01  0.3439066E+00
         13   -1    0    0    0    0  0.00000000000E+00  0.00000000000E+00  0.14999999963E+04  0.15000000000E+04  0.10566000000E+00 0. -1.
        994   -1    0    0    0    0 -0.00000000000E+00 -0.00000000000E+00  0.11368683772E-12  0.17120000000E+03  0.17120000000E+03 0.  0.
         13    1    1    2    0    0  0.17979907707E+02 -0.78775029314E+01  0.64228269974E+02  0.67161104528E+02  0.10566000000E+00 0. -1.
        994    1    1    2    0    0 -0.28097148563E+02  0.94360111195E+01  0.56427678700E+01  0.17383834126E+03  0.17120000000E+03 0.  0.
        998    1    1    2    0    0  0.10117240855E+02 -0.15585081881E+01  0.14301289584E+04  0.14302005542E+04  0.10000000000E+02 0. -1.
</event>
<event>
 5    1  0.1087513E-008  0.3723380E+03  0.7957747E-01  0.3485215E+00
         13   -1    0    0    0    0  0.00000000000E+00  0.00000000000E+00  0.14999999963E+04  0.15000000000E+04  0.10566000000E+00 0. -1.
        994   -1    0    0    0    0 -0.00000000000E+00 -0.00000000000E+00  0.11368683772E-12  0.17120000000E+03  0.17120000000E+03 0.  0.
         13    1    1    2    0    0  0.62860838666E+02  0.61707616449E+02  0.26891399838E+03  0.28297361123E+03  0.10566000000E+00 0. -1.
        994    1    1    2    0    0 -0.52195312173E+02 -0.61805057070E+02  0.35621051598E+02  0.19267204003E+03  0.17120000000E+03 0.  0.
        998    1    1    2    0    0 -0.10665526494E+02  0.97440621232E-01  0.11954649463E+04  0.11955543487E+04  0.10000000000E+02 0. -1.
</event>
<event>
 5    1  0.1087513E-008  0.3796642E+03  0.7957747E-01  0.3452622E+00
         13   -1    0    0    0    0  0.00000000000E+00  0.00000000000E+00  0.14999999963E+04  0.15000000000E+04  0.10566000000E+00 0. -1.
        994   -1    0    0    0    0 -0.00000000000E+00 -0.00000000000E+00  0.11368683772E-12  0.17120000000E+03  0.17120000000E+03 0.  0.
         13    1    1    2    0    0  0.50098211532E+02  0.34123370497E+02  0.35605846058E+03  0.36118122006E+03  0.10566000000E+00 0. -1.
        994    1    1    2    0    0 -0.48648938318E+02 -0.22030879444E+02  0.13907402072E+02  0.17987477500E+03  0.17120000000E+03 0.  0.
        998    1    1    2    0    0 -0.14492732143E+01 -0.12092491053E+02  0.11300341336E+04  0.11301440049E+04  0.10000000000E+02 0. -1.
</event>
<event>
 5    1  0.1087513E-008  0.3855334E+03  0.7957747E-01  0.3427413E+00
         13   -1    0    0    0    0  0.00000000000E+00  0.00000000000E+00  0.14999999963E+04  0.15000000000E+04  0.10566000000E+00 0.  1.
        994   -1    0    0    0    0 -0.00000000000E+00 -0.00000000000E+00  0.11368683772E-12  0.17120000000E+03  0.17120000000E+03 0.  0.
         13    1    1    2    0    0  0.14433669527E+02  0.64363104920E+01  0.94107040654E+02  0.95424856162E+02  0.10566000000E+00 0.  1.
        994    1    1    2    0    0 -0.52214566155E+01 -0.65359415230E+01  0.15953241067E+01  0.17141168922E+03  0.17120000000E+03 0.  0.
        998    1    1    2    0    0 -0.92122129111E+01  0.99631030969E-01  0.14042976315E+04  0.14043634546E+04  0.10000000000E+02 0.  1.
</event>
<event>
 5    1  0.1087513E-008  0.3900954E+03  0.7957747E-01  0.3408345E+00
         13   -1    0    0    0    0  0.00000000000E+00  0.00000000000E+00  0.14999999963E+04  0.15000000000E+04  0.10566000000E+00 0. -1.
        994   -1    0    0    0    0 -0.00000000000E+00 -0.00000000000E+00  0.11368683772E-12  0.17120000000E+03  0.17120000000E+03 0.  0.
         13    1    1    2    0    0  0.73754413064E+02  0.39728334868E+00  0.11453810967E+03  0.13623091063E+03  0.10566000000E+00 0. -1.
        994    1    1    2    0    0 -0.54745492705E+02 -0.66461078507E+02  0.50466795458E+02  0.19816781114E+03  0.17120000000E+03 0.  0.
        998    1    1    2    0    0 -0.19008920359E+02  0.66063795158E+02  0.13349950911E+04  0.13368012782E+04  0.10000000000E+02 0. -1.
</event>
<event>
 5    1  0.1087513E-008  0.3765738E+03  0.7957747E-01  0.3466214E+00
         13   -1    0    0    0    0  0.00000000000E+00  0.00000000000E+00  0.14999999963E+04  0.15000000000E+04  0.10566000000E+00 0. -1.
        994   -1    0    0    0    0 -0.00000000000E+00 -0.00000000000E+00  0.11368683772E-12  0.17120000000E+03  0.17120000000E+03 0.  0.
         13    1    1    2    0    0  0.10515506439E+02  0.66292900168E+00  0.66878605355E+01  0.12480143954E+02  0.10566000000E+00 0. -1.
        994    1    1    2    0    0 -0.12593621775E+02 -0.10424283530E+01  0.64128867801E+01  0.17178547984E+03  0.17120000000E+03 0.  0.
        998    1    1    2    0    0  0.20781153364E+01  0.37949935129E+00  0.14868992490E+04  0.14869343762E+04  0.10000000000E+02 0. -1.
</event>
<event>
 5    1  0.1087513E-008  0.3718502E+03  0.7957747E-01  0.3487431E+00
         13   -1    0    0    0    0  0.00000000000E+00  0.00000000000E+00  0.14999999963E+04  0.15000000000E+04  0.10566000000E+00 0.  1.
        994   -1    0    0    0    0 -0.00000000000E+00 -0.00000000000E+00  0.11368683772E-12  0.17120000000E+03  0.17120000000E+03 0.  0.
         13    1    1    2    0    0 -0.83924124126E+01 -0.83001551640E+01  0.30154701510E+00  0.11807931931E+02  0.10566000000E+00 0.  1.
        994    1    1    2    0    0  0.90727880990E+01  0.48405788808E+01  0.12292706241E+02  0.17194853100E+03  0.17120000000E+03 0.  0.
        998    1    1    2    0    0 -0.68037568639E+00  0.34595762832E+01  0.14874057430E+04  0.14874435371E+04  0.10000000000E+02 0.  1.
</event>
<event>
 5    1  0.1087513E-008  0.3740943E+03  0.7957747E-01  0.3477283E+00
         13   -1    0    0    0    0  0.00000000000E+00  0.00000000000E+00  0.14999999963E+04  0.15000000000E+04  0.10566000000E+00 0.  1.
        994   -1    0    0    0    0 -0.00000000000E+00 -0.00000000000E+00  0.11368683772E-12  0.17120000000E+03  0.17120000000E+03 0.  0.
         13    1    1    2    0    0  0.26049107922E+02  0.11018240431E+02  0.55043745893E+02  0.61885238723E+02  0.10566000000E+00 0.  1.
        994    1    1    2    0    0 -0.72079368612E+01 -0.36835962404E+01  0.73679938302E+01  0.17154955718E+03  0.17120000000E+03 0.  0.
        998    1    1    2    0    0 -0.18841171061E+02 -0.73346441911E+01  0.14375882566E+04  0.14377652041E+04  0.10000000000E+02 0.  1.
</event>
<event>
 5    1  0.1087513E-008  0.3707866E+03  0.7957747E-01  0.3492284E+00
         13   -1    0    0    0    0  0.00000000000E+00  0.00000000000E+00  0.14999999963E+04  0.15000000000E+04  0.10566000000E+00 0. -1.
        994   -1    0    0    0    0 -0.00000000000E+00 -0.00000000000E+00  0.11368683772E-12  0.17120000000E+03  0.17120000000E+03 0.  0.
         13    1    1    2    0    0 -0.44002124679E+02  0.15042148187E+02  0.84090238539E+02  0.96091792469E+02  0.10566000000E+00 0. -1.
        994    1    1    2    0    0  0.55353447296E+02 -0.71294441373E+01  0.22356017493E+02  0.18144989562E+03  0.17120000000E+03 0.  0.
        998    1    1    2    0    0 -0.11351322616E+02 -0.79127040493E+01  0.13935537402E+04  0.13936583119E+04  0.10000000000E+02 0. -1.
</event>
<event>
 5    1  0.1087513E-008  0.3817817E+03  0.7957747E-01  0.3443437E+00
         13   -1    0    0    0    0  0.00000000000E+00  0.00000000000E+00  0.14999999963E+04  0.15000000000E+04  0.10566000000E+00 0.  1.
        994   -1    0    0    0    0 -0.00000000000E+00 -0.00000000000E+00  0.11368683772E-12  0.17120000000E+03  0.17120000000E+03 0.  0.
         13    1    1    2    0    0  0.24263301461E+02  0.16768403015E+02  0.13588014243E+03  0.13904427859E+03  0.10566000000E+00 0.  1.
        994    1    1    2    0    0 -0.12171939712E+02 -0.84025890865E+01  0.39637829437E+01  0.17188342327E+03  0.17120000000E+03 0.  0.
        998    1    1    2    0    0 -0.12091361749E+02 -0.83658139281E+01  0.13601560709E+04  0.13602722981E+04  0.10000000000E+02 0.  1.
</event>
<event>
 5    1  0.1087513E-008  0.3796564E+03  0.7957747E-01  0.3452656E+00
         13   -1    0    0    0    0  0.00000000000E+00  0.00000000000E+00  0.14999999963E+04  0.15000000000E+04  0.10566000000E+00 0.  1.
        994   -1    0    0    0    0 -0.00000000000E+00 -0.00000000000E+00  0.11368683772E-12  0.17120000000E+03  0.17120000000E+03 0.  0.
         13    1    1    2    0    0  0.11442257541E+02  0.84286707098E+01  0.21451745753E+02  0.25732398013E+02  0.10566000000E+00 0.  1.
        994    1    1    2    0    0 -0.94456048021E+01 -0.98849687033E+01  0.49325463650E+01  0.17181589586E+03  0.17120000000E+03 0.  0.
        998    1    1    2    0    0 -0.19966527393E+01  0.14562979935E+01  0.14736157042E+04  0.14736517061E+04  0.10000000000E+02 0.  1.
</event>
<event>
 5    1  0.1087513E-008  0.3693007E+03  0.7957747E-01  0.3499111E+00
         13   -1    0    0    0    0  0.00000000000E+00  0.00000000000E+00  0.14999999963E+04  0.15000000000E+04  0.10566000000E+00 0. -1.
        994   -1    0    0    0    0 -0.00000000000E+00 -0.00000000000E+00  0.11368683772E-12  0.17120000000E+03  0.17120000000E+03 0.  0.
         13    1    1    2    0    0  0.11424926336E+01 -0.24490208371E+02  0.24232758855E+02  0.34471921345E+02  0.10566000000E+00 0. -1.
        994    1    1    2    0    0 -0.15079098788E+02  0.12965973071E+02  0.11949994932E+02  0.17276497925E+03  0.17120000000E+03 0.  0.
        998    1    1    2    0    0  0.13936606154E+02  0.11524235300E+02  0.14638172425E+04  0.14639630994E+04  0.10000000000E+02 0. -1.
</event>
<event>
 5    1  0.1087513E-008  0.3820926E+03  0.7957747E-01  0.3442097E+00
         13   -1    0    0    0    0  0.00000000000E+00  0.00000000000E+00  0.14999999963E+04  0.15000000000E+04  0.10566000000E+00 0. -1.
        994   -1    0    0    0    0 -0.00000000000E+00 -0.00000000000E+00  0.11368683772E-12  0.17120000000E+03  0.17120000000E+03 0.  0.
         13    1    1    2    0    0  0.24309235689E+02 -0.18598922442E+02  0.16062959731E+03  0.16351983841E+03  0.10566000000E+00 0. -1.
        994    1    1    2    0    0 -0.83253784162E-01  0.16782325958E+02  0.40161398223E+01  0.17206749482E+03  0.17120000000E+03 0.  0.
        998    1    1    2    0    0 -0.24225981905E+02  0.18165964835E+01  0.13353542591E+04  0.13356126668E+04  0.10000000000E+02 0. -1.
</event>
<event>
 5    1  0.1087513E-008  0.3756679E+03  0.7957747E-01  0.3470241E+00
         13   -1    0    0    0    0  0.00000000000E+00  0.00000000000E+00  0.14999999963E+04  0.15000000000E+04  0.10566000000E+00 0.  1.
        994   -1    0    0    0    0 -0.00000000000E+00 -0.00000000000E+00  0.11368683772E-12  0.17120000000E+03  0.17120000000E+03 0.  0.
         13    1    1    2    0    0  0.23973926184E+02 -0.56591280907E+02  0.29085833222E+03  0.29728084835E+03  0.10566000000E+00 0.  1.
        994    1    1    2    0    0 -0.20783145982E+02  0.31871145352E+02  0.11261918863E+02  0.17573838476E+03  0.17120000000E+03 0.  0.
        998    1    1    2    0    0 -0.31907802021E+01  0.24720135555E+02  0.11978797452E+04  0.11981807669E+04  0.10000000000E+02 0.  1.
</event>
<event>
 5    1  0.1087513E-008  0.3759836E+03  0.7957747E-01  0.3468836E+00
         13   -1    0    0    0    0  0.00000000000E+00  0.00000000000E+00  0.14999999963E+04  0.15000000000E+04  0.10566000000E+00 0. -1.
        994   -1    0    0    0    0 -0.00000000000E+00 -0.00000000000E+00  0.11368683772E-12  0.17120000000E+03  0.17120000000E+03 0.  0.
         13    1    1    2    0    0 -0.25869363621E+02  0.33363312283E+02  0.15400700253E+03  0.15968876784E+03  0.10566000000E+00 0. -1.
        994    1    1    2    0    0 -0.54919940081E+00 -0.13512984554E+02  0.67944216685E+01  0.17186770068E+03  0.17120000000E+03 0.  0.
        998    1    1    2    0    0  0.26418563022E+02 -0.19850327730E+02  0.13391985721E+04  0.13396435315E+04  0.10000000000E+02 0. -1.
</event>
<event>
 5    1  0.1087513E-008  0.3853804E+03  0.7957747E-01  0.3428060E+00
         13   -1    0    0    0    0  0.00000000000E+00  0.00000000000E+00  0.14999999963E+04  0.15000000000E+04  0.10566000000E+00 0.  1.
        994   -1    0    0    0    0 -0.00000000000E+00 -0.00000000000E+00  0.11368683772E-12  0.17120000000E+03  0.17120000000E+03 0.  0.
         13    1    1    2    0    0  0.10594403371E+02 -0.14404079344E+02  0.10329753570E+03  0.10483372993E+03  0.10566000000E+00 0.  1.
        994    1    1    2    0    0 -0.12104124999E+02  0.16304022077E+02  0.27968905350E+01  0.17242271769E+03  0.17120000000E+03 0.  0.
        998    1    1    2    0    0  0.15097216280E+01 -0.18999427328E+01  0.13939055700E+04  0.13939435524E+04  0.10000000000E+02 0.  1.
</event>
<event>
 5    1  0.1087513E-008  0.3819042E+03  0.7957747E-01  0.3442909E+00
         13   -1    0    0    0    0  0.00000000000E+00  0.00000000000E+00  0.14999999963E+04  0.15000000000E+04  0.10566000000E+00 0. -1.
        994   -1    0    0    0    0 -0.00000000000E+00 -0.00000000000E+00  0.11368683772E-12  0.17120000000E+03  0.17120000000E+03 0.  0.
         13    1    1    2    0    0  0.51864832612E+01 -0.22059331971E+02  0.81400290832E+02  0.84495752835E+02  0.10566000000E+00 0. -1.
        994    1    1    2    0    0 -0.54203375097E+01  0.95176667973E+01  0.35736172979E+01  0.17158722791E+03  0.17120000000E+03 0.  0.
        998    1    1    2    0    0  0.23385424847E+00  0.12541665174E+02  0.14150260881E+04  0.14151170193E+04  0.10000000000E+02 0. -1.
</event>
<event>
 5    1  0.1087513E-008  0.3852103E+03  0.7957747E-01  0.3428781E+00
         13   -1    0    0    0    0  0.00000000000E+00  0.00000000000E+00  0.14999999963E+04  0.15000000000E+04  0.10566000000E+00 0.  1.
        994   -1    0    0    0    0 -0.00000000000E+00 -0.00000000000E+00  0.11368683772E-12  0.17120000000E+03  0.17120000000E+03 0.  0.
         13    1    1    2    0    0 -0.48937995125E+01  0.11539346256E+02  0.49253105753E+02  0.50823079167E+02  0.10566000000E+00 0.  1.
        994    1    1    2    0    0  0.57228591821E+01 -0.15395272843E+02  0.24128482483E+01  0.17200298654E+03  0.17120000000E+03 0.  0.
        998    1    1    2    0    0 -0.82905966962E+00  0.38559265874E+01  0.14483340423E+04  0.14483739343E+04  0.10000000000E+02 0.  1.
</event>
<event>
 5    1  0.1087513E-008  0.3848582E+03  0.7957747E-01  0.3430274E+00
         13   -1    0    0    0    0  0.00000000000E+00  0.00000000000E+00  0.14999999963E+04  0.15000000000E+04  0.10566000000E+00 0.  1.
        994   -1    0    0    0    0 -0.00000000000E+00 -0.00000000000E+00  0.11368683772E-12  0.17120000000E+03  0.17120000000E+03 0.  0.
         13    1    1    2    0    0  0.56733170915E+01  0.10277130546E+02  0.38077296780E+02  0.39845923671E+02  0.10566000000E+00 0.  1.
        994    1    1    2    0    0 -0.19609337368E+02 -0.12004478378E+02  0.34417979211E+01  0.17277129271E+03  0.17120000000E+03 0.  0.
        998    1    1    2    0    0  0.13936020277E+02  0.17273478324E+01  0.14584809016E+04  0.14585827836E+04  0.10000000000E+02 0.  1.
</event>
<event>
 5    1  0.1087513E-008  0.4194231E+03  0.7957747E-01  0.3295629E+00
         13   -1    0    0    0    0  0.00000000000E+00  0.00000000000E+00  0.14999999963E+04  0.15000000000E+04  0.10566000000E+00 0.  1.
        994   -1    0    0    0    0 -0.00000000000E+00 -0.00000000000E+00  0.11368683772E-12  0.17120000000E+03  0.17120000000E+03 0.  0.
         13    1    1    2    0    0  0.20768606027E+02 -0.29631011001E+02  0.59156940130E+00  0.36189679850E+02  0.10566000000E+00 0.  1.
        994    1    1    2    0    0 -0.82394166223E+01  0.26567723026E+02  0.43244248422E+02  0.17875468362E+03  0.17120000000E+03 0.  0.
        998    1    1    2    0    0 -0.12529189405E+02  0.30632879759E+01  0.14561641785E+04  0.14562556365E+04  0.10000000000E+02 0.  1.
</event>
<event>
 5    1  0.1087513E-008  0.3704250E+03  0.7957747E-01  0.3493940E+00
         13   -1    0    0    0    0  0.00000000000E+00  0.00000000000E+00  0.14999999963E+04  0.15000000000E+04  0.10566000000E+00 0. -1.
        994   -1    0    0    0    0 -0.00000000000E+00 -0.00000000000E+00  0.11368683772E-12  0.17120000000E+03  0.17120000000E+03 0.  0.
         13    1    1    2    0    0  0.33941032853E+02  0.12215164915E+02  0.72576072898E+02  0.81046292243E+02  0.10566000000E+00 0. -1.
        994    1    1    2    0    0 -0.21578264323E+02  0.41960537050E+02  0.16773128680E+02  0.17837344535E+03  0.17120000000E+03 0.  0.
        998    1    1    2    0    0 -0.12362768530E+02 -0.54175701965E+02  0.14106507947E+04  0.14117802624E+04  0.10000000000E+02 0. -1.
</event>
<event>
 5    1  0.1087513E-008  0.3840520E+03  0.7957747E-01  0.3433703E+00
         13   -1    0    0    0    0  0.00000000000E+00  0.00000000000E+00  0.14999999963E+04  0.15000000000E+04  0.10566000000E+00 0. -1.
        994   -1    0    0    0    0 -0.00000000000E+00 -0.00000000000E+00  0.11368683772E-12  0.17120000000E+03  0.17120000000E+03 0.  0.
         13    1    1    2    0    0  0.79438790942E+01  0.18215360110E+02  0.10655328880E+03  0.10839058574E+03  0.10566000000E+00 0. -1.
        994    1    1    2    0    0  0.10985858220E+02  0.62251563011E+00  0.25010593464E+01  0.17157147754E+03  0.17120000000E+03 0.  0.
        998    1    1    2    0    0 -0.18929737314E+02 -0.18837875740E+02  0.13909456481E+04  0.13912379367E+04  0.10000000000E+02 0. -1.
</event>
<event>
 5    1  0.1087513E-008  0.3812299E+03  0.7957747E-01  0.3445821E+00
         13   -1    0    0    0    0  0.00000000000E+00  0.00000000000E+00  0.14999999963E+04  0.15000000000E+04  0.10566000000E+00 0.  1.
        994   -1    0    0    0    0 -0.00000000000E+00 -0.00000000000E+00  0.11368683772E-12  0.17120000000E+03  0.17120000000E+03 0.  0.
         13    1    1    2    0    0 -0.10798581171E+02 -0.25387195241E+02  0.12168179634E+03  0.12477014772E+03  0.10566000000E+00 0.  1.
        994    1    1    2    0    0 -0.70833249183E+01 -0.10414022051E+01  0.36842668025E+01  0.17138924071E+03  0.17120000000E+03 0.  0.
        998    1    1    2    0    0  0.17881906089E+02  0.26428597446E+02  0.13746339331E+04  0.13750406116E+04  0.10000000000E+02 0.  1.
</event>
<event>
 5    1  0.1087513E-008  0.3784478E+03  0.7957747E-01  0.3457945E+00
         13   -1    0    0    0    0  0.00000000000E+00  0.00000000000E+00  0.14999999963E+04  0.15000000000E+04  0.10566000000E+00 0.  1.
        994   -1    0    0    0    0 -0.00000000000E+00 -0.00000000000E+00  0.11368683772E-12  0.17120000000E+03  0.17120000000E+03 0.  0.
         13    1    1    2    0    0  0.12083620645E+02 -0.17468893014E+02  0.42375713281E+02  0.47401353896E+02  0.10566000000E+00 0.  1.
        994    1    1    2    0    0 -0.31956421588E+01  0.28300392121E+02  0.76490628788E+01  0.17372124938E+03  0.17120000000E+03 0.  0.
        998    1    1    2    0    0 -0.88879784864E+01 -0.10831499107E+02  0.14499752201E+04  0.14500773967E+04  0.10000000000E+02 0.  1.
</event>
<event>
 5    1  0.1087513E-008  0.3838151E+03  0.7957747E-01  0.3434713E+00
         13   -1    0    0    0    0  0.00000000000E+00  0.00000000000E+00  0.14999999963E+04  0.15000000000E+04  0.10566000000E+00 0. -1.
        994   -1    0    0    0    0 -0.00000000000E+00 -0.00000000000E+00  0.11368683772E-12  0.17120000000E+03  0.17120000000E+03 0.  0.
         13    1    1    2    0    0 -0.16649466370E+02 -0.12538556190E+02  0.97451135362E+02  0.99655180844E+02  0.10566000000E+00 0. -1.
        994    1    1    2    0    0  0.57838692794E+01  0.13985276800E+02  0.29760819402E+01  0.17189339189E+03  0.17120000000E+03 0.  0.
        998    1    1    2    0    0  0.10865597091E+02 -0.14467206096E+01  0.13995727790E+04  0.13996514273E+04  0.10000000000E+02 0. -1.
</event>
<event>
 5    1  0.1087513E-008  0.3749886E+03  0.7957747E-01  0.3473274E+00
         13   -1    0    0    0    0  0.00000000000E+00  0.00000000000E+00  0.14999999963E+04  0.15000000000E+04  0.10566000000E+00 0.  1.
        994   -1    0    0    0    0 -0.00000000000E+00 -0.00000000000E+00  0.11368683772E-12  0.17120000000E+03  0.17120000000E+03 0.  0.
         13    1    1    2    0    0 -0.42722418952E+02  0.16001564900E+02  0.13673558652E+03  0.14414536741E+03  0.10566000000E+00 0.  1.
        994    1    1    2    0    0  0.47130771757E+02 -0.18894004036E+02  0.15499992110E+02  0.17924280401E+03  0.17120000000E+03 0.  0.
        998    1    1    2    0    0 -0.44083528049E+01  0.28924391351E+01  0.13477644176E+04  0.13478118286E+04  0.10000000000E+02 0.  1.
</event>
<event>
 5    1  0.1087513E-008  0.3824912E+03  0.7957747E-01  0.3440383E+00
         13   -1    0    0    0    0  0.00000000000E+00  0.00000000000E+00  0.14999999963E+04  0.15000000000E+04  0.10566000000E+00 0.  1.
        994   -1    0    0    0    0 -0.00000000000E+00 -0.00000000000E+00  0.11368683772E-12  0.17120000000E+03  0.17120000000E+03 0.  0.
         13    1    1    2    0    0  0.17222304406E+02 -0.14303577209E+02  0.89650461284E+02  0.92403552218E+02  0.10566000000E+00 0.  1.
        994    1    1    2    0    0 -0.10683454021E+02 -0.18548837714E+01  0.32708132259E+01  0.17157422593E+03  0.17120000000E+03 0.  0.
        998    1    1    2    0    0 -0.65388503851E+01  0.16158460981E+02  0.14070787218E+04  0.14072222219E+04  0.10000000000E+02 0.  1.
</event>
<event>
 5    1  0.1087513E-008  0.3802080E+03  0.7957747E-01  0.3450253E+00
         13   -1    0    0    0    0  0.00000000000E+00  0.00000000000E+00  0.14999999963E+04  0.15000000000E+04  0.10566000000E+00 0.  1.
        994   -1    0    0    0    0 -0.00000000000E+00 -0.00000000000E+00  0.11368683772E-12  0.17120000000E+03  0.17120000000E+03 0.  0.
         13    1    1    2    0    0 -0.26396597712E+03  0.38612268720E+02  0.11946880623E+04  0.12241113192E+04  0.10566000000E+00 0.  1.
        994    1    1    2    0    0  0.25113381641E+03 -0.33679534813E+02  0.27016110975E+03  0.40804285318E+03  0.17120000000E+03 0.  0.
        998    1    1    2    0    0  0.12832160717E+02 -0.49327339066E+01  0.35150824247E+02  0.39045827661E+02  0.10000000000E+02 0. -1.
</event>
<event>
 5    1  0.1087513E-008  0.3801523E+03  0.7957747E-01  0.3450496E+00
         13   -1    0    0    0    0  0.00000000000E+00  0.00000000000E+00  0.14999999963E+04  0.15000000000E+04  0.10566000000E+00 0. -1.
        994   -1    0    0    0    0 -0.00000000000E+00 -0.00000000000E+00  0.11368683772E-12  0.17120000000E+03  0.17120000000E+03 0.  0.
         13    1    1    2    0    0 -0.33020115974E+02  0.53627157009E-01  0.15591005768E+03  0.15936840397E+03  0.10566000000E+00 0. -1.
        994    1    1    2    0    0 -0.42353084319E+01  0.48353368660E+01  0.41943647239E+01  0.17137196683E+03  0.17120000000E+03 0.  0.
        998    1    1    2    0    0  0.37255424406E+02 -0.48889640230E+01  0.13398955739E+04  0.13404596292E+04  0.10000000000E+02 0.  1.
</event>
<event>
 5    1  0.1087513E-008  0.3766959E+03  0.7957747E-01  0.3465673E+00
         13   -1    0    0    0    0  0.00000000000E+00  0.00000000000E+00  0.14999999963E+04  0.15000000000E+04  0.10566000000E+00 0. -1.
        994   -1    0    0    0    0 -0.00000000000E+00 -0.00000000000E+00  0.11368683772E-12  0.17120000000E+03  0.17120000000E+03 0.  0.
         13    1    1    2    0    0  0.94403459213E+01  0.12948466155E+02  0.19385839259E+02  0.25151636819E+02  0.10566000000E+00 0. -1.
        994    1    1    2    0    0 -0.10314063178E+02 -0.12190410414E+02  0.66726859253E+01  0.17207251594E+03  0.17120000000E+03 0.  0.
        998    1    1    2    0    0  0.87371725683E+00 -0.75805574108E+00  0.14739414711E+04  0.14739758472E+04  0.10000000000E+02 0. -1.
</event>
<event>
 5    1  0.1087513E-008  0.3827339E+03  0.7957747E-01  0.3439340E+00
         13   -1    0    0    0    0  0.00000000000E+00  0.00000000000E+00  0.14999999963E+04  0.15000000000E+04  0.10566000000E+00 0.  1.
        994   -1    0    0    0    0 -0.00000000000E+00 -0.00000000000E+00  0.11368683772E-12  0.17120000000E+03  0.17120000000E+03 0.  0.
         13    1    1    2    0    0  0.17623212535E+02 -0.69055923568E+01  0.62233050717E+02  0.65047894596E+02  0.10566000000E+00 0.  1.
        994    1    1    2    0    0 -0.17844305232E+02  0.44086276915E+01  0.38794997416E+01  0.17222759868E+03  0.17120000000E+03 0.  0.
        998    1    1    2    0    0  0.22109269775E+00  0.24969646653E+01  0.14338874458E+04  0.14339245067E+04  0.10000000000E+02 0.  1.
</event>
<event>
 5    1  0.1087513E-008  0.3837618E+03  0.7957747E-01  0.3434941E+00
         13   -1    0    0    0    0  0.00000000000E+00  0.00000000000E+00  0.14999999963E+04  0.15000000000E+04  0.10566000000E+00 0. -1.
        994   -1    0    0    0    0 -0.00000000000E+00 -0.00000000000E+00  0.11368683772E-12  0.17120000000E+03  0.17120000000E+03 0.  0.
         13    1    1    2    0    0  0.17320742828E+03  0.11260725973E+03  0.12360607659E+04  0.12532068609E+04  0.10566000000E+00 0. -1.
        994    1    1    2    0    0 -0.17014812460E+03 -0.11063516973E+03  0.15280062275E+03  0.30634620187E+03  0.17120000000E+03 0.  0.
        998    1    1    2    0    0 -0.30593036801E+01 -0.19720900078E+01  0.11113860765E+03  0.11164693721E+03  0.10000000000E+02 0.  0.
</event>
<event>
 5    1  0.1205314E-008  0.3859376E+03  0.7957747E-01  0.3425705E+00
         13   -1    0    0    0    0  0.00000000000E+00  0.00000000000E+00  0.14999999963E+04  0.15000000000E+04  0.10566000000E+00 0. -1.
        994   -1    0    0    0    0 -0.00000000000E+00 -0.00000000000E+00  0.11368683772E-12  0.17120000000E+03  0.17120000000E+03 0.  0.
         13    1    1    2    0    0  0.48918925299E+01  0.89534783677E+01  0.44559325422E+02  0.45712580692E+02  0.10566000000E+00 0. -1.
        994    1    1    2    0    0 -0.37937149166E+01 -0.81103462915E+01  0.14282285571E+01  0.17143993067E+03  0.17120000000E+03 0.  0.
        998    1    1    2    0    0 -0.10981776132E+01 -0.84313207618E+00  0.14540124423E+04  0.14540474886E+04  0.10000000000E+02 0. -1.
</event>
<event>
 5    1  0.1087513E-008  0.3806828E+03  0.7957747E-01  0.3448191E+00
         13   -1    0    0    0    0  0.00000000000E+00  0.00000000000E+00  0.14999999963E+04  0.15000000000E+04  0.10566000000E+00 0.  1.
        994   -1    0    0    0    0 -0.00000000000E+00 -0.00000000000E+00  0.11368683772E-12  0.17120000000E+03  0.17120000000E+03 0.  0.
         13    1    1    2    0    0 -0.22451940992E+02 -0.29731422964E+02  0.16375532232E+03  0.16794006049E+03  0.10566000000E+00 0.  1.
        994    1    1    2    0    0  0.20477513144E+02  0.31219163064E+02  0.84523010331E+01  0.17542760923E+03  0.17120000000E+03 0.  0.
        998    1    1    2    0    0  0.19744278481E+01 -0.14877401002E+01  0.13277923729E+04  0.13278323303E+04  0.10000000000E+02 0.  1.
</event>
<event>
 5    1  0.1087513E-008  0.3702541E+03  0.7957747E-01  0.3494724E+00
         13   -1    0    0    0    0  0.00000000000E+00  0.00000000000E+00  0.14999999963E+04  0.15000000000E+04  0.10566000000E+00 0. -1.
        994   -1    0    0    0    0 -0.00000000000E+00 -0.00000000000E+00  0.11368683772E-12  0.17120000000E+03  0.17120000000E+03 0.  0.
         13    1    1    2    0    0  0.59945248720E+00  0.23301111604E+02  0.25404232933E+02  0.34477345608E+02  0.10566000000E+00 0. -1.
        994    1    1    2    0    0 -0.12795639318E+02 -0.24202069450E+02  0.11729796323E+02  0.17377139199E+03  0.17120000000E+03 0.  0.
        998    1    1    2    0    0  0.12196186831E+02  0.90095784624E+00  0.14628659670E+04  0.14629512624E+04  0.10000000000E+02 0. -1.
</event>
<event>
 5    1  0.1087513E-008  0.3857740E+03  0.7957747E-01  0.3426396E+00
         13   -1    0    0    0    0  0.00000000000E+00  0.00000000000E+00  0.14999999963E+04  0.15000000000E+04  0.10566000000E+00 0. -1.
        994   -1    0    0    0    0 -0.00000000000E+00 -0.00000000000E+00  0.11368683772E-12  0.17120000000E+03  0.17120000000E+03 0.  0.
         13    1    1    2    0    0  0.14783840026E+02 -0.27677486536E+00  0.86091029458E+02  0.87351674555E+02  0.10566000000E+00 0. -1.
        994    1    1    2    0    0 -0.12855691596E+02  0.24205250578E+00  0.17888544542E+01  0.17169148900E+03  0.17120000000E+03 0.  0.
        998    1    1    2    0    0 -0.19281484304E+01  0.34722359581E-01  0.14121201124E+04  0.14121568364E+04  0.10000000000E+02 0. -1.
</event>
<event>
 5    1  0.1087513E-008  0.3790022E+03  0.7957747E-01  0.3455515E+00
         13   -1    0    0    0    0  0.00000000000E+00  0.00000000000E+00  0.14999999963E+04  0.15000000000E+04  0.10566000000E+00 0.  1.
        994   -1    0    0    0    0 -0.00000000000E+00 -0.00000000000E+00  0.11368683772E-12  0.17120000000E+03  0.17120000000E+03 0.  0.
         13    1    1    2    0    0 -0.41420390898E+02  0.76161149399E+00  0.19359800508E+03  0.19798087677E+03  0.10566000000E+00 0.  1.
        994    1    1    2    0    0  0.16165532120E+02 -0.92323804364E+01  0.58009104984E+01  0.17230685372E+03  0.17120000000E+03 0.  0.
        998    1    1    2    0    0  0.25254858778E+02  0.84707689424E+01  0.13006010807E+04  0.13009122695E+04  0.10000000000E+02 0.  1.
</event>
<event>
 5    1  0.1087513E-008  0.3753328E+03  0.7957747E-01  0.3471735E+00
         13   -1    0    0    0    0  0.00000000000E+00  0.00000000000E+00  0.14999999963E+04  0.15000000000E+04  0.10566000000E+00 0.  1.
        994   -1    0    0    0    0 -0.00000000000E+00 -0.00000000000E+00  0.11368683772E-12  0.17120000000E+03  0.17120000000E+03 0.  0.
         13    1    1    2    0    0 -0.13007369882E+03  0.22766562972E+02  0.70119567080E+03  0.71352145267E+03  0.10566000000E+00 0.  1.
        994    1    1    2    0    0  0.12638295590E+03 -0.26108681755E+02  0.65337453445E+02  0.22412661071E+03  0.17120000000E+03 0.  0.
        998    1    1    2    0    0  0.36907429217E+01  0.33421187832E+01  0.73346687204E+03  0.73355193662E+03  0.10000000000E+02 0.  0.
</event>
<event>
 5    1  0.1087513E-008  0.3852251E+03  0.7957747E-01  0.3428718E+00
         13   -1    0    0    0    0  0.00000000000E+00  0.00000000000E+00  0.14999999963E+04  0.15000000000E+04  0.10566000000E+00 0.  1.
        994   -1    0    0    0    0 -0.00000000000E+00 -0.00000000000E+00  0.11368683772E-12  0.17120000000E+03  0.17120000000E+03 0.  0.
         13    1    1    2    0    0 -0.86537079470E+01  0.12898114383E+02  0.76169079480E+02  0.77736657047E+02  0.10566000000E+00 0.  1.
        994    1    1    2    0    0  0.60893473726E+01 -0.15770927256E+02  0.24582069551E+01  0.17205023999E+03  0.17120000000E+03 0.  0.
        998    1    1    2    0    0  0.25643605744E+01  0.28728128728E+01  0.14213727098E+04  0.14214131030E+04  0.10000000000E+02 0.  1.
</event>
<event>
 5    1  0.1087513E-008  0.3792521E+03  0.7957747E-01  0.3454422E+00
         13   -1    0    0    0    0  0.00000000000E+00  0.00000000000E+00  0.14999999963E+04  0.15000000000E+04  0.10566000000E+00 0. -1.
        994   -1    0    0    0    0 -0.00000000000E+00 -0.00000000000E+00  0.11368683772E-12  0.17120000000E+03  0.17120000000E+03 0.  0.
         13    1    1    2    0    0  0.46708869712E+02 -0.12688453316E+02  0.64949935442E+02  0.81001361935E+02  0.10566000000E+00 0. -1.
        994    1    1    2    0    0 -0.47573041109E+02  0.13266289447E+02  0.24784123096E+02  0.17989686332E+03  0.17120000000E+03 0.  0.
        998    1    1    2    0    0  0.86417139708E+00 -0.57783613092E+00  0.14102659377E+04  0.14103017747E+04  0.10000000000E+02 0. -1.
</event>
<event>
 5    1  0.1087513E-008  0.3790121E+03  0.7957747E-01  0.3455471E+00
         13   -1    0    0    0    0  0.00000000000E+00  0.00000000000E+00  0.14999999963E+04  0.15000000000E+04  0.10566000000E+00 0. -1.
        994   -1    0    0    0    0 -0.00000000000E+00 -0.00000000000E+00  0.11368683772E-12  0.17120000000E+03  0.17120000000E+03 0.  0.
         13    1    1    2    0    0 -0.38362735188E+02 -0.69031890270E+01  0.18987146345E+03  0.19383120819E+03  0.10566000000E+00 0. -1.
        994    1    1    2    0    0 -0.60313714157E+00  0.54359061877E+01  0.47330021721E+01  0.17135271857E+03  0.17120000000E+03 0.  0.
        998    1    1    2    0    0  0.38965872330E+02  0.14672828393E+01  0.13053955307E+04  0.13060160732E+04  0.10000000000E+02 0. -1.
</event>
<event>
 5    1  0.1087513E-008  0.3774271E+03  0.7957747E-01  0.3462438E+00
         13   -1    0    0    0    0  0.00000000000E+00  0.00000000000E+00  0.14999999963E+04  0.15000000000E+04  0.10566000000E+00 0.  1.
        994   -1    0    0    0    0 -0.00000000000E+00 -0.00000000000E+00  0.11368683772E-12  0.17120000000E+03  0.17120000000E+03 0.  0.
         13    1    1    2    0    0 -0.21178656161E+02 -0.58696208817E+01  0.40838066352E+02  0.46376144229E+02  0.10566000000E+00 0.  1.
        994    1    1    2    0    0  0.20000809341E+02  0.23329807786E+02  0.86280217014E+01  0.17414992123E+03  0.17120000000E+03 0.  0.
        998    1    1    2    0    0  0.11778468207E+01 -0.17460186904E+02  0.14505339082E+04  0.14506739345E+04  0.10000000000E+02 0.  1.
</event>
<event>
 5    1  0.1087513E-008  0.3814026E+03  0.7957747E-01  0.3445074E+00
         13   -1    0    0    0    0  0.00000000000E+00  0.00000000000E+00  0.14999999963E+04  0.15000000000E+04  0.10566000000E+00 0. -1.
        994   -1    0    0    0    0 -0.00000000000E+00 -0.00000000000E+00  0.11368683772E-12  0.17120000000E+03  0.17120000000E+03 0.  0.
         13    1    1    2    0    0  0.42620053443E+02 -0.19174895036E+02  0.24759578062E+03  0.25196790927E+03  0.10566000000E+00 0. -1.
        994    1    1    2    0    0 -0.50625248744E+02  0.22276130606E+02  0.13673815290E+02  0.18043157991E+03  0.17120000000E+03 0.  0.
        998    1    1    2    0    0  0.80051953011E+01 -0.31012355698E+01  0.12387304004E+04  0.12388005108E+04  0.10000000000E+02 0. -1.
</event>
<event>
 5    1  0.1087513E-008  0.3737318E+03  0.7957747E-01  0.3478914E+00
         13   -1    0    0    0    0  0.00000000000E+00  0.00000000000E+00  0.14999999963E+04  0.15000000000E+04  0.10566000000E+00 0.  1.
        994   -1    0    0    0    0 -0.00000000000E+00 -0.00000000000E+00  0.11368683772E-12  0.17120000000E+03  0.17120000000E+03 0.  0.
         13    1    1    2    0    0  0.11381702658E+02 -0.26578118957E+02  0.50203166494E+02  0.57933657340E+02  0.10566000000E+00 0.  1.
        994    1    1    2    0    0 -0.11404631957E+02  0.42443014511E+02  0.13953900760E+02  0.17730094883E+03  0.17120000000E+03 0.  0.
        998    1    1    2    0    0  0.22929299154E-01 -0.15864895554E+02  0.14358429290E+04  0.14359653938E+04  0.10000000000E+02 0.  1.
</event>
<event>
 5    1  0.1087513E-008  0.3769845E+03  0.7957747E-01  0.3464395E+00
         13   -1    0    0    0    0  0.00000000000E+00  0.00000000000E+00  0.14999999963E+04  0.15000000000E+04  0.10566000000E+00 0.  1.
        994   -1    0    0    0    0 -0.00000000000E+00 -0.00000000000E+00  0.11368683772E-12  0.17120000000E+03  0.17120000000E+03 0.  0.
         13    1    1    2    0    0  0.41013540239E+02  0.41779434906E+02  0.10916620662E+03  0.12387454741E+03  0.10566000000E+00 0.  1.
        994    1    1    2    0    0  0.25763875676E+02 -0.87631207513E+02  0.45224107436E+02  0.19924273064E+03  0.17120000000E+03 0.  0.
        998    1    1    2    0    0 -0.66777415915E+02  0.45851772607E+02  0.13456096822E+04  0.13480827219E+04  0.10000000000E+02 0.  1.
</event>
<event>
 5    1  0.1087513E-008  0.3841041E+03  0.7957747E-01  0.3433481E+00
         13   -1    0    0    0    0  0.00000000000E+00  0.00000000000E+00  0.14999999963E+04  0.15000000000E+04  0.10566000000E+00 0.  1.
        994   -1    0    0    0    0 -0.00000000000E+00 -0.00000000000E+00  0.11368683772E-12  0.17120000000E+03  0.17120000000E+03 0.  0.
         13    1    1    2    0    0  0.66597460882E+01 -0.12044766279E+02  0.41477360710E+02  0.43701387028E+02  0.10566000000E+00 0.  1.
        994    1    1    2    0    0  0.22664880947E+02  0.45622730550E+02  0.10682366756E+02  0.17893765208E+03  0.17120000000E+03 0.  0.
        998    1    1    2    0    0 -0.29324627035E+02 -0.33577964272E+02  0.14478402688E+04  0.14485609609E+04  0.10000000000E+02 0.  1.
</event>
<event>
 5    1  0.1087513E-008  0.3781800E+03  0.7957747E-01  0.3459122E+00
         13   -1    0    0    0    0  0.00000000000E+00  0.00000000000E+00  0.14999999963E+04  0.15000000000E+04  0.10566000000E+00 0.  1.
        994   -1    0    0    0    0 -0.00000000000E+00 -0.00000000000E+00  0.11368683772E-12  0.17120000000E+03  0.17120000000E+03 0.  0.
         13    1    1    2    0    0  0.40677667854E+02 -0.67330920150E+02  0.44535574545E+03  0.45224979451E+03  0.10566000000E+00 0.  1.
        994    1    1    2    0    0 -0.42223878978E+02  0.62291547952E+02  0.24343242436E+02  0.18858718502E+03  0.17120000000E+03 0.  0.
        998    1    1    2    0    0  0.15462111243E+01  0.50393721979E+01  0.10303010084E+04  0.10303630205E+04  0.10000000000E+02 0.  1.
</event>
<event>
 5    1  0.1087513E-008  0.3761961E+03  0.7957747E-01  0.3467891E+00
         13   -1    0    0    0    0  0.00000000000E+00  0.00000000000E+00  0.14999999963E+04  0.15000000000E+04  0.10566000000E+00 0. -1.
        994   -1    0    0    0    0 -0.00000000000E+00 -0.00000000000E+00  0.11368683772E-12  0.17120000000E+03  0.17120000000E+03 0.  0.
         13    1    1    2    0    0  0.15459813856E+02 -0.49945670813E+02  0.30211586734E+03  0.30660656278E+03  0.10566000000E+00 0. -1.
        994    1    1    2    0    0  0.11355584713E+02 -0.29115759165E+01  0.65311899863E+01  0.17172513800E+03  0.17120000000E+03 0.  0.
        998    1    1    2    0    0 -0.26815398570E+02  0.52857246729E+02  0.11913529390E+04  0.11928682992E+04  0.10000000000E+02 0. -1.
</event>
<event>
 5    1  0.1087513E-008  0.3835872E+03  0.7957747E-01  0.3435686E+00
         13   -1    0    0    0    0  0.00000000000E+00  0.00000000000E+00  0.14999999963E+04  0.15000000000E+04  0.10566000000E+00 0. -1.
        994   -1    0    0    0    0 -0.00000000000E+00 -0.00000000000E+00  0.11368683772E-12  0.17120000000E+03  0.17120000000E+03 0.  0.
         13    1    1    2    0    0  0.10892880007E+02  0.27472832207E+01  0.28008303784E+02  0.30177452590E+02  0.10566000000E+00 0. -1.
        994    1    1    2    0    0  0.74749181914E+01  0.83084345647E+01  0.27459491224E+01  0.17158637686E+03  0.17120000000E+03 0.  0.
        998    1    1    2    0    0 -0.18367798199E+02 -0.11055717785E+02  0.14692457434E+04  0.14694361706E+04  0.10000000000E+02 0. -1.
</event>
<event>
 5    1  0.1087513E-008  0.3134021E+03  0.7957747E-01  0.3804755E+00
         13   -1    0    0    0    0  0.00000000000E+00  0.00000000000E+00  0.14999999963E+04  0.15000000000E+04  0.10566000000E+00 0. -1.
        994   -1    0    0    0    0 -0.00000000000E+00 -0.00000000000E+00  0.11368683772E-12  0.17120000000E+03  0.17120000000E+03 0.  0.
         13    1    1    2    0    0 -0.18590110176E+03 -0.36276785217E+02  0.82149923275E+03  0.84305173350E+03  0.10566000000E+00 0. -1.
        994    1    1    2    0    0  0.14283212681E+03 -0.12989933300E+02  0.98011031068E+02  0.24389620134E+03  0.17120000000E+03 0.  0.
        998    1    1    2    0    0  0.43068974953E+02  0.49266718517E+02  0.58048973246E+03  0.58425206516E+03  0.10000000000E+02 0. -1.
</event>
<event>
 5    1  0.1087513E-008  0.3808964E+03  0.7957747E-01  0.3447265E+00
         13   -1    0    0    0    0  0.00000000000E+00  0.00000000000E+00  0.14999999963E+04  0.15000000000E+04  0.10566000000E+00 0.  1.
        994   -1    0    0    0    0 -0.00000000000E+00 -0.00000000000E+00  0.11368683772E-12  0.17120000000E+03  0.17120000000E+03 0.  0.
         13    1    1    2    0    0 -0.13929802762E+02 -0.50400508222E+00  0.24223476561E+02  0.27947833670E+02  0.10566000000E+00 0.  1.
        994    1    1    2    0    0  0.19107055282E+02  0.28928264249E+01  0.49270610688E+01  0.17235766283E+03  0.17120000000E+03 0.  0.
        998    1    1    2    0    0 -0.51772525196E+01 -0.23888213427E+01  0.14708494586E+04  0.14708945035E+04  0.10000000000E+02 0.  1.
</event>
<event>
 5    1  0.1087513E-008  0.3708996E+03  0.7957747E-01  0.3491767E+00
         13   -1    0    0    0    0  0.00000000000E+00  0.00000000000E+00  0.14999999963E+04  0.15000000000E+04  0.10566000000E+00 0. -1.
        994   -1    0    0    0    0 -0.00000000000E+00 -0.00000000000E+00  0.11368683772E-12  0.17120000000E+03  0.17120000000E+03 0.  0.
         13    1    1    2    0    0 -0.51045035623E+02 -0.50435212316E+02  0.29451963393E+03  0.30313550145E+03  0.10566000000E+00 0. -1.
        994    1    1    2    0    0  0.22010081270E+02  0.33209344516E+02  0.14290812659E+02  0.17635467549E+03  0.17120000000E+03 0.  0.
        998    1    1    2    0    0  0.29034954353E+02  0.17225867800E+02  0.11911895497E+04  0.11917098231E+04  0.10000000000E+02 0. -1.
</event>
<event>
 5    1  0.1087513E-008  0.3829449E+03  0.7957747E-01  0.3438435E+00
         13   -1    0    0    0    0  0.00000000000E+00  0.00000000000E+00  0.14999999963E+04  0.15000000000E+04  0.10566000000E+00 0. -1.
        994   -1    0    0    0    0 -0.00000000000E+00 -0.00000000000E+00  0.11368683772E-12  0.17120000000E+03  0.17120000000E+03 0.  0.
         13    1    1    2    0    0 -0.22771065466E+02  0.11836150801E+02  0.12531588027E+03  0.12791675770E+03  0.10566000000E+00 0. -1.
        994    1    1    2    0    0  0.75373567414E+01 -0.14573121994E+02  0.35456172388E+01  0.17202092615E+03  0.17120000000E+03 0.  0.
        998    1    1    2    0    0  0.15233708725E+02  0.27369711923E+01  0.13711384988E+04  0.13712623162E+04  0.10000000000E+02 0. -1.
</event>
<event>
 5    1  0.1087513E-008  0.3773112E+03  0.7957747E-01  0.3462950E+00
         13   -1    0    0    0    0  0.00000000000E+00  0.00000000000E+00  0.14999999963E+04  0.15000000000E+04  0.10566000000E+00 0.  1.
        994   -1    0    0    0    0 -0.00000000000E+00 -0.00000000000E+00  0.11368683772E-12  0.17120000000E+03  0.17120000000E+03 0.  0.
         13    1    1    2    0    0  0.35560467403E+02 -0.46663023630E+02  0.33399322528E+03  0.33910687152E+03  0.10566000000E+00 0.  1.
        994    1    1    2    0    0  0.94305940936E+01  0.41745268119E+02  0.11699513857E+02  0.17685565340E+03  0.17120000000E+03 0.  0.
        998    1    1    2    0    0 -0.44991061496E+02  0.49177555115E+01  0.11543072571E+04  0.11552374751E+04  0.10000000000E+02 0.  1.
</event>
<event>
 5    1  0.1087513E-008  0.3821229E+03  0.7957747E-01  0.3441967E+00
         13   -1    0    0    0    0  0.00000000000E+00  0.00000000000E+00  0.14999999963E+04  0.15000000000E+04  0.10566000000E+00 0.  1.
        994   -1    0    0    0    0 -0.00000000000E+00 -0.00000000000E+00  0.11368683772E-12  0.17120000000E+03  0.17120000000E+03 0.  0.
         13    1    1    2    0    0  0.70345771426E+01 -0.14875462616E+02  0.45650727238E+02  0.48525918074E+02  0.10566000000E+00 0.  1.
        994    1    1    2    0    0 -0.48678343823E+01 -0.56899172640E+01  0.32515044882E+01  0.17139452515E+03  0.17120000000E+03 0.  0.
        998    1    1    2    0    0 -0.21667427604E+01  0.20565379880E+02  0.14510977646E+04  0.14512795568E+04  0.10000000000E+02 0.  1.
</event>
<event>
 5    1  0.1087513E-008  0.3757062E+03  0.7957747E-01  0.3470071E+00
         13   -1    0    0    0    0  0.00000000000E+00  0.00000000000E+00  0.14999999963E+04  0.15000000000E+04  0.10566000000E+00 0. -1.
        994   -1    0    0    0    0 -0.00000000000E+00 -0.00000000000E+00  0.11368683772E-12  0.17120000000E+03  0.17120000000E+03 0.  0.
         13    1    1    2    0    0  0.27359070581E+02 -0.58387717984E+02  0.30534805788E+03  0.31208186742E+03  0.10566000000E+00 0. -1.
        994    1    1    2    0    0 -0.66887536529E+01  0.47588736549E+02  0.14188628129E+02  0.17838213038E+03  0.17120000000E+03 0.  0.
        998    1    1    2    0    0 -0.20670316928E+02  0.10798981435E+02  0.11804633103E+04  0.11807360022E+04  0.10000000000E+02 0. -1.
</event>
<event>
 5    1  0.1087513E-008  0.3851034E+03  0.7957747E-01  0.3429234E+00
         13   -1    0    0    0    0  0.00000000000E+00  0.00000000000E+00  0.14999999963E+04  0.15000000000E+04  0.10566000000E+00 0.  1.
        994   -1    0    0    0    0 -0.00000000000E+00 -0.00000000000E+00  0.11368683772E-12  0.17120000000E+03  0.17120000000E+03 0.  0.
         13    1    1    2    0    0 -0.25554164741E+01  0.16439057809E+02  0.81499665128E+02  0.83180402470E+02  0.10566000000E+00 0.  1.
        994    1    1    2    0    0  0.59050462534E+01 -0.20581018082E+02  0.30874339240E+01  0.17256135177E+03  0.17120000000E+03 0.  0.
        998    1    1    2    0    0 -0.33496297793E+01  0.41419602728E+01  0.14154128972E+04  0.14154582458E+04  0.10000000000E+02 0.  1.
</event>
<event>
 5    1  0.1087513E-008  0.3799241E+03  0.7957747E-01  0.3451489E+00
         13   -1    0    0    0    0  0.00000000000E+00  0.00000000000E+00  0.14999999963E+04  0.15000000000E+04  0.10566000000E+00 0. -1.
        994   -1    0    0    0    0 -0.00000000000E+00 -0.00000000000E+00  0.11368683772E-12  0.17120000000E+03  0.17120000000E+03 0.  0.
         13    1    1    2    0    0  0.86678443800E+02  0.12096273800E+02  0.21027070885E+03  0.22775700785E+03  0.10566000000E+00 0. -1.
        994    1    1    2    0    0 -0.72258962952E+02 -0.20557145449E+02  0.37027439478E+02  0.19058967766E+03  0.17120000000E+03 0.  0.
        998    1    1    2    0    0 -0.14419480848E+02  0.84608716491E+01  0.12527018480E+04  0.12528533145E+04  0.10000000000E+02 0.  1.
</event>
<event>
 5    1  0.1087513E-008  0.3841769E+03  0.7957747E-01  0.3433171E+00
         13   -1    0    0    0    0  0.00000000000E+00  0.00000000000E+00  0.14999999963E+04  0.15000000000E+04  0.10566000000E+00 0.  1.
        994   -1    0    0    0    0 -0.00000000000E+00 -0.00000000000E+00  0.11368683772E-12  0.17120000000E+03  0.17120000000E+03 0.  0.
         13    1    1    2    0    0  0.12650811363E+02  0.65123664812E+01  0.49229474499E+02  0.51244573067E+02  0.10566000000E+00 0.  1.
        994    1    1    2    0    0 -0.65278840141E+01 -0.80174317342E+01  0.23919195400E+01  0.17152858001E+03  0.17120000000E+03 0.  0.
        998    1    1    2    0    0 -0.61229273485E+01  0.15050652529E+01  0.14483786022E+04  0.14484268469E+04  0.10000000000E+02 0.  1.
</event>
<event>
 5    1  0.1087513E-008  0.3769602E+03  0.7957747E-01  0.3464502E+00
         13   -1    0    0    0    0  0.00000000000E+00  0.00000000000E+00  0.14999999963E+04  0.15000000000E+04  0.10566000000E+00 0.  1.
        994   -1    0    0    0    0 -0.00000000000E+00 -0.00000000000E+00  0.11368683772E-12  0.17120000000E+03  0.17120000000E+03 0.  0.
         13    1    1    2    0    0  0.14085938403E+02  0.63633949640E+02  0.31206853995E+03  0.31880162797E+03  0.10566000000E+00 0.  1.
        994    1    1    2    0    0 -0.28575736728E+02 -0.54470747778E+02  0.18560971253E+02  0.18285946721E+03  0.17120000000E+03 0.  0.
        998    1    1    2    0    0  0.14489798325E+02 -0.91632018615E+01  0.11693704851E+04  0.11695389048E+04  0.10000000000E+02 0.  1.
</event>
<event>
 5    1  0.1087513E-008  0.3851433E+03  0.7957747E-01  0.3429065E+00
         13   -1    0    0    0    0  0.00000000000E+00  0.00000000000E+00  0.14999999963E+04  0.15000000000E+04  0.10566000000E+00 0.  1.
        994   -1    0    0    0    0 -0.00000000000E+00 -0.00000000000E+00  0.11368683772E-12  0.17120000000E+03  0.17120000000E+03 0.  0.
         13    1    1    2    0    0 -0.73034917994E+01  0.12963353928E+02  0.67526718213E+02  0.69146643983E+02  0.10566000000E+00 0.  1.
        994    1    1    2    0    0  0.23036417458E+01 -0.19118633353E+02  0.27789213561E+01  0.17230203513E+03  0.17120000000E+03 0.  0.
        998    1    1    2    0    0  0.49998500536E+01  0.61552794251E+01  0.14296943567E+04  0.14297513209E+04  0.10000000000E+02 0.  1.
</event>
<event>
 5    1  0.1087513E-008  0.3785253E+03  0.7957747E-01  0.3457605E+00
         13   -1    0    0    0    0  0.00000000000E+00  0.00000000000E+00  0.14999999963E+04  0.15000000000E+04  0.10566000000E+00 0.  1.
        994   -1    0    0    0    0 -0.00000000000E+00 -0.00000000000E+00  0.11368683772E-12  0.17120000000E+03  0.17120000000E+03 0.  0.
         13    1    1    2    0    0 -0.82661846939E+01 -0.17861485653E+02  0.38973214138E+02  0.43661024535E+02  0.10566000000E+00 0.  1.
        994    1    1    2    0    0  0.23333622264E+01  0.26098727886E+01  0.49205744911E+01  0.17130647410E+03  0.17120000000E+03 0.  0.
        998    1    1    2    0    0  0.59328224675E+01  0.15251612865E+02  0.14561062076E+04  0.14562325014E+04  0.10000000000E+02 0.  1.
</event>
<event>
 5    1  0.1087513E-008  0.3859527E+03  0.7957747E-01  0.3425642E+00
         13   -1    0    0    0    0  0.00000000000E+00  0.00000000000E+00  0.14999999963E+04  0.15000000000E+04  0.10566000000E+00 0. -1.
        994   -1    0    0    0    0 -0.00000000000E+00 -0.00000000000E+00  0.11368683772E-12  0.17120000000E+03  0.17120000000E+03 0.  0.
         13    1    1    2    0    0  0.70805702551E+00 -0.12738762296E+02  0.70846861975E+02  0.71986571146E+02  0.10566000000E+00 0. -1.
        994    1    1    2    0    0 -0.57483857754E+00  0.88072754158E+01  0.14133268492E+01  0.17143318241E+03  0.17120000000E+03 0.  0.
        998    1    1    2    0    0 -0.13321844797E+00  0.39314868800E+01  0.14277398075E+04  0.14277802464E+04  0.10000000000E+02 0. -1.
</event>
<event>
 5    1  0.1087513E-008  0.3776566E+03  0.7957747E-01  0.3461426E+00
         13   -1    0    0    0    0  0.00000000000E+00  0.00000000000E+00  0.14999999963E+04  0.15000000000E+04  0.10566000000E+00 0. -1.
        994   -1    0    0    0    0 -0.00000000000E+00 -0.00000000000E+00  0.11368683772E-12  0.17120000000E+03  0.17120000000E+03 0.  0.
         13    1    1    2    0    0 -0.36184592355E+02  0.34329760616E+02  0.71224057221E+02  0.86952485180E+02  0.10566000000E+00 0. -1.
        994    1    1    2    0    0  0.52275651149E+02 -0.34983853779E+02  0.29401188713E+02  0.18474437373E+03  0.17120000000E+03 0.  0.
        998    1    1    2    0    0 -0.16091058794E+02  0.65409316362E+00  0.13993747503E+04  0.13995031411E+04  0.10000000000E+02 0. -1.
</event>
<event>
 5    1  0.1087513E-008  0.3782199E+03  0.7957747E-01  0.3458946E+00
         13   -1    0    0    0    0  0.00000000000E+00  0.00000000000E+00  0.14999999963E+04  0.15000000000E+04  0.10566000000E+00 0. -1.
        994   -1    0    0    0    0 -0.00000000000E+00 -0.00000000000E+00  0.11368683772E-12  0.17120000000E+03  0.17120000000E+03 0.  0.
         13    1    1    2    0    0 -0.25430605388E+01  0.17045502695E+02  0.27634715269E+02  0.32568465900E+02  0.10566000000E+00 0. -1.
        994    1    1    2    0    0  0.55208514591E+01 -0.84916958141E+01  0.53794939444E+01  0.17158370451E+03  0.17120000000E+03 0.  0.
        998    1    1    2    0    0 -0.29777909203E+01 -0.85538068809E+01  0.14669857871E+04  0.14670478296E+04  0.10000000000E+02 0. -1.
</event>
<event>
 5    1  0.1087513E-008  0.3847952E+03  0.7957747E-01  0.3430541E+00
         13   -1    0    0    0    0  0.00000000000E+00  0.00000000000E+00  0.14999999963E+04  0.15000000000E+04  0.10566000000E+00 0.  1.
        994   -1    0    0    0    0 -0.00000000000E+00 -0.00000000000E+00  0.11368683772E-12  0.17120000000E+03  0.17120000000E+03 0.  0.
         13    1    1    2    0    0 -0.26248080360E+01  0.13225805572E+02  0.51919194905E+02  0.53641639739E+02  0.10566000000E+00 0.  1.
        994    1    1    2    0    0 -0.89013994884E+01 -0.12569862221E+02  0.25129630549E+01  0.17190983489E+03  0.17120000000E+03 0.  0.
        998    1    1    2    0    0  0.11526207524E+02 -0.65594335126E+00  0.14455678383E+04  0.14456485254E+04  0.10000000000E+02 0.  1.
</event>
<event>
 5    1  0.1087513E-008  0.3815682E+03  0.7957747E-01  0.3444359E+00
         13   -1    0    0    0    0  0.00000000000E+00  0.00000000000E+00  0.14999999963E+04  0.15000000000E+04  0.10566000000E+00 0.  1.
        994   -1    0    0    0    0 -0.00000000000E+00 -0.00000000000E+00  0.11368683772E-12  0.17120000000E+03  0.17120000000E+03 0.  0.
         13    1    1    2    0    0  0.94142692877E+01  0.78191608320E+01  0.20838153569E+02  0.24166248168E+02  0.10566000000E+00 0.  1.
        994    1    1    2    0    0 -0.10687065419E+02 -0.62790024649E+01  0.38547388028E+01  0.17169140413E+03  0.17120000000E+03 0.  0.
        998    1    1    2    0    0  0.12727961314E+01 -0.15401583671E+01  0.14753071039E+04  0.14753423477E+04  0.10000000000E+02 0.  1.
</event>
<event>
 5    1  0.1087513E-008  0.3808458E+03  0.7957747E-01  0.3447484E+00
         13   -1    0    0    0    0  0.00000000000E+00  0.00000000000E+00  0.14999999963E+04  0.15000000000E+04  0.10566000000E+00 0. -1.
        994   -1    0    0    0    0 -0.00000000000E+00 -0.00000000000E+00  0.11368683772E-12  0.17120000000E+03  0.17120000000E+03 0.  0.
         13    1    1    2    0    0  0.14398945915E+02  0.14793596079E+02  0.55737249731E+02  0.59437633701E+02  0.10566000000E+00 0. -1.
        994    1    1    2    0    0 -0.12382502323E+02 -0.91414550666E+01  0.44968929829E+01  0.17194927918E+03  0.17120000000E+03 0.  0.
        998    1    1    2    0    0 -0.20164435924E+01 -0.56521410122E+01  0.14397658536E+04  0.14398130871E+04  0.10000000000E+02 0. -1.
</event>
<event>
 5    1  0.1087513E-008  0.3704610E+03  0.7957747E-01  0.3493775E+00
         13   -1    0    0    0    0  0.00000000000E+00  0.00000000000E+00  0.14999999963E+04  0.15000000000E+04  0.10566000000E+00 0.  1.
        994   -1    0    0    0    0 -0.00000000000E+00 -0.00000000000E+00  0.11368683772E-12  0.17120000000E+03  0.17120000000E+03 0.  0.
         13    1    1    2    0    0  0.55719525509E+01 -0.14512544870E+02  0.57516082495E+01  0.16575668171E+02  0.10566000000E+00 0.  1.
        994    1    1    2    0    0 -0.16058445382E+01  0.11479128182E+02  0.11653368452E+02  0.17198718009E+03  0.17120000000E+03 0.  0.
        998    1    1    2    0    0 -0.39661080126E+01  0.30334166883E+01  0.14825950196E+04  0.14826371517E+04  0.10000000000E+02 0.  1.
</event>
<event>
 5    1  0.1087513E-008  0.3845693E+03  0.7957747E-01  0.3431501E+00
         13   -1    0    0    0    0  0.00000000000E+00  0.00000000000E+00  0.14999999963E+04  0.15000000000E+04  0.10566000000E+00 0.  1.
        994   -1    0    0    0    0 -0.00000000000E+00 -0.00000000000E+00  0.11368683772E-12  0.17120000000E+03  0.17120000000E+03 0.  0.
         13    1    1    2    0    0 -0.68279466434E+01 -0.94549207523E+01  0.36902869824E+02  0.38702058693E+02  0.10566000000E+00 0.  1.
        994    1    1    2    0    0  0.11548670245E+01  0.62700428068E+01  0.19779786807E+01  0.17133008946E+03  0.17120000000E+03 0.  0.
        998    1    1    2    0    0  0.56730796189E+01  0.31848779455E+01  0.14611191478E+04  0.14611678518E+04  0.10000000000E+02 0.  1.
</event>
<event>
 5    1  0.1087513E-008  0.3821807E+03  0.7957747E-01  0.3441718E+00
         13   -1    0    0    0    0  0.00000000000E+00  0.00000000000E+00  0.14999999963E+04  0.15000000000E+04  0.10566000000E+00 0. -1.
        994   -1    0    0    0    0 -0.00000000000E+00 -0.00000000000E+00  0.11368683772E-12  0.17120000000E+03  0.17120000000E+03 0.  0.
         13    1    1    2    0    0 -0.13359438734E+02  0.36835717997E+02  0.21606536210E+03  0.21958960947E+03  0.10566000000E+00 0. -1.
        994    1    1    2    0    0  0.47616688595E+01 -0.41339987602E+02  0.88051528492E+01  0.17640475839E+03  0.17120000000E+03 0.  0.
        998    1    1    2    0    0  0.85977698746E+01  0.45042696056E+01  0.12751294813E+04  0.12752056321E+04  0.10000000000E+02 0. -1.
</event>
<event>
 5    1  0.1087513E-008  0.3853067E+03  0.7957747E-01  0.3428372E+00
         13   -1    0    0    0    0  0.00000000000E+00  0.00000000000E+00  0.14999999963E+04  0.15000000000E+04  0.10566000000E+00 0. -1.
        994   -1    0    0    0    0 -0.00000000000E+00 -0.00000000000E+00  0.11368683772E-12  0.17120000000E+03  0.17120000000E+03 0.  0.
         13    1    1    2    0    0  0.11451812283E+02  0.10815505034E+02  0.80751512346E+02  0.82273550208E+02  0.10566000000E+00 0. -1.
        994    1    1    2    0    0 -0.11112237003E+02 -0.11479240077E+02  0.23169987773E+01  0.17195948141E+03  0.17120000000E+03 0.  0.
        998    1    1    2    0    0 -0.33957527952E+00  0.66373504279E+00  0.14169314852E+04  0.14169669684E+04  0.10000000000E+02 0. -1.
</event>
<event>
 5    1  0.1087513E-008  0.3746868E+03  0.7957747E-01  0.3474625E+00
         13   -1    0    0    0    0  0.00000000000E+00  0.00000000000E+00  0.14999999963E+04  0.15000000000E+04  0.10566000000E+00 0. -1.
        994   -1    0    0    0    0 -0.00000000000E+00 -0.00000000000E+00  0.11368683772E-12  0.17120000000E+03  0.17120000000E+03 0.  0.
         13    1    1    2    0    0 -0.20641531257E+02 -0.58565963980E+01  0.32484146362E+02  0.38930752150E+02  0.10566000000E+00 0. -1.
        994    1    1    2    0    0 -0.10579028656E+02  0.20392461561E+02  0.86376206793E+01  0.17295033052E+03  0.17120000000E+03 0.  0.
        998    1    1    2    0    0  0.31220559914E+02 -0.14535865163E+02  0.14588782292E+04  0.14593189173E+04  0.10000000000E+02 0. -1.
</event>
<event>
 5    1  0.1087513E-008  0.3776449E+03  0.7957747E-01  0.3461478E+00
         13   -1    0    0    0    0  0.00000000000E+00  0.00000000000E+00  0.14999999963E+04  0.15000000000E+04  0.10566000000E+00 0.  1.
        994   -1    0    0    0    0 -0.00000000000E+00 -0.00000000000E+00  0.11368683772E-12  0.17120000000E+03  0.17120000000E+03 0.  0.
         13    1    1    2    0    0 -0.61311489798E+02 -0.31597197092E+02  0.33993246544E+03  0.34685958812E+03  0.10566000000E+00 0.  1.
        994    1    1    2    0    0  0.63669514702E+02  0.30085479406E+02  0.22220578920E+02  0.18644607076E+03  0.17120000000E+03 0.  0.
        998    1    1    2    0    0 -0.23580249033E+01  0.15117176863E+01  0.11378469519E+04  0.11378943411E+04  0.10000000000E+02 0.  1.
</event>
<event>
 5    1  0.1087513E-008  0.3811271E+03  0.7957747E-01  0.3446265E+00
         13   -1    0    0    0    0  0.00000000000E+00  0.00000000000E+00  0.14999999963E+04  0.15000000000E+04  0.10566000000E+00 0. -1.
        994   -1    0    0    0    0 -0.00000000000E+00 -0.00000000000E+00  0.11368683772E-12  0.17120000000E+03  0.17120000000E+03 0.  0.
         13    1    1    2    0    0  0.20968622475E+02  0.15723737371E+02  0.10022172140E+03  0.10359210226E+03  0.10566000000E+00 0. -1.
        994    1    1    2    0    0 -0.73868468256E+01 -0.12490716884E+01  0.37522042858E+01  0.17140491452E+03  0.17120000000E+03 0.  0.
        998    1    1    2    0    0 -0.13581775650E+02 -0.14474665682E+02  0.13960260706E+04  0.13962029832E+04  0.10000000000E+02 0. -1.
</event>
<event>
 5    1  0.1087513E-008  0.3846621E+03  0.7957747E-01  0.3431107E+00
         13   -1    0    0    0    0  0.00000000000E+00  0.00000000000E+00  0.14999999963E+04  0.15000000000E+04  0.10566000000E+00 0.  1.
        994   -1    0    0    0    0 -0.00000000000E+00 -0.00000000000E+00  0.11368683772E-12  0.17120000000E+03  0.17120000000E+03 0.  0.
         13    1    1    2    0    0  0.18007902742E+02  0.14440271913E+02  0.13647427679E+03  0.13841259121E+03  0.10566000000E+00 0.  1.
        994    1    1    2    0    0 -0.20136925829E+02 -0.12487332414E+02  0.36485646430E+01  0.17287041759E+03  0.17120000000E+03 0.  0.
        998    1    1    2    0    0  0.21290230869E+01 -0.19529394997E+01  0.13598771548E+04  0.13599169912E+04  0.10000000000E+02 0.  1.
</event>
<event>
 5    1  0.1087513E-008  0.3820650E+03  0.7957747E-01  0.3442216E+00
         13   -1    0    0    0    0  0.00000000000E+00  0.00000000000E+00  0.14999999963E+04  0.15000000000E+04  0.10566000000E+00 0.  1.
        994   -1    0    0    0    0 -0.00000000000E+00 -0.00000000000E+00  0.11368683772E-12  0.17120000000E+03  0.17120000000E+03 0.  0.
         13    1    1    2    0    0 -0.14863397366E+01  0.15457080502E+02  0.36132643192E+02  0.39328229194E+02  0.10566000000E+00 0.  1.
        994    1    1    2    0    0 -0.20912657545E+01 -0.23543464974E+02  0.49514890124E+01  0.17289483908E+03  0.17120000000E+03 0.  0.
        998    1    1    2    0    0  0.35776054911E+01  0.80863844715E+01  0.14589158641E+04  0.14589769317E+04  0.10000000000E+02 0.  1.
</event>
<event>
 5    1  0.1087513E-008  0.3801531E+03  0.7957747E-01  0.3450492E+00
         13   -1    0    0    0    0  0.00000000000E+00  0.00000000000E+00  0.14999999963E+04  0.15000000000E+04  0.10566000000E+00 0. -1.
        994   -1    0    0    0    0 -0.00000000000E+00 -0.00000000000E+00  0.11368683772E-12  0.17120000000E+03  0.17120000000E+03 0.  0.
         13    1    1    2    0    0 -0.19401921511E+02 -0.68294858751E+01  0.52769859107E+02  0.56636963458E+02  0.10566000000E+00 0. -1.
        994    1    1    2    0    0  0.62735825886E+01 -0.91547630001E+01  0.44675189973E+01  0.17161749984E+03  0.17120000000E+03 0.  0.
        998    1    1    2    0    0  0.13128338922E+02  0.15984248875E+02  0.14427626182E+04  0.14429455367E+04  0.10000000000E+02 0. -1.
</event>
<event>
 5    1  0.1087513E-008  0.3857755E+03  0.7957747E-01  0.3426390E+00
         13   -1    0    0    0    0  0.00000000000E+00  0.00000000000E+00  0.14999999963E+04  0.15000000000E+04  0.10566000000E+00 0.  1.
        994   -1    0    0    0    0 -0.00000000000E+00 -0.00000000000E+00  0.11368683772E-12  0.17120000000E+03  0.17120000000E+03 0.  0.
         13    1    1    2    0    0  0.10179490787E+02 -0.67042295876E+01  0.62808674973E+02  0.63980540345E+02  0.10566000000E+00 0.  1.
        994    1    1    2    0    0 -0.63942202762E+01 -0.57968236801E+01  0.14899875374E+01  0.17142388772E+03  0.17120000000E+03 0.  0.
        998    1    1    2    0    0 -0.37852705106E+01  0.12501053268E+02  0.14357013338E+04  0.14357955719E+04  0.10000000000E+02 0.  1.
</event>
<event>
 5    1  0.1087513E-008  0.3749285E+03  0.7957747E-01  0.3473543E+00
         13   -1    0    0    0    0  0.00000000000E+00  0.00000000000E+00  0.14999999963E+04  0.15000000000E+04  0.10566000000E+00 0.  1.
        994   -1    0    0    0    0 -0.00000000000E+00 -0.00000000000E+00  0.11368683772E-12  0.17120000000E+03  0.17120000000E+03 0.  0.
         13    1    1    2    0    0  0.13350178854E+02 -0.14460782845E+01  0.10307732873E+02  0.16928642558E+02  0.10566000000E+00 0.  1.
        994    1    1    2    0    0 -0.14216955271E+02  0.13795413294E+01  0.74094347135E+01  0.17195454246E+03  0.17120000000E+03 0.  0.
        998    1    1    2    0    0  0.86677641666E+00  0.66536955126E-01  0.14822828287E+04  0.14823168150E+04  0.10000000000E+02 0.  1.
</event>
<event>
 5    1  0.1087513E-008  0.3916171E+03  0.7957747E-01  0.3402084E+00
         13   -1    0    0    0    0  0.00000000000E+00  0.00000000000E+00  0.14999999963E+04  0.15000000000E+04  0.10566000000E+00 0. -1.
        994   -1    0    0    0    0 -0.00000000000E+00 -0.00000000000E+00  0.11368683772E-12  0.17120000000E+03  0.17120000000E+03 0.  0.
         13    1    1    2    0    0 -0.55709104608E+01 -0.32901207410E+02  0.14827270076E+02  0.36515525388E+02  0.10566000000E+00 0. -1.
        994    1    1    2    0    0  0.38021614648E+01  0.31148530151E+02  0.26597192923E+02  0.17607253628E+03  0.17120000000E+03 0.  0.
        998    1    1    2    0    0  0.17687489960E+01  0.17526772598E+01  0.14585755333E+04  0.14586119383E+04  0.10000000000E+02 0. -1.
</event>
<event>
 5    1  0.1087513E-008  0.3803150E+03  0.7957747E-01  0.3449788E+00
         13   -1    0    0    0    0  0.00000000000E+00  0.00000000000E+00  0.14999999963E+04  0.15000000000E+04  0.10566000000E+00 0.  1.
        994   -1    0    0    0    0 -0.00000000000E+00 -0.00000000000E+00  0.11368683772E-12  0.17120000000E+03  0.17120000000E+03 0.  0.
         13    1    1    2    0    0 -0.14073065338E+02 -0.90714397300E+01  0.33806937693E+02  0.37726149909E+02  0.10566000000E+00 0.  1.
        994    1    1    2    0    0  0.14576502947E+02 -0.30883722495E+01  0.47159660105E+01  0.17191187515E+03  0.17120000000E+03 0.  0.
        998    1    1    2    0    0 -0.50343760870E+00  0.12159811979E+02  0.14614770926E+04  0.14615619749E+04  0.10000000000E+02 0.  1.
</event>
<event>
 5    1  0.1087513E-008  0.3814293E+03  0.7957747E-01  0.3444958E+00
         13   -1    0    0    0    0  0.00000000000E+00  0.00000000000E+00  0.14999999963E+04  0.15000000000E+04  0.10566000000E+00 0.  1.
        994   -1    0    0    0    0 -0.00000000000E+00 -0.00000000000E+00  0.11368683772E-12  0.17120000000E+03  0.17120000000E+03 0.  0.
         13    1    1    2    0    0  0.12233099805E+02  0.17268380358E+02  0.70345286698E+02  0.73459623030E+02  0.10566000000E+00 0.  1.
        994    1    1    2    0    0  0.10567872594E+01  0.52552103752E+01  0.35089878529E+01  0.17131983841E+03  0.17120000000E+03 0.  0.
        998    1    1    2    0    0 -0.13289887065E+02 -0.22523590733E+02  0.14261457217E+04  0.14264205386E+04  0.10000000000E+02 0.  1.
</event>
<event>
 5    1  0.1087513E-008  0.3714467E+03  0.7957747E-01  0.3489268E+00
         13   -1    0    0    0    0  0.00000000000E+00  0.00000000000E+00  0.14999999963E+04  0.15000000000E+04  0.10566000000E+00 0.  1.
        994   -1    0    0    0    0 -0.00000000000E+00 -0.00000000000E+00  0.11368683772E-12  0.17120000000E+03  0.17120000000E+03 0.  0.
         13    1    1    2    0    0 -0.42826068170E+02  0.15214582052E+02  0.11070509024E+03  0.11967114853E+03  0.10566000000E+00 0.  1.
        994    1    1    2    0    0  0.41854491681E+02 -0.14971198001E+02  0.15343813898E+02  0.17754100334E+03  0.17120000000E+03 0.  0.
        998    1    1    2    0    0  0.97157648887E+00 -0.24338405042E+00  0.13739510921E+04  0.13739878481E+04  0.10000000000E+02 0.  1.
</event>
<event>
 5    1  0.1087513E-008  0.3853161E+03  0.7957747E-01  0.3428333E+00
         13   -1    0    0    0    0  0.00000000000E+00  0.00000000000E+00  0.14999999963E+04  0.15000000000E+04  0.10566000000E+00 0.  1.
        994   -1    0    0    0    0 -0.00000000000E+00 -0.00000000000E+00  0.11368683772E-12  0.17120000000E+03  0.17120000000E+03 0.  0.
         13    1    1    2    0    0  0.14103907461E+02 -0.36072088048E+01  0.72286076841E+02  0.73737508977E+02  0.10566000000E+00 0.  1.
        994    1    1    2    0    0 -0.81058396942E+01  0.59647381592E+01  0.18061148743E+01  0.17150505762E+03  0.17120000000E+03 0.  0.
        998    1    1    2    0    0 -0.59980677663E+01 -0.23575293544E+01  0.14259078046E+04  0.14259574334E+04  0.10000000000E+02 0.  1.
</event>
<event>
 5    1  0.1737742E-008  0.3857455E+03  0.7957747E-01  0.3426517E+00
         13   -1    0    0    0    0  0.00000000000E+00  0.00000000000E+00  0.14999999963E+04  0.15000000000E+04  0.10566000000E+00 0.  1.
        994   -1    0    0    0    0 -0.00000000000E+00 -0.00000000000E+00  0.11368683772E-12  0.17120000000E+03  0.17120000000E+03 0.  0.
         13    1    1    2    0    0  0.10004321799E+02 -0.63959700486E+01  0.56985496560E+02  0.58209559952E+02  0.10566000000E+00 0.  1.
        994    1    1    2    0    0 -0.57311706730E+01  0.28089340364E+01  0.13941422271E+01  0.17132460436E+03  0.17120000000E+03 0.  0.
        998    1    1    2    0    0 -0.42731511259E+01  0.35870360122E+01  0.14416203575E+04  0.14416658357E+04  0.10000000000E+02 0.  1.
</event>
<event>
 5    1  0.1087513E-008  0.3834399E+03  0.7957747E-01  0.3436316E+00
         13   -1    0    0    0    0  0.00000000000E+00  0.00000000000E+00  0.14999999963E+04  0.15000000000E+04  0.10566000000E+00 0.  1.
        994   -1    0    0    0    0 -0.00000000000E+00 -0.00000000000E+00  0.11368683772E-12  0.17120000000E+03  0.17120000000E+03 0.  0.
         13    1    1    2    0    0 -0.18302763563E+02 -0.21517200977E+02  0.16694492196E+03  0.16931804164E+03  0.10566000000E+00 0.  1.
        994    1    1    2    0    0  0.87613226982E+01  0.12945188173E+02  0.32147472484E+01  0.17194218003E+03  0.17120000000E+03 0.  0.
        998    1    1    2    0    0  0.95414408647E+01  0.85720128036E+01  0.13298403271E+04  0.13299397783E+04  0.10000000000E+02 0.  1.
</event>
<event>
 5    1  0.1087513E-008  0.3817542E+03  0.7957747E-01  0.3443556E+00
         13   -1    0    0    0    0  0.00000000000E+00  0.00000000000E+00  0.14999999963E+04  0.15000000000E+04  0.10566000000E+00 0.  1.
        994   -1    0    0    0    0 -0.00000000000E+00 -0.00000000000E+00  0.11368683772E-12  0.17120000000E+03  0.17120000000E+03 0.  0.
         13    1    1    2    0    0 -0.15929101459E+02  0.43801641929E+01  0.39906583891E+02  0.43191072151E+02  0.10566000000E+00 0.  1.
        994    1    1    2    0    0  0.18738398005E+02  0.36097621578E+01  0.44615002836E+01  0.17231802845E+03  0.17120000000E+03 0.  0.
        998    1    1    2    0    0 -0.28092965458E+01 -0.79899263506E+01  0.14556319121E+04  0.14556908994E+04  0.10000000000E+02 0.  1.
</event>
<event>
 5    1  0.1087513E-008  0.3794631E+03  0.7957747E-01  0.3453499E+00
         13   -1    0    0    0    0  0.00000000000E+00  0.00000000000E+00  0.14999999963E+04  0.15000000000E+04  0.10566000000E+00 0. -1.
        994   -1    0    0    0    0 -0.00000000000E+00 -0.00000000000E+00  0.11368683772E-12  0.17120000000E+03  0.17120000000E+03 0.  0.
         13    1    1    2    0    0 -0.24355888040E+02  0.19011706545E+02  0.23385230080E+02  0.38749637649E+02  0.10566000000E+00 0. -1.
        994    1    1    2    0    0  0.31623950034E+02  0.89330698496E+01  0.19947767176E+02  0.17546289456E+03  0.17120000000E+03 0.  0.
        998    1    1    2    0    0 -0.72680619932E+01 -0.27944776394E+02  0.14566669990E+04  0.14569874678E+04  0.10000000000E+02 0. -1.
</event>
<event>
 5    1  0.1087513E-008  0.3853969E+03  0.7957747E-01  0.3427991E+00
         13   -1    0    0    0    0  0.00000000000E+00  0.00000000000E+00  0.14999999963E+04  0.15000000000E+04  0.10566000000E+00 0.  1.
        994   -1    0    0    0    0 -0.00000000000E+00 -0.00000000000E+00  0.11368683772E-12  0.17120000000E+03  0.17120000000E+03 0.  0.
         13    1    1    2    0    0  0.11772444141E+02 -0.96886178235E+01  0.90597265153E+02  0.91871297877E+02  0.10566000000E+00 0.  1.
        994    1    1    2    0    0 -0.14186042869E+02 -0.20615471876E+02  0.34927775907E+01  0.17305456073E+03  0.17120000000E+03 0.  0.
        998    1    1    2    0    0  0.24135987276E+01  0.30304089699E+02  0.14059099535E+04  0.14062741414E+04  0.10000000000E+02 0.  1.
</event>
<event>
 5    1  0.1087513E-008  0.3805130E+03  0.7957747E-01  0.3448928E+00
         13   -1    0    0    0    0  0.00000000000E+00  0.00000000000E+00  0.14999999963E+04  0.15000000000E+04  0.10566000000E+00 0. -1.
        994   -1    0    0    0    0 -0.00000000000E+00 -0.00000000000E+00  0.11368683772E-12  0.17120000000E+03  0.17120000000E+03 0.  0.
         13    1    1    2    0    0 -0.16854710963E+02 -0.30367989617E+02  0.18150935593E+03  0.18480247165E+03  0.10566000000E+00 0. -1.
        994    1    1    2    0    0 -0.57141391803E+01  0.14678533989E+01  0.39905704317E+01  0.17134809784E+03  0.17120000000E+03 0.  0.
        998    1    1    2    0    0  0.22568850144E+02  0.28900136219E+02  0.13145000699E+04  0.13150494305E+04  0.10000000000E+02 0. -1.
</event>
<event>
 5    1  0.1087513E-008  0.3117358E+03  0.7957747E-01  0.3815642E+00
         13   -1    0    0    0    0  0.00000000000E+00  0.00000000000E+00  0.14999999963E+04  0.15000000000E+04  0.10566000000E+00 0. -1.
        994   -1    0    0    0    0 -0.00000000000E+00 -0.00000000000E+00  0.11368683772E-12  0.17120000000E+03  0.17120000000E+03 0.  0.
         13    1    1    2    0    0 -0.17757028987E+03 -0.80606121961E+02  0.71154692374E+03  0.73778559934E+03  0.10566000000E+00 0. -1.
        994    1    1    2    0    0  0.18665556701E+03  0.62237436931E+02  0.16302707459E+03  0.30757286340E+03  0.17120000000E+03 0.  0.
        998    1    1    2    0    0 -0.90852771450E+01  0.18368685030E+02  0.62542599795E+03  0.62584153726E+03  0.10000000000E+02 0. -1.
</event>
<event>
 5    1  0.1087513E-008  0.3837026E+03  0.7957747E-01  0.3435194E+00
         13   -1    0    0    0    0  0.00000000000E+00  0.00000000000E+00  0.14999999963E+04  0.15000000000E+04  0.10566000000E+00 0. -1.
        994   -1    0    0    0    0 -0.00000000000E+00 -0.00000000000E+00  0.11368683772E-12  0.17120000000E+03  0.17120000000E+03 0.  0.
         13    1    1    2    0    0 -0.16120138838E+02 -0.12345799099E+02  0.87190467668E+02  0.89523552475E+02  0.10566000000E+00 0. -1.
        994    1    1    2    0    0  0.15727268936E+02  0.91029892198E+01  0.33669627800E+01  0.17219462198E+03  0.17120000000E+03 0.  0.
        998    1    1    2    0    0  0.39286990228E+00  0.32428098795E+01  0.14094425658E+04  0.14094818255E+04  0.10000000000E+02 0. -1.
</event>
<event>
 5    1  0.1087513E-008  0.3718362E+03  0.7957747E-01  0.3487495E+00
         13   -1    0    0    0    0  0.00000000000E+00  0.00000000000E+00  0.14999999963E+04  0.15000000000E+04  0.10566000000E+00 0.  1.
        994   -1    0    0    0    0 -0.00000000000E+00 -0.00000000000E+00  0.11368683772E-12  0.17120000000E+03  0.17120000000E+03 0.  0.
         13    1    1    2    0    0  0.79529234613E+01 -0.70031758833E+02  0.29583476607E+03  0.30411497203E+03  0.10566000000E+00 0.  1.
        994    1    1    2    0    0 -0.46605955053E+02 -0.20964826595E+02  0.21159659926E+02  0.17991334083E+03  0.17120000000E+03 0.  0.
        998    1    1    2    0    0  0.38653031591E+02  0.90996585428E+02  0.11830055703E+04  0.11871716871E+04  0.10000000000E+02 0.  1.
</event>
<event>
 5    1  0.1087513E-008  0.3770161E+03  0.7957747E-01  0.3464255E+00
         13   -1    0    0    0    0  0.00000000000E+00  0.00000000000E+00  0.14999999963E+04  0.15000000000E+04  0.10566000000E+00 0. -1.
        994   -1    0    0    0    0 -0.00000000000E+00 -0.00000000000E+00  0.11368683772E-12  0.17120000000E+03  0.17120000000E+03 0.  0.
         13    1    1    2    0    0 -0.53974139171E+02  0.39459116694E+02  0.33790069419E+03  0.34445191230E+03  0.10566000000E+00 0. -1.
        994    1    1    2    0    0  0.48245819736E+02 -0.28975622706E+02  0.16416184044E+02  0.18095904766E+03  0.17120000000E+03 0.  0.
        998    1    1    2    0    0  0.57283194350E+01 -0.10483493988E+02  0.11456831180E+04  0.11457890400E+04  0.10000000000E+02 0. -1.
</event>
<event>
 5    1  0.1564610E-008  0.3852768E+03  0.7957747E-01  0.3428499E+00
         13   -1    0    0    0    0  0.00000000000E+00  0.00000000000E+00  0.14999999963E+04  0.15000000000E+04  0.10566000000E+00 0.  1.
        994   -1    0    0    0    0 -0.00000000000E+00 -0.00000000000E+00  0.11368683772E-12  0.17120000000E+03  0.17120000000E+03 0.  0.
         13    1    1    2    0    0  0.11925171049E+01  0.12537657361E+02  0.51574995477E+02  0.53090547856E+02  0.10566000000E+00 0.  1.
        994    1    1    2    0    0 -0.82160159408E+00 -0.13808646624E+02  0.21217812306E+01  0.17177105608E+03  0.17120000000E+03 0.  0.
        998    1    1    2    0    0 -0.37091551077E+00  0.12709892636E+01  0.14463032196E+04  0.14463383961E+04  0.10000000000E+02 0.  1.
</event>
<event>
 5    1  0.1087513E-008  0.3794729E+03  0.7957747E-01  0.3453457E+00
         13   -1    0    0    0    0  0.00000000000E+00  0.00000000000E+00  0.14999999963E+04  0.15000000000E+04  0.10566000000E+00 0. -1.
        994   -1    0    0    0    0 -0.00000000000E+00 -0.00000000000E+00  0.11368683772E-12  0.17120000000E+03  0.17120000000E+03 0.  0.
         13    1    1    2    0    0  0.83318442967E+00 -0.37219596029E+02  0.20471006799E+03  0.20806781497E+03  0.10566000000E+00 0. -1.
        994    1    1    2    0    0 -0.15542721008E+01 -0.13937166504E+02  0.50582917189E+01  0.17184785913E+03  0.17120000000E+03 0.  0.
        998    1    1    2    0    0  0.72108767115E+00  0.51156762533E+02  0.12902316366E+04  0.12912843259E+04  0.10000000000E+02 0. -1.
</event>
<event>
 5    1  0.1087513E-008  0.3854225E+03  0.7957747E-01  0.3427882E+00
         13   -1    0    0    0    0  0.00000000000E+00  0.00000000000E+00  0.14999999963E+04  0.15000000000E+04  0.10566000000E+00 0.  1.
        994   -1    0    0    0    0 -0.00000000000E+00 -0.00000000000E+00  0.11368683772E-12  0.17120000000E+03  0.17120000000E+03 0.  0.
         13    1    1    2    0    0  0.15147401286E+02  0.56881198561E+01  0.94453110444E+02  0.95829012881E+02  0.10566000000E+00 0.  1.
        994    1    1    2    0    0 -0.90328568665E+01  0.14049200926E+01  0.16950140955E+01  0.17145226559E+03  0.17120000000E+03 0.  0.
        998    1    1    2    0    0 -0.61145444199E+01 -0.70930399487E+01  0.14038518717E+04  0.14039187215E+04  0.10000000000E+02 0.  1.
</event>
<event>
 5    1  0.1087513E-008  0.3806310E+03  0.7957747E-01  0.3448416E+00
         13   -1    0    0    0    0  0.00000000000E+00  0.00000000000E+00  0.14999999963E+04  0.15000000000E+04  0.10566000000E+00 0. -1.
        994   -1    0    0    0    0 -0.00000000000E+00 -0.00000000000E+00  0.11368683772E-12  0.17120000000E+03  0.17120000000E+03 0.  0.
         13    1    1    2    0    0  0.25972717200E+02 -0.15248508549E+01  0.92019250349E+02  0.95626674144E+02  0.10566000000E+00 0. -1.
        994    1    1    2    0    0 -0.63926285998E+01 -0.52205998708E+01  0.40422573340E+01  0.17144649372E+03  0.17120000000E+03 0.  0.
        998    1    1    2    0    0 -0.19580088600E+02  0.67454507256E+01  0.14039384886E+04  0.14041268321E+04  0.10000000000E+02 0. -1.
</event>
<event>
 5    1  0.1087513E-008  0.3742742E+03  0.7957747E-01  0.3476475E+00
         13   -1    0    0    0    0  0.00000000000E+00  0.00000000000E+00  0.14999999963E+04  0.15000000000E+04  0.10566000000E+00 0. -1.
        994   -1    0    0    0    0 -0.00000000000E+00 -0.00000000000E+00  0.11368683772E-12  0.17120000000E+03  0.17120000000E+03 0.  0.
         13    1    1    2    0    0 -0.96366435197E+01  0.14860377439E+02  0.18720840709E+02  0.25771626973E+02  0.10566000000E+00 0. -1.
        994    1    1    2    0    0  0.13487821160E+02 -0.18917034133E+02  0.88933636043E+01  0.17299799830E+03  0.17120000000E+03 0.  0.
        998    1    1    2    0    0 -0.38511776400E+01  0.40566566939E+01  0.14723857920E+04  0.14724303747E+04  0.10000000000E+02 0. -1.
</event>
<event>
 5    1  0.1087513E-008  0.3834153E+03  0.7957747E-01  0.3436421E+00
         13   -1    0    0    0    0  0.00000000000E+00  0.00000000000E+00  0.14999999963E+04  0.15000000000E+04  0.10566000000E+00 0. -1.
        994   -1    0    0    0    0 -0.00000000000E+00 -0.00000000000E+00  0.11368683772E-12  0.17120000000E+03  0.17120000000E+03 0.  0.
         13    1    1    2    0    0  0.23515904676E+02  0.72133610691E+00  0.10521944321E+03  0.10781771882E+03  0.10566000000E+00 0. -1.
        994    1    1    2    0    0 -0.26388028207E+02  0.11398103333E+01  0.47284584169E+01  0.17329000410E+03  0.17120000000E+03 0.  0.
        998    1    1    2    0    0  0.28721235306E+01 -0.18611464403E+01  0.13900520947E+04  0.13900922771E+04  0.10000000000E+02 0. -1.
</event>
<event>
 5    1  0.1087513E-008  0.3850521E+03  0.7957747E-01  0.3429451E+00
         13   -1    0    0    0    0  0.00000000000E+00  0.00000000000E+00  0.14999999963E+04  0.15000000000E+04  0.10566000000E+00 0.  1.
        994   -1    0    0    0    0 -0.00000000000E+00 -0.00000000000E+00  0.11368683772E-12  0.17120000000E+03  0.17120000000E+03 0.  0.
         13    1    1    2    0    0  0.85073579927E+01 -0.67083427601E+01  0.60040965306E+02  0.61010701369E+02  0.10566000000E+00 0.  1.
        994    1    1    2    0    0  0.47802744404E+02 -0.46118020922E+02  0.16248242835E+02  0.18435134830E+03  0.17120000000E+03 0.  0.
        998    1    1    2    0    0 -0.56310102397E+02  0.52826363683E+02  0.14237107881E+04  0.14258379503E+04  0.10000000000E+02 0.  1.
</event>
<event>
 5    1  0.1087513E-008  0.3764952E+03  0.7957747E-01  0.3466563E+00
         13   -1    0    0    0    0  0.00000000000E+00  0.00000000000E+00  0.14999999963E+04  0.15000000000E+04  0.10566000000E+00 0.  1.
        994   -1    0    0    0    0 -0.00000000000E+00 -0.00000000000E+00  0.11368683772E-12  0.17120000000E+03  0.17120000000E+03 0.  0.
         13    1    1    2    0    0 -0.16737887422E+02  0.14438149933E+02  0.38005604380E+02  0.43966511997E+02  0.10566000000E+00 0.  1.
        994    1    1    2    0    0  0.16480009435E+02 -0.16230388084E+02  0.77245017052E+01  0.17292808949E+03  0.17120000000E+03 0.  0.
        998    1    1    2    0    0  0.25787798777E+00  0.17922381504E+01  0.14542698902E+04  0.14543053985E+04  0.10000000000E+02 0.  1.
</event>
<event>
 5    1  0.1087513E-008  0.3893018E+03  0.7957747E-01  0.3411630E+00
         13   -1    0    0    0    0  0.00000000000E+00  0.00000000000E+00  0.14999999963E+04  0.15000000000E+04  0.10566000000E+00 0.  1.
        994   -1    0    0    0    0 -0.00000000000E+00 -0.00000000000E+00  0.11368683772E-12  0.17120000000E+03  0.17120000000E+03 0.  0.
         13    1    1    2    0    0 -0.53168161242E+02  0.30526854361E+02  0.82599851128E+02  0.10286636368E+03  0.10566000000E+00 0.  1.
        994    1    1    2    0    0  0.22559763455E+02 -0.26195652532E+02  0.26030594559E+02  0.17658478698E+03  0.17120000000E+03 0.  0.
        998    1    1    2    0    0  0.30608397788E+02 -0.43312018286E+01  0.13913695506E+04  0.13917488493E+04  0.10000000000E+02 0.  1.
</event>
<event>
 5    1  0.1087513E-008  0.3774894E+03  0.7957747E-01  0.3462164E+00
         13   -1    0    0    0    0  0.00000000000E+00  0.00000000000E+00  0.14999999963E+04  0.15000000000E+04  0.10566000000E+00 0. -1.
        994   -1    0    0    0    0 -0.00000000000E+00 -0.00000000000E+00  0.11368683772E-12  0.17120000000E+03  0.17120000000E+03 0.  0.
         13    1    1    2    0    0  0.43288427646E+01 -0.19390731895E+02  0.33660276144E+02  0.39086630927E+02  0.10566000000E+00 0. -1.
        994    1    1    2    0    0 -0.53141380259E+01  0.19440071025E+02  0.67761960123E+01  0.17251525514E+03  0.17120000000E+03 0.  0.
        998    1    1    2    0    0  0.98529526127E+00 -0.49339129633E-01  0.14595635241E+04  0.14595981139E+04  0.10000000000E+02 0. -1.
</event>
<event>
 5    1  0.1087513E-008  0.3786150E+03  0.7957747E-01  0.3457211E+00
         13   -1    0    0    0    0  0.00000000000E+00  0.00000000000E+00  0.14999999963E+04  0.15000000000E+04  0.10566000000E+00 0.  1.
        994   -1    0    0    0    0 -0.00000000000E+00 -0.00000000000E+00  0.11368683772E-12  0.17120000000E+03  0.17120000000E+03 0.  0.
         13    1    1    2    0    0  0.10335406835E+01 -0.46414773749E+02  0.22416582634E+03  0.22892297458E+03  0.10566000000E+00 0.  1.
        994    1    1    2    0    0  0.30848589193E+01  0.24989439019E+02  0.69659497275E+01  0.17318184914E+03  0.17120000000E+03 0.  0.
        998    1    1    2    0    0 -0.41183996028E+01  0.21425334729E+02  0.12688682202E+04  0.12690951763E+04  0.10000000000E+02 0.  1.
</event>
<event>
 5    1  0.1087513E-008  0.3852867E+03  0.7957747E-01  0.3428457E+00
         13   -1    0    0    0    0  0.00000000000E+00  0.00000000000E+00  0.14999999963E+04  0.15000000000E+04  0.10566000000E+00 0.  1.
        994   -1    0    0    0    0 -0.00000000000E+00 -0.00000000000E+00  0.11368683772E-12  0.17120000000E+03  0.17120000000E+03 0.  0.
         13    1    1    2    0    0  0.14955079365E+02 -0.24823676696E+00  0.71450737653E+02  0.72999555447E+02  0.10566000000E+00 0.  1.
        994    1    1    2    0    0 -0.17643681539E+02  0.11606778604E+01  0.25157694539E+01  0.17212906718E+03  0.17120000000E+03 0.  0.
        998    1    1    2    0    0  0.26886021745E+01 -0.91244109348E+00  0.14260334892E+04  0.14260713774E+04  0.10000000000E+02 0.  1.
</event>
<event>
 5    1  0.1087513E-008  0.3854336E+03  0.7957747E-01  0.3427835E+00
         13   -1    0    0    0    0  0.00000000000E+00  0.00000000000E+00  0.14999999963E+04  0.15000000000E+04  0.10566000000E+00 0. -1.
        994   -1    0    0    0    0 -0.00000000000E+00 -0.00000000000E+00  0.11368683772E-12  0.17120000000E+03  0.17120000000E+03 0.  0.
         13    1    1    2    0    0 -0.11582948363E+02  0.72733079690E+01  0.65672888504E+02  0.67082077712E+02  0.10566000000E+00 0. -1.
        994    1    1    2    0    0  0.22982960354E+01 -0.16785512760E+02  0.23582173959E+01  0.17205242455E+03  0.17120000000E+03 0.  0.
        998    1    1    2    0    0  0.92846523276E+01  0.95122047907E+01  0.14319688904E+04  0.14320654977E+04  0.10000000000E+02 0. -1.
</event>
<event>
 5    1  0.1087513E-008  0.3807643E+03  0.7957747E-01  0.3447837E+00
         13   -1    0    0    0    0  0.00000000000E+00  0.00000000000E+00  0.14999999963E+04  0.15000000000E+04  0.10566000000E+00 0.  1.
        994   -1    0    0    0    0 -0.00000000000E+00 -0.00000000000E+00  0.11368683772E-12  0.17120000000E+03  0.17120000000E+03 0.  0.
         13    1    1    2    0    0  0.12540052780E+02  0.26874037652E+02  0.13698532800E+03  0.14015868890E+03  0.10566000000E+00 0.  1.
        994    1    1    2    0    0 -0.13943157577E+02  0.14699106167E+02  0.51177309028E+01  0.17247059615E+03  0.17120000000E+03 0.  0.
        998    1    1    2    0    0  0.14031047969E+01 -0.41573143819E+02  0.13578969374E+04  0.13585707150E+04  0.10000000000E+02 0.  1.
</event>
<event>
 5    1  0.1087513E-008  0.3821449E+03  0.7957747E-01  0.3441872E+00
         13   -1    0    0    0    0  0.00000000000E+00  0.00000000000E+00  0.14999999963E+04  0.15000000000E+04  0.10566000000E+00 0.  1.
        994   -1    0    0    0    0 -0.00000000000E+00 -0.00000000000E+00  0.11368683772E-12  0.17120000000E+03  0.17120000000E+03 0.  0.
         13    1    1    2    0    0  0.90775634539E+01 -0.75227049047E+01  0.21373360365E+02  0.24409525695E+02  0.10566000000E+00 0.  1.
        994    1    1    2    0    0 -0.74284295241E+01  0.86726689584E+01  0.34872700372E+01  0.17161584369E+03  0.17120000000E+03 0.  0.
        998    1    1    2    0    0 -0.16491339298E+01 -0.11499640536E+01  0.14751393659E+04  0.14751746306E+04  0.10000000000E+02 0.  1.
</event>
<event>
 5    1  0.1087513E-008  0.3849808E+03  0.7957747E-01  0.3429754E+00
         13   -1    0    0    0    0  0.00000000000E+00  0.00000000000E+00  0.14999999963E+04  0.15000000000E+04  0.10566000000E+00 0.  1.
        994   -1    0    0    0    0 -0.00000000000E+00 -0.00000000000E+00  0.11368683772E-12  0.17120000000E+03  0.17120000000E+03 0.  0.
         13    1    1    2    0    0 -0.65352275421E+01  0.11241692744E+02  0.51554290881E+02  0.53168984634E+02  0.10566000000E+00 0.  1.
        994    1    1    2    0    0  0.60689470522E+01 -0.63228296946E+01  0.18923190227E+01  0.17143462651E+03  0.17120000000E+03 0.  0.
        998    1    1    2    0    0  0.46628048986E+00 -0.49188630493E+01  0.14465533864E+04  0.14465963889E+04  0.10000000000E+02 0.  1.
</event>
<event>
 5    1  0.1087513E-008  0.3766273E+03  0.7957747E-01  0.3465977E+00
         13   -1    0    0    0    0  0.00000000000E+00  0.00000000000E+00  0.14999999963E+04  0.15000000000E+04  0.10566000000E+00 0. -1.
        994   -1    0    0    0    0 -0.00000000000E+00 -0.00000000000E+00  0.11368683772E-12  0.17120000000E+03  0.17120000000E+03 0.  0.
         13    1    1    2    0    0 -0.31954501503E+01 -0.14153382577E+02  0.15915429935E+02  0.21536973188E+02  0.10566000000E+00 0. -1.
        994    1    1    2    0    0 -0.66647915939E+01 -0.53069401759E+00  0.59965999531E+01  0.17143541144E+03  0.17120000000E+03 0.  0.
        998    1    1    2    0    0  0.98602417441E+01  0.14684076595E+02  0.14780879664E+04  0.14782276154E+04  0.10000000000E+02 0. -1.
</event>
<event>
 5    1  0.1087513E-008  0.3807695E+03  0.7957747E-01  0.3447815E+00
         13   -1    0    0    0    0  0.00000000000E+00  0.00000000000E+00  0.14999999963E+04  0.15000000000E+04  0.10566000000E+00 0. -1.
        994   -1    0    0    0    0 -0.00000000000E+00 -0.00000000000E+00  0.11368683772E-12  0.17120000000E+03  0.17120000000E+03 0.  0.
         13    1    1    2    0    0  0.14469860800E+02  0.19076268567E+02  0.72098763352E+02  0.75970545180E+02  0.10566000000E+00 0. -1.
        994    1    1    2    0    0 -0.13095849320E+02 -0.20627121089E+02  0.57383497693E+01  0.17302990508E+03  0.17120000000E+03 0.  0.
        998    1    1    2    0    0 -0.13740114800E+01  0.15508525227E+01  0.14221628832E+04  0.14221995497E+04  0.10000000000E+02 0. -1.
</event>
<event>
 5    1  0.1087513E-008  0.3804895E+03  0.7957747E-01  0.3449030E+00
         13   -1    0    0    0    0  0.00000000000E+00  0.00000000000E+00  0.14999999963E+04  0.15000000000E+04  0.10566000000E+00 0.  1.
        994   -1    0    0    0    0 -0.00000000000E+00 -0.00000000000E+00  0.11368683772E-12  0.17120000000E+03  0.17120000000E+03 0.  0.
         13    1    1    2    0    0  0.48259716552E+02  0.24456193667E+02  0.26793625468E+03  0.27334402022E+03  0.10566000000E+00 0.  1.
        994    1    1    2    0    0 -0.49006817960E+02 -0.64137103411E+02  0.25946178238E+02  0.19104418443E+03  0.17120000000E+03 0.  0.
        998    1    1    2    0    0  0.74710140802E+00  0.39680909744E+02  0.12061175634E+04  0.12068117953E+04  0.10000000000E+02 0.  1.
</event>
<event>
 5    1  0.1087513E-008  0.3839028E+03  0.7957747E-01  0.3434339E+00
         13   -1    0    0    0    0  0.00000000000E+00  0.00000000000E+00  0.14999999963E+04  0.15000000000E+04  0.10566000000E+00 0.  1.
        994   -1    0    0    0    0 -0.00000000000E+00 -0.00000000000E+00  0.11368683772E-12  0.17120000000E+03  0.17120000000E+03 0.  0.
         13    1    1    2    0    0 -0.14647383458E+01 -0.15195834560E+02  0.52944095343E+02  0.55101245377E+02  0.10566000000E+00 0.  1.
        994    1    1    2    0    0 -0.19088254293E+01  0.10770697360E+02  0.25708334190E+01  0.17156835583E+03  0.17120000000E+03 0.  0.
        998    1    1    2    0    0  0.33735637751E+01  0.44251371993E+01  0.14444850675E+04  0.14445303988E+04  0.10000000000E+02 0.  1.
</event>
<event>
 5    1  0.1087513E-008  0.3847772E+03  0.7957747E-01  0.3430618E+00
         13   -1    0    0    0    0  0.00000000000E+00  0.00000000000E+00  0.14999999963E+04  0.15000000000E+04  0.10566000000E+00 0. -1.
        994   -1    0    0    0    0 -0.00000000000E+00 -0.00000000000E+00  0.11368683772E-12  0.17120000000E+03  0.17120000000E+03 0.  0.
         13    1    1    2    0    0  0.14766447330E+00  0.14416311399E+02  0.57495324047E+02  0.59275418939E+02  0.10566000000E+00 0. -1.
        994    1    1    2    0    0  0.71916152671E+01 -0.15860610785E+02  0.27395165965E+01  0.17210526795E+03  0.17120000000E+03 0.  0.
        998    1    1    2    0    0 -0.73392797404E+01  0.14442993862E+01  0.14397651556E+04  0.14398193131E+04  0.10000000000E+02 0. -1.
</event>
<event>
 5    1  0.1087513E-008  0.3846522E+03  0.7957747E-01  0.3431149E+00
         13   -1    0    0    0    0  0.00000000000E+00  0.00000000000E+00  0.14999999963E+04  0.15000000000E+04  0.10566000000E+00 0. -1.
        994   -1    0    0    0    0 -0.00000000000E+00 -0.00000000000E+00  0.11368683772E-12  0.17120000000E+03  0.17120000000E+03 0.  0.
         13    1    1    2    0    0 -0.47021433268E+01 -0.93262105046E+01  0.29518377479E+02  0.31311884761E+02  0.10566000000E+00 0. -1.
        994    1    1    2    0    0  0.10127206281E+02  0.61872919751E+01  0.22667529374E+01  0.17162581699E+03  0.17120000000E+03 0.  0.
        998    1    1    2    0    0 -0.54250629546E+01  0.31389185294E+01  0.14682148659E+04  0.14682622982E+04  0.10000000000E+02 0. -1.
</event>
<event>
 5    1  0.1087513E-008  0.3690972E+03  0.7957747E-01  0.3500050E+00
         13   -1    0    0    0    0  0.00000000000E+00  0.00000000000E+00  0.14999999963E+04  0.15000000000E+04  0.10566000000E+00 0.  1.
        994   -1    0    0    0    0 -0.00000000000E+00 -0.00000000000E+00  0.11368683772E-12  0.17120000000E+03  0.17120000000E+03 0.  0.
         13    1    1    2    0    0  0.22014091151E+03 -0.23447803132E+02  0.11767487351E+04  0.11973927581E+04  0.10566000000E+00 0.  1.
        994    1    1    2    0    0 -0.21043158115E+03  0.19108105975E+01  0.17382554896E+03  0.32219538019E+03  0.17120000000E+03 0.  0.
        998    1    1    2    0    0 -0.97093303598E+01  0.21536992535E+02  0.14942571221E+03  0.15161186171E+03  0.10000000000E+02 0. -1.
</event>
<event>
 5    1  0.1087513E-008  0.3804133E+03  0.7957747E-01  0.3449361E+00
         13   -1    0    0    0    0  0.00000000000E+00  0.00000000000E+00  0.14999999963E+04  0.15000000000E+04  0.10566000000E+00 0. -1.
        994   -1    0    0    0    0 -0.00000000000E+00 -0.00000000000E+00  0.11368683772E-12  0.17120000000E+03  0.17120000000E+03 0.  0.
         13    1    1    2    0    0  0.15962220904E+02  0.45991434142E+02  0.20720949096E+03  0.21285156522E+03  0.10566000000E+00 0. -1.
        994    1    1    2    0    0 -0.35004721850E+02 -0.71619893516E+02  0.25438927436E+02  0.19055529048E+03  0.17120000000E+03 0.  0.
        998    1    1    2    0    0  0.19042500945E+02  0.25628459374E+02  0.12673515779E+04  0.12677931443E+04  0.10000000000E+02 0. -1.
</event>
<event>
 5    1  0.1087513E-008  0.3790361E+03  0.7957747E-01  0.3455366E+00
         13   -1    0    0    0    0  0.00000000000E+00  0.00000000000E+00  0.14999999963E+04  0.15000000000E+04  0.10566000000E+00 0. -1.
        994   -1    0    0    0    0 -0.00000000000E+00 -0.00000000000E+00  0.11368683772E-12  0.17120000000E+03  0.17120000000E+03 0.  0.
         13    1    1    2    0    0 -0.11539222079E+02  0.54686393042E+01  0.15625749203E+02  0.20180061056E+02  0.10566000000E+00 0. -1.
        994    1    1    2    0    0  0.89569672943E+01 -0.39629107571E+01  0.49422770569E+01  0.17155115280E+03  0.17120000000E+03 0.  0.
        998    1    1    2    0    0  0.25822547851E+01 -0.15057285472E+01  0.14794319700E+04  0.14794687861E+04  0.10000000000E+02 0. -1.
</event>
<event>
 5    1  0.1087513E-008  0.3852034E+03  0.7957747E-01  0.3428810E+00
         13   -1    0    0    0    0  0.00000000000E+00  0.00000000000E+00  0.14999999963E+04  0.15000000000E+04  0.10566000000E+00 0. -1.
        994   -1    0    0    0    0 -0.00000000000E+00 -0.00000000000E+00  0.11368683772E-12  0.17120000000E+03  0.17120000000E+03 0.  0.
         13    1    1    2    0    0  0.45239889319E+01  0.10772970770E+02  0.48866310811E+02  0.50243913775E+02  0.10566000000E+00 0. -1.
        994    1    1    2    0    0  0.28148212169E+02 -0.42505211393E+01  0.41970631357E+01  0.17360139434E+03  0.17120000000E+03 0.  0.
        998    1    1    2    0    0 -0.32672201101E+02 -0.65224496307E+01  0.14469366223E+04  0.14473546919E+04  0.10000000000E+02 0. -1.
</event>
<event>
 5    1  0.1087513E-008  0.3817040E+03  0.7957747E-01  0.3443772E+00
         13   -1    0    0    0    0  0.00000000000E+00  0.00000000000E+00  0.14999999963E+04  0.15000000000E+04  0.10566000000E+00 0. -1.
        994   -1    0    0    0    0 -0.00000000000E+00 -0.00000000000E+00  0.11368683772E-12  0.17120000000E+03  0.17120000000E+03 0.  0.
         13    1    1    2    0    0 -0.14117379861E+02 -0.22139551219E+02  0.97306657944E+02  0.10078718662E+03  0.10566000000E+00 0. -1.
        994    1    1    2    0    0  0.86028870715E+01  0.28179698651E+02  0.61665442841E+01  0.17382626772E+03  0.17120000000E+03 0.  0.
        998    1    1    2    0    0  0.55144927893E+01 -0.60401474319E+01  0.13965267941E+04  0.13965865457E+04  0.10000000000E+02 0. -1.
</event>
<event>
 5    1  0.1087513E-008  0.3757888E+03  0.7957747E-01  0.3469702E+00
         13   -1    0    0    0    0  0.00000000000E+00  0.00000000000E+00  0.14999999963E+04  0.15000000000E+04  0.10566000000E+00 0.  1.
        994   -1    0    0    0    0 -0.00000000000E+00 -0.00000000000E+00  0.11368683772E-12  0.17120000000E+03  0.17120000000E+03 0.  0.
         13    1    1    2    0    0  0.46318457432E+01 -0.25755526599E+02  0.52314830157E+02  0.58494903742E+02  0.10566000000E+00 0.  1.
        994    1    1    2    0    0 -0.70208314671E+01  0.15128451669E+02  0.72177994255E+01  0.17216183884E+03  0.17120000000E+03 0.  0.
        998    1    1    2    0    0  0.23889857239E+01  0.10627074930E+02  0.14404673667E+04  0.14405432574E+04  0.10000000000E+02 0.  1.
</event>
<event>
 5    1  0.1087513E-008  0.3729693E+03  0.7957747E-01  0.3482355E+00
         13   -1    0    0    0    0  0.00000000000E+00  0.00000000000E+00  0.14999999963E+04  0.15000000000E+04  0.10566000000E+00 0. -1.
        994   -1    0    0    0    0 -0.00000000000E+00 -0.00000000000E+00  0.11368683772E-12  0.17120000000E+03  0.17120000000E+03 0.  0.
         13    1    1    2    0    0 -0.29472337253E+02  0.33023520827E+02  0.73483617703E+02  0.85784758703E+02  0.10566000000E+00 0. -1.
        994    1    1    2    0    0  0.27816270954E+02 -0.16259686320E+02  0.16193753790E+02  0.17495656601E+03  0.17120000000E+03 0.  0.
        998    1    1    2    0    0  0.16560662986E+01 -0.16763834508E+02  0.14103226248E+04  0.14104586753E+04  0.10000000000E+02 0. -1.
</event>
<event>
 5    1  0.1087513E-008  0.3787094E+03  0.7957747E-01  0.3456798E+00
         13   -1    0    0    0    0  0.00000000000E+00  0.00000000000E+00  0.14999999963E+04  0.15000000000E+04  0.10566000000E+00 0.  1.
        994   -1    0    0    0    0 -0.00000000000E+00 -0.00000000000E+00  0.11368683772E-12  0.17120000000E+03  0.17120000000E+03 0.  0.
         13    1    1    2    0    0  0.88324963130E+01  0.11806308751E+02  0.20111680952E+02  0.24937778414E+02  0.10566000000E+00 0.  1.
        994    1    1    2    0    0  0.81660144493E+01 -0.32193002189E+02  0.84982503945E+01  0.17459877847E+03  0.17120000000E+03 0.  0.
        998    1    1    2    0    0 -0.16998510762E+02  0.20386693438E+02  0.14713900649E+04  0.14716634431E+04  0.10000000000E+02 0.  1.
</event>
<event>
 5    1  0.1087513E-008  0.3780178E+03  0.7957747E-01  0.3459835E+00
         13   -1    0    0    0    0  0.00000000000E+00  0.00000000000E+00  0.14999999963E+04  0.15000000000E+04  0.10566000000E+00 0.  1.
        994   -1    0    0    0    0 -0.00000000000E+00 -0.00000000000E+00  0.11368683772E-12  0.17120000000E+03  0.17120000000E+03 0.  0.
         13    1    1    2    0    0  0.13591370709E+00 -0.10752711429E+02  0.88684588160E+01  0.13939153540E+02  0.10566000000E+00 0.  1.
        994    1    1    2    0    0 -0.12848941896E+01  0.11329696824E+02  0.55747347475E+01  0.17166983035E+03  0.17120000000E+03 0.  0.
        998    1    1    2    0    0  0.11489804825E+01 -0.57698539517E+00  0.14855568027E+04  0.14855910161E+04  0.10000000000E+02 0.  1.
</event>
<event>
 5    1  0.1087513E-008  0.3785726E+03  0.7957747E-01  0.3457397E+00
         13   -1    0    0    0    0  0.00000000000E+00  0.00000000000E+00  0.14999999963E+04  0.15000000000E+04  0.10566000000E+00 0. -1.
        994   -1    0    0    0    0 -0.00000000000E+00 -0.00000000000E+00  0.11368683772E-12  0.17120000000E+03  0.17120000000E+03 0.  0.
         13    1    1    2    0    0 -0.18321571308E+02  0.13017704061E+02  0.54365287039E+02  0.58828022175E+02  0.10566000000E+00 0. -1.
        994    1    1    2    0    0 -0.18851760795E+01  0.99094960024E+01  0.51972437792E+01  0.17157564904E+03  0.17120000000E+03 0.  0.
        998    1    1    2    0    0  0.20206747388E+02 -0.22927200063E+02  0.14404374655E+04  0.14407963288E+04  0.10000000000E+02 0. -1.
</event>
<event>
 5    1  0.1087513E-008  0.3734955E+03  0.7957747E-01  0.3479979E+00
         13   -1    0    0    0    0  0.00000000000E+00  0.00000000000E+00  0.14999999963E+04  0.15000000000E+04  0.10566000000E+00 0.  1.
        994   -1    0    0    0    0 -0.00000000000E+00 -0.00000000000E+00  0.11368683772E-12  0.17120000000E+03  0.17120000000E+03 0.  0.
         13    1    1    2    0    0  0.11303077397E+02 -0.88954869271E+01  0.10970393786E+02  0.18090051138E+02  0.10566000000E+00 0.  1.
        994    1    1    2    0    0  0.19426031606E+01 -0.90302777221E+01  0.77449232332E+01  0.17162384292E+03  0.17120000000E+03 0.  0.
        998    1    1    2    0    0 -0.13245680557E+02  0.17925764649E+02  0.14812846793E+04  0.14814861059E+04  0.10000000000E+02 0.  1.
</event>
<event>
 5    1  0.1348322E-008  0.3850720E+03  0.7957747E-01  0.3429367E+00
         13   -1    0    0    0    0  0.00000000000E+00  0.00000000000E+00  0.14999999963E+04  0.15000000000E+04  0.10566000000E+00 0. -1.
        994   -1    0    0    0    0 -0.00000000000E+00 -0.00000000000E+00  0.11368683772E-12  0.17120000000E+03  0.17120000000E+03 0.  0.
         13    1    1    2    0    0 -0.87323212479E+01  0.93086041172E+01  0.49334283539E+02  0.50958671895E+02  0.10566000000E+00 0. -1.
        994    1    1    2    0    0  0.10008227959E+02 -0.10833934560E+02  0.23099575521E+01  0.17184968626E+03  0.17120000000E+03 0.  0.
        998    1    1    2    0    0 -0.12759067116E+01  0.15253304430E+01  0.14483557552E+04  0.14483916418E+04  0.10000000000E+02 0. -1.
</event>
<event>
 5    1  0.1087513E-008  0.3737204E+03  0.7957747E-01  0.3478966E+00
         13   -1    0    0    0    0  0.00000000000E+00  0.00000000000E+00  0.14999999963E+04  0.15000000000E+04  0.10566000000E+00 0.  1.
        994   -1    0    0    0    0 -0.00000000000E+00 -0.00000000000E+00  0.11368683772E-12  0.17120000000E+03  0.17120000000E+03 0.  0.
         13    1    1    2    0    0  0.51679049886E+01  0.37811868619E+02  0.84570577246E+02  0.92782748128E+02  0.10566000000E+00 0.  1.
        994    1    1    2    0    0  0.66637822893E+02 -0.69206955427E+02  0.39535025865E+02  0.20025648651E+03  0.17120000000E+03 0.  0.
        998    1    1    2    0    0 -0.71805727881E+02  0.31395086808E+02  0.13758943932E+04  0.13781607654E+04  0.10000000000E+02 0.  1.
</event>
<event>
 5    1  0.1087513E-008  0.3805627E+03  0.7957747E-01  0.3448712E+00
         13   -1    0    0    0    0  0.00000000000E+00  0.00000000000E+00  0.14999999963E+04  0.15000000000E+04  0.10566000000E+00 0.  1.
        994   -1    0    0    0    0 -0.00000000000E+00 -0.00000000000E+00  0.11368683772E-12  0.17120000000E+03  0.17120000000E+03 0.  0.
         13    1    1    2    0    0 -0.19275825950E+01 -0.11921220145E+02  0.17322414885E+02  0.21116540576E+02  0.10566000000E+00 0.  1.
        994    1    1    2    0    0  0.15745352040E+01  0.85322992821E+01  0.41006199325E+01  0.17146875627E+03  0.17120000000E+03 0.  0.
        998    1    1    2    0    0  0.35304739095E+00  0.33889208629E+01  0.14785769615E+04  0.14786147032E+04  0.10000000000E+02 0.  1.
</event>
<event>
 5    1  0.1087513E-008  0.3866386E+03  0.7957747E-01  0.3422752E+00
         13   -1    0    0    0    0  0.00000000000E+00  0.00000000000E+00  0.14999999963E+04  0.15000000000E+04  0.10566000000E+00 0.  1.
        994   -1    0    0    0    0 -0.00000000000E+00 -0.00000000000E+00  0.11368683772E-12  0.17120000000E+03  0.17120000000E+03 0.  0.
         13    1    1    2    0    0  0.35506154067E+02  0.37926834164E+01  0.22589967603E+02  0.42253866385E+02  0.10566000000E+00 0.  1.
        994    1    1    2    0    0 -0.47119547115E+02 -0.13948941997E+02  0.29046552472E+02  0.18046597162E+03  0.17120000000E+03 0.  0.
        998    1    1    2    0    0  0.11613393049E+02  0.10156258580E+02  0.14483634762E+04  0.14484801620E+04  0.10000000000E+02 0.  1.
</event>
<event>
 5    1  0.1087513E-008  0.3839961E+03  0.7957747E-01  0.3433941E+00
         13   -1    0    0    0    0  0.00000000000E+00  0.00000000000E+00  0.14999999963E+04  0.15000000000E+04  0.10566000000E+00 0. -1.
        994   -1    0    0    0    0 -0.00000000000E+00 -0.00000000000E+00  0.11368683772E-12  0.17120000000E+03  0.17120000000E+03 0.  0.
         13    1    1    2    0    0  0.80380058638E+00  0.18613637209E+02  0.79155115339E+02  0.81318245394E+02  0.10566000000E+00 0. -1.
        994    1    1    2    0    0  0.41660138862E+01 -0.16074499886E+02  0.30396774786E+01  0.17203030215E+03  0.17120000000E+03 0.  0.
        998    1    1    2    0    0 -0.49698144726E+01 -0.25391373239E+01  0.14178052035E+04  0.14178514525E+04  0.10000000000E+02 0. -1.
</event>
<event>
 5    1  0.1087513E-008  0.3858055E+03  0.7957747E-01  0.3426263E+00
         13   -1    0    0    0    0  0.00000000000E+00  0.00000000000E+00  0.14999999963E+04  0.15000000000E+04  0.10566000000E+00 0.  1.
        994   -1    0    0    0    0 -0.00000000000E+00 -0.00000000000E+00  0.11368683772E-12  0.17120000000E+03  0.17120000000E+03 0.  0.
         13    1    1    2    0    0 -0.11277309243E+02 -0.89520365196E+01  0.83743859592E+02  0.84972712356E+02  0.10566000000E+00 0.  1.
        994    1    1    2    0    0  0.61310180640E+01  0.10232065552E+02  0.16975789083E+01  0.17162344339E+03  0.17120000000E+03 0.  0.
        998    1    1    2    0    0  0.51462911794E+01 -0.12800290328E+01  0.14145585578E+04  0.14146038443E+04  0.10000000000E+02 0.  1.
</event>
<event>
 5    1  0.1087513E-008  0.3834617E+03  0.7957747E-01  0.3436223E+00
         13   -1    0    0    0    0  0.00000000000E+00  0.00000000000E+00  0.14999999963E+04  0.15000000000E+04  0.10566000000E+00 0. -1.
        994   -1    0    0    0    0 -0.00000000000E+00 -0.00000000000E+00  0.11368683772E-12  0.17120000000E+03  0.17120000000E+03 0.  0.
         13    1    1    2    0    0  0.12364780015E+01  0.22011838153E+02  0.93839689479E+02  0.96394752877E+02  0.10566000000E+00 0. -1.
        994    1    1    2    0    0 -0.50339860099E+01 -0.24966501222E+02  0.45426978462E+01  0.17314370708E+03  0.17120000000E+03 0.  0.
        998    1    1    2    0    0  0.37975080084E+01  0.29546630690E+01  0.14016176090E+04  0.14016615400E+04  0.10000000000E+02 0. -1.
</event>
<event>
 5    1  0.1087513E-008  0.3828598E+03  0.7957747E-01  0.3438800E+00
         13   -1    0    0    0    0  0.00000000000E+00  0.00000000000E+00  0.14999999963E+04  0.15000000000E+04  0.10566000000E+00 0.  1.
        994   -1    0    0    0    0 -0.00000000000E+00 -0.00000000000E+00  0.11368683772E-12  0.17120000000E+03  0.17120000000E+03 0.  0.
         13    1    1    2    0    0  0.28368853836E+01  0.14357736783E+02  0.39794187061E+02  0.42400247784E+02  0.10566000000E+00 0.  1.
        994    1    1    2    0    0  0.48999383270E+01 -0.49072786009E+01  0.28557328021E+01  0.17136419109E+03  0.17120000000E+03 0.  0.
        998    1    1    2    0    0 -0.77368237107E+01 -0.94504581826E+01  0.14573500764E+04  0.14574355611E+04  0.10000000000E+02 0.  1.
</event>
<event>
 5    1  0.1087513E-008  0.3847773E+03  0.7957747E-01  0.3430617E+00
         13   -1    0    0    0    0  0.00000000000E+00  0.00000000000E+00  0.14999999963E+04  0.15000000000E+04  0.10566000000E+00 0. -1.
        994   -1    0    0    0    0 -0.00000000000E+00 -0.00000000000E+00  0.11368683772E-12  0.17120000000E+03  0.17120000000E+03 0.  0.
         13    1    1    2    0    0 -0.77524239106E+01  0.10261679688E+02  0.52800841845E+02  0.54344661284E+02  0.10566000000E+00 0. -1.
        994    1    1    2    0    0  0.13006381729E+02  0.22516794086E+02  0.39692199477E+01  0.17320902600E+03  0.17120000000E+03 0.  0.
        998    1    1    2    0    0 -0.52539578184E+01 -0.32778473774E+02  0.14432299345E+04  0.14436463127E+04  0.10000000000E+02 0. -1.
</event>
<event>
 5    1  0.1087513E-008  0.3774214E+03  0.7957747E-01  0.3462464E+00
         13   -1    0    0    0    0  0.00000000000E+00  0.00000000000E+00  0.14999999963E+04  0.15000000000E+04  0.10566000000E+00 0.  1.
        994   -1    0    0    0    0 -0.00000000000E+00 -0.00000000000E+00  0.11368683772E-12  0.17120000000E+03  0.17120000000E+03 0.  0.
         13    1    1    2    0    0  0.42780606202E+02  0.11386708561E+03  0.58345741229E+03  0.59600206088E+03  0.10566000000E+00 0.  1.
        994    1    1    2    0    0 -0.11457262913E+03 -0.12328429858E+03  0.10781153992E+03  0.26317042722E+03  0.17120000000E+03 0.  0.
        998    1    1    2    0    0  0.71792022926E+02  0.94172129675E+01  0.80873104406E+03  0.81202751190E+03  0.10000000000E+02 0.  1.
</event>
<event>
 5    1  0.1087513E-008  0.3851130E+03  0.7957747E-01  0.3429193E+00
         13   -1    0    0    0    0  0.00000000000E+00  0.00000000000E+00  0.14999999963E+04  0.15000000000E+04  0.10566000000E+00 0. -1.
        994   -1    0    0    0    0 -0.00000000000E+00 -0.00000000000E+00  0.11368683772E-12  0.17120000000E+03  0.17120000000E+03 0.  0.
         13    1    1    2    0    0 -0.97552834550E+01 -0.31502376550E+01  0.32055754491E+02  0.33655194437E+02  0.10566000000E+00 0. -1.
        994    1    1    2    0    0  0.15120591123E+02  0.13679828923E+01  0.23321587855E+01  0.17188770351E+03  0.17120000000E+03 0.  0.
        998    1    1    2    0    0 -0.53653076684E+01  0.17822547627E+01  0.14656120830E+04  0.14656571021E+04  0.10000000000E+02 0. -1.
</event>
<event>
 5    1  0.1087513E-008  0.4088330E+03  0.7957747E-01  0.3334483E+00
         13   -1    0    0    0    0  0.00000000000E+00  0.00000000000E+00  0.14999999963E+04  0.15000000000E+04  0.10566000000E+00 0. -1.
        994   -1    0    0    0    0 -0.00000000000E+00 -0.00000000000E+00  0.11368683772E-12  0.17120000000E+03  0.17120000000E+03 0.  0.
         13    1    1    2    0    0 -0.45493688738E+02  0.40443839695E+02  0.44924510715E+02  0.75654495645E+02  0.10566000000E+00 0. -1.
        994    1    1    2    0    0  0.44453487644E+02 -0.17776460701E+02  0.42533412310E+02  0.18278579343E+03  0.17120000000E+03 0.  0.
        998    1    1    2    0    0  0.10402010936E+01 -0.22667378994E+02  0.14125420733E+04  0.14127597109E+04  0.10000000000E+02 0. -1.
</event>
<event>
 5    1  0.1087513E-008  0.3856394E+03  0.7957747E-01  0.3426965E+00
         13   -1    0    0    0    0  0.00000000000E+00  0.00000000000E+00  0.14999999963E+04  0.15000000000E+04  0.10566000000E+00 0.  1.
        994   -1    0    0    0    0 -0.00000000000E+00 -0.00000000000E+00  0.11368683772E-12  0.17120000000E+03  0.17120000000E+03 0.  0.
         13    1    1    2    0    0 -0.16133975676E+02 -0.10515559214E+01  0.95364321129E+02  0.96725259624E+02  0.10566000000E+00 0.  1.
        994    1    1    2    0    0  0.16945467783E+02 -0.80909632294E+01  0.24711074744E+01  0.17224447433E+03  0.17120000000E+03 0.  0.
        998    1    1    2    0    0 -0.81149210679E+00  0.91425191508E+01  0.14021645677E+04  0.14022302660E+04  0.10000000000E+02 0.  1.
</event>
<event>
 5    1  0.1087513E-008  0.3803168E+03  0.7957747E-01  0.3449780E+00
         13   -1    0    0    0    0  0.00000000000E+00  0.00000000000E+00  0.14999999963E+04  0.15000000000E+04  0.10566000000E+00 0. -1.
        994   -1    0    0    0    0 -0.00000000000E+00 -0.00000000000E+00  0.11368683772E-12  0.17120000000E+03  0.17120000000E+03 0.  0.
         13    1    1    2    0    0  0.11798949303E+02 -0.50231972454E+01  0.18992694324E+02  0.22916834793E+02  0.10566000000E+00 0. -1.
        994    1    1    2    0    0 -0.91110306942E+01  0.39139664457E+01  0.43017426879E+01  0.17154088435E+03  0.17120000000E+03 0.  0.
        998    1    1    2    0    0 -0.26879186084E+01  0.11092307996E+01  0.14767055593E+04  0.14767422809E+04  0.10000000000E+02 0. -1.
</event>
<event>
 5    1  0.1087513E-008  0.3784589E+03  0.7957747E-01  0.3457896E+00
         13   -1    0    0    0    0  0.00000000000E+00  0.00000000000E+00  0.14999999963E+04  0.15000000000E+04  0.10566000000E+00 0.  1.
        994   -1    0    0    0    0 -0.00000000000E+00 -0.00000000000E+00  0.11368683772E-12  0.17120000000E+03  0.17120000000E+03 0.  0.
         13    1    1    2    0    0  0.12102192196E+02  0.73464266456E+02  0.36619082601E+03  0.37368327995E+03  0.10566000000E+00 0.  1.
        994    1    1    2    0    0 -0.38511781880E+01 -0.90113869581E+02  0.32753601780E+02  0.19625896029E+03  0.17120000000E+03 0.  0.
        998    1    1    2    0    0 -0.82510140081E+01  0.16649603125E+02  0.11010555685E+04  0.11012577598E+04  0.10000000000E+02 0.  1.
</event>
<event>
 5    1  0.1087513E-008  0.3813067E+03  0.7957747E-01  0.3445488E+00
         13   -1    0    0    0    0  0.00000000000E+00  0.00000000000E+00  0.14999999963E+04  0.15000000000E+04  0.10566000000E+00 0. -1.
        994   -1    0    0    0    0 -0.00000000000E+00 -0.00000000000E+00  0.11368683772E-12  0.17120000000E+03  0.17120000000E+03 0.  0.
         13    1    1    2    0    0  0.18301924315E+02  0.19365102616E+02  0.10213787252E+03  0.10555625893E+03  0.10566000000E+00 0. -1.
        994    1    1    2    0    0 -0.19157915303E+02 -0.17416629832E+01  0.47076959610E+01  0.17234169986E+03  0.17120000000E+03 0.  0.
        998    1    1    2    0    0  0.85599098786E+00 -0.17623439633E+02  0.13931544278E+04  0.13933020412E+04  0.10000000000E+02 0. -1.
</event>
<event>
 5    1  0.1087513E-008  0.3710902E+03  0.7957747E-01  0.3490896E+00
         13   -1    0    0    0    0  0.00000000000E+00  0.00000000000E+00  0.14999999963E+04  0.15000000000E+04  0.10566000000E+00 0. -1.
        994   -1    0    0    0    0 -0.00000000000E+00 -0.00000000000E+00  0.11368683772E-12  0.17120000000E+03  0.17120000000E+03 0.  0.
         13    1    1    2    0    0 -0.24782045682E+02  0.65801492134E+02  0.23584814856E+03  0.24610637233E+03  0.10566000000E+00 0. -1.
        994    1    1    2    0    0  0.31676987159E+02 -0.64391257840E+02  0.26654086948E+02  0.18753545252E+03  0.17120000000E+03 0.  0.
        998    1    1    2    0    0 -0.68949414769E+01 -0.14102342943E+01  0.12374977608E+04  0.12375581751E+04  0.10000000000E+02 0. -1.
</event>
<event>
 5    1  0.1087513E-008  0.3855983E+03  0.7957747E-01  0.3427139E+00
         13   -1    0    0    0    0  0.00000000000E+00  0.00000000000E+00  0.14999999963E+04  0.15000000000E+04  0.10566000000E+00 0. -1.
        994   -1    0    0    0    0 -0.00000000000E+00 -0.00000000000E+00  0.11368683772E-12  0.17120000000E+03  0.17120000000E+03 0.  0.
         13    1    1    2    0    0 -0.53166966920E+01  0.13602614653E+02  0.80211542622E+02  0.81530369329E+02  0.10566000000E+00 0. -1.
        994    1    1    2    0    0  0.68901241242E+01 -0.80360494345E+01  0.17012581693E+01  0.17153537880E+03  0.17120000000E+03 0.  0.
        998    1    1    2    0    0 -0.15734274322E+01 -0.55665652181E+01  0.14180871955E+04  0.14181342519E+04  0.10000000000E+02 0. -1.
</event>
<event>
 5    1  0.1087513E-008  0.3844466E+03  0.7957747E-01  0.3432022E+00
         13   -1    0    0    0    0  0.00000000000E+00  0.00000000000E+00  0.14999999963E+04  0.15000000000E+04  0.10566000000E+00 0.  1.
        994   -1    0    0    0    0 -0.00000000000E+00 -0.00000000000E+00  0.11368683772E-12  0.17120000000E+03  0.17120000000E+03 0.  0.
         13    1    1    2    0    0  0.15905444505E+02 -0.68601156022E+01  0.86337059552E+02  0.88057613908E+02  0.10566000000E+00 0.  1.
        994    1    1    2    0    0  0.65184136593E+01  0.88918220002E+01  0.23056930444E+01  0.17157013270E+03  0.17120000000E+03 0.  0.
        998    1    1    2    0    0 -0.22423858164E+02 -0.20317063980E+01  0.14113572437E+04  0.14115722534E+04  0.10000000000E+02 0.  1.
</event>
<event>
 5    1  0.1087513E-008  0.3717864E+03  0.7957747E-01  0.3487721E+00
         13   -1    0    0    0    0  0.00000000000E+00  0.00000000000E+00  0.14999999963E+04  0.15000000000E+04  0.10566000000E+00 0.  1.
        994   -1    0    0    0    0 -0.00000000000E+00 -0.00000000000E+00  0.11368683772E-12  0.17120000000E+03  0.17120000000E+03 0.  0.
         13    1    1    2    0    0  0.42504990506E+02 -0.67218218307E+01  0.96377746257E+02  0.10554874819E+03  0.10566000000E+00 0.  1.
        994    1    1    2    0    0 -0.51817129118E+02  0.35772121616E+02  0.22088322103E+02  0.18374437006E+03  0.17120000000E+03 0.  0.
        998    1    1    2    0    0  0.93121386122E+01 -0.29050299785E+02  0.13815339279E+04  0.13819068818E+04  0.10000000000E+02 0.  1.
</event>
<event>
 5    1  0.1087513E-008  0.3820922E+03  0.7957747E-01  0.3442099E+00
         13   -1    0    0    0    0  0.00000000000E+00  0.00000000000E+00  0.14999999963E+04  0.15000000000E+04  0.10566000000E+00 0. -1.
        994   -1    0    0    0    0 -0.00000000000E+00 -0.00000000000E+00  0.11368683772E-12  0.17120000000E+03  0.17120000000E+03 0.  0.
         13    1    1    2    0    0 -0.80562036650E+01  0.11695588719E+02  0.31333279145E+02  0.34401667968E+02  0.10566000000E+00 0. -1.
        994    1    1    2    0    0  0.45837423577E+01 -0.11686120613E+02  0.36040517226E+01  0.17169742368E+03  0.17120000000E+03 0.  0.
        998    1    1    2    0    0  0.34724613073E+01 -0.94681058522E-02  0.14650626654E+04  0.14651009084E+04  0.10000000000E+02 0. -1.
</event>
<event>
 5    1  0.1087513E-008  0.3725882E+03  0.7957747E-01  0.3484080E+00
         13   -1    0    0    0    0  0.00000000000E+00  0.00000000000E+00  0.14999999963E+04  0.15000000000E+04  0.10566000000E+00 0. -1.
        994   -1    0    0    0    0 -0.00000000000E+00 -0.00000000000E+00  0.11368683772E-12  0.17120000000E+03  0.17120000000E+03 0.  0.
         13    1    1    2    0    0 -0.97590758802E+02  0.58145066039E+02  0.43005334348E+03  0.44480410779E+03  0.10566000000E+00 0. -1.
        994    1    1    2    0    0  0.75678359742E+02 -0.53518590270E+02  0.43277464271E+02  0.19943377987E+03  0.17120000000E+03 0.  0.
        998    1    1    2    0    0  0.21912399060E+02 -0.46264757687E+01  0.10266691885E+04  0.10269621123E+04  0.10000000000E+02 0. -1.
</event>
<event>
 5    1  0.1087513E-008  0.3745751E+03  0.7957747E-01  0.3475125E+00
         13   -1    0    0    0    0  0.00000000000E+00  0.00000000000E+00  0.14999999963E+04  0.15000000000E+04  0.10566000000E+00 0. -1.
        994   -1    0    0    0    0 -0.00000000000E+00 -0.00000000000E+00  0.11368683772E-12  0.17120000000E+03  0.17120000000E+03 0.  0.
         13    1    1    2    0    0 -0.20882060036E+02 -0.65271663472E+00  0.28961461733E+02  0.35710837292E+02  0.10566000000E+00 0. -1.
        994    1    1    2    0    0  0.12344436942E+02 -0.71287966961E+01  0.75891217312E+01  0.17195999428E+03  0.17120000000E+03 0.  0.
        998    1    1    2    0    0  0.85376230940E+01  0.77815133308E+01  0.14634494128E+04  0.14635291684E+04  0.10000000000E+02 0. -1.
</event>
<event>
 5    1  0.1087513E-008  0.3807880E+03  0.7957747E-01  0.3447734E+00
         13   -1    0    0    0    0  0.00000000000E+00  0.00000000000E+00  0.14999999963E+04  0.15000000000E+04  0.10566000000E+00 0. -1.
        994   -1    0    0    0    0 -0.00000000000E+00 -0.00000000000E+00  0.11368683772E-12  0.17120000000E+03  0.17120000000E+03 0.  0.
         13    1    1    2    0    0 -0.83722673566E+02  0.68304713639E+01  0.29666652707E+03  0.30832966263E+03  0.10566000000E+00 0. -1.
        994    1    1    2    0    0 -0.15763585282E+02  0.20567263570E+02  0.19204727719E+02  0.17421183805E+03  0.17120000000E+03 0.  0.
        998    1    1    2    0    0  0.99486258848E+02 -0.27397734934E+02  0.11841287415E+04  0.11886584993E+04  0.10000000000E+02 0. -1.
</event>
<event>
 5    1  0.1087513E-008  0.3779392E+03  0.7957747E-01  0.3460181E+00
         13   -1    0    0    0    0  0.00000000000E+00  0.00000000000E+00  0.14999999963E+04  0.15000000000E+04  0.10566000000E+00 0. -1.
        994   -1    0    0    0    0 -0.00000000000E+00 -0.00000000000E+00  0.11368683772E-12  0.17120000000E+03  0.17120000000E+03 0.  0.
         13    1    1    2    0    0 -0.41789914975E+02  0.10127742446E+02  0.64270364576E+02  0.77328255428E+02  0.10566000000E+00 0. -1.
        994    1    1    2    0    0 -0.27460956008E+02 -0.20323165970E+01  0.17931445831E+02  0.17432501589E+03  0.17120000000E+03 0.  0.
        998    1    1    2    0    0  0.69250870983E+02 -0.80954258486E+01  0.14177981859E+04  0.14195467287E+04  0.10000000000E+02 0. -1.
</event>
<event>
 5    1  0.1087513E-008  0.3717151E+03  0.7957747E-01  0.3488046E+00
         13   -1    0    0    0    0  0.00000000000E+00  0.00000000000E+00  0.14999999963E+04  0.15000000000E+04  0.10566000000E+00 0. -1.
        994   -1    0    0    0    0 -0.00000000000E+00 -0.00000000000E+00  0.11368683772E-12  0.17120000000E+03  0.17120000000E+03 0.  0.
         13    1    1    2    0    0 -0.44717850483E+02  0.75565355538E+01  0.11352204660E+03  0.12224587359E+03  0.10566000000E+00 0. -1.
        994    1    1    2    0    0  0.41716715570E+02  0.27036024317E+00  0.14381283171E+02  0.17679541498E+03  0.17120000000E+03 0.  0.
        998    1    1    2    0    0  0.30011349124E+01 -0.78268957970E+01  0.13720966665E+04  0.13721587114E+04  0.10000000000E+02 0. -1.
</event>
<event>
 5    1  0.1087513E-008  0.3859981E+03  0.7957747E-01  0.3425450E+00
         13   -1    0    0    0    0  0.00000000000E+00  0.00000000000E+00  0.14999999963E+04  0.15000000000E+04  0.10566000000E+00 0.  1.
        994   -1    0    0    0    0 -0.00000000000E+00 -0.00000000000E+00  0.11368683772E-12  0.17120000000E+03  0.17120000000E+03 0.  0.
         13    1    1    2    0    0 -0.50471563406E+01  0.12367177159E+02  0.75023734728E+02  0.76203627175E+02  0.10566000000E+00 0.  1.
        994    1    1    2    0    0 -0.38858540631E+01 -0.19061771169E+02  0.23769711003E+01  0.17231813884E+03  0.17120000000E+03 0.  0.
        998    1    1    2    0    0  0.89330104037E+01  0.66945940106E+01  0.14225992904E+04  0.14226782340E+04  0.10000000000E+02 0.  1.
</event>
<event>
 5    1  0.1299049E-008  0.3853956E+03  0.7957747E-01  0.3427996E+00
         13   -1    0    0    0    0  0.00000000000E+00  0.00000000000E+00  0.14999999963E+04  0.15000000000E+04  0.10566000000E+00 0.  1.
        994   -1    0    0    0    0 -0.00000000000E+00 -0.00000000000E+00  0.11368683772E-12  0.17120000000E+03  0.17120000000E+03 0.  0.
         13    1    1    2    0    0  0.18123603279E+01 -0.10633084492E+02  0.40773162625E+02  0.42175930223E+02  0.10566000000E+00 0.  1.
        994    1    1    2    0    0 -0.18059532740E+01  0.64628175461E+01  0.15817932639E+01  0.17133876254E+03  0.17120000000E+03 0.  0.
        998    1    1    2    0    0 -0.64070538774E-02  0.41702669457E+01  0.14576450404E+04  0.14576853072E+04  0.10000000000E+02 0.  1.
</event>
<event>
 5    1  0.1087513E-008  0.3729109E+03  0.7957747E-01  0.3482619E+00
         13   -1    0    0    0    0  0.00000000000E+00  0.00000000000E+00  0.14999999963E+04  0.15000000000E+04  0.10566000000E+00 0.  1.
        994   -1    0    0    0    0 -0.00000000000E+00 -0.00000000000E+00  0.11368683772E-12  0.17120000000E+03  0.17120000000E+03 0.  0.
         13    1    1    2    0    0 -0.31250429855E+01  0.11317974466E+02  0.52690699342E+01  0.12869992295E+02  0.10566000000E+00 0.  1.
        994    1    1    2    0    0  0.45799842612E+01 -0.11704500434E+02  0.82964316866E+01  0.17186111359E+03  0.17120000000E+03 0.  0.
        998    1    1    2    0    0 -0.14549412757E+01  0.38652596838E+00  0.14864344947E+04  0.14864688941E+04  0.10000000000E+02 0.  1.
</event>
<event>
 5    1  0.1087513E-008  0.3757491E+03  0.7957747E-01  0.3469879E+00
         13   -1    0    0    0    0  0.00000000000E+00  0.00000000000E+00  0.14999999963E+04  0.15000000000E+04  0.10566000000E+00 0.  1.
        994   -1    0    0    0    0 -0.00000000000E+00 -0.00000000000E+00  0.11368683772E-12  0.17120000000E+03  0.17120000000E+03 0.  0.
         13    1    1    2    0    0 -0.35238839001E+02  0.85582366334E+01  0.11007882383E+03  0.11589813548E+03  0.10566000000E+00 0.  1.
        994    1    1    2    0    0  0.59654282541E+01 -0.52037249864E-01  0.64152330678E+01  0.17142398974E+03  0.17120000000E+03 0.  0.
        998    1    1    2    0    0  0.29273410747E+02 -0.85061993835E+01  0.13835059394E+04  0.13838778748E+04  0.10000000000E+02 0.  1.
</event>
<event>
 5    1  0.1087513E-008  0.3760207E+03  0.7957747E-01  0.3468670E+00
         13   -1    0    0    0    0  0.00000000000E+00  0.00000000000E+00  0.14999999963E+04  0.15000000000E+04  0.10566000000E+00 0.  1.
        994   -1    0    0    0    0 -0.00000000000E+00 -0.00000000000E+00  0.11368683772E-12  0.17120000000E+03  0.17120000000E+03 0.  0.
         13    1    1    2    0    0 -0.54783674425E+02  0.19831626726E+02  0.24851756070E+03  0.25525581980E+03  0.10566000000E+00 0.  1.
        994    1    1    2    0    0  0.39880632903E+02 -0.29710554239E+02  0.14579908010E+02  0.17887200908E+03  0.17120000000E+03 0.  0.
        998    1    1    2    0    0  0.14903041522E+02  0.98789275139E+01  0.12369025276E+04  0.12370721711E+04  0.10000000000E+02 0.  1.
</event>
<event>
 5    1  0.1087513E-008  0.3741366E+03  0.7957747E-01  0.3477093E+00
         13   -1    0    0    0    0  0.00000000000E+00  0.00000000000E+00  0.14999999963E+04  0.15000000000E+04  0.10566000000E+00 0.  1.
        994   -1    0    0    0    0 -0.00000000000E+00 -0.00000000000E+00  0.11368683772E-12  0.17120000000E+03  0.17120000000E+03 0.  0.
         13    1    1    2    0    0 -0.60664931047E+02 -0.21637069897E+02  0.25490501511E+03  0.26291628810E+03  0.10566000000E+00 0.  1.
        994    1    1    2    0    0  0.50724375238E+02  0.24817216510E+02  0.18072909038E+02  0.18117650653E+03  0.17120000000E+03 0.  0.
        998    1    1    2    0    0  0.99405558091E+01 -0.31801466127E+01  0.12270220721E+04  0.12271072054E+04  0.10000000000E+02 0.  1.
</event>
<event>
 5    1  0.1189772E-008  0.3859213E+03  0.7957747E-01  0.3425774E+00
         13   -1    0    0    0    0  0.00000000000E+00  0.00000000000E+00  0.14999999963E+04  0.15000000000E+04  0.10566000000E+00 0.  1.
        994   -1    0    0    0    0 -0.00000000000E+00 -0.00000000000E+00  0.11368683772E-12  0.17120000000E+03  0.17120000000E+03 0.  0.
         13    1    1    2    0    0 -0.88203531497E+01  0.80102415583E+01  0.58260817858E+02  0.59466769384E+02  0.10566000000E+00 0.  1.
        994    1    1    2    0    0  0.10123361632E+02 -0.10980350557E+02  0.19050837809E+01  0.17186075728E+03  0.17120000000E+03 0.  0.
        998    1    1    2    0    0 -0.13030084822E+01  0.29701089984E+01  0.14398340946E+04  0.14398724733E+04  0.10000000000E+02 0.  1.
</event>
<event>
 5    1  0.1087513E-008  0.3834049E+03  0.7957747E-01  0.3436465E+00
         13   -1    0    0    0    0  0.00000000000E+00  0.00000000000E+00  0.14999999963E+04  0.15000000000E+04  0.10566000000E+00 0.  1.
        994   -1    0    0    0    0 -0.00000000000E+00 -0.00000000000E+00  0.11368683772E-12  0.17120000000E+03  0.17120000000E+03 0.  0.
         13    1    1    2    0    0  0.51878670603E+01 -0.19871051200E+02  0.98134401929E+02  0.10026038423E+03  0.10566000000E+00 0.  1.
        994    1    1    2    0    0  0.26372877081E+01 -0.59178654273E+01  0.25629220239E+01  0.17134171993E+03  0.17120000000E+03 0.  0.
        998    1    1    2    0    0 -0.78251547684E+01  0.25788916627E+02  0.13993026723E+04  0.13995978958E+04  0.10000000000E+02 0.  1.
</event>
<event>
 5    1  0.1110251E-008  0.3857139E+03  0.7957747E-01  0.3426650E+00
         13   -1    0    0    0    0  0.00000000000E+00  0.00000000000E+00  0.14999999963E+04  0.15000000000E+04  0.10566000000E+00 0. -1.
        994   -1    0    0    0    0 -0.00000000000E+00 -0.00000000000E+00  0.11368683772E-12  0.17120000000E+03  0.17120000000E+03 0.  0.
         13    1    1    2    0    0  0.12911216173E+02  0.25647826744E+01  0.67184696250E+02  0.68462195316E+02  0.10566000000E+00 0. -1.
        994    1    1    2    0    0 -0.10541694889E+02 -0.46009993150E+01  0.17103118151E+01  0.17159446871E+03  0.17120000000E+03 0.  0.
        998    1    1    2    0    0 -0.23695212846E+01  0.20362166407E+01  0.14311049882E+04  0.14311433360E+04  0.10000000000E+02 0. -1.
</event>
<event>
 5    1  0.1087513E-008  0.3736310E+03  0.7957747E-01  0.3479368E+00
         13   -1    0    0    0    0  0.00000000000E+00  0.00000000000E+00  0.14999999963E+04  0.15000000000E+04  0.10566000000E+00 0.  1.
        994   -1    0    0    0    0 -0.00000000000E+00 -0.00000000000E+00  0.11368683772E-12  0.17120000000E+03  0.17120000000E+03 0.  0.
         13    1    1    2    0    0  0.12411567175E+02 -0.81191297244E+01  0.11995318607E+02  0.19075274565E+02  0.10566000000E+00 0.  1.
        994    1    1    2    0    0  0.18138492759E+02  0.19568510259E+02  0.98184918213E+01  0.17354473284E+03  0.17120000000E+03 0.  0.
        998    1    1    2    0    0 -0.30550059933E+02 -0.11449380535E+02  0.14781861859E+04  0.14785799926E+04  0.10000000000E+02 0.  1.
</event>
<event>
 5    1  0.1087513E-008  0.3836918E+03  0.7957747E-01  0.3435239E+00
         13   -1    0    0    0    0  0.00000000000E+00  0.00000000000E+00  0.14999999963E+04  0.15000000000E+04  0.10566000000E+00 0. -1.
        994   -1    0    0    0    0 -0.00000000000E+00 -0.00000000000E+00  0.11368683772E-12  0.17120000000E+03  0.17120000000E+03 0.  0.
         13    1    1    2    0    0  0.14525189325E+02 -0.18439208401E+02  0.11681241262E+03  0.11914754063E+03  0.10566000000E+00 0. -1.
        994    1    1    2    0    0 -0.14680768641E+02  0.11910014309E+02  0.34621813387E+01  0.17227536129E+03  0.17120000000E+03 0.  0.
        998    1    1    2    0    0  0.15557931580E+00  0.65291940918E+01  0.13797254023E+04  0.13797770981E+04  0.10000000000E+02 0.  0.
</event>
<event>
 5    1  0.1087513E-008  0.3778911E+03  0.7957747E-01  0.3460393E+00
         13   -1    0    0    0    0  0.00000000000E+00  0.00000000000E+00  0.14999999963E+04  0.15000000000E+04  0.10566000000E+00 0.  1.
        994   -1    0    0    0    0 -0.00000000000E+00 -0.00000000000E+00  0.11368683772E-12  0.17120000000E+03  0.17120000000E+03 0.  0.
         13    1    1    2    0    0  0.81145650710E+02 -0.27442736451E+00  0.16740471854E+03  0.18603505823E+03  0.10566000000E+00 0.  1.
        994    1    1    2    0    0 -0.10820811853E+03  0.49528973654E+02  0.68036268821E+02  0.21931823914E+03  0.17120000000E+03 0.  0.
        998    1    1    2    0    0  0.27062467817E+02 -0.49254546290E+02  0.12645590089E+04  0.12658467026E+04  0.10000000000E+02 0.  1.
</event>
<event>
 5    1  0.1185365E-008  0.3859441E+03  0.7957747E-01  0.3425678E+00
         13   -1    0    0    0    0  0.00000000000E+00  0.00000000000E+00  0.14999999963E+04  0.15000000000E+04  0.10566000000E+00 0.  1.
        994   -1    0    0    0    0 -0.00000000000E+00 -0.00000000000E+00  0.11368683772E-12  0.17120000000E+03  0.17120000000E+03 0.  0.
         13    1    1    2    0    0 -0.77150303048E+01  0.66554794339E+01  0.44011213157E+02  0.45175382087E+02  0.10566000000E+00 0.  1.
        994    1    1    2    0    0  0.59567332178E+01 -0.99376059095E+01  0.16023958108E+01  0.17159908611E+03  0.17120000000E+03 0.  0.
        998    1    1    2    0    0  0.17582970870E+01  0.32821264756E+01  0.14543863873E+04  0.14544255318E+04  0.10000000000E+02 0.  1.
</event>
<event>
 5    1  0.1087513E-008  0.3802135E+03  0.7957747E-01  0.3450229E+00
         13   -1    0    0    0    0  0.00000000000E+00  0.00000000000E+00  0.14999999963E+04  0.15000000000E+04  0.10566000000E+00 0. -1.
        994   -1    0    0    0    0 -0.00000000000E+00 -0.00000000000E+00  0.11368683772E-12  0.17120000000E+03  0.17120000000E+03 0.  0.
         13    1    1    2    0    0 -0.58259036803E+01 -0.21429237807E+02  0.60886815156E+02  0.64810252357E+02  0.10566000000E+00 0. -1.
        994    1    1    2    0    0 -0.20519808948E+01  0.10788288531E+02  0.44283696775E+01  0.17160899817E+03  0.17120000000E+03 0.  0.
        998    1    1    2    0    0  0.78778845751E+01  0.10640949275E+02  0.14346848114E+04  0.14347807495E+04  0.10000000000E+02 0. -1.
</event>
<event>
 5    1  0.1087513E-008  0.3797289E+03  0.7957747E-01  0.3452340E+00
         13   -1    0    0    0    0  0.00000000000E+00  0.00000000000E+00  0.14999999963E+04  0.15000000000E+04  0.10566000000E+00 0. -1.
        994   -1    0    0    0    0 -0.00000000000E+00 -0.00000000000E+00  0.11368683772E-12  0.17120000000E+03  0.17120000000E+03 0.  0.
         13    1    1    2    0    0  0.43679194130E+01 -0.38713446543E+02  0.15618385251E+03  0.16096961394E+03  0.10566000000E+00 0. -1.
        994    1    1    2    0    0 -0.19765081887E+01  0.42162337753E+02  0.10254195563E+02  0.17662434101E+03  0.17120000000E+03 0.  0.
        998    1    1    2    0    0 -0.23914112243E+01 -0.34488912096E+01  0.13335619482E+04  0.13336060451E+04  0.10000000000E+02 0. -1.
</event>
<event>
 5    1  0.1087513E-008  0.3752206E+03  0.7957747E-01  0.3472237E+00
         13   -1    0    0    0    0  0.00000000000E+00  0.00000000000E+00  0.14999999963E+04  0.15000000000E+04  0.10566000000E+00 0. -1.
        994   -1    0    0    0    0 -0.00000000000E+00 -0.00000000000E+00  0.11368683772E-12  0.17120000000E+03  0.17120000000E+03 0.  0.
         13    1    1    2    0    0 -0.26637853936E+02 -0.38960248540E+02  0.86013225654E+02  0.98110969723E+02  0.10566000000E+00 0. -1.
        994    1    1    2    0    0 -0.24473276720E+02  0.76737475442E+01  0.16072455123E+02  0.17385508761E+03  0.17120000000E+03 0.  0.
        998    1    1    2    0    0  0.51111130656E+02  0.31286500995E+02  0.13979143155E+04  0.13992339427E+04  0.10000000000E+02 0. -1.
</event>
<event>
 5    1  0.1087513E-008  0.3811659E+03  0.7957747E-01  0.3446098E+00
         13   -1    0    0    0    0  0.00000000000E+00  0.00000000000E+00  0.14999999963E+04  0.15000000000E+04  0.10566000000E+00 0.  1.
        994   -1    0    0    0    0 -0.00000000000E+00 -0.00000000000E+00  0.11368683772E-12  0.17120000000E+03  0.17120000000E+03 0.  0.
         13    1    1    2    0    0  0.21770611885E+02  0.16847976612E+02  0.10072878088E+03  0.10442275767E+03  0.10566000000E+00 0.  1.
        994    1    1    2    0    0 -0.20851654797E+02 -0.14734963193E+02  0.57197060812E+01  0.17318794902E+03  0.17120000000E+03 0.  0.
        998    1    1    2    0    0 -0.91895708802E+00 -0.21130134186E+01  0.13935515093E+04  0.13935892933E+04  0.10000000000E+02 0.  1.
</event>
<event>
 5    1  0.1087513E-008  0.3838398E+03  0.7957747E-01  0.3434608E+00
         13   -1    0    0    0    0  0.00000000000E+00  0.00000000000E+00  0.14999999963E+04  0.15000000000E+04  0.10566000000E+00 0. -1.
        994   -1    0    0    0    0 -0.00000000000E+00 -0.00000000000E+00  0.11368683772E-12  0.17120000000E+03  0.17120000000E+03 0.  0.
         13    1    1    2    0    0  0.60033518023E+01 -0.16735476107E+02  0.72861758698E+02  0.74999756253E+02  0.10566000000E+00 0. -1.
        994    1    1    2    0    0 -0.65939154790E+01  0.54603940608E+01  0.24492531274E+01  0.17143142788E+03  0.17120000000E+03 0.  0.
        998    1    1    2    0    0  0.59056367668E+00  0.11275082046E+02  0.14246889845E+04  0.14247688159E+04  0.10000000000E+02 0. -1.
</event>
<event>
 5    1  0.1087513E-008  0.3808734E+03  0.7957747E-01  0.3447365E+00
         13   -1    0    0    0    0  0.00000000000E+00  0.00000000000E+00  0.14999999963E+04  0.15000000000E+04  0.10566000000E+00 0. -1.
        994   -1    0    0    0    0 -0.00000000000E+00 -0.00000000000E+00  0.11368683772E-12  0.17120000000E+03  0.17120000000E+03 0.  0.
         13    1    1    2    0    0 -0.26483065333E+02 -0.21300408724E+02  0.16441647565E+03  0.16789237264E+03  0.10566000000E+00 0. -1.
        994    1    1    2    0    0  0.12756061502E+02  0.28864007395E+01  0.42632944631E+01  0.17175175136E+03  0.17120000000E+03 0.  0.
        998    1    1    2    0    0  0.13727003831E+02  0.18414007985E+02  0.13313202262E+04  0.13315558760E+04  0.10000000000E+02 0. -1.
</event>
<event>
 5    1  0.1087513E-008  0.3760860E+03  0.7957747E-01  0.3468380E+00
         13   -1    0    0    0    0  0.00000000000E+00  0.00000000000E+00  0.14999999963E+04  0.15000000000E+04  0.10566000000E+00 0. -1.
        994   -1    0    0    0    0 -0.00000000000E+00 -0.00000000000E+00  0.11368683772E-12  0.17120000000E+03  0.17120000000E+03 0.  0.
         13    1    1    2    0    0  0.11450938187E+02  0.99523133572E+02  0.49707812305E+03  0.50707262762E+03  0.10566000000E+00 0. -1.
        994    1    1    2    0    0 -0.98147659412E+01 -0.10629790086E+03  0.45748802178E+02  0.20687669337E+03  0.17120000000E+03 0.  0.
        998    1    1    2    0    0 -0.16361722461E+01  0.67747672851E+01  0.95717307105E+03  0.95725067901E+03  0.10000000000E+02 0.  0.
</event>
<event>
 5    1  0.1087513E-008  0.3934274E+03  0.7957747E-01  0.3394698E+00
         13   -1    0    0    0    0  0.00000000000E+00  0.00000000000E+00  0.14999999963E+04  0.15000000000E+04  0.10566000000E+00 0.  1.
        994   -1    0    0    0    0 -0.00000000000E+00 -0.00000000000E+00  0.11368683772E-12  0.17120000000E+03  0.17120000000E+03 0.  0.
         13    1    1    2    0    0  0.29288951610E+02  0.15671012817E+03  0.38931737899E+03  0.42069459196E+03  0.10566000000E+00 0.  1.
        994    1    1    2    0    0 -0.39413712189E+02 -0.14389254657E+03  0.11482851030E+03  0.25446715396E+03  0.17120000000E+03 0.  0.
        998    1    1    2    0    0  0.10124760579E+02 -0.12817581605E+02  0.99585410699E+03  0.99603825408E+03  0.10000000000E+02 0.  1.
</event>
<event>
 5    1  0.1087513E-008  0.3800261E+03  0.7957747E-01  0.3451045E+00
         13   -1    0    0    0    0  0.00000000000E+00  0.00000000000E+00  0.14999999963E+04  0.15000000000E+04  0.10566000000E+00 0.  1.
        994   -1    0    0    0    0 -0.00000000000E+00 -0.00000000000E+00  0.11368683772E-12  0.17120000000E+03  0.17120000000E+03 0.  0.
         13    1    1    2    0    0  0.19605849703E+02  0.53754607736E+02  0.32579031754E+03  0.33077679689E+03  0.10566000000E+00 0.  1.
        994    1    1    2    0    0 -0.20277648905E+02 -0.49004554355E+02  0.13579480396E+02  0.17974001135E+03  0.17120000000E+03 0.  0.
        998    1    1    2    0    0  0.67179920253E+00 -0.47500533816E+01  0.11606301983E+04  0.11606831918E+04  0.10000000000E+02 0.  1.
</event>
<event>
 5    1  0.1087513E-008  0.3851363E+03  0.7957747E-01  0.3429095E+00
         13   -1    0    0    0    0  0.00000000000E+00  0.00000000000E+00  0.14999999963E+04  0.15000000000E+04  0.10566000000E+00 0. -1.
        994   -1    0    0    0    0 -0.00000000000E+00 -0.00000000000E+00  0.11368683772E-12  0.17120000000E+03  0.17120000000E+03 0.  0.
         13    1    1    2    0    0  0.78965977081E+01  0.16244303601E+02  0.10614316296E+03  0.10766901069E+03  0.10566000000E+00 0. -1.
        994    1    1    2    0    0 -0.14203717845E+02 -0.41042405388E+01  0.22813827717E+01  0.17185236425E+03  0.17120000000E+03 0.  0.
        998    1    1    2    0    0  0.63071201374E+01 -0.12140063062E+02  0.13915754505E+04  0.13916786251E+04  0.10000000000E+02 0. -1.
</event>
<event>
 5    1  0.1754021E-008  0.3858352E+03  0.7957747E-01  0.3426138E+00
         13   -1    0    0    0    0  0.00000000000E+00  0.00000000000E+00  0.14999999963E+04  0.15000000000E+04  0.10566000000E+00 0.  1.
        994   -1    0    0    0    0 -0.00000000000E+00 -0.00000000000E+00  0.11368683772E-12  0.17120000000E+03  0.17120000000E+03 0.  0.
         13    1    1    2    0    0 -0.60306318815E+01  0.84159797700E+01  0.43589384766E+02  0.44802264058E+02  0.10566000000E+00 0.  1.
        994    1    1    2    0    0  0.40885181200E+01 -0.97224388257E+01  0.15809931444E+01  0.17153186682E+03  0.17120000000E+03 0.  0.
        998    1    1    2    0    0  0.19421137615E+01  0.13064590557E+01  0.14548296184E+04  0.14548658691E+04  0.10000000000E+02 0.  1.
</event>
<event>
 5    1  0.1576447E-008  0.3857332E+03  0.7957747E-01  0.3426568E+00
         13   -1    0    0    0    0  0.00000000000E+00  0.00000000000E+00  0.14999999963E+04  0.15000000000E+04  0.10566000000E+00 0. -1.
        994   -1    0    0    0    0 -0.00000000000E+00 -0.00000000000E+00  0.11368683772E-12  0.17120000000E+03  0.17120000000E+03 0.  0.
         13    1    1    2    0    0 -0.39621866832E+01 -0.10073163779E+02  0.45849149767E+02  0.47109693803E+02  0.10566000000E+00 0. -1.
        994    1    1    2    0    0  0.55204165899E+01  0.85377117933E+01  0.16057520554E+01  0.17150914250E+03  0.17120000000E+03 0.  0.
        998    1    1    2    0    0 -0.15582299067E+01  0.15354519857E+01  0.14525450945E+04  0.14525811637E+04  0.10000000000E+02 0. -1.
</event>
<event>
 5    1  0.1087513E-008  0.3812561E+03  0.7957747E-01  0.3445707E+00
         13   -1    0    0    0    0  0.00000000000E+00  0.00000000000E+00  0.14999999963E+04  0.15000000000E+04  0.10566000000E+00 0. -1.
        994   -1    0    0    0    0 -0.00000000000E+00 -0.00000000000E+00  0.11368683772E-12  0.17120000000E+03  0.17120000000E+03 0.  0.
         13    1    1    2    0    0  0.94003847080E+01  0.93140070198E+01  0.23330994560E+02  0.26822834128E+02  0.10566000000E+00 0. -1.
        994    1    1    2    0    0 -0.12583712901E+02 -0.63202629149E+01  0.41608174816E+01  0.17182854232E+03  0.17120000000E+03 0.  0.
        998    1    1    2    0    0  0.31833281932E+01 -0.29937441049E+01  0.14725081842E+04  0.14725486236E+04  0.10000000000E+02 0. -1.
</event>
<event>
 5    1  0.1087513E-008  0.3696640E+03  0.7957747E-01  0.3497437E+00
         13   -1    0    0    0    0  0.00000000000E+00  0.00000000000E+00  0.14999999963E+04  0.15000000000E+04  0.10566000000E+00 0.  1.
        994   -1    0    0    0    0 -0.00000000000E+00 -0.00000000000E+00  0.11368683772E-12  0.17120000000E+03  0.17120000000E+03 0.  0.
         13    1    1    2    0    0 -0.22984666813E+01  0.15995047004E+02  0.79369528330E+01  0.18003634690E+02  0.10566000000E+00 0.  1.
        994    1    1    2    0    0 -0.52705277025E+02  0.19918571544E+02  0.21930111208E+02  0.18156256634E+03  0.17120000000E+03 0.  0.
        998    1    1    2    0    0  0.55003743707E+02 -0.35913618548E+02  0.14701329322E+04  0.14716337990E+04  0.10000000000E+02 0.  1.
</event>
<event>
 5    1  0.1087513E-008  0.3849801E+03  0.7957747E-01  0.3429756E+00
         13   -1    0    0    0    0  0.00000000000E+00  0.00000000000E+00  0.14999999963E+04  0.15000000000E+04  0.10566000000E+00 0. -1.
        994   -1    0    0    0    0 -0.00000000000E+00 -0.00000000000E+00  0.11368683772E-12  0.17120000000E+03  0.17120000000E+03 0.  0.
         13    1    1    2    0    0  0.16722941626E+02 -0.65762307404E+01  0.95336342765E+02  0.97015117396E+02  0.10566000000E+00 0. -1.
        994    1    1    2    0    0 -0.15484205858E+02  0.37740770726E+01  0.24758350084E+01  0.17195805898E+03  0.17120000000E+03 0.  0.
        998    1    1    2    0    0 -0.12387357683E+01  0.28021536678E+01  0.14021878185E+04  0.14022268236E+04  0.10000000000E+02 0.  0.
</event>
<event>
 5    1  0.1087513E-008  0.3820362E+03  0.7957747E-01  0.3442340E+00
         13   -1    0    0    0    0  0.00000000000E+00  0.00000000000E+00  0.14999999963E+04  0.15000000000E+04  0.10566000000E+00 0.  1.
        994   -1    0    0    0    0 -0.00000000000E+00 -0.00000000000E+00  0.11368683772E-12  0.17120000000E+03  0.17120000000E+03 0.  0.
         13    1    1    2    0    0  0.14666041678E+02  0.49336389219E+01  0.37070105606E+02  0.40170106612E+02  0.10566000000E+00 0.  1.
        994    1    1    2    0    0 -0.11905398559E+02 -0.48689980995E+01  0.36583606810E+01  0.17172148747E+03  0.17120000000E+03 0.  0.
        998    1    1    2    0    0 -0.27606431185E+01 -0.64640822426E-01  0.14592715300E+04  0.14593084059E+04  0.10000000000E+02 0.  1.
</event>
<event>
 5    1  0.1087513E-008  0.3801184E+03  0.7957747E-01  0.3450643E+00
         13   -1    0    0    0    0  0.00000000000E+00  0.00000000000E+00  0.14999999963E+04  0.15000000000E+04  0.10566000000E+00 0. -1.
        994   -1    0    0    0    0 -0.00000000000E+00 -0.00000000000E+00  0.11368683772E-12  0.17120000000E+03  0.17120000000E+03 0.  0.
         13    1    1    2    0    0  0.83194885775E+01  0.16796314457E+02  0.42434907735E+02  0.46390329036E+02  0.10566000000E+00 0. -1.
        994    1    1    2    0    0 -0.75172567098E+01 -0.37068760205E+01  0.43081695377E+01  0.17145917999E+03  0.17120000000E+03 0.  0.
        998    1    1    2    0    0 -0.80223186767E+00 -0.13089438437E+02  0.14532569190E+04  0.14533504910E+04  0.10000000000E+02 0. -1.
</event>
<event>
 5    1  0.1087513E-008  0.3834226E+03  0.7957747E-01  0.3436390E+00
         13   -1    0    0    0    0  0.00000000000E+00  0.00000000000E+00  0.14999999963E+04  0.15000000000E+04  0.10566000000E+00 0.  1.
        994   -1    0    0    0    0 -0.00000000000E+00 -0.00000000000E+00  0.11368683772E-12  0.17120000000E+03  0.17120000000E+03 0.  0.
         13    1    1    2    0    0  0.56290186982E+00 -0.15076999010E+02  0.44907861552E+02  0.47374676262E+02  0.10566000000E+00 0.  1.
        994    1    1    2    0    0 -0.79520179305E+00  0.17598617961E+02  0.34418668307E+01  0.17213840405E+03  0.17120000000E+03 0.  0.
        998    1    1    2    0    0  0.23229992323E+00 -0.25216189508E+01  0.14516502679E+04  0.14516869197E+04  0.10000000000E+02 0.  1.
</event>
<event>
 5    1  0.1087513E-008  0.3801510E+03  0.7957747E-01  0.3450501E+00
         13   -1    0    0    0    0  0.00000000000E+00  0.00000000000E+00  0.14999999963E+04  0.15000000000E+04  0.10566000000E+00 0. -1.
        994   -1    0    0    0    0 -0.00000000000E+00 -0.00000000000E+00  0.11368683772E-12  0.17120000000E+03  0.17120000000E+03 0.  0.
         13    1    1    2    0    0  0.23715591640E+02 -0.21563424169E+02  0.13590446579E+03  0.13963325369E+03  0.10566000000E+00 0. -1.
        994    1    1    2    0    0 -0.63116368064E+01  0.16019800718E+01  0.41986272657E+01  0.17137523616E+03  0.17120000000E+03 0.  0.
        998    1    1    2    0    0 -0.17403954833E+02  0.19961444097E+02  0.13598969032E+04  0.13601915101E+04  0.10000000000E+02 0. -1.
</event>
<event>
 5    1  0.1087513E-008  0.3721696E+03  0.7957747E-01  0.3485979E+00
         13   -1    0    0    0    0  0.00000000000E+00  0.00000000000E+00  0.14999999963E+04  0.15000000000E+04  0.10566000000E+00 0. -1.
        994   -1    0    0    0    0 -0.00000000000E+00 -0.00000000000E+00  0.11368683772E-12  0.17120000000E+03  0.17120000000E+03 0.  0.
         13    1    1    2    0    0  0.85848753019E+01  0.59613229028E+02  0.20261410304E+03  0.21137625949E+03  0.10566000000E+00 0. -1.
        994    1    1    2    0    0 -0.20474410632E-01 -0.50833754317E+02  0.17060541468E+02  0.17940059385E+03  0.17120000000E+03 0.  0.
        998    1    1    2    0    0 -0.85644008913E+01 -0.87794747103E+01  0.12803253518E+04  0.12804231467E+04  0.10000000000E+02 0. -1.
</event>
<event>
 5    1  0.1087513E-008  0.3831074E+03  0.7957747E-01  0.3437739E+00
         13   -1    0    0    0    0  0.00000000000E+00  0.00000000000E+00  0.14999999963E+04  0.15000000000E+04  0.10566000000E+00 0.  1.
        994   -1    0    0    0    0 -0.00000000000E+00 -0.00000000000E+00  0.11368683772E-12  0.17120000000E+03  0.17120000000E+03 0.  0.
         13    1    1    2    0    0  0.21940848048E+02 -0.39614426174E+01  0.90202758513E+02  0.92917396907E+02  0.10566000000E+00 0.  1.
        994    1    1    2    0    0 -0.23384916195E+02  0.64660570410E+01  0.45230177546E+01  0.17296982942E+03  0.17120000000E+03 0.  0.
        998    1    1    2    0    0  0.14440681469E+01 -0.25046144236E+01  0.14052742200E+04  0.14053127737E+04  0.10000000000E+02 0.  1.
</event>
<event>
 5    1  0.1087513E-008  0.3795951E+03  0.7957747E-01  0.3452923E+00
         13   -1    0    0    0    0  0.00000000000E+00  0.00000000000E+00  0.14999999963E+04  0.15000000000E+04  0.10566000000E+00 0. -1.
        994   -1    0    0    0    0 -0.00000000000E+00 -0.00000000000E+00  0.11368683772E-12  0.17120000000E+03  0.17120000000E+03 0.  0.
         13    1    1    2    0    0 -0.24091939477E+02 -0.18779711532E+02  0.10555244542E+03  0.10988370676E+03  0.10566000000E+00 0. -1.
        994    1    1    2    0    0  0.26762044494E+02 -0.23419071498E+01  0.67572027239E+01  0.17342661659E+03  0.17120000000E+03 0.  0.
        998    1    1    2    0    0 -0.26701050177E+01  0.21121618682E+02  0.13876903481E+04  0.13878896766E+04  0.10000000000E+02 0. -1.
</event>
<event>
 5    1  0.1087513E-008  0.3872162E+03  0.7957747E-01  0.3420327E+00
         13   -1    0    0    0    0  0.00000000000E+00  0.00000000000E+00  0.14999999963E+04  0.15000000000E+04  0.10566000000E+00 0.  1.
        994   -1    0    0    0    0 -0.00000000000E+00 -0.00000000000E+00  0.11368683772E-12  0.17120000000E+03  0.17120000000E+03 0.  0.
         13    1    1    2    0    0  0.50083003227E+02  0.22580408213E+02  0.69735251828E+02  0.88776114799E+02  0.10566000000E+00 0.  1.
        994    1    1    2    0    0 -0.42076622453E+02  0.35778393528E+02  0.31793364267E+02  0.18267674623E+03  0.17120000000E+03 0.  0.
        998    1    1    2    0    0 -0.80063807733E+01 -0.58358801741E+02  0.13984713802E+04  0.13997471390E+04  0.10000000000E+02 0.  1.
</event>
<event>
 5    1  0.1087513E-008  0.3779372E+03  0.7957747E-01  0.3460190E+00
         13   -1    0    0    0    0  0.00000000000E+00  0.00000000000E+00  0.14999999963E+04  0.15000000000E+04  0.10566000000E+00 0. -1.
        994   -1    0    0    0    0 -0.00000000000E+00 -0.00000000000E+00  0.11368683772E-12  0.17120000000E+03  0.17120000000E+03 0.  0.
         13    1    1    2    0    0  0.39045184422E+02  0.29532746992E+02  0.25379978426E+03  0.25847833802E+03  0.10566000000E+00 0. -1.
        994    1    1    2    0    0 -0.38827479275E+01 -0.20518022949E+02  0.66471619134E+01  0.17259689962E+03  0.17120000000E+03 0.  0.
        998    1    1    2    0    0 -0.35162436494E+02 -0.90147240426E+01  0.12395530501E+04  0.12401247624E+04  0.10000000000E+02 0. -1.
</event>
<event>
 5    1  0.1087513E-008  0.3709372E+03  0.7957747E-01  0.3491595E+00
         13   -1    0    0    0    0  0.00000000000E+00  0.00000000000E+00  0.14999999963E+04  0.15000000000E+04  0.10566000000E+00 0.  1.
        994   -1    0    0    0    0 -0.00000000000E+00 -0.00000000000E+00  0.11368683772E-12  0.17120000000E+03  0.17120000000E+03 0.  0.
         13    1    1    2    0    0  0.85353159959E+02 -0.59758151442E+02  0.54788234399E+03  0.55770177748E+03  0.10566000000E+00 0.  1.
        994    1    1    2    0    0 -0.68702219019E+02  0.28835796197E+02  0.28163774768E+02  0.18882302892E+03  0.17120000000E+03 0.  0.
        998    1    1    2    0    0 -0.16650940941E+02  0.30922355245E+02  0.92395387752E+03  0.92467519361E+03  0.10000000000E+02 0. -1.
</event>
<event>
 5    1  0.1087513E-008  0.3771501E+03  0.7957747E-01  0.3463662E+00
         13   -1    0    0    0    0  0.00000000000E+00  0.00000000000E+00  0.14999999963E+04  0.15000000000E+04  0.10566000000E+00 0. -1.
        994   -1    0    0    0    0 -0.00000000000E+00 -0.00000000000E+00  0.11368683772E-12  0.17120000000E+03  0.17120000000E+03 0.  0.
         13    1    1    2    0    0  0.78853521582E+01  0.50891379417E+02  0.23759334979E+03  0.24311051459E+03  0.10566000000E+00 0. -1.
        994    1    1    2    0    0 -0.16401098311E+01 -0.28562119611E+02  0.83458520024E+01  0.17377450297E+03  0.17120000000E+03 0.  0.
        998    1    1    2    0    0 -0.62452423271E+01 -0.22329259806E+02  0.12540607945E+04  0.12543149824E+04  0.10000000000E+02 0. -1.
</event>
<event>
 5    1  0.1087513E-008  0.3826364E+03  0.7957747E-01  0.3439759E+00
         13   -1    0    0    0    0  0.00000000000E+00  0.00000000000E+00  0.14999999963E+04  0.15000000000E+04  0.10566000000E+00 0. -1.
        994   -1    0    0    0    0 -0.00000000000E+00 -0.00000000000E+00  0.11368683772E-12  0.17120000000E+03  0.17120000000E+03 0.  0.
         13    1    1    2    0    0  0.12228785240E+02 -0.16473304006E+02  0.76103952794E+02  0.78820909207E+02  0.10566000000E+00 0. -1.
        994    1    1    2    0    0 -0.10755413796E+02  0.20720722654E+01  0.32058793385E+01  0.17157998156E+03  0.17120000000E+03 0.  0.
        998    1    1    2    0    0 -0.14733714437E+01  0.14401231740E+02  0.14206901641E+04  0.14207991092E+04  0.10000000000E+02 0. -1.
</event>
<event>
 5    1  0.1087513E-008  0.3896330E+03  0.7957747E-01  0.3410258E+00
         13   -1    0    0    0    0  0.00000000000E+00  0.00000000000E+00  0.14999999963E+04  0.15000000000E+04  0.10566000000E+00 0.  1.
        994   -1    0    0    0    0 -0.00000000000E+00 -0.00000000000E+00  0.11368683772E-12  0.17120000000E+03  0.17120000000E+03 0.  0.
         13    1    1    2    0    0  0.13252952350E+02 -0.37076578482E+02  0.26797157758E+02  0.47627851577E+02  0.10566000000E+00 0.  1.
        994    1    1    2    0    0 -0.13669435526E+02  0.33984846187E+02  0.26779971339E+02  0.17711134945E+03  0.17120000000E+03 0.  0.
        998    1    1    2    0    0  0.41648317585E+00  0.30917322949E+01  0.14464228672E+04  0.14464607990E+04  0.10000000000E+02 0.  1.
</event>
<event>
 5    1  0.1087513E-008  0.3810902E+03  0.7957747E-01  0.3446425E+00
         13   -1    0    0    0    0  0.00000000000E+00  0.00000000000E+00  0.14999999963E+04  0.15000000000E+04  0.10566000000E+00 0.  1.
        994   -1    0    0    0    0 -0.00000000000E+00 -0.00000000000E+00  0.11368683772E-12  0.17120000000E+03  0.17120000000E+03 0.  0.
         13    1    1    2    0    0 -0.16636279933E+02 -0.17083978405E+02  0.78656035809E+02  0.82191308916E+02  0.10566000000E+00 0.  1.
        994    1    1    2    0    0  0.10463459280E+02  0.86356935279E+01  0.41971711401E+01  0.17178799559E+03  0.17120000000E+03 0.  0.
        998    1    1    2    0    0  0.61728206523E+01  0.84482848775E+01  0.14171467893E+04  0.14172206955E+04  0.10000000000E+02 0.  1.
</event>
<event>
 5    1  0.1087513E-008  0.3814964E+03  0.7957747E-01  0.3444668E+00
         13   -1    0    0    0    0  0.00000000000E+00  0.00000000000E+00  0.14999999963E+04  0.15000000000E+04  0.10566000000E+00 0. -1.
        994   -1    0    0    0    0 -0.00000000000E+00 -0.00000000000E+00  0.11368683772E-12  0.17120000000E+03  0.17120000000E+03 0.  0.
         13    1    1    2    0    0  0.23516229239E+02  0.19664096393E+02  0.12350921941E+03  0.12725654470E+03  0.10566000000E+00 0. -1.
        994    1    1    2    0    0 -0.28621947698E+02 -0.22278920197E+02  0.77682194177E+01  0.17517234773E+03  0.17120000000E+03 0.  0.
        998    1    1    2    0    0  0.51057184595E+01  0.26148238043E+01  0.13687225575E+04  0.13687711076E+04  0.10000000000E+02 0. -1.
</event>
<event>
 5    1  0.1087513E-008  0.3824959E+03  0.7957747E-01  0.3440362E+00
         13   -1    0    0    0    0  0.00000000000E+00  0.00000000000E+00  0.14999999963E+04  0.15000000000E+04  0.10566000000E+00 0.  1.
        994   -1    0    0    0    0 -0.00000000000E+00 -0.00000000000E+00  0.11368683772E-12  0.17120000000E+03  0.17120000000E+03 0.  0.
         13    1    1    2    0    0 -0.19496734600E+02  0.17136093585E+02  0.12117991424E+03  0.12392881482E+03  0.10566000000E+00 0.  1.
        994    1    1    2    0    0  0.13136003713E+02  0.49881869019E+00  0.34516368874E+01  0.17173863051E+03  0.17120000000E+03 0.  0.
        998    1    1    2    0    0  0.63607308877E+01 -0.17634912275E+02  0.13753684452E+04  0.13755325547E+04  0.10000000000E+02 0.  1.
</event>
<event>
 5    1  0.1087513E-008  0.3821458E+03  0.7957747E-01  0.3441868E+00
         13   -1    0    0    0    0  0.00000000000E+00  0.00000000000E+00  0.14999999963E+04  0.15000000000E+04  0.10566000000E+00 0.  1.
        994   -1    0    0    0    0 -0.00000000000E+00 -0.00000000000E+00  0.11368683772E-12  0.17120000000E+03  0.17120000000E+03 0.  0.
         13    1    1    2    0    0 -0.48978724058E+01 -0.19914129453E+02  0.67592524874E+02  0.70635134947E+02  0.10566000000E+00 0.  1.
        994    1    1    2    0    0 -0.49119058859E+01  0.15612740351E+02  0.39435678198E+01  0.17202580099E+03  0.17120000000E+03 0.  0.
        998    1    1    2    0    0  0.98097782917E+01  0.43013891023E+01  0.14284639036E+04  0.14285390641E+04  0.10000000000E+02 0.  1.
</event>
<event>
 5    1  0.1087513E-008  0.3858044E+03  0.7957747E-01  0.3426268E+00
         13   -1    0    0    0    0  0.00000000000E+00  0.00000000000E+00  0.14999999963E+04  0.15000000000E+04  0.10566000000E+00 0.  1.
        994   -1    0    0    0    0 -0.00000000000E+00 -0.00000000000E+00  0.11368683772E-12  0.17120000000E+03  0.17120000000E+03 0.  0.
         13    1    1    2    0    0 -0.11200264697E+02  0.85211195895E+01  0.77821991145E+02  0.79084314994E+02  0.10566000000E+00 0.  1.
        994    1    1    2    0    0  0.11566383025E+02 -0.87532781210E+01  0.19217279919E+01  0.17182413722E+03  0.17120000000E+03 0.  0.
        998    1    1    2    0    0 -0.36611832735E+00  0.23215853147E+00  0.14202562771E+04  0.14202915478E+04  0.10000000000E+02 0.  1.
</event>
<event>
 5    1  0.1087513E-008  0.3853687E+03  0.7957747E-01  0.3428110E+00
         13   -1    0    0    0    0  0.00000000000E+00  0.00000000000E+00  0.14999999963E+04  0.15000000000E+04  0.10566000000E+00 0.  1.
        994   -1    0    0    0    0 -0.00000000000E+00 -0.00000000000E+00  0.11368683772E-12  0.17120000000E+03  0.17120000000E+03 0.  0.
         13    1    1    2    0    0  0.11811965203E+02 -0.12234728642E+02  0.96282274233E+02  0.97772688428E+02  0.10566000000E+00 0.  1.
        994    1    1    2    0    0 -0.12381682636E+02  0.10197581537E+02  0.22927784137E+01  0.17196509404E+03  0.17120000000E+03 0.  0.
        998    1    1    2    0    0  0.56971743263E+00  0.20371471049E+01  0.14014249436E+04  0.14014622175E+04  0.10000000000E+02 0.  1.
</event>
<event>
 5    1  0.1087513E-008  0.3723970E+03  0.7957747E-01  0.3484947E+00
         13   -1    0    0    0    0  0.00000000000E+00  0.00000000000E+00  0.14999999963E+04  0.15000000000E+04  0.10566000000E+00 0.  1.
        994   -1    0    0    0    0 -0.00000000000E+00 -0.00000000000E+00  0.11368683772E-12  0.17120000000E+03  0.17120000000E+03 0.  0.
         13    1    1    2    0    0 -0.80518395965E+02  0.95641813564E+02  0.48154501574E+03  0.49750998175E+03  0.10566000000E+00 0.  1.
        994    1    1    2    0    0  0.58489358588E+02 -0.93025497599E+02  0.56096177890E+02  0.21102362296E+03  0.17120000000E+03 0.  0.
        998    1    1    2    0    0  0.22029037377E+02 -0.26163159649E+01  0.96235880265E+03  0.96266639529E+03  0.10000000000E+02 0. -1.
</event>
<event>
 5    1  0.1087513E-008  0.3712621E+03  0.7957747E-01  0.3490111E+00
         13   -1    0    0    0    0  0.00000000000E+00  0.00000000000E+00  0.14999999963E+04  0.15000000000E+04  0.10566000000E+00 0.  1.
        994   -1    0    0    0    0 -0.00000000000E+00 -0.00000000000E+00  0.11368683772E-12  0.17120000000E+03  0.17120000000E+03 0.  0.
         13    1    1    2    0    0 -0.10038063830E+03  0.21635291592E+02  0.56878158020E+03  0.57797651815E+03  0.10566000000E+00 0.  1.
        994    1    1    2    0    0  0.63600615033E+02 -0.21159835178E+02  0.24240513158E+02  0.18544492265E+03  0.17120000000E+03 0.  0.
        998    1    1    2    0    0  0.36780023271E+02 -0.47545641336E+00  0.90697790292E+03  0.90777855921E+03  0.10000000000E+02 0.  1.
</event>
<event>
 5    1  0.1087513E-008  0.3846752E+03  0.7957747E-01  0.3431051E+00
         13   -1    0    0    0    0  0.00000000000E+00  0.00000000000E+00  0.14999999963E+04  0.15000000000E+04  0.10566000000E+00 0. -1.
        994   -1    0    0    0    0 -0.00000000000E+00 -0.00000000000E+00  0.11368683772E-12  0.17120000000E+03  0.17120000000E+03 0.  0.
         13    1    1    2    0    0  0.97512215320E+01 -0.39418829510E+01  0.30148449810E+02  0.31930627187E+02  0.10566000000E+00 0. -1.
        994    1    1    2    0    0 -0.64457510043E+01  0.11005916646E+02  0.23271939780E+01  0.17169022610E+03  0.17120000000E+03 0.  0.
        998    1    1    2    0    0 -0.33054705277E+01 -0.70640336946E+01  0.14675243525E+04  0.14675791467E+04  0.10000000000E+02 0. -1.
</event>
<event>
 5    1  0.1087513E-008  0.3835045E+03  0.7957747E-01  0.3436040E+00
         13   -1    0    0    0    0  0.00000000000E+00  0.00000000000E+00  0.14999999963E+04  0.15000000000E+04  0.10566000000E+00 0.  1.
        994   -1    0    0    0    0 -0.00000000000E+00 -0.00000000000E+00  0.11368683772E-12  0.17120000000E+03  0.17120000000E+03 0.  0.
         13    1    1    2    0    0 -0.19443287312E+02 -0.32816703775E+01  0.89381175015E+02  0.91530412395E+02  0.10566000000E+00 0.  1.
        994    1    1    2    0    0 -0.40413139615E+01  0.96193025560E+01  0.27343020537E+01  0.17153944039E+03  0.17120000000E+03 0.  0.
        998    1    1    2    0    0  0.23484601273E+02 -0.63376321785E+01  0.14078845192E+04  0.14081301472E+04  0.10000000000E+02 0.  1.
</event>
<event>
 5    1  0.1087513E-008  0.3837666E+03  0.7957747E-01  0.3434920E+00
         13   -1    0    0    0    0  0.00000000000E+00  0.00000000000E+00  0.14999999963E+04  0.15000000000E+04  0.10566000000E+00 0. -1.
        994   -1    0    0    0    0 -0.00000000000E+00 -0.00000000000E+00  0.11368683772E-12  0.17120000000E+03  0.17120000000E+03 0.  0.
         13    1    1    2    0    0  0.19474875650E+02  0.91983424052E+01  0.97631120325E+02  0.99978633240E+02  0.10566000000E+00 0. -1.
        994    1    1    2    0    0 -0.21954666336E+02 -0.36028277124E+01  0.38798345092E+01  0.17268318059E+03  0.17120000000E+03 0.  0.
        998    1    1    2    0    0  0.24797906863E+01 -0.55955146928E+01  0.13984890414E+04  0.13985381862E+04  0.10000000000E+02 0. -1.
</event>
<event>
 5    1  0.1087513E-008  0.3814469E+03  0.7957747E-01  0.3444882E+00
         13   -1    0    0    0    0  0.00000000000E+00  0.00000000000E+00  0.14999999963E+04  0.15000000000E+04  0.10566000000E+00 0.  1.
        994   -1    0    0    0    0 -0.00000000000E+00 -0.00000000000E+00  0.11368683772E-12  0.17120000000E+03  0.17120000000E+03 0.  0.
         13    1    1    2    0    0  0.10727406938E+02  0.52938719871E+01  0.19413413034E+02  0.22803379352E+02  0.10566000000E+00 0.  1.
        994    1    1    2    0    0 -0.12573367192E+02 -0.27514164508E+01  0.39558725510E+01  0.17172870693E+03  0.17120000000E+03 0.  0.
        998    1    1    2    0    0  0.18459602541E+01 -0.25424555363E+01  0.14766307107E+04  0.14766679137E+04  0.10000000000E+02 0.  1.
</event>
<event>
 5    1  0.1087513E-008  0.3839452E+03  0.7957747E-01  0.3434158E+00
         13   -1    0    0    0    0  0.00000000000E+00  0.00000000000E+00  0.14999999963E+04  0.15000000000E+04  0.10566000000E+00 0.  1.
        994   -1    0    0    0    0 -0.00000000000E+00 -0.00000000000E+00  0.11368683772E-12  0.17120000000E+03  0.17120000000E+03 0.  0.
         13    1    1    2    0    0  0.21370792589E+02  0.48497124587E+00  0.12031703054E+03  0.12220124785E+03  0.10566000000E+00 0.  1.
        994    1    1    2    0    0  0.35327081300E+01 -0.12970724656E+02  0.27513346495E+01  0.17174903076E+03  0.17120000000E+03 0.  0.
        998    1    1    2    0    0 -0.24903500719E+02  0.12485753410E+02  0.13769316311E+04  0.13772497214E+04  0.10000000000E+02 0.  1.
</event>
<event>
 5    1  0.1087513E-008  0.3842886E+03  0.7957747E-01  0.3432695E+00
         13   -1    0    0    0    0  0.00000000000E+00  0.00000000000E+00  0.14999999963E+04  0.15000000000E+04  0.10566000000E+00 0. -1.
        994   -1    0    0    0    0 -0.00000000000E+00 -0.00000000000E+00  0.11368683772E-12  0.17120000000E+03  0.17120000000E+03 0.  0.
         13    1    1    2    0    0 -0.17534119753E+03  0.11316217400E+03  0.11711928811E+04  0.11896398568E+04  0.10566000000E+00 0. -1.
        994    1    1    2    0    0  0.18007627917E+03 -0.11072880045E+03  0.16666331100E+03  0.31902105386E+03  0.17120000000E+03 0.  0.
        998    1    1    2    0    0 -0.47350816450E+01 -0.24333735519E+01  0.16214380422E+03  0.16253908930E+03  0.10000000000E+02 0. -1.
</event>
<event>
 5    1  0.1087513E-008  0.3711958E+03  0.7957747E-01  0.3490413E+00
         13   -1    0    0    0    0  0.00000000000E+00  0.00000000000E+00  0.14999999963E+04  0.15000000000E+04  0.10566000000E+00 0.  1.
        994   -1    0    0    0    0 -0.00000000000E+00 -0.00000000000E+00  0.11368683772E-12  0.17120000000E+03  0.17120000000E+03 0.  0.
         13    1    1    2    0    0 -0.31620850537E+02  0.55495881793E+01  0.59721774150E+02  0.67803964407E+02  0.10566000000E+00 0.  1.
        994    1    1    2    0    0  0.77013444968E+01  0.31785134639E+02  0.12337387725E+02  0.17473195651E+03  0.17120000000E+03 0.  0.
        998    1    1    2    0    0  0.23919506040E+02 -0.37334722818E+02  0.14279408344E+04  0.14286640791E+04  0.10000000000E+02 0.  1.
</event>
<event>
 5    1  0.1087513E-008  0.3842638E+03  0.7957747E-01  0.3432801E+00
         13   -1    0    0    0    0  0.00000000000E+00  0.00000000000E+00  0.14999999963E+04  0.15000000000E+04  0.10566000000E+00 0. -1.
        994   -1    0    0    0    0 -0.00000000000E+00 -0.00000000000E+00  0.11368683772E-12  0.17120000000E+03  0.17120000000E+03 0.  0.
         13    1    1    2    0    0 -0.27912755581E+02 -0.29836186482E+01  0.15760733532E+03  0.16008781095E+03  0.10566000000E+00 0. -1.
        994    1    1    2    0    0  0.42480669754E+02  0.21099440454E+01  0.79826270298E+01  0.17658488469E+03  0.17120000000E+03 0.  0.
        998    1    1    2    0    0 -0.14567914173E+02  0.87367460276E+00  0.13344100339E+04  0.13345273044E+04  0.10000000000E+02 0. -1.
</event>
<event>
 5    1  0.1087513E-008  0.3744446E+03  0.7957747E-01  0.3475711E+00
         13   -1    0    0    0    0  0.00000000000E+00  0.00000000000E+00  0.14999999963E+04  0.15000000000E+04  0.10566000000E+00 0.  1.
        994   -1    0    0    0    0 -0.00000000000E+00 -0.00000000000E+00  0.11368683772E-12  0.17120000000E+03  0.17120000000E+03 0.  0.
         13    1    1    2    0    0  0.10643749118E+02  0.49138804594E+02  0.16254932866E+03  0.17014760335E+03  0.10566000000E+00 0.  1.
        994    1    1    2    0    0 -0.11919063101E+02 -0.46746744378E+02  0.14931767805E+02  0.17849291265E+03  0.17120000000E+03 0.  0.
        998    1    1    2    0    0  0.12753139831E+01 -0.23920602159E+01  0.13225188998E+04  0.13225594840E+04  0.10000000000E+02 0.  0.
</event>
<event>
 5    1  0.1087513E-008  0.3853180E+03  0.7957747E-01  0.3428325E+00
         13   -1    0    0    0    0  0.00000000000E+00  0.00000000000E+00  0.14999999963E+04  0.15000000000E+04  0.10566000000E+00 0. -1.
        994   -1    0    0    0    0 -0.00000000000E+00 -0.00000000000E+00  0.11368683772E-12  0.17120000000E+03  0.17120000000E+03 0.  0.
         13    1    1    2    0    0 -0.40002583154E+01 -0.15819964511E+02  0.91968775622E+02  0.93405247161E+02  0.10566000000E+00 0. -1.
        994    1    1    2    0    0 -0.21306754138E+01  0.96543689110E+01  0.17935196064E+01  0.17149461604E+03  0.17120000000E+03 0.  0.
        998    1    1    2    0    0  0.61309337292E+01  0.61655955997E+01  0.14062377011E+04  0.14063001368E+04  0.10000000000E+02 0. -1.
</event>
<event>
 5    1  0.1087513E-008  0.3829761E+03  0.7957747E-01  0.3438301E+00
         13   -1    0    0    0    0  0.00000000000E+00  0.00000000000E+00  0.14999999963E+04  0.15000000000E+04  0.10566000000E+00 0. -1.
        994   -1    0    0    0    0 -0.00000000000E+00 -0.00000000000E+00  0.11368683772E-12  0.17120000000E+03  0.17120000000E+03 0.  0.
         13    1    1    2    0    0  0.14067294965E+02 -0.31466678676E+01 -0.26162017808E+01  0.14650801415E+02  0.10566000000E+00 0. -1.
        994    1    1    2    0    0 -0.34055869361E+02 -0.27908355225E+02  0.25107915914E+02  0.17854558513E+03  0.17120000000E+03 0.  0.
        998    1    1    2    0    0  0.19988574396E+02  0.31055023093E+02  0.14775082821E+04  0.14780036135E+04  0.10000000000E+02 0. -1.
</event>
<event>
 5    1  0.1087513E-008  0.3745945E+03  0.7957747E-01  0.3475039E+00
         13   -1    0    0    0    0  0.00000000000E+00  0.00000000000E+00  0.14999999963E+04  0.15000000000E+04  0.10566000000E+00 0. -1.
        994   -1    0    0    0    0 -0.00000000000E+00 -0.00000000000E+00  0.11368683772E-12  0.17120000000E+03  0.17120000000E+03 0.  0.
         13    1    1    2    0    0 -0.27785699116E-01 -0.23799088791E+02  0.37533882785E+02  0.44443232559E+02  0.10566000000E+00 0. -1.
        994    1    1    2    0    0  0.12646800283E+02  0.23570850128E+02  0.93265138118E+01  0.17352795277E+03  0.17120000000E+03 0.  0.
        998    1    1    2    0    0 -0.12619014584E+02  0.22823866317E+00  0.14531395997E+04  0.14532288147E+04  0.10000000000E+02 0. -1.
</event>
<event>
 5    1  0.1087513E-008  0.3739136E+03  0.7957747E-01  0.3478096E+00
         13   -1    0    0    0    0  0.00000000000E+00  0.00000000000E+00  0.14999999963E+04  0.15000000000E+04  0.10566000000E+00 0. -1.
        994   -1    0    0    0    0 -0.00000000000E+00 -0.00000000000E+00  0.11368683772E-12  0.17120000000E+03  0.17120000000E+03 0.  0.
         13    1    1    2    0    0  0.45990150980E+02  0.27889529389E+02  0.17391471608E+03  0.18204191679E+03  0.10566000000E+00 0. -1.
        994    1    1    2    0    0 -0.52455656560E+02 -0.20545329575E+02  0.18143801069E+02  0.18114177870E+03  0.17120000000E+03 0.  0.
        998    1    1    2    0    0  0.64655055804E+01 -0.73441998143E+01  0.13079414791E+04  0.13080163045E+04  0.10000000000E+02 0. -1.
</event>
<event>
 5    1  0.1087513E-008  0.3803206E+03  0.7957747E-01  0.3449764E+00
         13   -1    0    0    0    0  0.00000000000E+00  0.00000000000E+00  0.14999999963E+04  0.15000000000E+04  0.10566000000E+00 0.  1.
        994   -1    0    0    0    0 -0.00000000000E+00 -0.00000000000E+00  0.11368683772E-12  0.17120000000E+03  0.17120000000E+03 0.  0.
         13    1    1    2    0    0 -0.12316554024E+02 -0.12912269222E+02  0.39218018467E+02  0.43086985692E+02  0.10566000000E+00 0.  1.
        994    1    1    2    0    0 -0.53311976694E-01  0.99030459596E+01  0.42989938841E+01  0.17154006678E+03  0.17120000000E+03 0.  0.
        998    1    1    2    0    0  0.12369866001E+02  0.30092232623E+01  0.14564829839E+04  0.14565729475E+04  0.10000000000E+02 0.  1.
</event>
<event>
 5    1  0.1087513E-008  0.3717203E+03  0.7957747E-01  0.3488022E+00
         13   -1    0    0    0    0  0.00000000000E+00  0.00000000000E+00  0.14999999963E+04  0.15000000000E+04  0.10566000000E+00 0. -1.
        994   -1    0    0    0    0 -0.00000000000E+00 -0.00000000000E+00  0.11368683772E-12  0.17120000000E+03  0.17120000000E+03 0.  0.
         13    1    1    2    0    0 -0.35494788433E+01 -0.12416720629E+02  0.61831376600E+01  0.14318383519E+02  0.10566000000E+00 0. -1.
        994    1    1    2    0    0  0.59815541225E+01  0.49976046400E+01  0.85814931252E+01  0.17159206586E+03  0.17120000000E+03 0.  0.
        998    1    1    2    0    0 -0.24320752791E+01  0.74191159887E+01  0.14852353655E+04  0.14852895506E+04  0.10000000000E+02 0. -1.
</event>
<event>
 5    1  0.1087513E-008  0.3773888E+03  0.7957747E-01  0.3462607E+00
         13   -1    0    0    0    0  0.00000000000E+00  0.00000000000E+00  0.14999999963E+04  0.15000000000E+04  0.10566000000E+00 0.  1.
        994   -1    0    0    0    0 -0.00000000000E+00 -0.00000000000E+00  0.11368683772E-12  0.17120000000E+03  0.17120000000E+03 0.  0.
         13    1    1    2    0    0  0.79111922083E+02  0.20368286959E+03  0.94643443459E+03  0.97133081786E+03  0.10566000000E+00 0.  1.
        994    1    1    2    0    0 -0.71483015834E+02 -0.21228551223E+03  0.19926342074E+03  0.34523949818E+03  0.17120000000E+03 0.  0.
        998    1    1    2    0    0 -0.76289062494E+01  0.86026426335E+01  0.35430214094E+03  0.35462968396E+03  0.10000000000E+02 0.  0.
</event>
<event>
 5    1  0.1087513E-008  0.3711617E+03  0.7957747E-01  0.3490569E+00
         13   -1    0    0    0    0  0.00000000000E+00  0.00000000000E+00  0.14999999963E+04  0.15000000000E+04  0.10566000000E+00 0.  1.
        994   -1    0    0    0    0 -0.00000000000E+00 -0.00000000000E+00  0.11368683772E-12  0.17120000000E+03  0.17120000000E+03 0.  0.
         13    1    1    2    0    0 -0.88732662827E+01  0.12204159892E+02  0.91484119967E+01  0.17645990459E+02  0.10566000000E+00 0.  1.
        994    1    1    2    0    0  0.85512080029E+01 -0.13233117422E+02  0.95184791780E+01  0.17218675908E+03  0.17120000000E+03 0.  0.
        998    1    1    2    0    0  0.32205827973E+00  0.10289575304E+01  0.14813331051E+04  0.14813672505E+04  0.10000000000E+02 0.  1.
</event>
<event>
 5    1  0.1087513E-008  0.3835784E+03  0.7957747E-01  0.3435724E+00
         13   -1    0    0    0    0  0.00000000000E+00  0.00000000000E+00  0.14999999963E+04  0.15000000000E+04  0.10566000000E+00 0.  1.
        994   -1    0    0    0    0 -0.00000000000E+00 -0.00000000000E+00  0.11368683772E-12  0.17120000000E+03  0.17120000000E+03 0.  0.
         13    1    1    2    0    0 -0.50006271983E+01 -0.14252266434E+02  0.46387073291E+02  0.48784271066E+02  0.10566000000E+00 0.  1.
        994    1    1    2    0    0  0.37497174749E+01  0.18098901915E+02  0.34670770531E+01  0.17222976298E+03  0.17120000000E+03 0.  0.
        998    1    1    2    0    0  0.12509097235E+01 -0.38466354811E+01  0.14501458459E+04  0.14501859660E+04  0.10000000000E+02 0.  1.
</event>
<event>
 5    1  0.1087513E-008  0.3853907E+03  0.7957747E-01  0.3428017E+00
         13   -1    0    0    0    0  0.00000000000E+00  0.00000000000E+00  0.14999999963E+04  0.15000000000E+04  0.10566000000E+00 0.  1.
        994   -1    0    0    0    0 -0.00000000000E+00 -0.00000000000E+00  0.11368683772E-12  0.17120000000E+03  0.17120000000E+03 0.  0.
         13    1    1    2    0    0 -0.11503658799E+02 -0.24716050934E+01  0.47069491540E+02  0.48517947147E+02  0.10566000000E+00 0.  1.
        994    1    1    2    0    0  0.12561297656E+02  0.12005644206E+01  0.19594396886E+01  0.17167558638E+03  0.17120000000E+03 0.  0.
        998    1    1    2    0    0 -0.10576388568E+01  0.12710406728E+01  0.14509710651E+04  0.14510064665E+04  0.10000000000E+02 0.  1.
</event>
<event>
 5    1  0.1087513E-008  0.3837106E+03  0.7957747E-01  0.3435159E+00
         13   -1    0    0    0    0  0.00000000000E+00  0.00000000000E+00  0.14999999963E+04  0.15000000000E+04  0.10566000000E+00 0.  1.
        994   -1    0    0    0    0 -0.00000000000E+00 -0.00000000000E+00  0.11368683772E-12  0.17120000000E+03  0.17120000000E+03 0.  0.
         13    1    1    2    0    0 -0.23539066785E+01  0.11666248263E+02  0.30651182007E+02  0.32880820362E+02  0.10566000000E+00 0.  1.
        994    1    1    2    0    0 -0.49440745934E+00 -0.70828578469E+01  0.24381568093E+01  0.17136451185E+03  0.17120000000E+03 0.  0.
        998    1    1    2    0    0  0.28483141379E+01 -0.45833904157E+01  0.14669106575E+04  0.14669546678E+04  0.10000000000E+02 0.  1.
</event>
<event>
 5    1  0.1087513E-008  0.3813564E+03  0.7957747E-01  0.3445274E+00
         13   -1    0    0    0    0  0.00000000000E+00  0.00000000000E+00  0.14999999963E+04  0.15000000000E+04  0.10566000000E+00 0. -1.
        994   -1    0    0    0    0 -0.00000000000E+00 -0.00000000000E+00  0.11368683772E-12  0.17120000000E+03  0.17120000000E+03 0.  0.
         13    1    1    2    0    0 -0.13624194842E+02 -0.37404715741E+01  0.27360726580E+02  0.30793348887E+02  0.10566000000E+00 0. -1.
        994    1    1    2    0    0  0.12571106997E+02  0.10397884715E+01  0.39797213667E+01  0.17171019793E+03  0.17120000000E+03 0.  0.
        998    1    1    2    0    0  0.10530878447E+01  0.27006831026E+01  0.14686595483E+04  0.14686964532E+04  0.10000000000E+02 0. -1.
</event>
<event>
 5    1  0.1087513E-008  0.2899130E+03  0.7957747E-01  0.3970771E+00
         13   -1    0    0    0    0  0.00000000000E+00  0.00000000000E+00  0.14999999963E+04  0.15000000000E+04  0.10566000000E+00 0. -1.
        994   -1    0    0    0    0 -0.00000000000E+00 -0.00000000000E+00  0.11368683772E-12  0.17120000000E+03  0.17120000000E+03 0.  0.
         13    1    1    2    0    0  0.49229388382E+02  0.25043683693E+03  0.47087840546E+03  0.53560118173E+03  0.10566000000E+00 0. -1.
        994    1    1    2    0    0 -0.39187480020E+02 -0.18976195916E+03  0.26968452552E+03  0.37361001464E+03  0.17120000000E+03 0.  0.
        998    1    1    2    0    0 -0.10041908362E+02 -0.60674877777E+02  0.75943706530E+03  0.76198880363E+03  0.10000000000E+02 0. -1.
</event>
<event>
 5    1  0.1087513E-008  0.3793024E+03  0.7957747E-01  0.3454202E+00
         13   -1    0    0    0    0  0.00000000000E+00  0.00000000000E+00  0.14999999963E+04  0.15000000000E+04  0.10566000000E+00 0. -1.
        994   -1    0    0    0    0 -0.00000000000E+00 -0.00000000000E+00  0.11368683772E-12  0.17120000000E+03  0.17120000000E+03 0.  0.
         13    1    1    2    0    0 -0.31502598271E+02 -0.44338800478E+02  0.26716231074E+03  0.27264272293E+03  0.10566000000E+00 0. -1.
        994    1    1    2    0    0 -0.66725997058E+01  0.79296553317E+02  0.26004583871E+02  0.19057320204E+03  0.17120000000E+03 0.  0.
        998    1    1    2    0    0  0.38175197977E+02 -0.34957752838E+02  0.12068331017E+04  0.12079840750E+04  0.10000000000E+02 0. -1.
</event>
<event>
 5    1  0.1087513E-008  0.3796192E+03  0.7957747E-01  0.3452818E+00
         13   -1    0    0    0    0  0.00000000000E+00  0.00000000000E+00  0.14999999963E+04  0.15000000000E+04  0.10566000000E+00 0. -1.
        994   -1    0    0    0    0 -0.00000000000E+00 -0.00000000000E+00  0.11368683772E-12  0.17120000000E+03  0.17120000000E+03 0.  0.
         13    1    1    2    0    0  0.85184226466E+01 -0.20217847832E+02  0.49337033142E+02  0.53995174772E+02  0.10566000000E+00 0. -1.
        994    1    1    2    0    0  0.77050857810E+00  0.42667921246E+02  0.10445295880E+02  0.17674753009E+03  0.17120000000E+03 0.  0.
        998    1    1    2    0    0 -0.92889312246E+01 -0.22450073414E+02  0.14402176673E+04  0.14404572951E+04  0.10000000000E+02 0. -1.
</event>
<event>
 5    1  0.1087513E-008  0.3749571E+03  0.7957747E-01  0.3473415E+00
         13   -1    0    0    0    0  0.00000000000E+00  0.00000000000E+00  0.14999999963E+04  0.15000000000E+04  0.10566000000E+00 0.  1.
        994   -1    0    0    0    0 -0.00000000000E+00 -0.00000000000E+00  0.11368683772E-12  0.17120000000E+03  0.17120000000E+03 0.  0.
         13    1    1    2    0    0 -0.13538867773E+02  0.17203321748E+01  0.10862286824E+02  0.17443076634E+02  0.10566000000E+00 0.  1.
        994    1    1    2    0    0  0.11189167773E+02 -0.34105427255E+01  0.71660681351E+01  0.17174871705E+03  0.17120000000E+03 0.  0.
        998    1    1    2    0    0  0.23497000008E+01  0.16902105507E+01  0.14819716413E+04  0.14820082063E+04  0.10000000000E+02 0.  1.
</event>
<event>
 5    1  0.1087513E-008  0.3340777E+03  0.7957747E-01  0.3679244E+00
         13   -1    0    0    0    0  0.00000000000E+00  0.00000000000E+00  0.14999999963E+04  0.15000000000E+04  0.10566000000E+00 0. -1.
        994   -1    0    0    0    0 -0.00000000000E+00 -0.00000000000E+00  0.11368683772E-12  0.17120000000E+03  0.17120000000E+03 0.  0.
         13    1    1    2    0    0  0.99520564529E+02 -0.17339606345E+03  0.92765171071E+03  0.94895112895E+03  0.10566000000E+00 0. -1.
        994    1    1    2    0    0 -0.16471021823E+03  0.13204556087E+03  0.18894083714E+03  0.33101898144E+03  0.17120000000E+03 0.  0.
        998    1    1    2    0    0  0.65189653702E+02  0.41350502581E+02  0.38340744843E+03  0.39122988961E+03  0.10000000000E+02 0.  1.
</event>
<event>
 5    1  0.1087513E-008  0.3786814E+03  0.7957747E-01  0.3456920E+00
         13   -1    0    0    0    0  0.00000000000E+00  0.00000000000E+00  0.14999999963E+04  0.15000000000E+04  0.10566000000E+00 0.  1.
        994   -1    0    0    0    0 -0.00000000000E+00 -0.00000000000E+00  0.11368683772E-12  0.17120000000E+03  0.17120000000E+03 0.  0.
         13    1    1    2    0    0  0.91618308667E+01 -0.94485596513E+01  0.15928078713E+02  0.20662267055E+02  0.10566000000E+00 0.  1.
        994    1    1    2    0    0 -0.10533031751E+02  0.43144673768E+01  0.52353658001E+01  0.17165782371E+03  0.17120000000E+03 0.  0.
        998    1    1    2    0    0  0.13712008840E+01  0.51340922745E+01  0.14788365518E+04  0.14788799092E+04  0.10000000000E+02 0.  1.
</event>
<event>
 5    1  0.1087513E-008  0.3766112E+03  0.7957747E-01  0.3466048E+00
         13   -1    0    0    0    0  0.00000000000E+00  0.00000000000E+00  0.14999999963E+04  0.15000000000E+04  0.10566000000E+00 0. -1.
        994   -1    0    0    0    0 -0.00000000000E+00 -0.00000000000E+00  0.11368683772E-12  0.17120000000E+03  0.17120000000E+03 0.  0.
         13    1    1    2    0    0 -0.61205992976E+01 -0.12036924281E+02  0.12920629492E+02  0.18689652549E+02  0.10566000000E+00 0. -1.
        994    1    1    2    0    0  0.10165595355E+02  0.82683040292E+01  0.64343687819E+01  0.17182125969E+03  0.17120000000E+03 0.  0.
        998    1    1    2    0    0 -0.40449960575E+01  0.37686202518E+01  0.14806449980E+04  0.14806890878E+04  0.10000000000E+02 0. -1.
</event>
<event>
 5    1  0.1087513E-008  0.3828583E+03  0.7957747E-01  0.3438806E+00
         13   -1    0    0    0    0  0.00000000000E+00  0.00000000000E+00  0.14999999963E+04  0.15000000000E+04  0.10566000000E+00 0. -1.
        994   -1    0    0    0    0 -0.00000000000E+00 -0.00000000000E+00  0.11368683772E-12  0.17120000000E+03  0.17120000000E+03 0.  0.
         13    1    1    2    0    0  0.11593808636E+02 -0.21269609323E+02  0.11420440983E+03  0.11674532568E+03  0.10566000000E+00 0. -1.
        994    1    1    2    0    0  0.34495069352E+01  0.93913050951E+01  0.30287389067E+01  0.17151882978E+03  0.17120000000E+03 0.  0.
        998    1    1    2    0    0 -0.15043315571E+02  0.11878304228E+02  0.13827668475E+04  0.13829358445E+04  0.10000000000E+02 0. -1.
</event>
<event>
 5    1  0.1087513E-008  0.3844938E+03  0.7957747E-01  0.3431822E+00
         13   -1    0    0    0    0  0.00000000000E+00  0.00000000000E+00  0.14999999963E+04  0.15000000000E+04  0.10566000000E+00 0. -1.
        994   -1    0    0    0    0 -0.00000000000E+00 -0.00000000000E+00  0.11368683772E-12  0.17120000000E+03  0.17120000000E+03 0.  0.
         13    1    1    2    0    0  0.15514966924E+02  0.50388420532E+01  0.70193021156E+02  0.72063690656E+02  0.10566000000E+00 0. -1.
        994    1    1    2    0    0 -0.11080563060E+02 -0.24847832664E+01  0.23065689122E+01  0.17159170518E+03  0.17120000000E+03 0.  0.
        998    1    1    2    0    0 -0.44344038643E+01 -0.25540587868E+01  0.14275004062E+04  0.14275446042E+04  0.10000000000E+02 0. -1.
</event>
<event>
 5    1  0.1087513E-008  0.3778253E+03  0.7957747E-01  0.3460683E+00
         13   -1    0    0    0    0  0.00000000000E+00  0.00000000000E+00  0.14999999963E+04  0.15000000000E+04  0.10566000000E+00 0. -1.
        994   -1    0    0    0    0 -0.00000000000E+00 -0.00000000000E+00  0.11368683772E-12  0.17120000000E+03  0.17120000000E+03 0.  0.
         13    1    1    2    0    0  0.10077194575E+03 -0.75965207331E+02  0.74156625409E+03  0.75222750425E+03  0.10566000000E+00 0. -1.
        994    1    1    2    0    0 -0.10152127442E+03  0.72856732211E+02  0.59755561870E+02  0.22021543943E+03  0.17120000000E+03 0.  0.
        998    1    1    2    0    0  0.74932866956E+00  0.31084751202E+01  0.69867818032E+03  0.69875705633E+03  0.10000000000E+02 0.  0.
</event>
<event>
 5    1  0.1087513E-008  0.3781440E+03  0.7957747E-01  0.3459280E+00
         13   -1    0    0    0    0  0.00000000000E+00  0.00000000000E+00  0.14999999963E+04  0.15000000000E+04  0.10566000000E+00 0.  1.
        994   -1    0    0    0    0 -0.00000000000E+00 -0.00000000000E+00  0.11368683772E-12  0.17120000000E+03  0.17120000000E+03 0.  0.
         13    1    1    2    0    0 -0.17587586317E+02 -0.13384163136E+02  0.44379133537E+02  0.49577995854E+02  0.10566000000E+00 0.  1.
        994    1    1    2    0    0  0.21748136348E+02  0.15169061469E+02  0.74414316529E+01  0.17340097106E+03  0.17120000000E+03 0.  0.
        998    1    1    2    0    0 -0.41605500311E+01 -0.17848983331E+01  0.14481794311E+04  0.14482210331E+04  0.10000000000E+02 0.  1.
</event>
<event>
 5    1  0.1087513E-008  0.3708829E+03  0.7957747E-01  0.3491843E+00
         13   -1    0    0    0    0  0.00000000000E+00  0.00000000000E+00  0.14999999963E+04  0.15000000000E+04  0.10566000000E+00 0.  1.
        994   -1    0    0    0    0 -0.00000000000E+00 -0.00000000000E+00  0.11368683772E-12  0.17120000000E+03  0.17120000000E+03 0.  0.
         13    1    1    2    0    0 -0.17780380542E+02 -0.58847126962E+02  0.19244353344E+03  0.20202388722E+03  0.10566000000E+00 0.  1.
        994    1    1    2    0    0  0.24239512676E+02  0.49665821196E+02  0.19411412216E+02  0.18094333559E+03  0.17120000000E+03 0.  0.
        998    1    1    2    0    0 -0.64591321332E+01  0.91813057661E+01  0.12881450506E+04  0.12882327772E+04  0.10000000000E+02 0.  1.
</event>
<event>
 5    1  0.1087513E-008  0.3685130E+03  0.7957747E-01  0.3502753E+00
         13   -1    0    0    0    0  0.00000000000E+00  0.00000000000E+00  0.14999999963E+04  0.15000000000E+04  0.10566000000E+00 0. -1.
        994   -1    0    0    0    0 -0.00000000000E+00 -0.00000000000E+00  0.11368683772E-12  0.17120000000E+03  0.17120000000E+03 0.  0.
         13    1    1    2    0    0  0.70735564217E+02 -0.30750408308E+01  0.36492091198E+03  0.37172605381E+03  0.10566000000E+00 0. -1.
        994    1    1    2    0    0  0.88518397793E+01 -0.23272525109E+02  0.12206055769E+02  0.17343123505E+03  0.17120000000E+03 0.  0.
        998    1    1    2    0    0 -0.79587403997E+02  0.26347565940E+02  0.11228730285E+04  0.11260427111E+04  0.10000000000E+02 0. -1.
</event>
<event>
 5    1  0.1087513E-008  0.3841203E+03  0.7957747E-01  0.3433412E+00
         13   -1    0    0    0    0  0.00000000000E+00  0.00000000000E+00  0.14999999963E+04  0.15000000000E+04  0.10566000000E+00 0. -1.
        994   -1    0    0    0    0 -0.00000000000E+00 -0.00000000000E+00  0.11368683772E-12  0.17120000000E+03  0.17120000000E+03 0.  0.
         13    1    1    2    0    0  0.53621062830E+01  0.11862789238E+02  0.39101731219E+02  0.41212067416E+02  0.10566000000E+00 0. -1.
        994    1    1    2    0    0 -0.37921931823E+01 -0.16614830856E+02  0.30259641383E+01  0.17207274564E+03  0.17120000000E+03 0.  0.
        998    1    1    2    0    0 -0.15699131007E+01  0.47520416173E+01  0.14578723009E+04  0.14579151869E+04  0.10000000000E+02 0. -1.
</event>
<event>
 5    1  0.1087513E-008  0.3803851E+03  0.7957747E-01  0.3449484E+00
         13   -1    0    0    0    0  0.00000000000E+00  0.00000000000E+00  0.14999999963E+04  0.15000000000E+04  0.10566000000E+00 0.  1.
        994   -1    0    0    0    0 -0.00000000000E+00 -0.00000000000E+00  0.11368683772E-12  0.17120000000E+03  0.17120000000E+03 0.  0.
         13    1    1    2    0    0  0.72118633938E+01  0.17872019547E+02  0.42416142222E+02  0.46589272814E+02  0.10566000000E+00 0.  1.
        994    1    1    2    0    0  0.11458763003E+01 -0.36534931437E+02  0.84126314898E+01  0.17526073895E+03  0.17120000000E+03 0.  0.
        998    1    1    2    0    0 -0.83577396941E+01  0.18662911890E+02  0.14491712226E+04  0.14493499882E+04  0.10000000000E+02 0.  1.
</event>
<event>
 5    1  0.1087513E-008  0.3739869E+03  0.7957747E-01  0.3477766E+00
         13   -1    0    0    0    0  0.00000000000E+00  0.00000000000E+00  0.14999999963E+04  0.15000000000E+04  0.10566000000E+00 0.  1.
        994   -1    0    0    0    0 -0.00000000000E+00 -0.00000000000E+00  0.11368683772E-12  0.17120000000E+03  0.17120000000E+03 0.  0.
         13    1    1    2    0    0  0.61807752478E+02  0.90886447248E+02  0.53760073403E+03  0.54872133634E+03  0.10566000000E+00 0.  1.
        994    1    1    2    0    0 -0.57839168543E+02 -0.90408498754E+02  0.47568303205E+02  0.20758431910E+03  0.17120000000E+03 0.  0.
        998    1    1    2    0    0 -0.39685839347E+01 -0.47794849336E+00  0.91483095904E+03  0.91489434456E+03  0.10000000000E+02 0.  1.
</event>
<event>
 5    1  0.1087513E-008  0.3844287E+03  0.7957747E-01  0.3432099E+00
         13   -1    0    0    0    0  0.00000000000E+00  0.00000000000E+00  0.14999999963E+04  0.15000000000E+04  0.10566000000E+00 0. -1.
        994   -1    0    0    0    0 -0.00000000000E+00 -0.00000000000E+00  0.11368683772E-12  0.17120000000E+03  0.17120000000E+03 0.  0.
         13    1    1    2    0    0 -0.16829469818E+02 -0.10206179771E+02  0.11359811672E+03  0.11529067805E+03  0.10566000000E+00 0. -1.
        994    1    1    2    0    0 -0.55190313512E+01  0.45506559620E+01  0.20826384552E+01  0.17136203068E+03  0.17120000000E+03 0.  0.
        998    1    1    2    0    0  0.22348501169E+02  0.56555238091E+01  0.13843192411E+04  0.13845472913E+04  0.10000000000E+02 0. -1.
</event>
<event>
 5    1  0.1087513E-008  0.2878525E+03  0.7957747E-01  0.3986749E+00
         13   -1    0    0    0    0  0.00000000000E+00  0.00000000000E+00  0.14999999963E+04  0.15000000000E+04  0.10566000000E+00 0.  1.
        994   -1    0    0    0    0 -0.00000000000E+00 -0.00000000000E+00  0.11368683772E-12  0.17120000000E+03  0.17120000000E+03 0.  0.
         13    1    1    2    0    0 -0.14978398294E+03  0.14803958590E+03  0.47113183843E+03  0.51605831152E+03  0.10566000000E+00 0.  1.
        994    1    1    2    0    0  0.14738449678E+03 -0.15248222638E+03  0.23121904476E+03  0.35741391399E+03  0.17120000000E+03 0.  0.
        998    1    1    2    0    0  0.23994861551E+01  0.44426404752E+01  0.79764911308E+03  0.79772777449E+03  0.10000000000E+02 0. -1.
</event>
<event>
 5    1  0.1087513E-008  0.3708990E+03  0.7957747E-01  0.3491769E+00
         13   -1    0    0    0    0  0.00000000000E+00  0.00000000000E+00  0.14999999963E+04  0.15000000000E+04  0.10566000000E+00 0.  1.
        994   -1    0    0    0    0 -0.00000000000E+00 -0.00000000000E+00  0.11368683772E-12  0.17120000000E+03  0.17120000000E+03 0.  0.
         13    1    1    2    0    0 -0.70890915393E+02 -0.54277296349E+02  0.29615849092E+03  0.30932411754E+03  0.10566000000E+00 0.  1.
        994    1    1    2    0    0  0.60646819960E+02  0.49337137518E+02  0.33170673572E+02  0.19110709954E+03  0.17120000000E+03 0.  0.
        998    1    1    2    0    0  0.10244095433E+02  0.49401588307E+01  0.11706708318E+04  0.11707687829E+04  0.10000000000E+02 0.  1.
</event>
<event>
 5    1  0.1087513E-008  0.3838058E+03  0.7957747E-01  0.3434753E+00
         13   -1    0    0    0    0  0.00000000000E+00  0.00000000000E+00  0.14999999963E+04  0.15000000000E+04  0.10566000000E+00 0.  1.
        994   -1    0    0    0    0 -0.00000000000E+00 -0.00000000000E+00  0.11368683772E-12  0.17120000000E+03  0.17120000000E+03 0.  0.
         13    1    1    2    0    0  0.10318446347E+02 -0.40842016912E+01  0.26993972151E+02  0.29186242221E+02  0.10566000000E+00 0.  1.
        994    1    1    2    0    0 -0.75181471640E+01  0.20661037122E+01  0.24249247306E+01  0.17139460780E+03  0.17120000000E+03 0.  0.
        998    1    1    2    0    0 -0.28002991827E+01  0.20180979790E+01  0.14705810994E+04  0.14706191500E+04  0.10000000000E+02 0.  1.
</event>
<event>
 5    1  0.1087513E-008  0.3840500E+03  0.7957747E-01  0.3433711E+00
         13   -1    0    0    0    0  0.00000000000E+00  0.00000000000E+00  0.14999999963E+04  0.15000000000E+04  0.10566000000E+00 0.  1.
        994   -1    0    0    0    0 -0.00000000000E+00 -0.00000000000E+00  0.11368683772E-12  0.17120000000E+03  0.17120000000E+03 0.  0.
         13    1    1    2    0    0  0.68972507011E+01  0.15139457857E+02  0.65021292263E+02  0.67115980683E+02  0.10566000000E+00 0.  1.
        994    1    1    2    0    0 -0.48025306227E+01 -0.10881605736E+02  0.25693682323E+01  0.17163191806E+03  0.17120000000E+03 0.  0.
        998    1    1    2    0    0 -0.20947200784E+01 -0.42578521211E+01  0.14324093358E+04  0.14324521013E+04  0.10000000000E+02 0.  1.
</event>
<event>
 5    1  0.1087513E-008  0.3785836E+03  0.7957747E-01  0.3457349E+00
         13   -1    0    0    0    0  0.00000000000E+00  0.00000000000E+00  0.14999999963E+04  0.15000000000E+04  0.10566000000E+00 0. -1.
        994   -1    0    0    0    0 -0.00000000000E+00 -0.00000000000E+00  0.11368683772E-12  0.17120000000E+03  0.17120000000E+03 0.  0.
         13    1    1    2    0    0 -0.36091705205E+02  0.42555480543E+02  0.30592105091E+03  0.31096829527E+03  0.10566000000E+00 0. -1.
        994    1    1    2    0    0  0.37989952359E+02 -0.16625261340E+02  0.10647253582E+02  0.17647220689E+03  0.17120000000E+03 0.  0.
        998    1    1    2    0    0 -0.18982471541E+01 -0.25930219203E+02  0.11834316918E+04  0.11837594978E+04  0.10000000000E+02 0. -1.
</event>
<event>
 5    1  0.1087513E-008  0.3701944E+03  0.7957747E-01  0.3494998E+00
         13   -1    0    0    0    0  0.00000000000E+00  0.00000000000E+00  0.14999999963E+04  0.15000000000E+04  0.10566000000E+00 0.  1.
        994   -1    0    0    0    0 -0.00000000000E+00 -0.00000000000E+00  0.11368683772E-12  0.17120000000E+03  0.17120000000E+03 0.  0.
         13    1    1    2    0    0  0.42547535738E+02 -0.19312794944E+02  0.12741888371E+03  0.13571610050E+03  0.10566000000E+00 0.  1.
        994    1    1    2    0    0  0.59116054163E+02  0.25022844898E+02  0.25600442807E+02  0.18462305733E+03  0.17120000000E+03 0.  0.
        998    1    1    2    0    0 -0.10166358990E+03 -0.57100499547E+01  0.13469806698E+04  0.13508608422E+04  0.10000000000E+02 0.  1.
</event>
<event>
 5    1  0.1087513E-008  0.3899782E+03  0.7957747E-01  0.3408830E+00
         13   -1    0    0    0    0  0.00000000000E+00  0.00000000000E+00  0.14999999963E+04  0.15000000000E+04  0.10566000000E+00 0.  1.
        994   -1    0    0    0    0 -0.00000000000E+00 -0.00000000000E+00  0.11368683772E-12  0.17120000000E+03  0.17120000000E+03 0.  0.
         13    1    1    2    0    0 -0.78489056100E+02  0.80130206418E+00  0.13680069301E+03  0.15772005195E+03  0.10566000000E+00 0.  1.
        994    1    1    2    0    0  0.46115708104E+02  0.48682762792E+02  0.39040185764E+02  0.18796341674E+03  0.17120000000E+03 0.  0.
        998    1    1    2    0    0  0.32373347996E+02 -0.49484064857E+02  0.13241591175E+04  0.13255165313E+04  0.10000000000E+02 0.  1.
</event>
<event>
 5    1  0.1087513E-008  0.3818335E+03  0.7957747E-01  0.3443214E+00
         13   -1    0    0    0    0  0.00000000000E+00  0.00000000000E+00  0.14999999963E+04  0.15000000000E+04  0.10566000000E+00 0. -1.
        994   -1    0    0    0    0 -0.00000000000E+00 -0.00000000000E+00  0.11368683772E-12  0.17120000000E+03  0.17120000000E+03 0.  0.
         13    1    1    2    0    0  0.18069431182E+02  0.19806614727E+02  0.98889280798E+02  0.10245929607E+03  0.10566000000E+00 0. -1.
        994    1    1    2    0    0 -0.24496954033E+02 -0.27390206467E+02  0.77103288442E+01  0.17526897426E+03  0.17120000000E+03 0.  0.
        998    1    1    2    0    0  0.64275228504E+01  0.75835917395E+01  0.13934003866E+04  0.13934717297E+04  0.10000000000E+02 0. -1.
</event>
<event>
 5    1  0.1087513E-008  0.3845189E+03  0.7957747E-01  0.3431715E+00
         13   -1    0    0    0    0  0.00000000000E+00  0.00000000000E+00  0.14999999963E+04  0.15000000000E+04  0.10566000000E+00 0. -1.
        994   -1    0    0    0    0 -0.00000000000E+00 -0.00000000000E+00  0.11368683772E-12  0.17120000000E+03  0.17120000000E+03 0.  0.
         13    1    1    2    0    0 -0.83724263965E+01  0.12054186670E+02  0.56072236948E+02  0.57961261722E+02  0.10566000000E+00 0. -1.
        994    1    1    2    0    0  0.10039045885E+02 -0.99212695210E+01  0.25256479729E+01  0.17179939735E+03  0.17120000000E+03 0.  0.
        998    1    1    2    0    0 -0.16666194880E+01 -0.21329171488E+01  0.14414021114E+04  0.14414393409E+04  0.10000000000E+02 0. -1.
</event>
<event>
 5    1  0.1087513E-008  0.3798430E+03  0.7957747E-01  0.3451843E+00
         13   -1    0    0    0    0  0.00000000000E+00  0.00000000000E+00  0.14999999963E+04  0.15000000000E+04  0.10566000000E+00 0. -1.
        994   -1    0    0    0    0 -0.00000000000E+00 -0.00000000000E+00  0.11368683772E-12  0.17120000000E+03  0.17120000000E+03 0.  0.
         13    1    1    2    0    0 -0.45477610102E+01 -0.14455600381E+02  0.25325570835E+02  0.29513424314E+02  0.10566000000E+00 0. -1.
        994    1    1    2    0    0  0.70117179023E+01  0.11913435911E+02  0.48518402942E+01  0.17182570965E+03  0.17120000000E+03 0.  0.
        998    1    1    2    0    0 -0.24639568921E+01  0.25421644701E+01  0.14698225851E+04  0.14698608660E+04  0.10000000000E+02 0. -1.
</event>
<event>
 5    1  0.1087513E-008  0.3696847E+03  0.7957747E-01  0.3497341E+00
         13   -1    0    0    0    0  0.00000000000E+00  0.00000000000E+00  0.14999999963E+04  0.15000000000E+04  0.10566000000E+00 0.  1.
        994   -1    0    0    0    0 -0.00000000000E+00 -0.00000000000E+00  0.11368683772E-12  0.17120000000E+03  0.17120000000E+03 0.  0.
         13    1    1    2    0    0 -0.12353404883E+03 -0.86114236736E+02  0.87519209014E+03  0.88805266105E+03  0.10566000000E+00 0.  1.
        994    1    1    2    0    0  0.11640982008E+03  0.29973115080E+02  0.63084557645E+02  0.21849195695E+03  0.17120000000E+03 0.  0.
        998    1    1    2    0    0  0.71242287475E+01  0.56141121655E+02  0.56172334850E+03  0.56465538200E+03  0.10000000000E+02 0.  1.
</event>
<event>
 5    1  0.1087513E-008  0.3818933E+03  0.7957747E-01  0.3442956E+00
         13   -1    0    0    0    0  0.00000000000E+00  0.00000000000E+00  0.14999999963E+04  0.15000000000E+04  0.10566000000E+00 0.  1.
        994   -1    0    0    0    0 -0.00000000000E+00 -0.00000000000E+00  0.11368683772E-12  0.17120000000E+03  0.17120000000E+03 0.  0.
         13    1    1    2    0    0 -0.21082404131E+02  0.11937133906E+02  0.88484985513E+02  0.91741848439E+02  0.10566000000E+00 0.  1.
        994    1    1    2    0    0  0.11654063486E+02 -0.21729380489E+02  0.52028788129E+01  0.17304477201E+03  0.17120000000E+03 0.  0.
        998    1    1    2    0    0  0.94283406450E+01  0.97922465832E+01  0.14063121320E+04  0.14064133796E+04  0.10000000000E+02 0.  1.
</event>
<event>
 5    1  0.1087513E-008  0.3828453E+03  0.7957747E-01  0.3438862E+00
         13   -1    0    0    0    0  0.00000000000E+00  0.00000000000E+00  0.14999999963E+04  0.15000000000E+04  0.10566000000E+00 0.  1.
        994   -1    0    0    0    0 -0.00000000000E+00 -0.00000000000E+00  0.11368683772E-12  0.17120000000E+03  0.17120000000E+03 0.  0.
         13    1    1    2    0    0 -0.53528974875E+01 -0.21944989570E+02  0.93501939843E+02  0.96191787577E+02  0.10566000000E+00 0.  1.
        994    1    1    2    0    0 -0.31480462403E+01  0.15418529762E+02  0.35242638295E+01  0.17195784859E+03  0.17120000000E+03 0.  0.
        998    1    1    2    0    0  0.85009437278E+01  0.65264598077E+01  0.14029737926E+04  0.14030503638E+04  0.10000000000E+02 0.  1.
</event>
<event>
 5    1  0.1087513E-008  0.3696816E+03  0.7957747E-01  0.3497356E+00
         13   -1    0    0    0    0  0.00000000000E+00  0.00000000000E+00  0.14999999963E+04  0.15000000000E+04  0.10566000000E+00 0. -1.
        994   -1    0    0    0    0 -0.00000000000E+00 -0.00000000000E+00  0.11368683772E-12  0.17120000000E+03  0.17120000000E+03 0.  0.
         13    1    1    2    0    0  0.22492907137E+01 -0.23444693823E+02  0.25453832356E+02  0.34678836814E+02  0.10566000000E+00 0. -1.
        994    1    1    2    0    0 -0.82099103593E+01  0.15978513185E+02  0.10553454149E+02  0.17246312912E+03  0.17120000000E+03 0.  0.
        998    1    1    2    0    0  0.59606196456E+01  0.74661806376E+01  0.14639927098E+04  0.14640580341E+04  0.10000000000E+02 0. -1.
</event>
<event>
 5    1  0.1087513E-008  0.3853992E+03  0.7957747E-01  0.3427981E+00
         13   -1    0    0    0    0  0.00000000000E+00  0.00000000000E+00  0.14999999963E+04  0.15000000000E+04  0.10566000000E+00 0.  1.
        994   -1    0    0    0    0 -0.00000000000E+00 -0.00000000000E+00  0.11368683772E-12  0.17120000000E+03  0.17120000000E+03 0.  0.
         13    1    1    2    0    0  0.10284906649E+02 -0.64758707731E+01  0.50601293229E+02  0.52040544266E+02  0.10566000000E+00 0.  1.
        994    1    1    2    0    0 -0.11015573193E+02  0.48654528260E+01  0.19084846807E+01  0.17163361500E+03  0.17120000000E+03 0.  0.
        998    1    1    2    0    0  0.73066654412E+00  0.16104179471E+01  0.14474902184E+04  0.14475258407E+04  0.10000000000E+02 0.  1.
</event>
<event>
 5    1  0.1087513E-008  0.3826080E+03  0.7957747E-01  0.3439881E+00
         13   -1    0    0    0    0  0.00000000000E+00  0.00000000000E+00  0.14999999963E+04  0.15000000000E+04  0.10566000000E+00 0.  1.
        994   -1    0    0    0    0 -0.00000000000E+00 -0.00000000000E+00  0.11368683772E-12  0.17120000000E+03  0.17120000000E+03 0.  0.
         13    1    1    2    0    0 -0.18309973414E+02  0.50137621722E+01  0.68661310686E+02  0.71237487931E+02  0.10566000000E+00 0.  1.
        994    1    1    2    0    0 -0.67931880156E+01 -0.75078796432E+01  0.31622513755E+01  0.17152829357E+03  0.17120000000E+03 0.  0.
        998    1    1    2    0    0  0.25103161429E+02  0.24941174710E+01  0.14281764342E+04  0.14284342185E+04  0.10000000000E+02 0.  1.
</event>
<event>
 5    1  0.1087513E-008  0.3853027E+03  0.7957747E-01  0.3428390E+00
         13   -1    0    0    0    0  0.00000000000E+00  0.00000000000E+00  0.14999999963E+04  0.15000000000E+04  0.10566000000E+00 0.  1.
        994   -1    0    0    0    0 -0.00000000000E+00 -0.00000000000E+00  0.11368683772E-12  0.17120000000E+03  0.17120000000E+03 0.  0.
         13    1    1    2    0    0  0.11194648689E+02 -0.92814343432E+01  0.68660344526E+02  0.70183468547E+02  0.10566000000E+00 0.  1.
        994    1    1    2    0    0 -0.98663492183E+01  0.13053206897E+02  0.23600445453E+01  0.17199633969E+03  0.17120000000E+03 0.  0.
        998    1    1    2    0    0 -0.13282994709E+01 -0.37717725538E+01  0.14289796072E+04  0.14290201918E+04  0.10000000000E+02 0.  1.
</event>
<event>
 5    1  0.1087513E-008  0.3802081E+03  0.7957747E-01  0.3450253E+00
         13   -1    0    0    0    0  0.00000000000E+00  0.00000000000E+00  0.14999999963E+04  0.15000000000E+04  0.10566000000E+00 0.  1.
        994   -1    0    0    0    0 -0.00000000000E+00 -0.00000000000E+00  0.11368683772E-12  0.17120000000E+03  0.17120000000E+03 0.  0.
         13    1    1    2    0    0  0.17336898239E+02 -0.41916325418E+01  0.40442492766E+02  0.44201178820E+02  0.10566000000E+00 0.  1.
        994    1    1    2    0    0  0.14369627769E+01 -0.21024911198E+02  0.55131380901E+01  0.17258026088E+03  0.17120000000E+03 0.  0.
        998    1    1    2    0    0 -0.18773861016E+02  0.25216543740E+02  0.14540443654E+04  0.14544185603E+04  0.10000000000E+02 0.  1.
</event>
<event>
 5    1  0.1087513E-008  0.3731741E+03  0.7957747E-01  0.3481430E+00
         13   -1    0    0    0    0  0.00000000000E+00  0.00000000000E+00  0.14999999963E+04  0.15000000000E+04  0.10566000000E+00 0.  1.
        994   -1    0    0    0    0 -0.00000000000E+00 -0.00000000000E+00  0.11368683772E-12  0.17120000000E+03  0.17120000000E+03 0.  0.
         13    1    1    2    0    0  0.15241760168E+02 -0.53282231316E+01  0.13273767960E+02  0.20902279652E+02  0.10566000000E+00 0.  1.
        994    1    1    2    0    0 -0.34714135384E+02 -0.21829964356E+02  0.13392856965E+02  0.17655148585E+03  0.17120000000E+03 0.  0.
        998    1    1    2    0    0  0.19472375216E+02  0.27158187487E+02  0.14733333714E+04  0.14737462345E+04  0.10000000000E+02 0.  1.
</event>
<event>
 5    1  0.1087513E-008  0.3818234E+03  0.7957747E-01  0.3443257E+00
         13   -1    0    0    0    0  0.00000000000E+00  0.00000000000E+00  0.14999999963E+04  0.15000000000E+04  0.10566000000E+00 0. -1.
        994   -1    0    0    0    0 -0.00000000000E+00 -0.00000000000E+00  0.11368683772E-12  0.17120000000E+03  0.17120000000E+03 0.  0.
         13    1    1    2    0    0  0.11046133017E+02  0.26161661506E+02  0.12585931201E+03  0.12902335902E+03  0.10566000000E+00 0. -1.
        994    1    1    2    0    0  0.34780435945E+00 -0.16712565604E+02  0.41445833677E+01  0.17206408221E+03  0.17120000000E+03 0.  0.
        998    1    1    2    0    0 -0.11393937377E+02 -0.94490959023E+01  0.13699961009E+04  0.13701125588E+04  0.10000000000E+02 0. -1.
</event>
<event>
 5    1  0.1087513E-008  0.2573728E+03  0.7957747E-01  0.4256825E+00
         13   -1    0    0    0    0  0.00000000000E+00  0.00000000000E+00  0.14999999963E+04  0.15000000000E+04  0.10566000000E+00 0.  1.
        994   -1    0    0    0    0 -0.00000000000E+00 -0.00000000000E+00  0.11368683772E-12  0.17120000000E+03  0.17120000000E+03 0.  0.
         13    1    1    2    0    0  0.10176234043E+02 -0.18030530563E+03  0.30757511270E+03  0.35667354835E+03  0.10566000000E+00 0.  1.
        994    1    1    2    0    0 -0.20417635785E+02  0.18280250777E+03  0.19779504725E+03  0.31979048988E+03  0.17120000000E+03 0.  0.
        998    1    1    2    0    0  0.10241401742E+02 -0.24972021479E+01  0.99462983633E+03  0.99473596177E+03  0.10000000000E+02 0. -1.
</event>
<event>
 5    1  0.1087513E-008  0.3807469E+03  0.7957747E-01  0.3447913E+00
         13   -1    0    0    0    0  0.00000000000E+00  0.00000000000E+00  0.14999999963E+04  0.15000000000E+04  0.10566000000E+00 0. -1.
        994   -1    0    0    0    0 -0.00000000000E+00 -0.00000000000E+00  0.11368683772E-12  0.17120000000E+03  0.17120000000E+03 0.  0.
         13    1    1    2    0    0  0.39526644693E+01  0.26144365271E+02  0.11151092371E+03  0.11460300459E+03  0.10566000000E+00 0. -1.
        994    1    1    2    0    0  0.25927639693E+02  0.12890207623E+02  0.65574028577E+01  0.17375511355E+03  0.17120000000E+03 0.  0.
        998    1    1    2    0    0 -0.29880304162E+02 -0.39034572894E+02  0.13819316697E+04  0.13828418819E+04  0.10000000000E+02 0. -1.
</event>
<event>
 5    1  0.1087513E-008  0.3849666E+03  0.7957747E-01  0.3429814E+00
         13   -1    0    0    0    0  0.00000000000E+00  0.00000000000E+00  0.14999999963E+04  0.15000000000E+04  0.10566000000E+00 0. -1.
        994   -1    0    0    0    0 -0.00000000000E+00 -0.00000000000E+00  0.11368683772E-12  0.17120000000E+03  0.17120000000E+03 0.  0.
         13    1    1    2    0    0 -0.16433179843E+01 -0.11291303788E+02  0.37956857210E+02  0.39634936716E+02  0.10566000000E+00 0. -1.
        994    1    1    2    0    0 -0.11157390759E+02  0.17189222480E+02  0.30291700922E+01  0.17244875357E+03  0.17120000000E+03 0.  0.
        998    1    1    2    0    0  0.12800708743E+02 -0.58979186920E+01  0.14590139690E+04  0.14591163097E+04  0.10000000000E+02 0. -1.
</event>
<event>
 5    1  0.1087513E-008  0.3809240E+03  0.7957747E-01  0.3447145E+00
         13   -1    0    0    0    0  0.00000000000E+00  0.00000000000E+00  0.14999999963E+04  0.15000000000E+04  0.10566000000E+00 0.  1.
        994   -1    0    0    0    0 -0.00000000000E+00 -0.00000000000E+00  0.11368683772E-12  0.17120000000E+03  0.17120000000E+03 0.  0.
         13    1    1    2    0    0 -0.64242737299E+01  0.12026121977E+02  0.23469534649E+02  0.27142754529E+02  0.10566000000E+00 0.  1.
        994    1    1    2    0    0  0.39927531028E+01 -0.15208318885E+02  0.44918488449E+01  0.17197921894E+03  0.17120000000E+03 0.  0.
        998    1    1    2    0    0  0.24315206271E+01  0.31821969075E+01  0.14720386128E+04  0.14720780265E+04  0.10000000000E+02 0.  1.
</event>
<event>
 5    1  0.1087513E-008  0.3786500E+03  0.7957747E-01  0.3457058E+00
         13   -1    0    0    0    0  0.00000000000E+00  0.00000000000E+00  0.14999999963E+04  0.15000000000E+04  0.10566000000E+00 0. -1.
        994   -1    0    0    0    0 -0.00000000000E+00 -0.00000000000E+00  0.11368683772E-12  0.17120000000E+03  0.17120000000E+03 0.  0.
         13    1    1    2    0    0  0.97670154692E+01  0.90995074009E+01  0.17333744081E+02  0.21878424852E+02  0.10566000000E+00 0. -1.
        994    1    1    2    0    0  0.45809647578E+01  0.13056420046E+02  0.54593204632E+01  0.17184498690E+03  0.17120000000E+03 0.  0.
        998    1    1    2    0    0 -0.14347980227E+02 -0.22155927447E+02  0.14772069317E+04  0.14774765882E+04  0.10000000000E+02 0. -1.
</event>
<event>
 5    1  0.1087513E-008  0.3847282E+03  0.7957747E-01  0.3430826E+00
         13   -1    0    0    0    0  0.00000000000E+00  0.00000000000E+00  0.14999999963E+04  0.15000000000E+04  0.10566000000E+00 0. -1.
        994   -1    0    0    0    0 -0.00000000000E+00 -0.00000000000E+00  0.11368683772E-12  0.17120000000E+03  0.17120000000E+03 0.  0.
         13    1    1    2    0    0 -0.16393845813E+02  0.17257231156E+01  0.79410733634E+02  0.81103711882E+02  0.10566000000E+00 0. -1.
        994    1    1    2    0    0  0.55848582557E+01 -0.33088438258E+01  0.19038805255E+01  0.17133360397E+03  0.17120000000E+03 0.  0.
        998    1    1    2    0    0  0.10808987557E+02  0.15831207102E+01  0.14186853821E+04  0.14187626841E+04  0.10000000000E+02 0. -1.
</event>
<event>
 5    1  0.1087513E-008  0.3745990E+03  0.7957747E-01  0.3475018E+00
         13   -1    0    0    0    0  0.00000000000E+00  0.00000000000E+00  0.14999999963E+04  0.15000000000E+04  0.10566000000E+00 0.  1.
        994   -1    0    0    0    0 -0.00000000000E+00 -0.00000000000E+00  0.11368683772E-12  0.17120000000E+03  0.17120000000E+03 0.  0.
         13    1    1    2    0    0 -0.12001693649E+02  0.57065619121E+01  0.98986361039E+01  0.16571048852E+02  0.10566000000E+00 0.  1.
        994    1    1    2    0    0 -0.22733185523E+01 -0.94962039488E+01  0.72093957362E+01  0.17162972136E+03  0.17120000000E+03 0.  0.
        998    1    1    2    0    0  0.14275012201E+02  0.37896420367E+01  0.14828919644E+04  0.14829992298E+04  0.10000000000E+02 0.  1.
</event>
<event>
 5    1  0.1164934E-008  0.3786213E+03  0.7957747E-01  0.3457184E+00
         13   -1    0    0    0    0  0.00000000000E+00  0.00000000000E+00  0.14999999963E+04  0.15000000000E+04  0.10566000000E+00 0.  1.
        994   -1    0    0    0    0 -0.00000000000E+00 -0.00000000000E+00  0.11368683772E-12  0.17120000000E+03  0.17120000000E+03 0.  0.
         13    1    1    2    0    0  0.99317486876E+01 -0.80930951347E+01  0.14797408689E+02  0.19573254426E+02  0.10566000000E+00 0.  1.
        994    1    1    2    0    0 -0.94287989238E+01  0.70172053644E+01  0.52947504344E+01  0.17168464638E+03  0.17120000000E+03 0.  0.
        998    1    1    2    0    0 -0.50294976381E+00  0.10758897703E+01  0.14799078372E+04  0.14799420992E+04  0.10000000000E+02 0.  1.
</event>
<event>
 5    1  0.1087513E-008  0.3854981E+03  0.7957747E-01  0.3427563E+00
         13   -1    0    0    0    0  0.00000000000E+00  0.00000000000E+00  0.14999999963E+04  0.15000000000E+04  0.10566000000E+00 0. -1.
        994   -1    0    0    0    0 -0.00000000000E+00 -0.00000000000E+00  0.11368683772E-12  0.17120000000E+03  0.17120000000E+03 0.  0.
         13    1    1    2    0    0  0.78834660456E+01  0.13654634891E+02  0.87691232654E+02  0.89097483350E+02  0.10566000000E+00 0. -1.
        994    1    1    2    0    0 -0.22745387508E+01 -0.14844119068E+02  0.21238688068E+01  0.17187051002E+03  0.17120000000E+03 0.  0.
        998    1    1    2    0    0 -0.56089272948E+01  0.11894841766E+01  0.14101848948E+04  0.14102320066E+04  0.10000000000E+02 0. -1.
</event>
<event>
 5    1  0.1087513E-008  0.3792906E+03  0.7957747E-01  0.3454253E+00
         13   -1    0    0    0    0  0.00000000000E+00  0.00000000000E+00  0.14999999963E+04  0.15000000000E+04  0.10566000000E+00 0. -1.
        994   -1    0    0    0    0 -0.00000000000E+00 -0.00000000000E+00  0.11368683772E-12  0.17120000000E+03  0.17120000000E+03 0.  0.
         13    1    1    2    0    0  0.32161903764E+02  0.14475991704E+01  0.11940373266E+03  0.12366788643E+03  0.10566000000E+00 0. -1.
        994    1    1    2    0    0 -0.11249437030E+02  0.12286997512E+02  0.54221233197E+01  0.17209404279E+03  0.17120000000E+03 0.  0.
        998    1    1    2    0    0 -0.20912466735E+02 -0.13734596682E+02  0.13751741403E+04  0.13754380708E+04  0.10000000000E+02 0. -1.
</event>
<event>
 5    1  0.1087513E-008  0.3852216E+03  0.7957747E-01  0.3428733E+00
         13   -1    0    0    0    0  0.00000000000E+00  0.00000000000E+00  0.14999999963E+04  0.15000000000E+04  0.10566000000E+00 0.  1.
        994   -1    0    0    0    0 -0.00000000000E+00 -0.00000000000E+00  0.11368683772E-12  0.17120000000E+03  0.17120000000E+03 0.  0.
         13    1    1    2    0    0 -0.94090994631E+01  0.78588661538E+01  0.55201403611E+02  0.56546432731E+02  0.10566000000E+00 0.  1.
        994    1    1    2    0    0 -0.53422417475E+01  0.84189932812E+01  0.18469378354E+01  0.17150005882E+03  0.17120000000E+03 0.  0.
        998    1    1    2    0    0  0.14751341211E+02 -0.16277859435E+02  0.14429516548E+04  0.14431535085E+04  0.10000000000E+02 0.  1.
</event>
<event>
 5    1  0.1087513E-008  0.3829368E+03  0.7957747E-01  0.3438470E+00
         13   -1    0    0    0    0  0.00000000000E+00  0.00000000000E+00  0.14999999963E+04  0.15000000000E+04  0.10566000000E+00 0.  1.
        994   -1    0    0    0    0 -0.00000000000E+00 -0.00000000000E+00  0.11368683772E-12  0.17120000000E+03  0.17120000000E+03 0.  0.
         13    1    1    2    0    0 -0.58339175153E+01  0.11820894378E+02  0.31608275868E+02  0.34247078778E+02  0.10566000000E+00 0.  1.
        994    1    1    2    0    0  0.98065891284E+01 -0.69563340000E+01  0.31367214018E+01  0.17165033875E+03  0.17120000000E+03 0.  0.
        998    1    1    2    0    0 -0.39726716131E+01 -0.48645603777E+01  0.14652549990E+04  0.14653025825E+04  0.10000000000E+02 0.  1.
</event>
<event>
 5    1  0.1087513E-008  0.3858425E+03  0.7957747E-01  0.3426107E+00
         13   -1    0    0    0    0  0.00000000000E+00  0.00000000000E+00  0.14999999963E+04  0.15000000000E+04  0.10566000000E+00 0. -1.
        994   -1    0    0    0    0 -0.00000000000E+00 -0.00000000000E+00  0.11368683772E-12  0.17120000000E+03  0.17120000000E+03 0.  0.
         13    1    1    2    0    0  0.37455533989E+01  0.12175140862E+02  0.63059014589E+02  0.64332835397E+02  0.10566000000E+00 0. -1.
        994    1    1    2    0    0 -0.61560790137E+01 -0.17093297664E+02  0.22957436412E+01  0.17217662028E+03  0.17120000000E+03 0.  0.
        998    1    1    2    0    0  0.24105256149E+01  0.49181568020E+01  0.14346452380E+04  0.14346905443E+04  0.10000000000E+02 0. -1.
</event>
<event>
 5    1  0.1087513E-008  0.4085035E+03  0.7957747E-01  0.3335724E+00
         13   -1    0    0    0    0  0.00000000000E+00  0.00000000000E+00  0.14999999963E+04  0.15000000000E+04  0.10566000000E+00 0.  1.
        994   -1    0    0    0    0 -0.00000000000E+00 -0.00000000000E+00  0.11368683772E-12  0.17120000000E+03  0.17120000000E+03 0.  0.
         13    1    1    2    0    0 -0.18056931352E+01 -0.60881926690E+02  0.39637888898E+02  0.72670784539E+02  0.10566000000E+00 0.  1.
        994    1    1    2    0    0  0.34278873608E+02  0.89382916577E+02  0.71216353221E+02  0.20867571952E+03  0.17120000000E+03 0.  0.
        998    1    1    2    0    0 -0.32473180473E+02 -0.28500989887E+02  0.13891457542E+04  0.13898534959E+04  0.10000000000E+02 0.  1.
</event>
<event>
 5    1  0.1087513E-008  0.3818568E+03  0.7957747E-01  0.3443113E+00
         13   -1    0    0    0    0  0.00000000000E+00  0.00000000000E+00  0.14999999963E+04  0.15000000000E+04  0.10566000000E+00 0.  1.
        994   -1    0    0    0    0 -0.00000000000E+00 -0.00000000000E+00  0.11368683772E-12  0.17120000000E+03  0.17120000000E+03 0.  0.
         13    1    1    2    0    0  0.12767429293E+02 -0.10815276535E+02  0.35393243163E+02  0.39149333109E+02  0.10566000000E+00 0.  1.
        994    1    1    2    0    0 -0.62786011446E+02  0.23132292516E+02  0.18219828075E+02  0.18471217698E+03  0.17120000000E+03 0.  0.
        998    1    1    2    0    0  0.50018582152E+02 -0.12317015980E+02  0.14463869250E+04  0.14473384899E+04  0.10000000000E+02 0.  1.
</event>
<event>
 5    1  0.1087513E-008  0.2931158E+03  0.7957747E-01  0.3946426E+00
         13   -1    0    0    0    0  0.00000000000E+00  0.00000000000E+00  0.14999999963E+04  0.15000000000E+04  0.10566000000E+00 0. -1.
        994   -1    0    0    0    0 -0.00000000000E+00 -0.00000000000E+00  0.11368683772E-12  0.17120000000E+03  0.17120000000E+03 0.  0.
         13    1    1    2    0    0 -0.20724504524E+03  0.41191720139E+02  0.80074194666E+03  0.82815152170E+03  0.10566000000E+00 0. -1.
        994    1    1    2    0    0  0.73213798313E+02 -0.45553214250E+02  0.77249272589E+02  0.20666941164E+03  0.17120000000E+03 0.  0.
        998    1    1    2    0    0  0.13403124693E+03  0.43614941110E+01  0.62200877702E+03  0.63637906666E+03  0.10000000000E+02 0. -1.
</event>
<event>
 5    1  0.1087513E-008  0.3810272E+03  0.7957747E-01  0.3446698E+00
         13   -1    0    0    0    0  0.00000000000E+00  0.00000000000E+00  0.14999999963E+04  0.15000000000E+04  0.10566000000E+00 0.  1.
        994   -1    0    0    0    0 -0.00000000000E+00 -0.00000000000E+00  0.11368683772E-12  0.17120000000E+03  0.17120000000E+03 0.  0.
         13    1    1    2    0    0  0.19608712556E+02 -0.74317313263E+02  0.16431609354E+03  0.18140384345E+03  0.10566000000E+00 0.  1.
        994    1    1    2    0    0 -0.10873711412E+02  0.55993488826E+02  0.28823135724E+02  0.18273949093E+03  0.17120000000E+03 0.  0.
        998    1    1    2    0    0 -0.87350011437E+01  0.18323824437E+02  0.13068607670E+04  0.13070566656E+04  0.10000000000E+02 0.  1.
</event>
<event>
 5    1  0.1087513E-008  0.3832659E+03  0.7957747E-01  0.3437060E+00
         13   -1    0    0    0    0  0.00000000000E+00  0.00000000000E+00  0.14999999963E+04  0.15000000000E+04  0.10566000000E+00 0.  1.
        994   -1    0    0    0    0 -0.00000000000E+00 -0.00000000000E+00  0.11368683772E-12  0.17120000000E+03  0.17120000000E+03 0.  0.
         13    1    1    2    0    0 -0.66512039856E+00 -0.21973084503E+02  0.94783170369E+02  0.97299123208E+02  0.10566000000E+00 0.  1.
        994    1    1    2    0    0  0.72950150211E+01  0.15985991283E+02  0.35154008235E+01  0.17213531655E+03  0.17120000000E+03 0.  0.
        998    1    1    2    0    0 -0.66298946226E+01  0.59870932208E+01  0.14017014251E+04  0.14017655602E+04  0.10000000000E+02 0.  1.
</event>
<event>
 5    1  0.1087513E-008  0.3831107E+03  0.7957747E-01  0.3437725E+00
         13   -1    0    0    0    0  0.00000000000E+00  0.00000000000E+00  0.14999999963E+04  0.15000000000E+04  0.10566000000E+00 0.  1.
        994   -1    0    0    0    0 -0.00000000000E+00 -0.00000000000E+00  0.11368683772E-12  0.17120000000E+03  0.17120000000E+03 0.  0.
         13    1    1    2    0    0  0.63410214873E+01  0.17629127615E+02  0.69839406575E+02  0.72308703271E+02  0.10566000000E+00 0.  1.
        994    1    1    2    0    0 -0.40773636875E+00 -0.60004871045E+01  0.26907542865E+01  0.17132674121E+03  0.17120000000E+03 0.  0.
        998    1    1    2    0    0 -0.59332851185E+01 -0.11628640511E+02  0.14274698354E+04  0.14275645555E+04  0.10000000000E+02 0.  1.
</event>
<event>
 5    1  0.1087513E-008  0.3814362E+03  0.7957747E-01  0.3444929E+00
         13   -1    0    0    0    0  0.00000000000E+00  0.00000000000E+00  0.14999999963E+04  0.15000000000E+04  0.10566000000E+00 0.  1.
        994   -1    0    0    0    0 -0.00000000000E+00 -0.00000000000E+00  0.11368683772E-12  0.17120000000E+03  0.17120000000E+03 0.  0.
         13    1    1    2    0    0 -0.13403215799E+02  0.40966854150E+02  0.25761115850E+03  0.26119236106E+03  0.10566000000E+00 0.  1.
        994    1    1    2    0    0  0.41925735432E+01 -0.30522194197E+02  0.65743626866E+01  0.17407424926E+03  0.17120000000E+03 0.  0.
        998    1    1    2    0    0  0.92106422557E+01 -0.10444659953E+02  0.12358144751E+04  0.12359333897E+04  0.10000000000E+02 0.  0.
</event>
<event>
 5    1  0.1087513E-008  0.3768683E+03  0.7957747E-01  0.3464909E+00
         13   -1    0    0    0    0  0.00000000000E+00  0.00000000000E+00  0.14999999963E+04  0.15000000000E+04  0.10566000000E+00 0.  1.
        994   -1    0    0    0    0 -0.00000000000E+00 -0.00000000000E+00  0.11368683772E-12  0.17120000000E+03  0.17120000000E+03 0.  0.
         13    1    1    2    0    0 -0.69913332026E+01  0.24495856122E+02  0.49559397600E+02  0.55723161806E+02  0.10566000000E+00 0.  1.
        994    1    1    2    0    0 -0.28310845317E+01 -0.47611674328E+02  0.13445729181E+02  0.17822770325E+03  0.17120000000E+03 0.  0.
        998    1    1    2    0    0  0.98224177343E+01  0.23115818206E+02  0.14369948695E+04  0.14372491349E+04  0.10000000000E+02 0.  1.
</event>
<event>
 5    1  0.1087513E-008  0.3845492E+03  0.7957747E-01  0.3431586E+00
         13   -1    0    0    0    0  0.00000000000E+00  0.00000000000E+00  0.14999999963E+04  0.15000000000E+04  0.10566000000E+00 0. -1.
        994   -1    0    0    0    0 -0.00000000000E+00 -0.00000000000E+00  0.11368683772E-12  0.17120000000E+03  0.17120000000E+03 0.  0.
         13    1    1    2    0    0 -0.69785118514E+01  0.21508280309E+02  0.12828694405E+03  0.13026456513E+03  0.10566000000E+00 0. -1.
        994    1    1    2    0    0  0.49862713665E+01 -0.21983894111E+02  0.35294803597E+01  0.17271378559E+03  0.17120000000E+03 0.  0.
        998    1    1    2    0    0  0.19922404849E+01  0.47561380225E+00  0.13681835719E+04  0.13682216493E+04  0.10000000000E+02 0. -1.
</event>
<event>
 5    1  0.1087513E-008  0.3827768E+03  0.7957747E-01  0.3439156E+00
         13   -1    0    0    0    0  0.00000000000E+00  0.00000000000E+00  0.14999999963E+04  0.15000000000E+04  0.10566000000E+00 0.  1.
        994   -1    0    0    0    0 -0.00000000000E+00 -0.00000000000E+00  0.11368683772E-12  0.17120000000E+03  0.17120000000E+03 0.  0.
         13    1    1    2    0    0 -0.10359083022E+02  0.24548641681E+01  0.19411256555E+02  0.22139218690E+02  0.10566000000E+00 0.  1.
        994    1    1    2    0    0  0.10407201513E+02 -0.65888363183E+01  0.32407208452E+01  0.17167313383E+03  0.17120000000E+03 0.  0.
        998    1    1    2    0    0 -0.48118490345E-01  0.41339721503E+01  0.14773480189E+04  0.14773876475E+04  0.10000000000E+02 0.  1.
</event>
<event>
 5    1  0.1087513E-008  0.3844602E+03  0.7957747E-01  0.3431965E+00
         13   -1    0    0    0    0  0.00000000000E+00  0.00000000000E+00  0.14999999963E+04  0.15000000000E+04  0.10566000000E+00 0.  1.
        994   -1    0    0    0    0 -0.00000000000E+00 -0.00000000000E+00  0.11368683772E-12  0.17120000000E+03  0.17120000000E+03 0.  0.
         13    1    1    2    0    0 -0.91041641600E+01  0.17788997946E+02  0.10369616294E+03  0.10560416481E+03  0.10566000000E+00 0.  1.
        994    1    1    2    0    0 -0.25700303543E+01 -0.17444575709E+02  0.29233126732E+01  0.17213048549E+03  0.17120000000E+03 0.  0.
        998    1    1    2    0    0  0.11674194514E+02 -0.34442223703E+00  0.13933805207E+04  0.13934653497E+04  0.10000000000E+02 0.  1.
</event>
<event>
 5    1  0.1087513E-008  0.3856159E+03  0.7957747E-01  0.3427064E+00
         13   -1    0    0    0    0  0.00000000000E+00  0.00000000000E+00  0.14999999963E+04  0.15000000000E+04  0.10566000000E+00 0. -1.
        994   -1    0    0    0    0 -0.00000000000E+00 -0.00000000000E+00  0.11368683772E-12  0.17120000000E+03  0.17120000000E+03 0.  0.
         13    1    1    2    0    0 -0.80975801876E+01 -0.11458093959E+02  0.76170431538E+02  0.77451949793E+02  0.10566000000E+00 0. -1.
        994    1    1    2    0    0  0.14308265265E+02 -0.14843574424E+01  0.20041235065E+01  0.17181497689E+03  0.17120000000E+03 0.  0.
        998    1    1    2    0    0 -0.62106850771E+01  0.12942451402E+02  0.14218254412E+04  0.14219330733E+04  0.10000000000E+02 0. -1.
</event>
<event>
 5    1  0.1087513E-008  0.3713433E+03  0.7957747E-01  0.3489740E+00
         13   -1    0    0    0    0  0.00000000000E+00  0.00000000000E+00  0.14999999963E+04  0.15000000000E+04  0.10566000000E+00 0. -1.
        994   -1    0    0    0    0 -0.00000000000E+00 -0.00000000000E+00  0.11368683772E-12  0.17120000000E+03  0.17120000000E+03 0.  0.
         13    1    1    2    0    0 -0.87936578437E+02 -0.64335848597E+02  0.40197235969E+03  0.41647776935E+03  0.10566000000E+00 0. -1.
        994    1    1    2    0    0  0.82332404892E+02  0.49890724063E+02  0.44957012934E+02  0.20149015424E+03  0.17120000000E+03 0.  0.
        998    1    1    2    0    0  0.56041735449E+01  0.14445124534E+02  0.10530706237E+04  0.10532320764E+04  0.10000000000E+02 0. -1.
</event>
<event>
 5    1  0.1087513E-008  0.3858715E+03  0.7957747E-01  0.3425985E+00
         13   -1    0    0    0    0  0.00000000000E+00  0.00000000000E+00  0.14999999963E+04  0.15000000000E+04  0.10566000000E+00 0.  1.
        994   -1    0    0    0    0 -0.00000000000E+00 -0.00000000000E+00  0.11368683772E-12  0.17120000000E+03  0.17120000000E+03 0.  0.
         13    1    1    2    0    0  0.51903103916E+01 -0.97001094452E+01  0.52772748941E+02  0.53907380200E+02  0.10566000000E+00 0.  1.
        994    1    1    2    0    0 -0.70474209765E+01 -0.11373132540E+01  0.13652200929E+01  0.17135420465E+03  0.17120000000E+03 0.  0.
        998    1    1    2    0    0  0.18571105849E+01  0.10837422699E+02  0.14458620272E+04  0.14459384152E+04  0.10000000000E+02 0.  1.
</event>
<event>
 5    1  0.1087513E-008  0.3757938E+03  0.7957747E-01  0.3469680E+00
         13   -1    0    0    0    0  0.00000000000E+00  0.00000000000E+00  0.14999999963E+04  0.15000000000E+04  0.10566000000E+00 0. -1.
        994   -1    0    0    0    0 -0.00000000000E+00 -0.00000000000E+00  0.11368683772E-12  0.17120000000E+03  0.17120000000E+03 0.  0.
         13    1    1    2    0    0  0.16810974537E+02  0.24404430057E+01  0.20282767712E+02  0.26456879201E+02  0.10566000000E+00 0. -1.
        994    1    1    2    0    0 -0.12287139279E+02 -0.45824132020E+01  0.68548597352E+01  0.17183830017E+03  0.17120000000E+03 0.  0.
        998    1    1    2    0    0 -0.45238352581E+01  0.21419701962E+01  0.14728623688E+04  0.14729048206E+04  0.10000000000E+02 0. -1.
</event>
<event>
 5    1  0.1087513E-008  0.4119362E+03  0.7957747E-01  0.3322894E+00
         13   -1    0    0    0    0  0.00000000000E+00  0.00000000000E+00  0.14999999963E+04  0.15000000000E+04  0.10566000000E+00 0.  1.
        994   -1    0    0    0    0 -0.00000000000E+00 -0.00000000000E+00  0.11368683772E-12  0.17120000000E+03  0.17120000000E+03 0.  0.
         13    1    1    2    0    0  0.84150462444E+02  0.61807861658E+02  0.13184320340E+03  0.16817893310E+03  0.10566000000E+00 0.  1.
        994    1    1    2    0    0 -0.83417506394E+02 -0.63770781718E+02  0.82171044591E+02  0.21699473160E+03  0.17120000000E+03 0.  0.
        998    1    1    2    0    0 -0.73295604920E+00  0.19629200596E+01  0.12859857483E+04  0.12860263353E+04  0.10000000000E+02 0.  0.
</event>
<event>
 5    1  0.1087513E-008  0.3845118E+03  0.7957747E-01  0.3431745E+00
         13   -1    0    0    0    0  0.00000000000E+00  0.00000000000E+00  0.14999999963E+04  0.15000000000E+04  0.10566000000E+00 0. -1.
        994   -1    0    0    0    0 -0.00000000000E+00 -0.00000000000E+00  0.11368683772E-12  0.17120000000E+03  0.17120000000E+03 0.  0.
         13    1    1    2    0    0 -0.37616804827E+01  0.21081103871E+02  0.12497796615E+03  0.12679931533E+03  0.10566000000E+00 0. -1.
        994    1    1    2    0    0  0.19817285995E+00 -0.10733779157E+02  0.22524496053E+01  0.17155106183E+03  0.17120000000E+03 0.  0.
        998    1    1    2    0    0  0.35635076228E+01 -0.10347324715E+02  0.13727695805E+04  0.13728496228E+04  0.10000000000E+02 0. -1.
</event>
<event>
 5    1  0.1087513E-008  0.3739717E+03  0.7957747E-01  0.3477834E+00
         13   -1    0    0    0    0  0.00000000000E+00  0.00000000000E+00  0.14999999963E+04  0.15000000000E+04  0.10566000000E+00 0. -1.
        994   -1    0    0    0    0 -0.00000000000E+00 -0.00000000000E+00  0.11368683772E-12  0.17120000000E+03  0.17120000000E+03 0.  0.
         13    1    1    2    0    0  0.17381752108E+02  0.62735789787E+01  0.20259839058E+02  0.27421804139E+02  0.10566000000E+00 0. -1.
        994    1    1    2    0    0 -0.18765386074E+02 -0.70932184724E+01  0.85817017192E+01  0.17258487497E+03  0.17120000000E+03 0.  0.
        998    1    1    2    0    0  0.13836339668E+01  0.81963949370E+00  0.14711584555E+04  0.14711933209E+04  0.10000000000E+02 0. -1.
</event>
<event>
 5    1  0.1087513E-008  0.3842636E+03  0.7957747E-01  0.3432801E+00
         13   -1    0    0    0    0  0.00000000000E+00  0.00000000000E+00  0.14999999963E+04  0.15000000000E+04  0.10566000000E+00 0. -1.
        994   -1    0    0    0    0 -0.00000000000E+00 -0.00000000000E+00  0.11368683772E-12  0.17120000000E+03  0.17120000000E+03 0.  0.
         13    1    1    2    0    0  0.10797826318E+02 -0.21440698728E+02  0.13019390002E+03  0.13238866787E+03  0.10566000000E+00 0. -1.
        994    1    1    2    0    0 -0.58016392664E+01  0.27656194729E+02  0.46329869557E+01  0.17357830709E+03  0.17120000000E+03 0.  0.
        998    1    1    2    0    0 -0.49961870512E+01 -0.62154960008E+01  0.13651731093E+04  0.13652330250E+04  0.10000000000E+02 0. -1.
</event>
<event>
 5    1  0.1087513E-008  0.3818973E+03  0.7957747E-01  0.3442939E+00
         13   -1    0    0    0    0  0.00000000000E+00  0.00000000000E+00  0.14999999963E+04  0.15000000000E+04  0.10566000000E+00 0. -1.
        994   -1    0    0    0    0 -0.00000000000E+00 -0.00000000000E+00  0.11368683772E-12  0.17120000000E+03  0.17120000000E+03 0.  0.
         13    1    1    2    0    0 -0.16884502811E+02  0.35463447289E+01  0.48572019798E+02  0.51545273958E+02  0.10566000000E+00 0. -1.
        994    1    1    2    0    0 -0.21805080649E+01  0.52458375611E+01  0.32856925304E+01  0.17132574005E+03  0.17120000000E+03 0.  0.
        998    1    1    2    0    0  0.19065010876E+02 -0.87921822900E+01  0.14481422840E+04  0.14483289860E+04  0.10000000000E+02 0. -1.
</event>
<event>
 5    1  0.1087513E-008  0.3831223E+03  0.7957747E-01  0.3437675E+00
         13   -1    0    0    0    0  0.00000000000E+00  0.00000000000E+00  0.14999999963E+04  0.15000000000E+04  0.10566000000E+00 0.  1.
        994   -1    0    0    0    0 -0.00000000000E+00 -0.00000000000E+00  0.11368683772E-12  0.17120000000E+03  0.17120000000E+03 0.  0.
         13    1    1    2    0    0  0.17059470489E+01  0.13885905734E+02  0.35003260373E+02  0.37695729654E+02  0.10566000000E+00 0.  1.
        994    1    1    2    0    0 -0.20853288151E+01 -0.26003068617E+02  0.48201616161E+01  0.17324313011E+03  0.17120000000E+03 0.  0.
        998    1    1    2    0    0  0.37938176619E+00  0.12117162883E+02  0.14601765743E+04  0.14602611402E+04  0.10000000000E+02 0.  1.
</event>
<event>
 5    1  0.1087513E-008  0.3704179E+03  0.7957747E-01  0.3493972E+00
         13   -1    0    0    0    0  0.00000000000E+00  0.00000000000E+00  0.14999999963E+04  0.15000000000E+04  0.10566000000E+00 0.  1.
        994   -1    0    0    0    0 -0.00000000000E+00 -0.00000000000E+00  0.11368683772E-12  0.17120000000E+03  0.17120000000E+03 0.  0.
         13    1    1    2    0    0  0.14943042400E+02 -0.65148390398E+01  0.68262671374E+01  0.17673333895E+02  0.10566000000E+00 0.  1.
        994    1    1    2    0    0 -0.12361424615E+02  0.99575131013E+01  0.12042577694E+02  0.17235550633E+03  0.17120000000E+03 0.  0.
        998    1    1    2    0    0 -0.25816177847E+01 -0.34426740615E+01  0.14811311514E+04  0.14811711598E+04  0.10000000000E+02 0.  1.
</event>
<event>
 5    1  0.1087513E-008  0.3786931E+03  0.7957747E-01  0.3456869E+00
         13   -1    0    0    0    0  0.00000000000E+00  0.00000000000E+00  0.14999999963E+04  0.15000000000E+04  0.10566000000E+00 0.  1.
        994   -1    0    0    0    0 -0.00000000000E+00 -0.00000000000E+00  0.11368683772E-12  0.17120000000E+03  0.17120000000E+03 0.  0.
         13    1    1    2    0    0  0.58523430992E+01  0.27471226158E+02  0.18433318530E+02  0.33596377519E+02  0.10566000000E+00 0.  1.
        994    1    1    2    0    0 -0.55531583522E+00 -0.28759162408E+02  0.18600697864E+02  0.17459330961E+03  0.17120000000E+03 0.  0.
        998    1    1    2    0    0 -0.52970272640E+01  0.12879362504E+01  0.14629659799E+04  0.14630103129E+04  0.10000000000E+02 0.  1.
</event>
<event>
 5    1  0.1087513E-008  0.3756296E+03  0.7957747E-01  0.3470412E+00
         13   -1    0    0    0    0  0.00000000000E+00  0.00000000000E+00  0.14999999963E+04  0.15000000000E+04  0.10566000000E+00 0.  1.
        994   -1    0    0    0    0 -0.00000000000E+00 -0.00000000000E+00  0.11368683772E-12  0.17120000000E+03  0.17120000000E+03 0.  0.
         13    1    1    2    0    0 -0.65704231792E+01 -0.11412277415E+02  0.10854904535E+02  0.17066067299E+02  0.10566000000E+00 0.  1.
        994    1    1    2    0    0  0.87847776504E+00  0.79231214327E+01  0.65713440933E+01  0.17151142860E+03  0.17120000000E+03 0.  0.
        998    1    1    2    0    0  0.56919454142E+01  0.34891559825E+01  0.14825737476E+04  0.14826225041E+04  0.10000000000E+02 0.  1.
</event>
<event>
 5    1  0.1087513E-008  0.3856605E+03  0.7957747E-01  0.3426876E+00
         13   -1    0    0    0    0  0.00000000000E+00  0.00000000000E+00  0.14999999963E+04  0.15000000000E+04  0.10566000000E+00 0.  1.
        994   -1    0    0    0    0 -0.00000000000E+00 -0.00000000000E+00  0.11368683772E-12  0.17120000000E+03  0.17120000000E+03 0.  0.
         13    1    1    2    0    0  0.58994606140E+01  0.20160473554E+02  0.11077653907E+03  0.11275061464E+03  0.10566000000E+00 0.  1.
        994    1    1    2    0    0 -0.24793662991E+02 -0.59203851903E+02  0.14940917299E+02  0.18344615781E+03  0.17120000000E+03 0.  0.
        998    1    1    2    0    0  0.18894202377E+02  0.39043378349E+02  0.13742825399E+04  0.13750032276E+04  0.10000000000E+02 0.  1.
</event>
<event>
 5    1  0.1087513E-008  0.2688294E+03  0.7957747E-01  0.4147192E+00
         13   -1    0    0    0    0  0.00000000000E+00  0.00000000000E+00  0.14999999963E+04  0.15000000000E+04  0.10566000000E+00 0.  1.
        994   -1    0    0    0    0 -0.00000000000E+00 -0.00000000000E+00  0.11368683772E-12  0.17120000000E+03  0.17120000000E+03 0.  0.
         13    1    1    2    0    0  0.76553125737E+02 -0.19092106915E+03  0.29744942597E+03  0.36164541733E+03  0.10566000000E+00 0.  1.
        994    1    1    2    0    0 -0.73570097644E+02  0.19089331756E+03  0.27923227848E+03  0.38617732106E+03  0.17120000000E+03 0.  0.
        998    1    1    2    0    0 -0.29830280931E+01  0.27751587251E-01  0.92331829183E+03  0.92337726161E+03  0.10000000000E+02 0. -1.
</event>
<event>
 5    1  0.1087513E-008  0.3858795E+03  0.7957747E-01  0.3425951E+00
         13   -1    0    0    0    0  0.00000000000E+00  0.00000000000E+00  0.14999999963E+04  0.15000000000E+04  0.10566000000E+00 0. -1.
        994   -1    0    0    0    0 -0.00000000000E+00 -0.00000000000E+00  0.11368683772E-12  0.17120000000E+03  0.17120000000E+03 0.  0.
         13    1    1    2    0    0  0.10449781522E+02  0.73123435898E+01  0.73365000992E+02  0.74465447270E+02  0.10566000000E+00 0. -1.
        994    1    1    2    0    0 -0.43351994460E+01  0.55361052437E+01  0.13562542167E+01  0.17134970628E+03  0.17120000000E+03 0.  0.
        998    1    1    2    0    0 -0.61145820763E+01 -0.12848448834E+02  0.14252787411E+04  0.14253848465E+04  0.10000000000E+02 0. -1.
</event>
<event>
 5    1  0.1087513E-008  0.3768235E+03  0.7957747E-01  0.3465107E+00
         13   -1    0    0    0    0  0.00000000000E+00  0.00000000000E+00  0.14999999963E+04  0.15000000000E+04  0.10566000000E+00 0.  1.
        994   -1    0    0    0    0 -0.00000000000E+00 -0.00000000000E+00  0.11368683772E-12  0.17120000000E+03  0.17120000000E+03 0.  0.
         13    1    1    2    0    0 -0.11059364120E+02  0.80373356636E+01  0.13581631019E+02  0.19271226336E+02  0.10566000000E+00 0.  1.
        994    1    1    2    0    0  0.11003573935E+02 -0.98588200689E+01  0.64830543814E+01  0.17195855596E+03  0.17120000000E+03 0.  0.
        998    1    1    2    0    0  0.55790184992E-01  0.18214844053E+01  0.14799353109E+04  0.14799702177E+04  0.10000000000E+02 0.  1.
</event>
<event>
 5    1  0.1087513E-008  0.3853266E+03  0.7957747E-01  0.3428288E+00
         13   -1    0    0    0    0  0.00000000000E+00  0.00000000000E+00  0.14999999963E+04  0.15000000000E+04  0.10566000000E+00 0.  1.
        994   -1    0    0    0    0 -0.00000000000E+00 -0.00000000000E+00  0.11368683772E-12  0.17120000000E+03  0.17120000000E+03 0.  0.
         13    1    1    2    0    0 -0.15785484078E+02 -0.78566387986E+01  0.10395370675E+03  0.10543857260E+03  0.10566000000E+00 0.  1.
        994    1    1    2    0    0  0.10825007560E+02  0.92893487752E+01  0.21368098242E+01  0.17180651543E+03  0.17120000000E+03 0.  0.
        998    1    1    2    0    0  0.49604765178E+01 -0.14327099766E+01  0.13939094797E+04  0.13939549120E+04  0.10000000000E+02 0.  1.
</event>
<event>
 5    1  0.1087513E-008  0.3715964E+03  0.7957747E-01  0.3488586E+00
         13   -1    0    0    0    0  0.00000000000E+00  0.00000000000E+00  0.14999999963E+04  0.15000000000E+04  0.10566000000E+00 0. -1.
        994   -1    0    0    0    0 -0.00000000000E+00 -0.00000000000E+00  0.11368683772E-12  0.17120000000E+03  0.17120000000E+03 0.  0.
         13    1    1    2    0    0 -0.34765209187E+02  0.88752047284E+01  0.78027818498E+02  0.85882132323E+02  0.10566000000E+00 0. -1.
        994    1    1    2    0    0  0.23551260809E+01 -0.92381989755E+01  0.87496600000E+01  0.17168834407E+03  0.17120000000E+03 0.  0.
        998    1    1    2    0    0  0.32410083107E+02  0.36299424705E+00  0.14132225178E+04  0.14136295236E+04  0.10000000000E+02 0. -1.
</event>
<event>
 5    1  0.1087513E-008  0.3706070E+03  0.7957747E-01  0.3493106E+00
         13   -1    0    0    0    0  0.00000000000E+00  0.00000000000E+00  0.14999999963E+04  0.15000000000E+04  0.10566000000E+00 0.  1.
        994   -1    0    0    0    0 -0.00000000000E+00 -0.00000000000E+00  0.11368683772E-12  0.17120000000E+03  0.17120000000E+03 0.  0.
         13    1    1    2    0    0  0.13237148818E+03  0.22516728931E+02  0.74260532335E+03  0.75464686536E+03  0.10566000000E+00 0.  1.
        994    1    1    2    0    0 -0.12242232062E+03  0.36793051537E+02  0.67641546076E+02  0.22411107064E+03  0.17120000000E+03 0.  0.
        998    1    1    2    0    0 -0.99491675580E+01 -0.59309780467E+02  0.68975312685E+03  0.69244206400E+03  0.10000000000E+02 0.  1.
</event>
<event>
 5    1  0.1087513E-008  0.3832564E+03  0.7957747E-01  0.3437101E+00
         13   -1    0    0    0    0  0.00000000000E+00  0.00000000000E+00  0.14999999963E+04  0.15000000000E+04  0.10566000000E+00 0.  1.
        994   -1    0    0    0    0 -0.00000000000E+00 -0.00000000000E+00  0.11368683772E-12  0.17120000000E+03  0.17120000000E+03 0.  0.
         13    1    1    2    0    0  0.11237252528E+02 -0.10528878196E+02  0.46068471711E+02  0.48574153315E+02  0.10566000000E+00 0.  1.
        994    1    1    2    0    0 -0.10516831767E+02  0.84580367722E+01  0.31009246955E+01  0.17175912747E+03  0.17120000000E+03 0.  0.
        998    1    1    2    0    0 -0.72042076021E+00  0.20708414243E+01  0.14508305999E+04  0.14508667192E+04  0.10000000000E+02 0.  1.
</event>
<event>
 5    1  0.1087513E-008  0.3779652E+03  0.7957747E-01  0.3460066E+00
         13   -1    0    0    0    0  0.00000000000E+00  0.00000000000E+00  0.14999999963E+04  0.15000000000E+04  0.10566000000E+00 0. -1.
        994   -1    0    0    0    0 -0.00000000000E+00 -0.00000000000E+00  0.11368683772E-12  0.17120000000E+03  0.17120000000E+03 0.  0.
         13    1    1    2    0    0 -0.49025172356E+01  0.38137025092E+02  0.12505218151E+03  0.13083014416E+03  0.10566000000E+00 0. -1.
        994    1    1    2    0    0  0.14674258984E+02 -0.45182642086E+02  0.12797133446E+02  0.17812919931E+03  0.17120000000E+03 0.  0.
        998    1    1    2    0    0 -0.97717417482E+01  0.70456169945E+01  0.13621506813E+04  0.13622406565E+04  0.10000000000E+02 0. -1.
</event>
<event>
 5    1  0.1087513E-008  0.4118574E+03  0.7957747E-01  0.3323186E+00
         13   -1    0    0    0    0  0.00000000000E+00  0.00000000000E+00  0.14999999963E+04  0.15000000000E+04  0.10566000000E+00 0. -1.
        994   -1    0    0    0    0 -0.00000000000E+00 -0.00000000000E+00  0.11368683772E-12  0.17120000000E+03  0.17120000000E+03 0.  0.
         13    1    1    2    0    0  0.25572070114E+02 -0.10122013151E+03  0.21251704708E+03  0.23677616488E+03  0.10566000000E+00 0. -1.
        994    1    1    2    0    0  0.53025407935E+02 -0.22329240668E+02  0.48814107400E+02  0.18708967357E+03  0.17120000000E+03 0.  0.
        998    1    1    2    0    0 -0.78597478049E+02  0.12354937218E+03  0.12386688418E+04  0.12473341615E+04  0.10000000000E+02 0. -1.
</event>
<event>
 5    1  0.1087513E-008  0.3853822E+03  0.7957747E-01  0.3428053E+00
         13   -1    0    0    0    0  0.00000000000E+00  0.00000000000E+00  0.14999999963E+04  0.15000000000E+04  0.10566000000E+00 0. -1.
        994   -1    0    0    0    0 -0.00000000000E+00 -0.00000000000E+00  0.11368683772E-12  0.17120000000E+03  0.17120000000E+03 0.  0.
         13    1    1    2    0    0 -0.16030054629E+02  0.57547894773E+01  0.96889046896E+02  0.98374685899E+02  0.10566000000E+00 0. -1.
        994    1    1    2    0    0  0.13796111698E+02 -0.92822972945E+01  0.23492155337E+01  0.17202166304E+03  0.17120000000E+03 0.  0.
        998    1    1    2    0    0  0.22339429313E+01  0.35275078172E+01  0.14007617338E+04  0.14008036511E+04  0.10000000000E+02 0. -1.
</event>
<event>
 5    1  0.1087513E-008  0.3823844E+03  0.7957747E-01  0.3440842E+00
         13   -1    0    0    0    0  0.00000000000E+00  0.00000000000E+00  0.14999999963E+04  0.15000000000E+04  0.10566000000E+00 0.  1.
        994   -1    0    0    0    0 -0.00000000000E+00 -0.00000000000E+00  0.11368683772E-12  0.17120000000E+03  0.17120000000E+03 0.  0.
         13    1    1    2    0    0 -0.37980534524E+01  0.15983441695E+02  0.49997002993E+02  0.52627056642E+02  0.10566000000E+00 0.  1.
        994    1    1    2    0    0 -0.47467643013E+01  0.12472733256E+02  0.35252689930E+01  0.17175554829E+03  0.17120000000E+03 0.  0.
        998    1    1    2    0    0  0.85448177537E+01 -0.28456174951E+02  0.14464777243E+04  0.14468173951E+04  0.10000000000E+02 0.  1.
</event>
<event>
 5    1  0.1087513E-008  0.3854751E+03  0.7957747E-01  0.3427660E+00
         13   -1    0    0    0    0  0.00000000000E+00  0.00000000000E+00  0.14999999963E+04  0.15000000000E+04  0.10566000000E+00 0. -1.
        994   -1    0    0    0    0 -0.00000000000E+00 -0.00000000000E+00  0.11368683772E-12  0.17120000000E+03  0.17120000000E+03 0.  0.
         13    1    1    2    0    0  0.68185422353E+01  0.85153495283E+01  0.41487576387E+02  0.42897946970E+02  0.10566000000E+00 0. -1.
        994    1    1    2    0    0  0.23016155063E+01 -0.18812529345E+02  0.25748239390E+01  0.17226513986E+03  0.17120000000E+03 0.  0.
        998    1    1    2    0    0 -0.91201577416E+01  0.10297179817E+02  0.14559375960E+04  0.14560369132E+04  0.10000000000E+02 0. -1.
</event>
<event>
 5    1  0.1087513E-008  0.3819290E+03  0.7957747E-01  0.3442802E+00
         13   -1    0    0    0    0  0.00000000000E+00  0.00000000000E+00  0.14999999963E+04  0.15000000000E+04  0.10566000000E+00 0.  1.
        994   -1    0    0    0    0 -0.00000000000E+00 -0.00000000000E+00  0.11368683772E-12  0.17120000000E+03  0.17120000000E+03 0.  0.
         13    1    1    2    0    0  0.12023914499E+02 -0.31516365728E+01  0.27393487219E+02  0.30081915481E+02  0.10566000000E+00 0.  1.
        994    1    1    2    0    0  0.50602002997E+02  0.27327091938E+02  0.14227570289E+02  0.18116069225E+03  0.17120000000E+03 0.  0.
        998    1    1    2    0    0 -0.62625917496E+02 -0.24175455365E+02  0.14583789388E+04  0.14599573923E+04  0.10000000000E+02 0.  1.
</event>
<event>
 5    1  0.1173257E-008  0.3856853E+03  0.7957747E-01  0.3426771E+00
         13   -1    0    0    0    0  0.00000000000E+00  0.00000000000E+00  0.14999999963E+04  0.15000000000E+04  0.10566000000E+00 0. -1.
        994   -1    0    0    0    0 -0.00000000000E+00 -0.00000000000E+00  0.11368683772E-12  0.17120000000E+03  0.17120000000E+03 0.  0.
         13    1    1    2    0    0  0.99342850659E+01  0.92393264064E+01  0.72568123132E+02  0.73825461943E+02  0.10566000000E+00 0. -1.
        994    1    1    2    0    0 -0.53127405210E+01 -0.54580163925E+01  0.14806508828E+01  0.17137574940E+03  0.17120000000E+03 0.  0.
        998    1    1    2    0    0 -0.46215445449E+01 -0.37813100139E+01  0.14259512223E+04  0.14259987887E+04  0.10000000000E+02 0. -1.
</event>
<event>
 5    1  0.1087513E-008  0.3794642E+03  0.7957747E-01  0.3453495E+00
         13   -1    0    0    0    0  0.00000000000E+00  0.00000000000E+00  0.14999999963E+04  0.15000000000E+04  0.10566000000E+00 0. -1.
        994   -1    0    0    0    0 -0.00000000000E+00 -0.00000000000E+00  0.11368683772E-12  0.17120000000E+03  0.17120000000E+03 0.  0.
         13    1    1    2    0    0  0.20086867155E+02 -0.93460047668E+01  0.55977816032E+02  0.60202633572E+02  0.10566000000E+00 0. -1.
        994    1    1    2    0    0 -0.26417073149E+01  0.71165720877E+01  0.45968378196E+01  0.17142985485E+03  0.17120000000E+03 0.  0.
        998    1    1    2    0    0 -0.17445159840E+02  0.22294326791E+01  0.14394253424E+04  0.14395675116E+04  0.10000000000E+02 0. -1.
</event>
<event>
 5    1  0.1087513E-008  0.3835274E+03  0.7957747E-01  0.3435942E+00
         13   -1    0    0    0    0  0.00000000000E+00  0.00000000000E+00  0.14999999963E+04  0.15000000000E+04  0.10566000000E+00 0.  1.
        994   -1    0    0    0    0 -0.00000000000E+00 -0.00000000000E+00  0.11368683772E-12  0.17120000000E+03  0.17120000000E+03 0.  0.
         13    1    1    2    0    0  0.58177535176E+01 -0.11543282529E+02  0.34371500956E+02  0.36721994357E+02  0.10566000000E+00 0.  1.
        994    1    1    2    0    0 -0.71209648061E+01  0.85094227724E+01  0.27699533703E+01  0.17158155803E+03  0.17120000000E+03 0.  0.
        998    1    1    2    0    0  0.13032112884E+01  0.30338597569E+01  0.14628585420E+04  0.14628964476E+04  0.10000000000E+02 0.  1.
</event>
<event>
 5    1  0.1087513E-008  0.3778168E+03  0.7957747E-01  0.3460720E+00
         13   -1    0    0    0    0  0.00000000000E+00  0.00000000000E+00  0.14999999963E+04  0.15000000000E+04  0.10566000000E+00 0. -1.
        994   -1    0    0    0    0 -0.00000000000E+00 -0.00000000000E+00  0.11368683772E-12  0.17120000000E+03  0.17120000000E+03 0.  0.
         13    1    1    2    0    0  0.59192924367E+01  0.35041485926E+02  0.11208550698E+03  0.11758450492E+03  0.10566000000E+00 0. -1.
        994    1    1    2    0    0  0.79285466303E+01 -0.35006904025E+02  0.95897269112E+01  0.17518489673E+03  0.17120000000E+03 0.  0.
        998    1    1    2    0    0 -0.13847839067E+02 -0.34581901458E-01  0.13783247624E+04  0.13784305983E+04  0.10000000000E+02 0. -1.
</event>
<event>
 5    1  0.1087513E-008  0.3798498E+03  0.7957747E-01  0.3451813E+00
         13   -1    0    0    0    0  0.00000000000E+00  0.00000000000E+00  0.14999999963E+04  0.15000000000E+04  0.10566000000E+00 0. -1.
        994   -1    0    0    0    0 -0.00000000000E+00 -0.00000000000E+00  0.11368683772E-12  0.17120000000E+03  0.17120000000E+03 0.  0.
         13    1    1    2    0    0 -0.11838850969E+02  0.90866871208E+01  0.24271498723E+02  0.28492860323E+02  0.10566000000E+00 0. -1.
        994    1    1    2    0    0  0.13064337776E+02 -0.10980618259E+02  0.51836740126E+01  0.17212658532E+03  0.17120000000E+03 0.  0.
        998    1    1    2    0    0 -0.12254868072E+01  0.18939311381E+01  0.14705448235E+04  0.14705805544E+04  0.10000000000E+02 0. -1.
</event>
<event>
 5    1  0.1087513E-008  0.3737913E+03  0.7957747E-01  0.3478646E+00
         13   -1    0    0    0    0  0.00000000000E+00  0.00000000000E+00  0.14999999963E+04  0.15000000000E+04  0.10566000000E+00 0. -1.
        994   -1    0    0    0    0 -0.00000000000E+00 -0.00000000000E+00  0.11368683772E-12  0.17120000000E+03  0.17120000000E+03 0.  0.
         13    1    1    2    0    0  0.28067629119E+01  0.56661652308E+02  0.24888279969E+03  0.25526668389E+03  0.10566000000E+00 0. -1.
        994    1    1    2    0    0  0.16403518115E+02 -0.13931241144E+02  0.88831255200E+01  0.17277588028E+03  0.17120000000E+03 0.  0.
        998    1    1    2    0    0 -0.19210281027E+02 -0.42730411164E+02  0.12422340711E+04  0.12431574358E+04  0.10000000000E+02 0. -1.
</event>
<event>
 5    1  0.1087513E-008  0.3715457E+03  0.7957747E-01  0.3488817E+00
         13   -1    0    0    0    0  0.00000000000E+00  0.00000000000E+00  0.14999999963E+04  0.15000000000E+04  0.10566000000E+00 0. -1.
        994   -1    0    0    0    0 -0.00000000000E+00 -0.00000000000E+00  0.11368683772E-12  0.17120000000E+03  0.17120000000E+03 0.  0.
         13    1    1    2    0    0  0.10508517901E+03 -0.77494654388E+01  0.48450981324E+03  0.49583537525E+03  0.10566000000E+00 0. -1.
        994    1    1    2    0    0 -0.93229589572E+02  0.19326112408E+02  0.40318231596E+02  0.20000063698E+03  0.17120000000E+03 0.  0.
        998    1    1    2    0    0 -0.11855589440E+02 -0.11576646969E+02  0.97517195144E+03  0.97536398777E+03  0.10000000000E+02 0.  0.
</event>
<event>
 5    1  0.1087513E-008  0.3770439E+03  0.7957747E-01  0.3464132E+00
         13   -1    0    0    0    0  0.00000000000E+00  0.00000000000E+00  0.14999999963E+04  0.15000000000E+04  0.10566000000E+00 0. -1.
        994   -1    0    0    0    0 -0.00000000000E+00 -0.00000000000E+00  0.11368683772E-12  0.17120000000E+03  0.17120000000E+03 0.  0.
         13    1    1    2    0    0  0.58480039893E+02  0.10717976645E+03  0.62322967887E+03  0.63507689392E+03  0.10566000000E+00 0. -1.
        994    1    1    2    0    0 -0.12850185355E+02 -0.16013106451E+03  0.98400147198E+02  0.25455670105E+03  0.17120000000E+03 0.  0.
        998    1    1    2    0    0 -0.45629854538E+02  0.52951298052E+02  0.77837017021E+03  0.78156640502E+03  0.10000000000E+02 0. -1.
</event>
<event>
 5    1  0.1087513E-008  0.3858784E+03  0.7957747E-01  0.3425955E+00
         13   -1    0    0    0    0  0.00000000000E+00  0.00000000000E+00  0.14999999963E+04  0.15000000000E+04  0.10566000000E+00 0. -1.
        994   -1    0    0    0    0 -0.00000000000E+00 -0.00000000000E+00  0.11368683772E-12  0.17120000000E+03  0.17120000000E+03 0.  0.
         13    1    1    2    0    0  0.11782224942E+02  0.61912748629E+01  0.78900484549E+02  0.80015313129E+02  0.10566000000E+00 0. -1.
        994    1    1    2    0    0  0.40727928646E+01 -0.13529488912E+02  0.18495929818E+01  0.17179201293E+03  0.17120000000E+03 0.  0.
        998    1    1    2    0    0 -0.15855017807E+02  0.73382140488E+01  0.14192499187E+04  0.14193926739E+04  0.10000000000E+02 0. -1.
</event>
<event>
 5    1  0.1087513E-008  0.3798678E+03  0.7957747E-01  0.3451734E+00
         13   -1    0    0    0    0  0.00000000000E+00  0.00000000000E+00  0.14999999963E+04  0.15000000000E+04  0.10566000000E+00 0.  1.
        994   -1    0    0    0    0 -0.00000000000E+00 -0.00000000000E+00  0.11368683772E-12  0.17120000000E+03  0.17120000000E+03 0.  0.
         13    1    1    2    0    0  0.19606257480E+02  0.18652031799E+02  0.94373511532E+02  0.98176751146E+02  0.10566000000E+00 0.  1.
        994    1    1    2    0    0  0.58301221381E+01 -0.25493165221E+01  0.43353098389E+01  0.17137305579E+03  0.17120000000E+03 0.  0.
        998    1    1    2    0    0 -0.25436379618E+02 -0.16102715277E+02  0.14012911749E+04  0.14016501931E+04  0.10000000000E+02 0.  1.
</event>
<event>
 5    1  0.1087513E-008  0.3833902E+03  0.7957747E-01  0.3436528E+00
         13   -1    0    0    0    0  0.00000000000E+00  0.00000000000E+00  0.14999999963E+04  0.15000000000E+04  0.10566000000E+00 0. -1.
        994   -1    0    0    0    0 -0.00000000000E+00 -0.00000000000E+00  0.11368683772E-12  0.17120000000E+03  0.17120000000E+03 0.  0.
         13    1    1    2    0    0  0.93342637629E+01 -0.93371333478E+01  0.33510065528E+02  0.36017304103E+02  0.10566000000E+00 0. -1.
        994    1    1    2    0    0 -0.10530924367E+02  0.18942469446E+02  0.39858651023E+01  0.17261241160E+03  0.17120000000E+03 0.  0.
        998    1    1    2    0    0  0.11966606036E+01 -0.96053360980E+01  0.14625040656E+04  0.14625702843E+04  0.10000000000E+02 0. -1.
</event>
<event>
 5    1  0.1087513E-008  0.3800355E+03  0.7957747E-01  0.3451004E+00
         13   -1    0    0    0    0  0.00000000000E+00  0.00000000000E+00  0.14999999963E+04  0.15000000000E+04  0.10566000000E+00 0.  1.
        994   -1    0    0    0    0 -0.00000000000E+00 -0.00000000000E+00  0.11368683772E-12  0.17120000000E+03  0.17120000000E+03 0.  0.
         13    1    1    2    0    0 -0.70963326233E+01 -0.31791484505E+02  0.12935496319E+03  0.13339330602E+03  0.10566000000E+00 0.  1.
        994    1    1    2    0    0  0.60561406937E+01  0.16027023479E+02  0.50969932869E+01  0.17213065288E+03  0.17120000000E+03 0.  0.
        998    1    1    2    0    0  0.10401919296E+01  0.15764461026E+02  0.13655480398E+04  0.13656760411E+04  0.10000000000E+02 0.  1.
</event>
<event>
 5    1  0.1087513E-008  0.3696905E+03  0.7957747E-01  0.3497314E+00
         13   -1    0    0    0    0  0.00000000000E+00  0.00000000000E+00  0.14999999963E+04  0.15000000000E+04  0.10566000000E+00 0.  1.
        994   -1    0    0    0    0 -0.00000000000E+00 -0.00000000000E+00  0.11368683772E-12  0.17120000000E+03  0.17120000000E+03 0.  0.
         13    1    1    2    0    0  0.15017021033E+02 -0.24204163163E+02  0.38502075999E+02  0.47893355023E+02  0.10566000000E+00 0.  1.
        994    1    1    2    0    0 -0.93119200638E+01  0.25757628656E+02  0.12031885111E+02  0.17379405499E+03  0.17120000000E+03 0.  0.
        998    1    1    2    0    0 -0.57051009696E+01 -0.15534654933E+01  0.14494660352E+04  0.14495125900E+04  0.10000000000E+02 0.  1.
</event>
<event>
 5    1  0.1087513E-008  0.3824944E+03  0.7957747E-01  0.3440369E+00
         13   -1    0    0    0    0  0.00000000000E+00  0.00000000000E+00  0.14999999963E+04  0.15000000000E+04  0.10566000000E+00 0.  1.
        994   -1    0    0    0    0 -0.00000000000E+00 -0.00000000000E+00  0.11368683772E-12  0.17120000000E+03  0.17120000000E+03 0.  0.
         13    1    1    2    0    0  0.99603369464E+01 -0.15975863301E+02  0.60746175117E+02  0.63596741078E+02  0.10566000000E+00 0.  1.
        994    1    1    2    0    0 -0.53389314244E+01  0.10599969508E+02  0.33464146450E+01  0.17164353187E+03  0.17120000000E+03 0.  0.
        998    1    1    2    0    0 -0.46214055219E+01  0.53758937928E+01  0.14359074065E+04  0.14359597271E+04  0.10000000000E+02 0.  1.
</event>
<event>
 5    1  0.1087513E-008  0.3827081E+03  0.7957747E-01  0.3439451E+00
         13   -1    0    0    0    0  0.00000000000E+00  0.00000000000E+00  0.14999999963E+04  0.15000000000E+04  0.10566000000E+00 0.  1.
        994   -1    0    0    0    0 -0.00000000000E+00 -0.00000000000E+00  0.11368683772E-12  0.17120000000E+03  0.17120000000E+03 0.  0.
         13    1    1    2    0    0  0.41347383691E+01 -0.99253013585E+01  0.19219150996E+02  0.22022592888E+02  0.10566000000E+00 0.  1.
        994    1    1    2    0    0 -0.81678122914E+01  0.15380096086E+02  0.37777415002E+01  0.17212487282E+03  0.17120000000E+03 0.  0.
        998    1    1    2    0    0  0.40330739224E+01 -0.54547947277E+01  0.14770031038E+04  0.14770525343E+04  0.10000000000E+02 0.  1.
</event>
<event>
 5    1  0.1087513E-008  0.3835435E+03  0.7957747E-01  0.3435873E+00
         13   -1    0    0    0    0  0.00000000000E+00  0.00000000000E+00  0.14999999963E+04  0.15000000000E+04  0.10566000000E+00 0.  1.
        994   -1    0    0    0    0 -0.00000000000E+00 -0.00000000000E+00  0.11368683772E-12  0.17120000000E+03  0.17120000000E+03 0.  0.
         13    1    1    2    0    0  0.15749399356E+02  0.48645889713E+01  0.57196923870E+02  0.59524844142E+02  0.10566000000E+00 0.  1.
        994    1    1    2    0    0 -0.67126369244E+01 -0.13859951515E+02  0.31390057757E+01  0.17191989736E+03  0.17120000000E+03 0.  0.
        998    1    1    2    0    0 -0.90367624313E+01  0.89953625434E+01  0.14396640666E+04  0.14397552585E+04  0.10000000000E+02 0.  1.
</event>
<event>
 5    1  0.1087513E-008  0.3834061E+03  0.7957747E-01  0.3436461E+00
         13   -1    0    0    0    0  0.00000000000E+00  0.00000000000E+00  0.14999999963E+04  0.15000000000E+04  0.10566000000E+00 0.  1.
        994   -1    0    0    0    0 -0.00000000000E+00 -0.00000000000E+00  0.11368683772E-12  0.17120000000E+03  0.17120000000E+03 0.  0.
         13    1    1    2    0    0  0.17185694332E+02  0.60465398206E+01  0.62680011720E+02  0.65274066571E+02  0.10566000000E+00 0.  1.
        994    1    1    2    0    0 -0.25669149044E+02 -0.89356566600E+01  0.48695130112E+01  0.17341252357E+03  0.17120000000E+03 0.  0.
        998    1    1    2    0    0  0.84834547125E+01  0.28891168394E+01  0.14324504715E+04  0.14325134099E+04  0.10000000000E+02 0.  1.
</event>
<event>
 5    1  0.1087513E-008  0.3710429E+03  0.7957747E-01  0.3491112E+00
         13   -1    0    0    0    0  0.00000000000E+00  0.00000000000E+00  0.14999999963E+04  0.15000000000E+04  0.10566000000E+00 0. -1.
        994   -1    0    0    0    0 -0.00000000000E+00 -0.00000000000E+00  0.11368683772E-12  0.17120000000E+03  0.17120000000E+03 0.  0.
         13    1    1    2    0    0  0.21387450439E+02 -0.22524970359E+02  0.34250109713E+02  0.46237198286E+02  0.10566000000E+00 0. -1.
        994    1    1    2    0    0 -0.32499484444E+02  0.46023519265E+02  0.22714163591E+02  0.18165834427E+03  0.17120000000E+03 0.  0.
        998    1    1    2    0    0  0.11112034005E+02 -0.23498548906E+02  0.14430357230E+04  0.14433044574E+04  0.10000000000E+02 0. -1.
</event>
<event>
 5    1  0.1087513E-008  0.3840869E+03  0.7957747E-01  0.3433554E+00
         13   -1    0    0    0    0  0.00000000000E+00  0.00000000000E+00  0.14999999963E+04  0.15000000000E+04  0.10566000000E+00 0. -1.
        994   -1    0    0    0    0 -0.00000000000E+00 -0.00000000000E+00  0.11368683772E-12  0.17120000000E+03  0.17120000000E+03 0.  0.
         13    1    1    2    0    0 -0.48651125630E+01  0.12671129215E+02  0.43283813135E+02  0.45362170135E+02  0.10566000000E+00 0. -1.
        994    1    1    2    0    0  0.34863352597E+01 -0.10753380558E+02  0.25057625606E+01  0.17159110867E+03  0.17120000000E+03 0.  0.
        998    1    1    2    0    0  0.13787773033E+01 -0.19177486574E+01  0.14542104206E+04  0.14542467212E+04  0.10000000000E+02 0. -1.
</event>
<event>
 5    1  0.1087513E-008  0.3836108E+03  0.7957747E-01  0.3435585E+00
         13   -1    0    0    0    0  0.00000000000E+00  0.00000000000E+00  0.14999999963E+04  0.15000000000E+04  0.10566000000E+00 0.  1.
        994   -1    0    0    0    0 -0.00000000000E+00 -0.00000000000E+00  0.11368683772E-12  0.17120000000E+03  0.17120000000E+03 0.  0.
         13    1    1    2    0    0 -0.24947961353E+02 -0.67075205368E+01  0.12567557387E+03  0.12830336176E+03  0.10566000000E+00 0.  1.
        994    1    1    2    0    0  0.33039403232E+02  0.60539157842E+01  0.60575502948E+01  0.17456914383E+03  0.17120000000E+03 0.  0.
        998    1    1    2    0    0 -0.80914418789E+01  0.65360475253E+00  0.13682668721E+04  0.13683274944E+04  0.10000000000E+02 0.  1.
</event>
<event>
 5    1  0.1087513E-008  0.3488249E+03  0.7957747E-01  0.3599252E+00
         13   -1    0    0    0    0  0.00000000000E+00  0.00000000000E+00  0.14999999963E+04  0.15000000000E+04  0.10566000000E+00 0. -1.
        994   -1    0    0    0    0 -0.00000000000E+00 -0.00000000000E+00  0.11368683772E-12  0.17120000000E+03  0.17120000000E+03 0.  0.
         13    1    1    2    0    0  0.13353053188E+02  0.18776190196E+03  0.10973016285E+04  0.11133300099E+04  0.10566000000E+00 0. -1.
        994    1    1    2    0    0 -0.56168383298E+02 -0.15400349345E+03  0.11239980872E+03  0.26232636215E+03  0.17120000000E+03 0.  0.
        998    1    1    2    0    0  0.42815330110E+02 -0.33758408509E+02  0.29029855908E+03  0.29554362799E+03  0.10000000000E+02 0. -1.
</event>
<event>
 5    1  0.1087513E-008  0.3726722E+03  0.7957747E-01  0.3483699E+00
         13   -1    0    0    0    0  0.00000000000E+00  0.00000000000E+00  0.14999999963E+04  0.15000000000E+04  0.10566000000E+00 0.  1.
        994   -1    0    0    0    0 -0.00000000000E+00 -0.00000000000E+00  0.11368683772E-12  0.17120000000E+03  0.17120000000E+03 0.  0.
         13    1    1    2    0    0  0.37882225174E+01 -0.45715124799E+02  0.75203986243E+02  0.88090146873E+02  0.10566000000E+00 0.  1.
        994    1    1    2    0    0  0.78909334158E+01  0.53916513610E+02  0.22912294988E+02  0.18111783604E+03  0.17120000000E+03 0.  0.
        998    1    1    2    0    0 -0.11679155933E+02 -0.82013888116E+01  0.14018837150E+04  0.14019920171E+04  0.10000000000E+02 0.  1.
</event>
<event>
 5    1  0.1087513E-008  0.4127479E+03  0.7957747E-01  0.3319891E+00
         13   -1    0    0    0    0  0.00000000000E+00  0.00000000000E+00  0.14999999963E+04  0.15000000000E+04  0.10566000000E+00 0. -1.
        994   -1    0    0    0    0 -0.00000000000E+00 -0.00000000000E+00  0.11368683772E-12  0.17120000000E+03  0.17120000000E+03 0.  0.
         13    1    1    2    0    0  0.10434685998E+03  0.42231795025E+01  0.13073248599E+03  0.16732332918E+03  0.10566000000E+00 0. -1.
        994    1    1    2    0    0 -0.10298856176E+03 -0.62552326574E+01  0.81173289037E+02  0.21574131417E+03  0.17120000000E+03 0.  0.
        998    1    1    2    0    0 -0.13582982198E+01  0.20320531549E+01  0.12880942213E+04  0.12881353566E+04  0.10000000000E+02 0.  0.
</event>
<event>
 5    1  0.1087513E-008  0.3824210E+03  0.7957747E-01  0.3440684E+00
         13   -1    0    0    0    0  0.00000000000E+00  0.00000000000E+00  0.14999999963E+04  0.15000000000E+04  0.10566000000E+00 0.  1.
        994   -1    0    0    0    0 -0.00000000000E+00 -0.00000000000E+00  0.11368683772E-12  0.17120000000E+03  0.17120000000E+03 0.  0.
         13    1    1    2    0    0 -0.23595220847E+02  0.17837067143E+02  0.12848650344E+03  0.13184721514E+03  0.10566000000E+00 0.  1.
        994    1    1    2    0    0  0.37396392980E+02 -0.17078661649E+02  0.85416061499E+01  0.17627413289E+03  0.17120000000E+03 0.  0.
        998    1    1    2    0    0 -0.13801172133E+02 -0.75840549385E+00  0.13629718867E+04  0.13630786520E+04  0.10000000000E+02 0.  1.
</event>
<event>
 5    1  0.1087513E-008  0.3718077E+03  0.7957747E-01  0.3487624E+00
         13   -1    0    0    0    0  0.00000000000E+00  0.00000000000E+00  0.14999999963E+04  0.15000000000E+04  0.10566000000E+00 0.  1.
        994   -1    0    0    0    0 -0.00000000000E+00 -0.00000000000E+00  0.11368683772E-12  0.17120000000E+03  0.17120000000E+03 0.  0.
         13    1    1    2    0    0 -0.56915709842E+02  0.40589636163E+01  0.14428311935E+03  0.15515638210E+03  0.10566000000E+00 0.  1.
        994    1    1    2    0    0  0.14766067369E+02 -0.48176719559E+01  0.12747061823E+02  0.17237509766E+03  0.17120000000E+03 0.  0.
        998    1    1    2    0    0  0.42149642473E+02  0.75870833965E+00  0.13429698151E+04  0.13436685202E+04  0.10000000000E+02 0.  1.
</event>
<event>
 5    1  0.1849053E-008  0.3858977E+03  0.7957747E-01  0.3425874E+00
         13   -1    0    0    0    0  0.00000000000E+00  0.00000000000E+00  0.14999999963E+04  0.15000000000E+04  0.10566000000E+00 0. -1.
        994   -1    0    0    0    0 -0.00000000000E+00 -0.00000000000E+00  0.11368683772E-12  0.17120000000E+03  0.17120000000E+03 0.  0.
         13    1    1    2    0    0 -0.10859151195E+02 -0.65620893305E+01  0.65039294361E+02  0.66265399388E+02  0.10566000000E+00 0. -1.
        994    1    1    2    0    0  0.13152884818E+02  0.86678553709E+01  0.19991511367E+01  0.17193477455E+03  0.17120000000E+03 0.  0.
        998    1    1    2    0    0 -0.22937336236E+01 -0.21057660404E+01  0.14329615508E+04  0.14329998261E+04  0.10000000000E+02 0. -1.
</event>
<event>
 5    1  0.1087513E-008  0.3824696E+03  0.7957747E-01  0.3440475E+00
         13   -1    0    0    0    0  0.00000000000E+00  0.00000000000E+00  0.14999999963E+04  0.15000000000E+04  0.10566000000E+00 0. -1.
        994   -1    0    0    0    0 -0.00000000000E+00 -0.00000000000E+00  0.11368683772E-12  0.17120000000E+03  0.17120000000E+03 0.  0.
         13    1    1    2    0    0 -0.92476186334E+01  0.11085995496E+02  0.35156404719E+02  0.38005285203E+02  0.10566000000E+00 0. -1.
        994    1    1    2    0    0  0.68160413148E+01 -0.58293093894E+01  0.31584167870E+01  0.17146385877E+03  0.17120000000E+03 0.  0.
        998    1    1    2    0    0  0.24315773186E+01 -0.52566861067E+01  0.14616851748E+04  0.14617308560E+04  0.10000000000E+02 0. -1.
</event>
<event>
 5    1  0.1087513E-008  0.3730500E+03  0.7957747E-01  0.3481990E+00
         13   -1    0    0    0    0  0.00000000000E+00  0.00000000000E+00  0.14999999963E+04  0.15000000000E+04  0.10566000000E+00 0. -1.
        994   -1    0    0    0    0 -0.00000000000E+00 -0.00000000000E+00  0.11368683772E-12  0.17120000000E+03  0.17120000000E+03 0.  0.
         13    1    1    2    0    0  0.55654796978E+02  0.72268153834E+02  0.24844990327E+03  0.26466489772E+03  0.10566000000E+00 0. -1.
        994    1    1    2    0    0 -0.60953745862E+02 -0.88023949746E+02  0.54258152444E+02  0.20908601572E+03  0.17120000000E+03 0.  0.
        998    1    1    2    0    0  0.52989488846E+01  0.15755795912E+02  0.11972919406E+04  0.11974490866E+04  0.10000000000E+02 0. -1.
</event>
<event>
 5    1  0.1087513E-008  0.3779640E+03  0.7957747E-01  0.3460072E+00
         13   -1    0    0    0    0  0.00000000000E+00  0.00000000000E+00  0.14999999963E+04  0.15000000000E+04  0.10566000000E+00 0. -1.
        994   -1    0    0    0    0 -0.00000000000E+00 -0.00000000000E+00  0.11368683772E-12  0.17120000000E+03  0.17120000000E+03 0.  0.
         13    1    1    2    0    0  0.22013716485E+00 -0.21122235864E+02  0.40721318134E+02  0.45874112775E+02  0.10566000000E+00 0. -1.
        994    1    1    2    0    0  0.38851434892E+01  0.17503724932E+02  0.62471553141E+01  0.17224964928E+03  0.17120000000E+03 0.  0.
        998    1    1    2    0    0 -0.41052806540E+01  0.36185109325E+01  0.14530315228E+04  0.14530762379E+04  0.10000000000E+02 0. -1.
</event>
<event>
 5    1  0.1087513E-008  0.3780265E+03  0.7957747E-01  0.3459797E+00
         13   -1    0    0    0    0  0.00000000000E+00  0.00000000000E+00  0.14999999963E+04  0.15000000000E+04  0.10566000000E+00 0.  1.
        994   -1    0    0    0    0 -0.00000000000E+00 -0.00000000000E+00  0.11368683772E-12  0.17120000000E+03  0.17120000000E+03 0.  0.
         13    1    1    2    0    0 -0.46997821861E+02 -0.66520907740E+01  0.26647780076E+03  0.27067226498E+03  0.10566000000E+00 0.  1.
        994    1    1    2    0    0  0.12559135894E+01  0.10118969242E+02  0.54826336584E+01  0.17159099664E+03  0.17120000000E+03 0.  0.
        998    1    1    2    0    0  0.45741908272E+02 -0.34668784677E+01  0.12280395619E+04  0.12289367384E+04  0.10000000000E+02 0.  1.
</event>
<event>
 5    1  0.1087513E-008  0.3747294E+03  0.7957747E-01  0.3474434E+00
         13   -1    0    0    0    0  0.00000000000E+00  0.00000000000E+00  0.14999999963E+04  0.15000000000E+04  0.10566000000E+00 0. -1.
        994   -1    0    0    0    0 -0.00000000000E+00 -0.00000000000E+00  0.11368683772E-12  0.17120000000E+03  0.17120000000E+03 0.  0.
         13    1    1    2    0    0  0.17027435274E+02 -0.11355035615E+02  0.27283363998E+02  0.34106648925E+02  0.10566000000E+00 0. -1.
        994    1    1    2    0    0 -0.17871508787E+02  0.13767234546E+02  0.85512184783E+01  0.17289155824E+03  0.17120000000E+03 0.  0.
        998    1    1    2    0    0  0.84407351307E+00 -0.24121989317E+01  0.14641654138E+04  0.14642017928E+04  0.10000000000E+02 0. -1.
</event>
<event>
 5    1  0.1087513E-008  0.3833791E+03  0.7957747E-01  0.3436576E+00
         13   -1    0    0    0    0  0.00000000000E+00  0.00000000000E+00  0.14999999963E+04  0.15000000000E+04  0.10566000000E+00 0. -1.
        994   -1    0    0    0    0 -0.00000000000E+00 -0.00000000000E+00  0.11368683772E-12  0.17120000000E+03  0.17120000000E+03 0.  0.
         13    1    1    2    0    0 -0.17158774251E+02 -0.11870622900E+02  0.10217944503E+03  0.10428799246E+03  0.10566000000E+00 0. -1.
        994    1    1    2    0    0 -0.26111975394E+02  0.27107539420E+02  0.71346607671E+01  0.17543374059E+03  0.17120000000E+03 0.  0.
        998    1    1    2    0    0  0.43270749645E+02 -0.15236916520E+02  0.13906858905E+04  0.13914782670E+04  0.10000000000E+02 0. -1.
</event>
<event>
 5    1  0.2249145E-008  0.3863154E+03  0.7957747E-01  0.3424113E+00
         13   -1    0    0    0    0  0.00000000000E+00  0.00000000000E+00  0.14999999963E+04  0.15000000000E+04  0.10566000000E+00 0.  1.
        994   -1    0    0    0    0 -0.00000000000E+00 -0.00000000000E+00  0.11368683772E-12  0.17120000000E+03  0.17120000000E+03 0.  0.
         13    1    1    2    0    0 -0.11566089079E+02  0.26091884672E+01  0.70387746206E+02  0.71379466662E+02  0.10566000000E+00 0.  1.
        994    1    1    2    0    0  0.12371489605E+02 -0.12759826054E+01  0.14851648192E+01  0.17165758824E+03  0.17120000000E+03 0.  0.
        998    1    1    2    0    0 -0.80540052558E+00 -0.13332058618E+01  0.14281270853E+04  0.14281629451E+04  0.10000000000E+02 0.  1.
</event>
<event>
 5    1  0.1087513E-008  0.3907228E+03  0.7957747E-01  0.3405758E+00
         13   -1    0    0    0    0  0.00000000000E+00  0.00000000000E+00  0.14999999963E+04  0.15000000000E+04  0.10566000000E+00 0. -1.
        994   -1    0    0    0    0 -0.00000000000E+00 -0.00000000000E+00  0.11368683772E-12  0.17120000000E+03  0.17120000000E+03 0.  0.
         13    1    1    2    0    0  0.44424389660E+02 -0.10460949689E+02  0.37436471694E+02  0.59029301554E+02  0.10566000000E+00 0. -1.
        994    1    1    2    0    0 -0.42243685788E+02  0.10334512163E+02  0.29515827279E+02  0.17908644614E+03  0.17120000000E+03 0.  0.
        998    1    1    2    0    0 -0.21807038726E+01  0.12643752624E+00  0.14330476973E+04  0.14330842523E+04  0.10000000000E+02 0. -1.
</event>
<event>
 5    1  0.1087513E-008  0.3789119E+03  0.7957747E-01  0.3455910E+00
         13   -1    0    0    0    0  0.00000000000E+00  0.00000000000E+00  0.14999999963E+04  0.15000000000E+04  0.10566000000E+00 0. -1.
        994   -1    0    0    0    0 -0.00000000000E+00 -0.00000000000E+00  0.11368683772E-12  0.17120000000E+03  0.17120000000E+03 0.  0.
         13    1    1    2    0    0 -0.33469816917E+02 -0.31955131719E+02  0.24638193636E+03  0.25068990569E+03  0.10566000000E+00 0. -1.
        994    1    1    2    0    0  0.10631287218E+02  0.12358612803E+02  0.55755541076E+01  0.17206477380E+03  0.17120000000E+03 0.  0.
        998    1    1    2    0    0  0.22838529699E+02  0.19596518916E+02  0.12480425058E+04  0.12484453205E+04  0.10000000000E+02 0. -1.
</event>
<event>
 5    1  0.1087513E-008  0.3815262E+03  0.7957747E-01  0.3444540E+00
         13   -1    0    0    0    0  0.00000000000E+00  0.00000000000E+00  0.14999999963E+04  0.15000000000E+04  0.10566000000E+00 0. -1.
        994   -1    0    0    0    0 -0.00000000000E+00 -0.00000000000E+00  0.11368683772E-12  0.17120000000E+03  0.17120000000E+03 0.  0.
         13    1    1    2    0    0  0.39053343686E+01  0.23906323557E+02  0.87882519006E+02  0.91159817099E+02  0.10566000000E+00 0. -1.
        994    1    1    2    0    0 -0.10310838405E+02 -0.96427863370E+01  0.40278988334E+01  0.17182828838E+03  0.17120000000E+03 0.  0.
        998    1    1    2    0    0  0.64055040363E+01 -0.14263537220E+02  0.14080895784E+04  0.14082118945E+04  0.10000000000E+02 0. -1.
</event>
<event>
 5    1  0.1087513E-008  0.3833521E+03  0.7957747E-01  0.3436691E+00
         13   -1    0    0    0    0  0.00000000000E+00  0.00000000000E+00  0.14999999963E+04  0.15000000000E+04  0.10566000000E+00 0.  1.
        994   -1    0    0    0    0 -0.00000000000E+00 -0.00000000000E+00  0.11368683772E-12  0.17120000000E+03  0.17120000000E+03 0.  0.
         13    1    1    2    0    0  0.23396798577E+01 -0.21647261185E+02  0.97063796080E+02  0.99475975452E+02  0.10566000000E+00 0.  1.
        994    1    1    2    0    0 -0.38846456978E+01  0.11674165503E+02  0.29511679130E+01  0.17166690422E+03  0.17120000000E+03 0.  0.
        998    1    1    2    0    0  0.15449658401E+01  0.99730956820E+01  0.13999850323E+04  0.14000571203E+04  0.10000000000E+02 0.  1.
</event>
<event>
 5    1  0.1087513E-008  0.3828106E+03  0.7957747E-01  0.3439011E+00
         13   -1    0    0    0    0  0.00000000000E+00  0.00000000000E+00  0.14999999963E+04  0.15000000000E+04  0.10566000000E+00 0. -1.
        994   -1    0    0    0    0 -0.00000000000E+00 -0.00000000000E+00  0.11368683772E-12  0.17120000000E+03  0.17120000000E+03 0.  0.
         13    1    1    2    0    0  0.23197993283E+02 -0.43729698012E+01  0.92624184971E+02  0.95585148234E+02  0.10566000000E+00 0. -1.
        994    1    1    2    0    0 -0.29835493407E+02  0.56605581734E+01  0.57815134640E+01  0.17396857326E+03  0.17120000000E+03 0.  0.
        998    1    1    2    0    0  0.66375001239E+01 -0.12875883722E+01  0.14015942978E+04  0.14016462785E+04  0.10000000000E+02 0. -1.
</event>
<event>
 5    1  0.2315664E-008  0.3860202E+03  0.7957747E-01  0.3425357E+00
         13   -1    0    0    0    0  0.00000000000E+00  0.00000000000E+00  0.14999999963E+04  0.15000000000E+04  0.10566000000E+00 0. -1.
        994   -1    0    0    0    0 -0.00000000000E+00 -0.00000000000E+00  0.11368683772E-12  0.17120000000E+03  0.17120000000E+03 0.  0.
         13    1    1    2    0    0  0.69201176601E+01  0.76110941710E+01  0.47334812265E+02  0.48439781163E+02  0.10566000000E+00 0. -1.
        994    1    1    2    0    0 -0.68253126951E+01 -0.44132054633E+01  0.13410157310E+01  0.17139807350E+03  0.17120000000E+03 0.  0.
        998    1    1    2    0    0 -0.94804964992E-01 -0.31978887077E+01  0.14513241683E+04  0.14513621453E+04  0.10000000000E+02 0.  0.
</event>
<event>
 5    1  0.1087513E-008  0.4216369E+03  0.7957747E-01  0.3287750E+00
         13   -1    0    0    0    0  0.00000000000E+00  0.00000000000E+00  0.14999999963E+04  0.15000000000E+04  0.10566000000E+00 0. -1.
        994   -1    0    0    0    0 -0.00000000000E+00 -0.00000000000E+00  0.11368683772E-12  0.17120000000E+03  0.17120000000E+03 0.  0.
         13    1    1    2    0    0  0.83344367496E+01  0.13333607868E+03  0.22907121193E+03  0.26518220908E+03  0.10566000000E+00 0. -1.
        994    1    1    2    0    0  0.55541064794E+00 -0.62799563707E+02  0.58563557693E+02  0.19152865053E+03  0.17120000000E+03 0.  0.
        998    1    1    2    0    0 -0.88898473975E+01 -0.70536514972E+02  0.12123652267E+04  0.12144891404E+04  0.10000000000E+02 0. -1.
</event>
<event>
 5    1  0.1087513E-008  0.3796220E+03  0.7957747E-01  0.3452806E+00
         13   -1    0    0    0    0  0.00000000000E+00  0.00000000000E+00  0.14999999963E+04  0.15000000000E+04  0.10566000000E+00 0. -1.
        994   -1    0    0    0    0 -0.00000000000E+00 -0.00000000000E+00  0.11368683772E-12  0.17120000000E+03  0.17120000000E+03 0.  0.
         13    1    1    2    0    0  0.12411900346E+02  0.96457705201E+01  0.26996821151E+02  0.31239969197E+02  0.10566000000E+00 0. -1.
        994    1    1    2    0    0 -0.16280325488E+02  0.70818687310E+01  0.53797944668E+01  0.17220216041E+03  0.17120000000E+03 0.  0.
        998    1    1    2    0    0  0.38684251419E+01 -0.16727639251E+02  0.14676233807E+04  0.14677578704E+04  0.10000000000E+02 0. -1.
</event>
<event>
 5    1  0.1087513E-008  0.3837374E+03  0.7957747E-01  0.3435045E+00
         13   -1    0    0    0    0  0.00000000000E+00  0.00000000000E+00  0.14999999963E+04  0.15000000000E+04  0.10566000000E+00 0. -1.
        994   -1    0    0    0    0 -0.00000000000E+00 -0.00000000000E+00  0.11368683772E-12  0.17120000000E+03  0.17120000000E+03 0.  0.
         13    1    1    2    0    0 -0.36539584612E+01  0.16403940930E+02  0.62290826789E+02  0.64518206396E+02  0.10566000000E+00 0. -1.
        994    1    1    2    0    0  0.12533400131E+02 -0.76542878561E+01  0.29707939356E+01  0.17185441472E+03  0.17120000000E+03 0.  0.
        998    1    1    2    0    0 -0.88794416694E+01 -0.87496530744E+01  0.14347383756E+04  0.14348273789E+04  0.10000000000E+02 0. -1.
</event>
<event>
 5    1  0.1087513E-008  0.3700644E+03  0.7957747E-01  0.3495595E+00
         13   -1    0    0    0    0  0.00000000000E+00  0.00000000000E+00  0.14999999963E+04  0.15000000000E+04  0.10566000000E+00 0. -1.
        994   -1    0    0    0    0 -0.00000000000E+00 -0.00000000000E+00  0.11368683772E-12  0.17120000000E+03  0.17120000000E+03 0.  0.
         13    1    1    2    0    0  0.96673784290E+01 -0.72995223062E+02  0.32172841570E+03  0.33004688368E+03  0.10566000000E+00 0. -1.
        994    1    1    2    0    0 -0.22297263763E+01  0.27763591929E+02  0.11921893291E+02  0.17386017444E+03  0.17120000000E+03 0.  0.
        998    1    1    2    0    0 -0.74376520526E+01  0.45231631133E+02  0.11663496873E+04  0.11672929419E+04  0.10000000000E+02 0. -1.
</event>
<event>
 5    1  0.1087513E-008  0.3802848E+03  0.7957747E-01  0.3449920E+00
         13   -1    0    0    0    0  0.00000000000E+00  0.00000000000E+00  0.14999999963E+04  0.15000000000E+04  0.10566000000E+00 0.  1.
        994   -1    0    0    0    0 -0.00000000000E+00 -0.00000000000E+00  0.11368683772E-12  0.17120000000E+03  0.17120000000E+03 0.  0.
         13    1    1    2    0    0 -0.13927885092E+02  0.28352241234E+02  0.12827800176E+03  0.13211015277E+03  0.10566000000E+00 0.  1.
        994    1    1    2    0    0  0.19551481273E+02 -0.48726972149E+01  0.53465994970E+01  0.17246457527E+03  0.17120000000E+03 0.  0.
        998    1    1    2    0    0 -0.56235961808E+01 -0.23479544019E+02  0.13663753950E+04  0.13666252720E+04  0.10000000000E+02 0.  1.
</event>
<event>
 5    1  0.1087513E-008  0.3856976E+03  0.7957747E-01  0.3426719E+00
         13   -1    0    0    0    0  0.00000000000E+00  0.00000000000E+00  0.14999999963E+04  0.15000000000E+04  0.10566000000E+00 0.  1.
        994   -1    0    0    0    0 -0.00000000000E+00 -0.00000000000E+00  0.11368683772E-12  0.17120000000E+03  0.17120000000E+03 0.  0.
         13    1    1    2    0    0 -0.91994484401E+01  0.59151196792E+01  0.46338169444E+02  0.47611507053E+02  0.10566000000E+00 0.  1.
        994    1    1    2    0    0  0.26062478471E+01 -0.13401190296E+02  0.18959953377E+01  0.17175394967E+03  0.17120000000E+03 0.  0.
        998    1    1    2    0    0  0.65932005929E+01  0.74860706169E+01  0.14517658315E+04  0.14518345433E+04  0.10000000000E+02 0.  1.
</event>
<event>
 5    1  0.1087513E-008  0.3785938E+03  0.7957747E-01  0.3457304E+00
         13   -1    0    0    0    0  0.00000000000E+00  0.00000000000E+00  0.14999999963E+04  0.15000000000E+04  0.10566000000E+00 0. -1.
        994   -1    0    0    0    0 -0.00000000000E+00 -0.00000000000E+00  0.11368683772E-12  0.17120000000E+03  0.17120000000E+03 0.  0.
         13    1    1    2    0    0 -0.30276825415E+02 -0.18843277146E+02  0.14203938383E+03  0.14644778241E+03  0.10566000000E+00 0. -1.
        994    1    1    2    0    0  0.17015908974E+02 -0.16303542466E+02  0.67120582906E+01  0.17294461073E+03  0.17120000000E+03 0.  0.
        998    1    1    2    0    0  0.13260916441E+02  0.35146819612E+02  0.13512485542E+04  0.13518076069E+04  0.10000000000E+02 0. -1.
</event>
<event>
 5    1  0.1087513E-008  0.3746265E+03  0.7957747E-01  0.3474895E+00
         13   -1    0    0    0    0  0.00000000000E+00  0.00000000000E+00  0.14999999963E+04  0.15000000000E+04  0.10566000000E+00 0.  1.
        994   -1    0    0    0    0 -0.00000000000E+00 -0.00000000000E+00  0.11368683772E-12  0.17120000000E+03  0.17120000000E+03 0.  0.
         13    1    1    2    0    0 -0.61296974056E+02 -0.63677369338E+02  0.40468378341E+03  0.41422349295E+03  0.10566000000E+00 0.  1.
        994    1    1    2    0    0  0.64265240345E+02  0.62594852762E+02  0.34776301027E+02  0.19638474437E+03  0.17120000000E+03 0.  0.
        998    1    1    2    0    0 -0.29682662886E+01  0.10825165759E+01  0.10605399118E+04  0.10605917627E+04  0.10000000000E+02 0.  1.
</event>
<event>
 5    1  0.1087513E-008  0.3858677E+03  0.7957747E-01  0.3426000E+00
         13   -1    0    0    0    0  0.00000000000E+00  0.00000000000E+00  0.14999999963E+04  0.15000000000E+04  0.10566000000E+00 0. -1.
        994   -1    0    0    0    0 -0.00000000000E+00 -0.00000000000E+00  0.11368683772E-12  0.17120000000E+03  0.17120000000E+03 0.  0.
         13    1    1    2    0    0  0.34834362594E+01 -0.10174408323E+02  0.57793397674E+02  0.58785550024E+02  0.10566000000E+00 0. -1.
        994    1    1    2    0    0  0.89242718823E+01 -0.14701245037E+02  0.21704800942E+01  0.17207533297E+03  0.17120000000E+03 0.  0.
        998    1    1    2    0    0 -0.12407708142E+02  0.24875653360E+02  0.14400361185E+04  0.14403391170E+04  0.10000000000E+02 0. -1.
</event>
<event>
 5    1  0.1087513E-008  0.3850557E+03  0.7957747E-01  0.3429436E+00
         13   -1    0    0    0    0  0.00000000000E+00  0.00000000000E+00  0.14999999963E+04  0.15000000000E+04  0.10566000000E+00 0.  1.
        994   -1    0    0    0    0 -0.00000000000E+00 -0.00000000000E+00  0.11368683772E-12  0.17120000000E+03  0.17120000000E+03 0.  0.
         13    1    1    2    0    0  0.13765951631E+02  0.15413339263E-01  0.59837624584E+02  0.61400766622E+02  0.10566000000E+00 0.  1.
        994    1    1    2    0    0 -0.74978736523E+01  0.14360550109E+02  0.24659028855E+01  0.17198245313E+03  0.17120000000E+03 0.  0.
        998    1    1    2    0    0 -0.62680779789E+01 -0.14375963449E+02  0.14376964688E+04  0.14378167802E+04  0.10000000000E+02 0.  1.
</event>
<event>
 5    1  0.1087513E-008  0.3825282E+03  0.7957747E-01  0.3440224E+00
         13   -1    0    0    0    0  0.00000000000E+00  0.00000000000E+00  0.14999999963E+04  0.15000000000E+04  0.10566000000E+00 0. -1.
        994   -1    0    0    0    0 -0.00000000000E+00 -0.00000000000E+00  0.11368683772E-12  0.17120000000E+03  0.17120000000E+03 0.  0.
         13    1    1    2    0    0 -0.32914498173E+02 -0.21493864254E+02  0.22828803458E+03  0.23164798356E+03  0.10566000000E+00 0. -1.
        994    1    1    2    0    0  0.30133969041E+02  0.28298808276E+02  0.85484374510E+01  0.17632752032E+03  0.17120000000E+03 0.  0.
        998    1    1    2    0    0  0.27805291319E+01 -0.68049440220E+01  0.12631635243E+04  0.12632244961E+04  0.10000000000E+02 0. -1.
</event>
<event>
 5    1  0.1087513E-008  0.3707551E+03  0.7957747E-01  0.3492428E+00
         13   -1    0    0    0    0  0.00000000000E+00  0.00000000000E+00  0.14999999963E+04  0.15000000000E+04  0.10566000000E+00 0. -1.
        994   -1    0    0    0    0 -0.00000000000E+00 -0.00000000000E+00  0.11368683772E-12  0.17120000000E+03  0.17120000000E+03 0.  0.
         13    1    1    2    0    0 -0.33763985045E+02 -0.80393950421E+02  0.31529211707E+03  0.32712738222E+03  0.10566000000E+00 0. -1.
        994    1    1    2    0    0  0.39279876803E+02  0.86599142951E+02  0.40737314447E+02  0.20002822068E+03  0.17120000000E+03 0.  0.
        998    1    1    2    0    0 -0.55158917577E+01 -0.62051925301E+01  0.11439705648E+04  0.11440443971E+04  0.10000000000E+02 0. -1.
</event>
<event>
 5    1  0.1087513E-008  0.3836574E+03  0.7957747E-01  0.3435386E+00
         13   -1    0    0    0    0  0.00000000000E+00  0.00000000000E+00  0.14999999963E+04  0.15000000000E+04  0.10566000000E+00 0.  1.
        994   -1    0    0    0    0 -0.00000000000E+00 -0.00000000000E+00  0.11368683772E-12  0.17120000000E+03  0.17120000000E+03 0.  0.
         13    1    1    2    0    0  0.14285484369E+02 -0.43907868793E+01  0.47452301819E+02  0.49750238040E+02  0.10566000000E+00 0.  1.
        994    1    1    2    0    0 -0.14637533108E+02 -0.52840414822E+01  0.30985228189E+01  0.17193376432E+03  0.17120000000E+03 0.  0.
        998    1    1    2    0    0  0.35204873877E+00  0.96748283614E+01  0.14494491716E+04  0.14495159976E+04  0.10000000000E+02 0.  1.
</event>
<event>
 5    1  0.1087513E-008  0.3797002E+03  0.7957747E-01  0.3452465E+00
         13   -1    0    0    0    0  0.00000000000E+00  0.00000000000E+00  0.14999999963E+04  0.15000000000E+04  0.10566000000E+00 0.  1.
        994   -1    0    0    0    0 -0.00000000000E+00 -0.00000000000E+00  0.11368683772E-12  0.17120000000E+03  0.17120000000E+03 0.  0.
         13    1    1    2    0    0 -0.25519304033E+02 -0.62078717113E+01  0.85580987534E+02  0.89520328087E+02  0.10566000000E+00 0.  1.
        994    1    1    2    0    0  0.26574006516E+01 -0.13061071902E+02  0.48792452641E+01  0.17178736977E+03  0.17120000000E+03 0.  0.
        998    1    1    2    0    0  0.22861903381E+02  0.19268943613E+02  0.14095397635E+04  0.14098923021E+04  0.10000000000E+02 0.  1.
</event>
<event>
 5    1  0.1087513E-008  0.3796213E+03  0.7957747E-01  0.3452809E+00
         13   -1    0    0    0    0  0.00000000000E+00  0.00000000000E+00  0.14999999963E+04  0.15000000000E+04  0.10566000000E+00 0. -1.
        994   -1    0    0    0    0 -0.00000000000E+00 -0.00000000000E+00  0.11368683772E-12  0.17120000000E+03  0.17120000000E+03 0.  0.
         13    1    1    2    0    0 -0.34759922342E+02 -0.15087169680E+02  0.18816968936E+03  0.19194717515E+03  0.10566000000E+00 0. -1.
        994    1    1    2    0    0  0.46616671098E+01 -0.24205234512E+01  0.44167999854E+01  0.17133749793E+03  0.17120000000E+03 0.  0.
        998    1    1    2    0    0  0.30098255232E+02  0.17507693131E+02  0.13074135069E+04  0.13079153269E+04  0.10000000000E+02 0. -1.
</event>
<event>
 5    1  0.1087513E-008  0.3855645E+03  0.7957747E-01  0.3427282E+00
         13   -1    0    0    0    0  0.00000000000E+00  0.00000000000E+00  0.14999999963E+04  0.15000000000E+04  0.10566000000E+00 0.  1.
        994   -1    0    0    0    0 -0.00000000000E+00 -0.00000000000E+00  0.11368683772E-12  0.17120000000E+03  0.17120000000E+03 0.  0.
         13    1    1    2    0    0  0.13241983703E+02  0.22286146260E+01  0.68948187977E+02  0.70243723171E+02  0.10566000000E+00 0.  1.
        994    1    1    2    0    0 -0.69417519677E+01  0.88702720529E+01  0.17667163493E+01  0.17157922640E+03  0.17120000000E+03 0.  0.
        998    1    1    2    0    0 -0.63002317357E+01 -0.11098886679E+02  0.14292850920E+04  0.14293770504E+04  0.10000000000E+02 0.  1.
</event>
<event>
 5    1  0.1087513E-008  0.3823337E+03  0.7957747E-01  0.3441059E+00
         13   -1    0    0    0    0  0.00000000000E+00  0.00000000000E+00  0.14999999963E+04  0.15000000000E+04  0.10566000000E+00 0. -1.
        994   -1    0    0    0    0 -0.00000000000E+00 -0.00000000000E+00  0.11368683772E-12  0.17120000000E+03  0.17120000000E+03 0.  0.
         13    1    1    2    0    0  0.80814486928E+01 -0.14148338638E+02  0.47298878339E+02  0.50026796373E+02  0.10566000000E+00 0. -1.
        994    1    1    2    0    0  0.37461614592E+01 -0.60466178492E+01  0.31275613463E+01  0.17137624384E+03  0.17120000000E+03 0.  0.
        998    1    1    2    0    0 -0.11827610152E+02  0.20194956488E+02  0.14495735566E+04  0.14497969598E+04  0.10000000000E+02 0. -1.
</event>
<event>
 5    1  0.1087513E-008  0.3819701E+03  0.7957747E-01  0.3442625E+00
         13   -1    0    0    0    0  0.00000000000E+00  0.00000000000E+00  0.14999999963E+04  0.15000000000E+04  0.10566000000E+00 0. -1.
        994   -1    0    0    0    0 -0.00000000000E+00 -0.00000000000E+00  0.11368683772E-12  0.17120000000E+03  0.17120000000E+03 0.  0.
         13    1    1    2    0    0  0.24009530847E+02 -0.10924055693E+02  0.10208723669E+03  0.10544006649E+03  0.10566000000E+00 0. -1.
        994    1    1    2    0    0 -0.26096732791E+02  0.11513293114E+02  0.58488458303E+01  0.17365841292E+03  0.17120000000E+03 0.  0.
        998    1    1    2    0    0  0.20872019441E+01 -0.58923742051E+00  0.13920639138E+04  0.13921015206E+04  0.10000000000E+02 0. -1.
</event>
<event>
 5    1  0.1087513E-008  0.3737986E+03  0.7957747E-01  0.3478613E+00
         13   -1    0    0    0    0  0.00000000000E+00  0.00000000000E+00  0.14999999963E+04  0.15000000000E+04  0.10566000000E+00 0. -1.
        994   -1    0    0    0    0 -0.00000000000E+00 -0.00000000000E+00  0.11368683772E-12  0.17120000000E+03  0.17120000000E+03 0.  0.
         13    1    1    2    0    0 -0.38448413848E+02  0.17437556811E+02  0.63245406632E+02  0.76041709207E+02  0.10566000000E+00 0. -1.
        994    1    1    2    0    0  0.29270959278E+02 -0.14833760261E+02  0.16786531386E+02  0.17512297718E+03  0.17120000000E+03 0.  0.
        998    1    1    2    0    0  0.91774545704E+01 -0.26037965502E+01  0.14199680583E+04  0.14200353136E+04  0.10000000000E+02 0. -1.
</event>
<event>
 5    1  0.1087513E-008  0.3851580E+03  0.7957747E-01  0.3429002E+00
         13   -1    0    0    0    0  0.00000000000E+00  0.00000000000E+00  0.14999999963E+04  0.15000000000E+04  0.10566000000E+00 0.  1.
        994   -1    0    0    0    0 -0.00000000000E+00 -0.00000000000E+00  0.11368683772E-12  0.17120000000E+03  0.17120000000E+03 0.  0.
         13    1    1    2    0    0  0.14817766337E+02 -0.25486778825E+01  0.74553613608E+02  0.76054680488E+02  0.10566000000E+00 0.  1.
        994    1    1    2    0    0 -0.65376342562E+01  0.19759036961E+01  0.17050319740E+01  0.17134465848E+03  0.17120000000E+03 0.  0.
        998    1    1    2    0    0 -0.82801320813E+01  0.57277418644E+00  0.14237413507E+04  0.14238006610E+04  0.10000000000E+02 0.  1.
</event>
<event>
 5    1  0.1087513E-008  0.3790814E+03  0.7957747E-01  0.3455168E+00
         13   -1    0    0    0    0  0.00000000000E+00  0.00000000000E+00  0.14999999963E+04  0.15000000000E+04  0.10566000000E+00 0.  1.
        994   -1    0    0    0    0 -0.00000000000E+00 -0.00000000000E+00  0.11368683772E-12  0.17120000000E+03  0.17120000000E+03 0.  0.
         13    1    1    2    0    0  0.50220860050E+02  0.69765004033E+02  0.21569570142E+03  0.23219374959E+03  0.10566000000E+00 0.  1.
        994    1    1    2    0    0 -0.29613194762E+02 -0.59558125090E+02  0.31979318711E+02  0.18643022393E+03  0.17120000000E+03 0.  0.
        998    1    1    2    0    0 -0.20607665288E+02 -0.10206878943E+02  0.12523249761E+04  0.12525760265E+04  0.10000000000E+02 0.  1.
</event>
<event>
 5    1  0.1087513E-008  0.3799585E+03  0.7957747E-01  0.3451339E+00
         13   -1    0    0    0    0  0.00000000000E+00  0.00000000000E+00  0.14999999963E+04  0.15000000000E+04  0.10566000000E+00 0. -1.
        994   -1    0    0    0    0 -0.00000000000E+00 -0.00000000000E+00  0.11368683772E-12  0.17120000000E+03  0.17120000000E+03 0.  0.
         13    1    1    2    0    0 -0.16870489578E+01 -0.32193385152E+02  0.11096506512E+03  0.11555309179E+03  0.10566000000E+00 0. -1.
        994    1    1    2    0    0  0.25215887336E+02  0.38823763808E+02  0.11352881695E+02  0.17771171468E+03  0.17120000000E+03 0.  0.
        998    1    1    2    0    0 -0.23528838378E+02 -0.66303786554E+01  0.13776820495E+04  0.13779351935E+04  0.10000000000E+02 0. -1.
</event>
<event>
 5    1  0.1087513E-008  0.3764505E+03  0.7957747E-01  0.3466761E+00
         13   -1    0    0    0    0  0.00000000000E+00  0.00000000000E+00  0.14999999963E+04  0.15000000000E+04  0.10566000000E+00 0.  1.
        994   -1    0    0    0    0 -0.00000000000E+00 -0.00000000000E+00  0.11368683772E-12  0.17120000000E+03  0.17120000000E+03 0.  0.
         13    1    1    2    0    0 -0.61702030144E+02 -0.84799049587E+01  0.25999233594E+03  0.26734822839E+03  0.10566000000E+00 0.  1.
        994    1    1    2    0    0  0.66208948046E+02  0.10671789671E+02  0.21303982191E+02  0.18509676268E+03  0.17120000000E+03 0.  0.
        998    1    1    2    0    0 -0.45069179020E+01 -0.21918847122E+01  0.12187036782E+04  0.12187550089E+04  0.10000000000E+02 0.  1.
</event>
<event>
 5    1  0.1087513E-008  0.3855774E+03  0.7957747E-01  0.3427227E+00
         13   -1    0    0    0    0  0.00000000000E+00  0.00000000000E+00  0.14999999963E+04  0.15000000000E+04  0.10566000000E+00 0.  1.
        994   -1    0    0    0    0 -0.00000000000E+00 -0.00000000000E+00  0.11368683772E-12  0.17120000000E+03  0.17120000000E+03 0.  0.
         13    1    1    2    0    0  0.12128106764E+02 -0.63704641085E+01  0.74945657933E+02  0.76187509434E+02  0.10566000000E+00 0.  1.
        994    1    1    2    0    0  0.32468686718E+01  0.73830191401E+01  0.15573146295E+01  0.17139695551E+03  0.17120000000E+03 0.  0.
        998    1    1    2    0    0 -0.15374975436E+02 -0.10125550315E+01  0.14234970237E+04  0.14236155351E+04  0.10000000000E+02 0.  1.
</event>
<event>
 5    1  0.1087513E-008  0.3842640E+03  0.7957747E-01  0.3432800E+00
         13   -1    0    0    0    0  0.00000000000E+00  0.00000000000E+00  0.14999999963E+04  0.15000000000E+04  0.10566000000E+00 0. -1.
        994   -1    0    0    0    0 -0.00000000000E+00 -0.00000000000E+00  0.11368683772E-12  0.17120000000E+03  0.17120000000E+03 0.  0.
         13    1    1    2    0    0  0.10681046273E+02  0.13180832595E+02  0.66267239201E+02  0.68404511933E+02  0.10566000000E+00 0. -1.
        994    1    1    2    0    0 -0.17780780384E+02 -0.17679167167E+02  0.40712787069E+01  0.17307433205E+03  0.17120000000E+03 0.  0.
        998    1    1    2    0    0  0.70997341119E+01  0.44983345719E+01  0.14296614784E+04  0.14297211560E+04  0.10000000000E+02 0. -1.
</event>
<event>
 5    1  0.1087513E-008  0.3710519E+03  0.7957747E-01  0.3491071E+00
         13   -1    0    0    0    0  0.00000000000E+00  0.00000000000E+00  0.14999999963E+04  0.15000000000E+04  0.10566000000E+00 0.  1.
        994   -1    0    0    0    0 -0.00000000000E+00 -0.00000000000E+00  0.11368683772E-12  0.17120000000E+03  0.17120000000E+03 0.  0.
         13    1    1    2    0    0 -0.74966545363E+02  0.29931518527E+02  0.48420431614E+03  0.49088665663E+03  0.10566000000E+00 0.  1.
        994    1    1    2    0    0 -0.10695179096E+02  0.10461304756E+02  0.12281855922E+02  0.17229077090E+03  0.17120000000E+03 0.  0.
        998    1    1    2    0    0  0.85661724459E+02 -0.40392823284E+02  0.10035138242E+04  0.10080225725E+04  0.10000000000E+02 0. -1.
</event>
<event>
 5    1  0.1087513E-008  0.3855291E+03  0.7957747E-01  0.3427431E+00
         13   -1    0    0    0    0  0.00000000000E+00  0.00000000000E+00  0.14999999963E+04  0.15000000000E+04  0.10566000000E+00 0.  1.
        994   -1    0    0    0    0 -0.00000000000E+00 -0.00000000000E+00  0.11368683772E-12  0.17120000000E+03  0.17120000000E+03 0.  0.
         13    1    1    2    0    0 -0.10325800517E+02 -0.89060860762E+01  0.73251417229E+02  0.74509877302E+02  0.10566000000E+00 0.  1.
        994    1    1    2    0    0  0.50028609522E+01 -0.62068903568E+01  0.15763686868E+01  0.17139276252E+03  0.17120000000E+03 0.  0.
        998    1    1    2    0    0  0.53229395647E+01  0.15112976433E+02  0.14251722104E+04  0.14252973602E+04  0.10000000000E+02 0.  1.
</event>
<event>
 5    1  0.1087513E-008  0.3733128E+03  0.7957747E-01  0.3480803E+00
         13   -1    0    0    0    0  0.00000000000E+00  0.00000000000E+00  0.14999999963E+04  0.15000000000E+04  0.10566000000E+00 0.  1.
        994   -1    0    0    0    0 -0.00000000000E+00 -0.00000000000E+00  0.11368683772E-12  0.17120000000E+03  0.17120000000E+03 0.  0.
         13    1    1    2    0    0  0.69694891503E+02 -0.12340445149E+02  0.27553351103E+03  0.28447915803E+03  0.10566000000E+00 0.  1.
        994    1    1    2    0    0 -0.62033197420E+02  0.43272982145E+02  0.27364682968E+02  0.18915320362E+03  0.17120000000E+03 0.  0.
        998    1    1    2    0    0 -0.76616940832E+01 -0.30932536995E+02  0.11971018023E+04  0.11975676384E+04  0.10000000000E+02 0.  1.
</event>
<event>
 5    1  0.1087513E-008  0.3794252E+03  0.7957747E-01  0.3453665E+00
         13   -1    0    0    0    0  0.00000000000E+00  0.00000000000E+00  0.14999999963E+04  0.15000000000E+04  0.10566000000E+00 0.  1.
        994   -1    0    0    0    0 -0.00000000000E+00 -0.00000000000E+00  0.11368683772E-12  0.17120000000E+03  0.17120000000E+03 0.  0.
         13    1    1    2    0    0 -0.13855175146E+02 -0.80954868972E+00  0.20207124266E+02  0.24514491277E+02  0.10566000000E+00 0.  1.
        994    1    1    2    0    0  0.41146609861E+01  0.24445144026E+01  0.45003167675E+01  0.17132600193E+03  0.17120000000E+03 0.  0.
        998    1    1    2    0    0  0.97405141602E+01 -0.16349657129E+01  0.14752925552E+04  0.14753595068E+04  0.10000000000E+02 0.  1.
</event>
<event>
 5    1  0.1087513E-008  0.3698717E+03  0.7957747E-01  0.3496481E+00
         13   -1    0    0    0    0  0.00000000000E+00  0.00000000000E+00  0.14999999963E+04  0.15000000000E+04  0.10566000000E+00 0.  1.
        994   -1    0    0    0    0 -0.00000000000E+00 -0.00000000000E+00  0.11368683772E-12  0.17120000000E+03  0.17120000000E+03 0.  0.
         13    1    1    2    0    0 -0.24554999814E+02  0.19424832234E+02  0.39960179226E+02  0.50765137752E+02  0.10566000000E+00 0.  1.
        994    1    1    2    0    0  0.22297404526E+02 -0.19525194886E+02  0.13946650295E+02  0.17430535430E+03  0.17120000000E+03 0.  0.
        998    1    1    2    0    0  0.22575952874E+01  0.10036265213E+00  0.14460931668E+04  0.14461295079E+04  0.10000000000E+02 0.  1.
</event>
<event>
 5    1  0.1087513E-008  0.3761428E+03  0.7957747E-01  0.3468128E+00
         13   -1    0    0    0    0  0.00000000000E+00  0.00000000000E+00  0.14999999963E+04  0.15000000000E+04  0.10566000000E+00 0. -1.
        994   -1    0    0    0    0 -0.00000000000E+00 -0.00000000000E+00  0.11368683772E-12  0.17120000000E+03  0.17120000000E+03 0.  0.
         13    1    1    2    0    0  0.16758566370E+02 -0.34301535479E+02  0.11161864870E+03  0.11796685460E+03  0.10566000000E+00 0. -1.
        994    1    1    2    0    0 -0.16825897981E+02  0.29793817349E+02  0.10067755340E+02  0.17487590484E+03  0.17120000000E+03 0.  0.
        998    1    1    2    0    0  0.67331610815E-01  0.45077181301E+01  0.13783135922E+04  0.13783572406E+04  0.10000000000E+02 0. -1.
</event>
<event>
 5    1  0.1087513E-008  0.3694382E+03  0.7957747E-01  0.3498477E+00
         13   -1    0    0    0    0  0.00000000000E+00  0.00000000000E+00  0.14999999963E+04  0.15000000000E+04  0.10566000000E+00 0.  1.
        994   -1    0    0    0    0 -0.00000000000E+00 -0.00000000000E+00  0.11368683772E-12  0.17120000000E+03  0.17120000000E+03 0.  0.
         13    1    1    2    0    0 -0.90141182440E+02 -0.11306307041E+02  0.38509058609E+03  0.39566151697E+03  0.10566000000E+00 0.  1.
        994    1    1    2    0    0  0.77542343597E+02 -0.47146009554E+02  0.38661849806E+02  0.19758476636E+03  0.17120000000E+03 0.  0.
        998    1    1    2    0    0  0.12598838844E+02  0.58452316595E+02  0.10762475604E+04  0.10779537167E+04  0.10000000000E+02 0.  1.
</event>
<event>
 5    1  0.1087513E-008  0.3808919E+03  0.7957747E-01  0.3447284E+00
         13   -1    0    0    0    0  0.00000000000E+00  0.00000000000E+00  0.14999999963E+04  0.15000000000E+04  0.10566000000E+00 0.  1.
        994   -1    0    0    0    0 -0.00000000000E+00 -0.00000000000E+00  0.11368683772E-12  0.17120000000E+03  0.17120000000E+03 0.  0.
         13    1    1    2    0    0 -0.13348380708E+02 -0.73538063951E+01  0.29669829644E+02  0.33355174878E+02  0.10566000000E+00 0.  1.
        994    1    1    2    0    0  0.10876432339E+02  0.11071700510E+02  0.44868598180E+01  0.17196060957E+03  0.17120000000E+03 0.  0.
        998    1    1    2    0    0  0.24719483690E+01 -0.37178941146E+01  0.14658433068E+04  0.14658842156E+04  0.10000000000E+02 0.  1.
</event>
<event>
 5    1  0.1087513E-008  0.3850552E+03  0.7957747E-01  0.3429438E+00
         13   -1    0    0    0    0  0.00000000000E+00  0.00000000000E+00  0.14999999963E+04  0.15000000000E+04  0.10566000000E+00 0. -1.
        994   -1    0    0    0    0 -0.00000000000E+00 -0.00000000000E+00  0.11368683772E-12  0.17120000000E+03  0.17120000000E+03 0.  0.
         13    1    1    2    0    0  0.12503738197E+02 -0.32599480303E+01  0.57440735851E+02  0.58876311274E+02  0.10566000000E+00 0. -1.
        994    1    1    2    0    0  0.83450124764E+01  0.27400207419E+01  0.18564284028E+01  0.17143521597E+03  0.17120000000E+03 0.  0.
        998    1    1    2    0    0 -0.20848750673E+02  0.51992728840E+00  0.14407028320E+04  0.14408884728E+04  0.10000000000E+02 0. -1.
</event>
<event>
 5    1  0.1087513E-008  0.3857765E+03  0.7957747E-01  0.3426386E+00
         13   -1    0    0    0    0  0.00000000000E+00  0.00000000000E+00  0.14999999963E+04  0.15000000000E+04  0.10566000000E+00 0.  1.
        994   -1    0    0    0    0 -0.00000000000E+00 -0.00000000000E+00  0.11368683772E-12  0.17120000000E+03  0.17120000000E+03 0.  0.
         13    1    1    2    0    0 -0.13830484301E+02  0.45227944154E+01  0.84172702711E+02  0.85421267908E+02  0.10566000000E+00 0.  1.
        994    1    1    2    0    0  0.95469430543E+01 -0.86707561435E+01  0.17909113009E+01  0.17169441895E+03  0.17120000000E+03 0.  0.
        998    1    1    2    0    0  0.42835412470E+01  0.41479617281E+01  0.14140363823E+04  0.14140843131E+04  0.10000000000E+02 0.  1.
</event>
<event>
 5    1  0.1087513E-008  0.3759219E+03  0.7957747E-01  0.3469110E+00
         13   -1    0    0    0    0  0.00000000000E+00  0.00000000000E+00  0.14999999963E+04  0.15000000000E+04  0.10566000000E+00 0.  1.
        994   -1    0    0    0    0 -0.00000000000E+00 -0.00000000000E+00  0.11368683772E-12  0.17120000000E+03  0.17120000000E+03 0.  0.
         13    1    1    2    0    0 -0.50284905009E+02 -0.21359270245E+01  0.14386999065E+03  0.15241955003E+03  0.10566000000E+00 0.  1.
        994    1    1    2    0    0  0.96068175284E+02  0.13153183390E+02  0.38763515318E+02  0.20053466198E+03  0.17120000000E+03 0.  0.
        998    1    1    2    0    0 -0.45783270275E+02 -0.11017256365E+02  0.13173664903E+04  0.13182457880E+04  0.10000000000E+02 0.  1.
</event>
<event>
 5    1  0.1087513E-008  0.3754343E+03  0.7957747E-01  0.3471283E+00
         13   -1    0    0    0    0  0.00000000000E+00  0.00000000000E+00  0.14999999963E+04  0.15000000000E+04  0.10566000000E+00 0. -1.
        994   -1    0    0    0    0 -0.00000000000E+00 -0.00000000000E+00  0.11368683772E-12  0.17120000000E+03  0.17120000000E+03 0.  0.
         13    1    1    2    0    0  0.17342176988E+02 -0.39522206964E+02  0.15976625966E+03  0.16549327731E+03  0.10566000000E+00 0. -1.
        994    1    1    2    0    0 -0.34687229384E+01  0.28319283768E+01  0.65239628288E+01  0.17138277028E+03  0.17120000000E+03 0.  0.
        998    1    1    2    0    0 -0.13873454049E+02  0.36690278587E+02  0.13337097738E+04  0.13343239524E+04  0.10000000000E+02 0. -1.
</event>
<event>
 5    1  0.1087513E-008  0.3762928E+03  0.7957747E-01  0.3467461E+00
         13   -1    0    0    0    0  0.00000000000E+00  0.00000000000E+00  0.14999999963E+04  0.15000000000E+04  0.10566000000E+00 0.  1.
        994   -1    0    0    0    0 -0.00000000000E+00 -0.00000000000E+00  0.11368683772E-12  0.17120000000E+03  0.17120000000E+03 0.  0.
         13    1    1    2    0    0  0.96377083556E+01  0.12952997374E+02  0.24360170465E+01  0.16328224227E+02  0.10566000000E+00 0.  1.
        994    1    1    2    0    0 -0.12952886090E+02 -0.22908199505E+02  0.16785420907E+02  0.17402227793E+03  0.17120000000E+03 0.  0.
        998    1    1    2    0    0  0.33151777340E+01  0.99552021311E+01  0.14807785583E+04  0.14808494978E+04  0.10000000000E+02 0.  1.
</event>
<event>
 5    1  0.1087513E-008  0.3765756E+03  0.7957747E-01  0.3466206E+00
         13   -1    0    0    0    0  0.00000000000E+00  0.00000000000E+00  0.14999999963E+04  0.15000000000E+04  0.10566000000E+00 0.  1.
        994   -1    0    0    0    0 -0.00000000000E+00 -0.00000000000E+00  0.11368683772E-12  0.17120000000E+03  0.17120000000E+03 0.  0.
         13    1    1    2    0    0 -0.29610348019E+01  0.24966012206E+02  0.51165695510E+02  0.57008850660E+02  0.10566000000E+00 0.  1.
        994    1    1    2    0    0 -0.46923780096E+01 -0.19378423899E+02  0.72171480198E+01  0.17250817068E+03  0.17120000000E+03 0.  0.
        998    1    1    2    0    0  0.76534128116E+01 -0.55875883067E+01  0.14416171527E+04  0.14416829787E+04  0.10000000000E+02 0.  1.
</event>
<event>
 5    1  0.1087513E-008  0.3760402E+03  0.7957747E-01  0.3468584E+00
         13   -1    0    0    0    0  0.00000000000E+00  0.00000000000E+00  0.14999999963E+04  0.15000000000E+04  0.10566000000E+00 0.  1.
        994   -1    0    0    0    0 -0.00000000000E+00 -0.00000000000E+00  0.11368683772E-12  0.17120000000E+03  0.17120000000E+03 0.  0.
         13    1    1    2    0    0  0.85770528527E+02  0.45578104692E+02  0.50158560757E+03  0.51090320030E+03  0.10566000000E+00 0.  1.
        994    1    1    2    0    0 -0.97005711841E+02 -0.26468228073E+02  0.41201389345E+02  0.20277492377E+03  0.17120000000E+03 0.  0.
        998    1    1    2    0    0  0.11235183315E+02 -0.19109876619E+02  0.95721299936E+03  0.95752187592E+03  0.10000000000E+02 0.  1.
</event>
<event>
 5    1  0.1087513E-008  0.3857961E+03  0.7957747E-01  0.3426303E+00
         13   -1    0    0    0    0  0.00000000000E+00  0.00000000000E+00  0.14999999963E+04  0.15000000000E+04  0.10566000000E+00 0.  1.
        994   -1    0    0    0    0 -0.00000000000E+00 -0.00000000000E+00  0.11368683772E-12  0.17120000000E+03  0.17120000000E+03 0.  0.
         13    1    1    2    0    0  0.82029604918E+01 -0.73046325269E+01  0.51396680269E+02  0.52557360321E+02  0.10566000000E+00 0.  1.
        994    1    1    2    0    0 -0.76714237214E+01 -0.72224219444E+01  0.15996214787E+01  0.17153137587E+03  0.17120000000E+03 0.  0.
        998    1    1    2    0    0 -0.53153677036E+00  0.14527054471E+02  0.14470036945E+04  0.14471112638E+04  0.10000000000E+02 0.  1.
</event>
<event>
 5    1  0.1087513E-008  0.3766324E+03  0.7957747E-01  0.3465954E+00
         13   -1    0    0    0    0  0.00000000000E+00  0.00000000000E+00  0.14999999963E+04  0.15000000000E+04  0.10566000000E+00 0. -1.
        994   -1    0    0    0    0 -0.00000000000E+00 -0.00000000000E+00  0.11368683772E-12  0.17120000000E+03  0.17120000000E+03 0.  0.
         13    1    1    2    0    0 -0.28651578042E+01 -0.17222843850E+02  0.23418605581E+02  0.29210918009E+02  0.10566000000E+00 0. -1.
        994    1    1    2    0    0  0.87523387220E+01  0.14338363817E+02  0.67973775828E+01  0.17215643018E+03  0.17120000000E+03 0.  0.
        998    1    1    2    0    0 -0.58871809178E+01  0.28844800333E+01  0.14697840131E+04  0.14698326518E+04  0.10000000000E+02 0. -1.
</event>
<event>
 5    1  0.1087513E-008  0.3779144E+03  0.7957747E-01  0.3460290E+00
         13   -1    0    0    0    0  0.00000000000E+00  0.00000000000E+00  0.14999999963E+04  0.15000000000E+04  0.10566000000E+00 0.  1.
        994   -1    0    0    0    0 -0.00000000000E+00 -0.00000000000E+00  0.11368683772E-12  0.17120000000E+03  0.17120000000E+03 0.  0.
         13    1    1    2    0    0  0.15545212758E+02  0.35750523176E+01  0.21971462863E+02  0.27151261170E+02  0.10566000000E+00 0.  1.
        994    1    1    2    0    0 -0.16902004264E+02 -0.37204321222E+01  0.61985475944E+01  0.17218414955E+03  0.17120000000E+03 0.  0.
        998    1    1    2    0    0  0.13567915060E+01  0.14537980460E+00  0.14718299858E+04  0.14718645893E+04  0.10000000000E+02 0.  1.
</event>
<event>
 5    1  0.1087513E-008  0.3857453E+03  0.7957747E-01  0.3426517E+00
         13   -1    0    0    0    0  0.00000000000E+00  0.00000000000E+00  0.14999999963E+04  0.15000000000E+04  0.10566000000E+00 0.  1.
        994   -1    0    0    0    0 -0.00000000000E+00 -0.00000000000E+00  0.11368683772E-12  0.17120000000E+03  0.17120000000E+03 0.  0.
         13    1    1    2    0    0  0.86337538990E+01  0.10834247995E+02  0.78589792324E+02  0.79801561749E+02  0.10566000000E+00 0.  1.
        994    1    1    2    0    0 -0.45597353147E+01 -0.41303358033E+01  0.13847504888E+01  0.17131610664E+03  0.17120000000E+03 0.  0.
        998    1    1    2    0    0 -0.40740185844E+01 -0.67039121918E+01  0.14200254535E+04  0.14200823316E+04  0.10000000000E+02 0.  1.
</event>
<event>
 5    1  0.1087513E-008  0.3848620E+03  0.7957747E-01  0.3430258E+00
         13   -1    0    0    0    0  0.00000000000E+00  0.00000000000E+00  0.14999999963E+04  0.15000000000E+04  0.10566000000E+00 0.  1.
        994   -1    0    0    0    0 -0.00000000000E+00 -0.00000000000E+00  0.11368683772E-12  0.17120000000E+03  0.17120000000E+03 0.  0.
         13    1    1    2    0    0  0.56233572538E+01 -0.12323397552E+02  0.56510540503E+02  0.58111450042E+02  0.10566000000E+00 0.  1.
        994    1    1    2    0    0 -0.61638777391E+01 -0.17131356803E+01  0.18333191171E+01  0.17132930071E+03  0.17120000000E+03 0.  0.
        998    1    1    2    0    0  0.54052048532E+00  0.14036533232E+02  0.14416561367E+04  0.14417592492E+04  0.10000000000E+02 0.  1.
</event>
<event>
 5    1  0.1087513E-008  0.3690181E+03  0.7957747E-01  0.3500416E+00
         13   -1    0    0    0    0  0.00000000000E+00  0.00000000000E+00  0.14999999963E+04  0.15000000000E+04  0.10566000000E+00 0.  1.
        994   -1    0    0    0    0 -0.00000000000E+00 -0.00000000000E+00  0.11368683772E-12  0.17120000000E+03  0.17120000000E+03 0.  0.
         13    1    1    2    0    0 -0.23517370345E+02  0.93705167756E+02  0.44962814319E+03  0.45989042552E+03  0.10566000000E+00 0.  1.
        994    1    1    2    0    0  0.10905450328E+02 -0.53468433693E+02  0.20868229558E+02  0.18089423776E+03  0.17120000000E+03 0.  0.
        998    1    1    2    0    0  0.12611920017E+02 -0.40236734063E+02  0.10295036235E+04  0.10304153367E+04  0.10000000000E+02 0.  1.
</event>
<event>
 5    1  0.1087513E-008  0.3849712E+03  0.7957747E-01  0.3429794E+00
         13   -1    0    0    0    0  0.00000000000E+00  0.00000000000E+00  0.14999999963E+04  0.15000000000E+04  0.10566000000E+00 0.  1.
        994   -1    0    0    0    0 -0.00000000000E+00 -0.00000000000E+00  0.11368683772E-12  0.17120000000E+03  0.17120000000E+03 0.  0.
         13    1    1    2    0    0  0.12253868646E+02  0.25789000947E+00  0.45891666196E+02  0.47500315728E+02  0.10566000000E+00 0.  1.
        994    1    1    2    0    0 -0.69009571037E+01 -0.24762072379E+01  0.18212330591E+01  0.17136660031E+03  0.17120000000E+03 0.  0.
        998    1    1    2    0    0 -0.53529115423E+01  0.22183172284E+01  0.14522870970E+04  0.14523330840E+04  0.10000000000E+02 0.  1.
</event>
<event>
 5    1  0.1087513E-008  0.3799695E+03  0.7957747E-01  0.3451291E+00
         13   -1    0    0    0    0  0.00000000000E+00  0.00000000000E+00  0.14999999963E+04  0.15000000000E+04  0.10566000000E+00 0.  1.
        994   -1    0    0    0    0 -0.00000000000E+00 -0.00000000000E+00  0.11368683772E-12  0.17120000000E+03  0.17120000000E+03 0.  0.
         13    1    1    2    0    0 -0.27880171971E+01 -0.10094028822E+02  0.11766128912E+02  0.15751679636E+02  0.10566000000E+00 0.  1.
        994    1    1    2    0    0 -0.14743664884E+02 -0.22965339046E+01  0.48932807307E+01  0.17191868403E+03  0.17120000000E+03 0.  0.
        998    1    1    2    0    0  0.17531682081E+02  0.12390562726E+02  0.14833405866E+04  0.14835296363E+04  0.10000000000E+02 0.  1.
</event>
<event>
 5    1  0.1087513E-008  0.3769502E+03  0.7957747E-01  0.3464547E+00
         13   -1    0    0    0    0  0.00000000000E+00  0.00000000000E+00  0.14999999963E+04  0.15000000000E+04  0.10566000000E+00 0.  1.
        994   -1    0    0    0    0 -0.00000000000E+00 -0.00000000000E+00  0.11368683772E-12  0.17120000000E+03  0.17120000000E+03 0.  0.
         13    1    1    2    0    0  0.70523250352E+01  0.17168220579E+02  0.28151553648E+02  0.33719493221E+02  0.10566000000E+00 0.  1.
        994    1    1    2    0    0 -0.22188919100E+01 -0.10405217932E+02  0.60630025221E+01  0.17163738532E+03  0.17120000000E+03 0.  0.
        998    1    1    2    0    0 -0.48334331252E+01 -0.67630026468E+01  0.14657854401E+04  0.14658431215E+04  0.10000000000E+02 0.  1.
</event>
<event>
 5    1  0.1087513E-008  0.3836741E+03  0.7957747E-01  0.3435315E+00
         13   -1    0    0    0    0  0.00000000000E+00  0.00000000000E+00  0.14999999963E+04  0.15000000000E+04  0.10566000000E+00 0.  1.
        994   -1    0    0    0    0 -0.00000000000E+00 -0.00000000000E+00  0.11368683772E-12  0.17120000000E+03  0.17120000000E+03 0.  0.
         13    1    1    2    0    0  0.11037265357E+02 -0.53385284154E+01  0.32147281808E+02  0.34406104166E+02  0.10566000000E+00 0.  1.
        994    1    1    2    0    0 -0.63051733201E+01  0.61592383387E+01  0.25464761631E+01  0.17144566477E+03  0.17120000000E+03 0.  0.
        998    1    1    2    0    0 -0.47320920369E+01 -0.82070992326E+00  0.14653062383E+04  0.14653482311E+04  0.10000000000E+02 0.  1.
</event>
<event>
 5    1  0.1087513E-008  0.3841327E+03  0.7957747E-01  0.3433359E+00
         13   -1    0    0    0    0  0.00000000000E+00  0.00000000000E+00  0.14999999963E+04  0.15000000000E+04  0.10566000000E+00 0.  1.
        994   -1    0    0    0    0 -0.00000000000E+00 -0.00000000000E+00  0.11368683772E-12  0.17120000000E+03  0.17120000000E+03 0.  0.
         13    1    1    2    0    0 -0.60721210305E+01  0.10734331662E+02  0.38035827841E+02  0.39985396004E+02  0.10566000000E+00 0.  1.
        994    1    1    2    0    0 -0.76990878054E+01 -0.26223073564E+01  0.22795675752E+01  0.17140825207E+03  0.17120000000E+03 0.  0.
        998    1    1    2    0    0  0.13771208836E+02 -0.81120243057E+01  0.14596846009E+04  0.14598063519E+04  0.10000000000E+02 0.  1.
</event>
<event>
 5    1  0.1087513E-008  0.3759332E+03  0.7957747E-01  0.3469060E+00
         13   -1    0    0    0    0  0.00000000000E+00  0.00000000000E+00  0.14999999963E+04  0.15000000000E+04  0.10566000000E+00 0.  1.
        994   -1    0    0    0    0 -0.00000000000E+00 -0.00000000000E+00  0.11368683772E-12  0.17120000000E+03  0.17120000000E+03 0.  0.
         13    1    1    2    0    0  0.14325328465E+02 -0.51796411043E+02  0.91343845884E+02  0.10598015181E+03  0.10566000000E+00 0.  1.
        994    1    1    2    0    0 -0.16134869956E+02  0.53324166864E+02  0.25277026825E+02  0.18180255467E+03  0.17120000000E+03 0.  0.
        998    1    1    2    0    0  0.18095414903E+01 -0.15277558209E+01  0.13833791236E+04  0.13834172935E+04  0.10000000000E+02 0.  1.
</event>
<event>
 5    1  0.1087513E-008  0.3839239E+03  0.7957747E-01  0.3434249E+00
         13   -1    0    0    0    0  0.00000000000E+00  0.00000000000E+00  0.14999999963E+04  0.15000000000E+04  0.10566000000E+00 0.  1.
        994   -1    0    0    0    0 -0.00000000000E+00 -0.00000000000E+00  0.11368683772E-12  0.17120000000E+03  0.17120000000E+03 0.  0.
         13    1    1    2    0    0 -0.21257152175E+01  0.14240933257E+02  0.47794809140E+02  0.49916708525E+02  0.10566000000E+00 0.  1.
        994    1    1    2    0    0  0.29003044899E+01 -0.73714599533E+01  0.23724504282E+01  0.17139958783E+03  0.17120000000E+03 0.  0.
        998    1    1    2    0    0 -0.77458927232E+00 -0.68694733033E+01  0.14498327367E+04  0.14498837036E+04  0.10000000000E+02 0.  1.
</event>
<event>
 5    1  0.1087513E-008  0.3852316E+03  0.7957747E-01  0.3428691E+00
         13   -1    0    0    0    0  0.00000000000E+00  0.00000000000E+00  0.14999999963E+04  0.15000000000E+04  0.10566000000E+00 0. -1.
        994   -1    0    0    0    0 -0.00000000000E+00 -0.00000000000E+00  0.11368683772E-12  0.17120000000E+03  0.17120000000E+03 0.  0.
         13    1    1    2    0    0 -0.11807545993E+02  0.12283406103E+02  0.92593916947E+02  0.94148525360E+02  0.10566000000E+00 0. -1.
        994    1    1    2    0    0  0.62818937466E+01 -0.15747187745E+02  0.24603469530E+01  0.17205501858E+03  0.17120000000E+03 0.  0.
        998    1    1    2    0    0  0.55256522467E+01  0.34637816424E+01  0.14049457324E+04  0.14049964561E+04  0.10000000000E+02 0. -1.
</event>
<event>
 5    1  0.1087513E-008  0.3844842E+03  0.7957747E-01  0.3431863E+00
         13   -1    0    0    0    0  0.00000000000E+00  0.00000000000E+00  0.14999999963E+04  0.15000000000E+04  0.10566000000E+00 0. -1.
        994   -1    0    0    0    0 -0.00000000000E+00 -0.00000000000E+00  0.11368683772E-12  0.17120000000E+03  0.17120000000E+03 0.  0.
         13    1    1    2    0    0 -0.79361744702E+01 -0.77756478820E+01  0.31237436730E+02  0.33154670601E+02  0.10566000000E+00 0. -1.
        994    1    1    2    0    0  0.23118314731E+02 -0.11245467720E+01  0.36531886104E+01  0.17279614252E+03  0.17120000000E+03 0.  0.
        998    1    1    2    0    0 -0.15182140260E+02  0.89001946540E+01  0.14651093709E+04  0.14652491869E+04  0.10000000000E+02 0. -1.
</event>
<event>
 5    1  0.1087513E-008  0.3854323E+03  0.7957747E-01  0.3427841E+00
         13   -1    0    0    0    0  0.00000000000E+00  0.00000000000E+00  0.14999999963E+04  0.15000000000E+04  0.10566000000E+00 0. -1.
        994   -1    0    0    0    0 -0.00000000000E+00 -0.00000000000E+00  0.11368683772E-12  0.17120000000E+03  0.17120000000E+03 0.  0.
         13    1    1    2    0    0 -0.31429642858E+01  0.13185821342E+02  0.65185223300E+02  0.66579791301E+02  0.10566000000E+00 0. -1.
        994    1    1    2    0    0 -0.99589154147E+00 -0.94613822919E+01  0.17129602408E+01  0.17147269108E+03  0.17120000000E+03 0.  0.
        998    1    1    2    0    0  0.41388558273E+01 -0.37244390498E+01  0.14331018127E+04  0.14331475176E+04  0.10000000000E+02 0. -1.
</event>
<event>
 5    1  0.1087513E-008  0.3844795E+03  0.7957747E-01  0.3431883E+00
         13   -1    0    0    0    0  0.00000000000E+00  0.00000000000E+00  0.14999999963E+04  0.15000000000E+04  0.10566000000E+00 0.  1.
        994   -1    0    0    0    0 -0.00000000000E+00 -0.00000000000E+00  0.11368683772E-12  0.17120000000E+03  0.17120000000E+03 0.  0.
         13    1    1    2    0    0 -0.73817363371E+01  0.75936032589E+01  0.29374812695E+02  0.31225688571E+02  0.10566000000E+00 0.  1.
        994    1    1    2    0    0  0.63652089610E+01 -0.24883461416E+01  0.20426780367E+01  0.17134853453E+03  0.17120000000E+03 0.  0.
        998    1    1    2    0    0  0.10165273760E+01 -0.51052571173E+01  0.14685825055E+04  0.14686257769E+04  0.10000000000E+02 0.  1.
</event>
<event>
 5    1  0.1087513E-008  0.3768128E+03  0.7957747E-01  0.3465155E+00
         13   -1    0    0    0    0  0.00000000000E+00  0.00000000000E+00  0.14999999963E+04  0.15000000000E+04  0.10566000000E+00 0. -1.
        994   -1    0    0    0    0 -0.00000000000E+00 -0.00000000000E+00  0.11368683772E-12  0.17120000000E+03  0.17120000000E+03 0.  0.
         13    1    1    2    0    0 -0.33432964554E+02 -0.52369853009E+02  0.28718927449E+03  0.29383337995E+03  0.10566000000E+00 0. -1.
        994    1    1    2    0    0  0.91854595432E+02  0.15364953268E+02  0.35639730034E+02  0.19812364535E+03  0.17120000000E+03 0.  0.
        998    1    1    2    0    0 -0.58421630878E+02  0.37004899741E+02  0.11771709918E+04  0.11792429747E+04  0.10000000000E+02 0. -1.
</event>
<event>
 5    1  0.1087513E-008  0.3844462E+03  0.7957747E-01  0.3432024E+00
         13   -1    0    0    0    0  0.00000000000E+00  0.00000000000E+00  0.14999999963E+04  0.15000000000E+04  0.10566000000E+00 0. -1.
        994   -1    0    0    0    0 -0.00000000000E+00 -0.00000000000E+00  0.11368683772E-12  0.17120000000E+03  0.17120000000E+03 0.  0.
         13    1    1    2    0    0  0.10983531285E+02 -0.88264941291E+01  0.52271780982E+02  0.54137742927E+02  0.10566000000E+00 0. -1.
        994    1    1    2    0    0 -0.16086135492E+01  0.10343008819E+02  0.22664123323E+01  0.17153466732E+03  0.17120000000E+03 0.  0.
        998    1    1    2    0    0 -0.93749177359E+01 -0.15165146896E+01  0.14454618030E+04  0.14455275897E+04  0.10000000000E+02 0. -1.
</event>
<event>
 5    1  0.1087513E-008  0.3735851E+03  0.7957747E-01  0.3479575E+00
         13   -1    0    0    0    0  0.00000000000E+00  0.00000000000E+00  0.14999999963E+04  0.15000000000E+04  0.10566000000E+00 0. -1.
        994   -1    0    0    0    0 -0.00000000000E+00 -0.00000000000E+00  0.11368683772E-12  0.17120000000E+03  0.17120000000E+03 0.  0.
         13    1    1    2    0    0  0.95666043277E+01 -0.28204864467E+02  0.54849459637E+02  0.62414010322E+02  0.10566000000E+00 0. -1.
        994    1    1    2    0    0 -0.62013504027E+01  0.31434676017E+02  0.10921504978E+02  0.17451451193E+03  0.17120000000E+03 0.  0.
        998    1    1    2    0    0 -0.33652539250E+01 -0.32298115500E+01  0.14342290317E+04  0.14342714777E+04  0.10000000000E+02 0. -1.
</event>
<event>
 5    1  0.1087513E-008  0.3751300E+03  0.7957747E-01  0.3472642E+00
         13   -1    0    0    0    0  0.00000000000E+00  0.00000000000E+00  0.14999999963E+04  0.15000000000E+04  0.10566000000E+00 0.  1.
        994   -1    0    0    0    0 -0.00000000000E+00 -0.00000000000E+00  0.11368683772E-12  0.17120000000E+03  0.17120000000E+03 0.  0.
         13    1    1    2    0    0 -0.75350060817E+01  0.71491890307E+01  0.50594757231E+01  0.11554076297E+02  0.10566000000E+00 0.  1.
        994    1    1    2    0    0  0.68235773035E+01 -0.91483362512E+01  0.70546737039E+01  0.17172495941E+03  0.17120000000E+03 0.  0.
        998    1    1    2    0    0  0.71142877812E+00  0.19991472205E+01  0.14878858469E+04  0.14879209643E+04  0.10000000000E+02 0.  1.
</event>
<event>
 5    1  0.1087513E-008  0.4214069E+03  0.7957747E-01  0.3288565E+00
         13   -1    0    0    0    0  0.00000000000E+00  0.00000000000E+00  0.14999999963E+04  0.15000000000E+04  0.10566000000E+00 0.  1.
        994   -1    0    0    0    0 -0.00000000000E+00 -0.00000000000E+00  0.11368683772E-12  0.17120000000E+03  0.17120000000E+03 0.  0.
         13    1    1    2    0    0 -0.15097086580E+02  0.30992195489E+02 -0.23242788509E+01  0.34552158264E+02  0.10566000000E+00 0.  1.
        994    1    1    2    0    0  0.55811658973E+02 -0.33194501847E+01  0.54798333694E+02  0.18825051767E+03  0.17120000000E+03 0.  0.
        998    1    1    2    0    0 -0.40714572392E+02 -0.27672745304E+02  0.14475259414E+04  0.14483973241E+04  0.10000000000E+02 0.  1.
</event>
<event>
 5    1  0.1087513E-008  0.3848336E+03  0.7957747E-01  0.3430378E+00
         13   -1    0    0    0    0  0.00000000000E+00  0.00000000000E+00  0.14999999963E+04  0.15000000000E+04  0.10566000000E+00 0.  1.
        994   -1    0    0    0    0 -0.00000000000E+00 -0.00000000000E+00  0.11368683772E-12  0.17120000000E+03  0.17120000000E+03 0.  0.
         13    1    1    2    0    0 -0.97477618162E+01  0.14061220920E+02  0.82858470663E+02  0.84606584370E+02  0.10566000000E+00 0.  1.
        994    1    1    2    0    0  0.60294943238E+01 -0.14609197106E+02  0.25350969283E+01  0.17194664916E+03  0.17120000000E+03 0.  0.
        998    1    1    2    0    0  0.37182674924E+01  0.54797618507E+00  0.14146064287E+04  0.14146467665E+04  0.10000000000E+02 0.  1.
</event>
<event>
 5    1  0.1087513E-008  0.3687211E+03  0.7957747E-01  0.3501789E+00
         13   -1    0    0    0    0  0.00000000000E+00  0.00000000000E+00  0.14999999963E+04  0.15000000000E+04  0.10566000000E+00 0. -1.
        994   -1    0    0    0    0 -0.00000000000E+00 -0.00000000000E+00  0.11368683772E-12  0.17120000000E+03  0.17120000000E+03 0.  0.
         13    1    1    2    0    0 -0.15242834822E+03  0.51504706250E+02  0.65537957589E+03  0.67484037799E+03  0.10566000000E+00 0. -1.
        994    1    1    2    0    0  0.14174094235E+03 -0.83150773432E+02  0.11112467443E+03  0.26203564477E+03  0.17120000000E+03 0.  0.
        998    1    1    2    0    0  0.10687405871E+02  0.31646067182E+02  0.73349574596E+03  0.73432397724E+03  0.10000000000E+02 0. -1.
</event>
<event>
 5    1  0.1087513E-008  0.3837121E+03  0.7957747E-01  0.3435153E+00
         13   -1    0    0    0    0  0.00000000000E+00  0.00000000000E+00  0.14999999963E+04  0.15000000000E+04  0.10566000000E+00 0. -1.
        994   -1    0    0    0    0 -0.00000000000E+00 -0.00000000000E+00  0.11368683772E-12  0.17120000000E+03  0.17120000000E+03 0.  0.
         13    1    1    2    0    0  0.19426392546E+03 -0.36364083004E+02  0.10663883189E+04  0.10845482364E+04  0.10566000000E+00 0. -1.
        994    1    1    2    0    0 -0.20479323967E+03  0.36043482144E+02  0.16130016792E+03  0.31395316177E+03  0.17120000000E+03 0.  0.
        998    1    1    2    0    0  0.10529314206E+02  0.32060086062E+00  0.27231150945E+03  0.27269860179E+03  0.10000000000E+02 0.  1.
</event>
<event>
 5    1  0.1087513E-008  0.3843748E+03  0.7957747E-01  0.3432328E+00
         13   -1    0    0    0    0  0.00000000000E+00  0.00000000000E+00  0.14999999963E+04  0.15000000000E+04  0.10566000000E+00 0. -1.
        994   -1    0    0    0    0 -0.00000000000E+00 -0.00000000000E+00  0.11368683772E-12  0.17120000000E+03  0.17120000000E+03 0.  0.
         13    1    1    2    0    0 -0.68859421623E+01 -0.11867175433E+02  0.47632735414E+02  0.49569493636E+02  0.10566000000E+00 0. -1.
        994    1    1    2    0    0  0.64806346085E+01  0.93403872864E+01  0.23668617317E+01  0.17159336670E+03  0.17120000000E+03 0.  0.
        998    1    1    2    0    0  0.40530755382E+00  0.25267881465E+01  0.14500003991E+04  0.14500371397E+04  0.10000000000E+02 0. -1.
</event>
<event>
 5    1  0.1087513E-008  0.2709277E+03  0.7957747E-01  0.4128252E+00
         13   -1    0    0    0    0  0.00000000000E+00  0.00000000000E+00  0.14999999963E+04  0.15000000000E+04  0.10566000000E+00 0.  1.
        994   -1    0    0    0    0 -0.00000000000E+00 -0.00000000000E+00  0.11368683772E-12  0.17120000000E+03  0.17120000000E+03 0.  0.
         13    1    1    2    0    0 -0.16369434145E+03 -0.40463455961E+02  0.67323187720E+03  0.69402759335E+03  0.10566000000E+00 0.  1.
        994    1    1    2    0    0  0.16562433043E+02  0.67692355190E+02  0.57725484723E+02  0.19364462483E+03  0.17120000000E+03 0.  0.
        998    1    1    2    0    0  0.14713190840E+03 -0.27228899229E+02  0.76904263436E+03  0.78352778182E+03  0.10000000000E+02 0.  1.
</event>
<event>
 5    1  0.1087513E-008  0.3799172E+03  0.7957747E-01  0.3451519E+00
         13   -1    0    0    0    0  0.00000000000E+00  0.00000000000E+00  0.14999999963E+04  0.15000000000E+04  0.10566000000E+00 0. -1.
        994   -1    0    0    0    0 -0.00000000000E+00 -0.00000000000E+00  0.11368683772E-12  0.17120000000E+03  0.17120000000E+03 0.  0.
         13    1    1    2    0    0 -0.10896858916E+02 -0.85973689820E+01  0.21700712188E+02  0.25760208873E+02  0.10566000000E+00 0. -1.
        994    1    1    2    0    0  0.57758544074E+01 -0.13871829152E+01  0.42929274604E+01  0.17135680318E+03  0.17120000000E+03 0.  0.
        998    1    1    2    0    0  0.51210045088E+01  0.99845518972E+01  0.14740063566E+04  0.14740829879E+04  0.10000000000E+02 0. -1.
</event>
<event>
 5    1  0.1087513E-008  0.3790307E+03  0.7957747E-01  0.3455390E+00
         13   -1    0    0    0    0  0.00000000000E+00  0.00000000000E+00  0.14999999963E+04  0.15000000000E+04  0.10566000000E+00 0. -1.
        994   -1    0    0    0    0 -0.00000000000E+00 -0.00000000000E+00  0.11368683772E-12  0.17120000000E+03  0.17120000000E+03 0.  0.
         13    1    1    2    0    0  0.17291668602E+02 -0.45755425596E+02  0.26415982125E+03  0.26865029890E+03  0.10566000000E+00 0. -1.
        994    1    1    2    0    0 -0.87536059517E+01  0.23064450814E+02  0.66669592625E+01  0.17309674420E+03  0.17120000000E+03 0.  0.
        998    1    1    2    0    0 -0.85380626504E+01  0.22690974783E+02  0.12291732158E+04  0.12294529569E+04  0.10000000000E+02 0. -1.
</event>
<event>
 5    1  0.1087513E-008  0.3842890E+03  0.7957747E-01  0.3432693E+00
         13   -1    0    0    0    0  0.00000000000E+00  0.00000000000E+00  0.14999999963E+04  0.15000000000E+04  0.10566000000E+00 0. -1.
        994   -1    0    0    0    0 -0.00000000000E+00 -0.00000000000E+00  0.11368683772E-12  0.17120000000E+03  0.17120000000E+03 0.  0.
         13    1    1    2    0    0 -0.18854564849E+01  0.24529293626E+02  0.14279927071E+03  0.14490301609E+03  0.10566000000E+00 0. -1.
        994    1    1    2    0    0 -0.18229681251E+01 -0.22678533310E+02  0.36916582809E+01  0.17274463067E+03  0.17120000000E+03 0.  0.
        998    1    1    2    0    0  0.37084246100E+01 -0.18507603155E+01  0.13535090673E+04  0.13535523532E+04  0.10000000000E+02 0. -1.
</event>
<event>
 5    1  0.1087513E-008  0.3851466E+03  0.7957747E-01  0.3429051E+00
         13   -1    0    0    0    0  0.00000000000E+00  0.00000000000E+00  0.14999999963E+04  0.15000000000E+04  0.10566000000E+00 0.  1.
        994   -1    0    0    0    0 -0.00000000000E+00 -0.00000000000E+00  0.11368683772E-12  0.17120000000E+03  0.17120000000E+03 0.  0.
         13    1    1    2    0    0  0.16935818754E+02 -0.10762597552E+02  0.10925201586E+03  0.11107956426E+03  0.10566000000E+00 0.  1.
        994    1    1    2    0    0 -0.68868900201E+01  0.58489464320E+02  0.13042712519E+02  0.18151583689E+03  0.17120000000E+03 0.  0.
        998    1    1    2    0    0 -0.10048928734E+02 -0.47726866768E+02  0.13777052679E+04  0.13786045989E+04  0.10000000000E+02 0.  1.
</event>
<event>
 5    1  0.1087513E-008  0.3798576E+03  0.7957747E-01  0.3451779E+00
         13   -1    0    0    0    0  0.00000000000E+00  0.00000000000E+00  0.14999999963E+04  0.15000000000E+04  0.10566000000E+00 0.  1.
        994   -1    0    0    0    0 -0.00000000000E+00 -0.00000000000E+00  0.11368683772E-12  0.17120000000E+03  0.17120000000E+03 0.  0.
         13    1    1    2    0    0 -0.20425988204E+02  0.19995932071E+02  0.11823947454E+03  0.12164556218E+03  0.10566000000E+00 0.  1.
        994    1    1    2    0    0 -0.32985142572E+02 -0.68485436752E+01  0.80101251620E+01  0.17466689522E+03  0.17120000000E+03 0.  0.
        998    1    1    2    0    0  0.53411130776E+02 -0.13147388396E+02  0.13737503966E+04  0.13748875426E+04  0.10000000000E+02 0.  1.
</event>
<event>
 5    1  0.1087513E-008  0.3829988E+03  0.7957747E-01  0.3438204E+00
         13   -1    0    0    0    0  0.00000000000E+00  0.00000000000E+00  0.14999999963E+04  0.15000000000E+04  0.10566000000E+00 0.  1.
        994   -1    0    0    0    0 -0.00000000000E+00 -0.00000000000E+00  0.11368683772E-12  0.17120000000E+03  0.17120000000E+03 0.  0.
         13    1    1    2    0    0 -0.16556028187E+01 -0.16737167305E+02  0.52039266701E+02  0.54689763511E+02  0.10566000000E+00 0.  1.
        994    1    1    2    0    0 -0.52002235635E+01  0.15885898232E+02  0.35523883829E+01  0.17205075865E+03  0.17120000000E+03 0.  0.
        998    1    1    2    0    0  0.68558263822E+01  0.85126907342E+00  0.14444083412E+04  0.14444594778E+04  0.10000000000E+02 0.  1.
</event>
<event>
 5    1  0.1087513E-008  0.3810781E+03  0.7957747E-01  0.3446478E+00
         13   -1    0    0    0    0  0.00000000000E+00  0.00000000000E+00  0.14999999963E+04  0.15000000000E+04  0.10566000000E+00 0. -1.
        994   -1    0    0    0    0 -0.00000000000E+00 -0.00000000000E+00  0.11368683772E-12  0.17120000000E+03  0.17120000000E+03 0.  0.
         13    1    1    2    0    0 -0.35871381182E+02  0.76873260154E+01  0.19751577578E+03  0.20089386207E+03  0.10566000000E+00 0. -1.
        994    1    1    2    0    0  0.13148407753E+02 -0.47048251767E+01  0.42397875176E+01  0.17182092947E+03  0.17120000000E+03 0.  0.
        998    1    1    2    0    0  0.22722973429E+02 -0.29825008387E+01  0.12982444330E+04  0.12984852085E+04  0.10000000000E+02 0. -1.
</event>
<event>
 5    1  0.1087513E-008  0.3719511E+03  0.7957747E-01  0.3486972E+00
         13   -1    0    0    0    0  0.00000000000E+00  0.00000000000E+00  0.14999999963E+04  0.15000000000E+04  0.10566000000E+00 0.  1.
        994   -1    0    0    0    0 -0.00000000000E+00 -0.00000000000E+00  0.11368683772E-12  0.17120000000E+03  0.17120000000E+03 0.  0.
         13    1    1    2    0    0  0.35179253674E+02 -0.26059161727E+02  0.12490498517E+03  0.13235530319E+03  0.10566000000E+00 0.  1.
        994    1    1    2    0    0  0.46414811024E+00  0.76958604476E+01  0.84569970139E+01  0.17158205763E+03  0.17120000000E+03 0.  0.
        998    1    1    2    0    0 -0.35643401784E+02  0.18363301280E+02  0.13666380141E+04  0.13672626392E+04  0.10000000000E+02 0.  1.
</event>
<event>
 5    1  0.1087513E-008  0.3798657E+03  0.7957747E-01  0.3451744E+00
         13   -1    0    0    0    0  0.00000000000E+00  0.00000000000E+00  0.14999999963E+04  0.15000000000E+04  0.10566000000E+00 0. -1.
        994   -1    0    0    0    0 -0.00000000000E+00 -0.00000000000E+00  0.11368683772E-12  0.17120000000E+03  0.17120000000E+03 0.  0.
         13    1    1    2    0    0  0.24406688457E+02  0.16761881768E+02  0.13995711126E+03  0.14305471428E+03  0.10566000000E+00 0. -1.
        994    1    1    2    0    0  0.57474094320E+02 -0.38936372573E+02  0.20490804746E+02  0.18587260612E+03  0.17120000000E+03 0.  0.
        998    1    1    2    0    0 -0.81880782777E+02  0.22174490805E+02  0.13395520803E+04  0.13422726796E+04  0.10000000000E+02 0. -1.
</event>
<event>
 5    1  0.1087513E-008  0.3704619E+03  0.7957747E-01  0.3493771E+00
         13   -1    0    0    0    0  0.00000000000E+00  0.00000000000E+00  0.14999999963E+04  0.15000000000E+04  0.10566000000E+00 0.  1.
        994   -1    0    0    0    0 -0.00000000000E+00 -0.00000000000E+00  0.11368683772E-12  0.17120000000E+03  0.17120000000E+03 0.  0.
         13    1    1    2    0    0  0.46427400075E+02 -0.60821723119E+02  0.27123034109E+03  0.28181677482E+03  0.10566000000E+00 0.  1.
        994    1    1    2    0    0 -0.45304729073E+02  0.55796547869E+02  0.27078195042E+02  0.18763912672E+03  0.17120000000E+03 0.  0.
        998    1    1    2    0    0 -0.11226710016E+01  0.50251752500E+01  0.12016914601E+04  0.12017440985E+04  0.10000000000E+02 0.  0.
</event>
<event>
 5    1  0.1087513E-008  0.3881031E+03  0.7957747E-01  0.3416617E+00
         13   -1    0    0    0    0  0.00000000000E+00  0.00000000000E+00  0.14999999963E+04  0.15000000000E+04  0.10566000000E+00 0.  1.
        994   -1    0    0    0    0 -0.00000000000E+00 -0.00000000000E+00  0.11368683772E-12  0.17120000000E+03  0.17120000000E+03 0.  0.
         13    1    1    2    0    0 -0.35802691399E+01 -0.11701243941E+03  0.26723692433E+03  0.29175385892E+03  0.10566000000E+00 0.  1.
        994    1    1    2    0    0  0.14520521090E+01  0.11213514720E+03  0.69516414937E+02  0.21614433057E+03  0.17120000000E+03 0.  0.
        998    1    1    2    0    0  0.21282170309E+01  0.48772922107E+01  0.11632466570E+04  0.11633018105E+04  0.10000000000E+02 0.  1.
</event>
<event>
 5    1  0.1087513E-008  0.3853475E+03  0.7957747E-01  0.3428200E+00
         13   -1    0    0    0    0  0.00000000000E+00  0.00000000000E+00  0.14999999963E+04  0.15000000000E+04  0.10566000000E+00 0. -1.
        994   -1    0    0    0    0 -0.00000000000E+00 -0.00000000000E+00  0.11368683772E-12  0.17120000000E+03  0.17120000000E+03 0.  0.
         13    1    1    2    0    0  0.26978933868E+01 -0.11478766817E+02  0.50588992064E+02  0.51945144127E+02  0.10566000000E+00 0. -1.
        994    1    1    2    0    0  0.84170721572E+01  0.44425412596E+00  0.16911070685E+01  0.17141570613E+03  0.17120000000E+03 0.  0.
        998    1    1    2    0    0 -0.11114965544E+02  0.11034512691E+02  0.14477198971E+04  0.14478391497E+04  0.10000000000E+02 0. -1.
</event>
<event>
 5    1  0.1087513E-008  0.3796421E+03  0.7957747E-01  0.3452719E+00
         13   -1    0    0    0    0  0.00000000000E+00  0.00000000000E+00  0.14999999963E+04  0.15000000000E+04  0.10566000000E+00 0. -1.
        994   -1    0    0    0    0 -0.00000000000E+00 -0.00000000000E+00  0.11368683772E-12  0.17120000000E+03  0.17120000000E+03 0.  0.
         13    1    1    2    0    0  0.82663059735E+01  0.11198214773E+02  0.20630245986E+02  0.24886744304E+02  0.10566000000E+00 0. -1.
        994    1    1    2    0    0 -0.57623654715E+01 -0.83989582795E+01  0.46612463323E+01  0.17156606475E+03  0.17120000000E+03 0.  0.
        998    1    1    2    0    0 -0.25039405020E+01 -0.27992564939E+01  0.14747085040E+04  0.14747471909E+04  0.10000000000E+02 0. -1.
</event>
<event>
 5    1  0.1087513E-008  0.3697398E+03  0.7957747E-01  0.3497088E+00
         13   -1    0    0    0    0  0.00000000000E+00  0.00000000000E+00  0.14999999963E+04  0.15000000000E+04  0.10566000000E+00 0.  1.
        994   -1    0    0    0    0 -0.00000000000E+00 -0.00000000000E+00  0.11368683772E-12  0.17120000000E+03  0.17120000000E+03 0.  0.
         13    1    1    2    0    0  0.47793113506E+02 -0.74802084253E+02  0.44795215388E+03  0.45666254153E+03  0.10566000000E+00 0.  1.
        994    1    1    2    0    0 -0.40509321342E+02  0.60612704865E+01  0.16684240655E+02  0.17682066622E+03  0.17120000000E+03 0.  0.
        998    1    1    2    0    0 -0.72837921646E+01  0.68740813767E+02  0.10353636017E+04  0.10377167923E+04  0.10000000000E+02 0.  1.
</event>
<event>
 5    1  0.1087513E-008  0.3739309E+03  0.7957747E-01  0.3478018E+00
         13   -1    0    0    0    0  0.00000000000E+00  0.00000000000E+00  0.14999999963E+04  0.15000000000E+04  0.10566000000E+00 0. -1.
        994   -1    0    0    0    0 -0.00000000000E+00 -0.00000000000E+00  0.11368683772E-12  0.17120000000E+03  0.17120000000E+03 0.  0.
         13    1    1    2    0    0 -0.31506571010E+02 -0.15303092630E+02  0.79783667445E+02  0.87133767369E+02  0.10566000000E+00 0. -1.
        994    1    1    2    0    0  0.25357445109E+02  0.16756109155E+02  0.10386658934E+02  0.17418693952E+03  0.17120000000E+03 0.  0.
        998    1    1    2    0    0  0.61491259017E+01 -0.14530165244E+01  0.14098296699E+04  0.14098792931E+04  0.10000000000E+02 0. -1.
</event>
<event>
 5    1  0.1087513E-008  0.3862116E+03  0.7957747E-01  0.3424550E+00
         13   -1    0    0    0    0  0.00000000000E+00  0.00000000000E+00  0.14999999963E+04  0.15000000000E+04  0.10566000000E+00 0. -1.
        994   -1    0    0    0    0 -0.00000000000E+00 -0.00000000000E+00  0.11368683772E-12  0.17120000000E+03  0.17120000000E+03 0.  0.
         13    1    1    2    0    0  0.50386285953E+01 -0.10715584410E+02  0.69878276365E+02  0.70874510221E+02  0.10566000000E+00 0. -1.
        994    1    1    2    0    0 -0.89721830166E+01  0.30990583286E+01  0.13250112798E+01  0.17146807250E+03  0.17120000000E+03 0.  0.
        998    1    1    2    0    0  0.39335544213E+01  0.76165260819E+01  0.14287967086E+04  0.14288574173E+04  0.10000000000E+02 0. -1.
</event>
<event>
 5    1  0.1087513E-008  0.3831239E+03  0.7957747E-01  0.3437668E+00
         13   -1    0    0    0    0  0.00000000000E+00  0.00000000000E+00  0.14999999963E+04  0.15000000000E+04  0.10566000000E+00 0. -1.
        994   -1    0    0    0    0 -0.00000000000E+00 -0.00000000000E+00  0.11368683772E-12  0.17120000000E+03  0.17120000000E+03 0.  0.
         13    1    1    2    0    0  0.99406350458E+01  0.18000242831E+02  0.89558941709E+02  0.91889282134E+02  0.10566000000E+00 0. -1.
        994    1    1    2    0    0 -0.56594632708E+01  0.53358139411E+01  0.27646787633E+01  0.17139890281E+03  0.17120000000E+03 0.  0.
        998    1    1    2    0    0 -0.42811717751E+01 -0.23336056772E+02  0.14076763758E+04  0.14079118151E+04  0.10000000000E+02 0. -1.
</event>
<event>
 5    1  0.1087513E-008  0.3689306E+03  0.7957747E-01  0.3500820E+00
         13   -1    0    0    0    0  0.00000000000E+00  0.00000000000E+00  0.14999999963E+04  0.15000000000E+04  0.10566000000E+00 0.  1.
        994   -1    0    0    0    0 -0.00000000000E+00 -0.00000000000E+00  0.11368683772E-12  0.17120000000E+03  0.17120000000E+03 0.  0.
         13    1    1    2    0    0  0.14665956215E+03 -0.25542559974E+02  0.59595839831E+03  0.61427019561E+03  0.10566000000E+00 0.  1.
        994    1    1    2    0    0 -0.14496408713E+03  0.33162209470E+02  0.91888861767E+02  0.24467799576E+03  0.17120000000E+03 0.  0.
        998    1    1    2    0    0 -0.16954750207E+01 -0.76196494957E+01  0.81215273621E+03  0.81225180863E+03  0.10000000000E+02 0.  0.
</event>
<event>
 5    1  0.1087513E-008  0.3711164E+03  0.7957747E-01  0.3490776E+00
         13   -1    0    0    0    0  0.00000000000E+00  0.00000000000E+00  0.14999999963E+04  0.15000000000E+04  0.10566000000E+00 0. -1.
        994   -1    0    0    0    0 -0.00000000000E+00 -0.00000000000E+00  0.11368683772E-12  0.17120000000E+03  0.17120000000E+03 0.  0.
         13    1    1    2    0    0 -0.36804813259E+02  0.53627286869E+02  0.17400672556E+03  0.18576552931E+03  0.10566000000E+00 0. -1.
        994    1    1    2    0    0  0.19004165331E+02 -0.43513465948E+02  0.19485481169E+02  0.17872801682E+03  0.17120000000E+03 0.  0.
        998    1    1    2    0    0  0.17800647928E+02 -0.10113820921E+02  0.13065077896E+04  0.13067064539E+04  0.10000000000E+02 0. -1.
</event>
<event>
 5    1  0.1087513E-008  0.3819563E+03  0.7957747E-01  0.3442684E+00
         13   -1    0    0    0    0  0.00000000000E+00  0.00000000000E+00  0.14999999963E+04  0.15000000000E+04  0.10566000000E+00 0. -1.
        994   -1    0    0    0    0 -0.00000000000E+00 -0.00000000000E+00  0.11368683772E-12  0.17120000000E+03  0.17120000000E+03 0.  0.
         13    1    1    2    0    0 -0.15419980389E+02  0.33024691662E+02  0.17998489814E+03  0.18363817897E+03  0.10566000000E+00 0. -1.
        994    1    1    2    0    0  0.16510239505E+02 -0.37782100009E+02  0.88162358482E+01  0.17631574264E+03  0.17120000000E+03 0.  0.
        998    1    1    2    0    0 -0.10902591154E+01  0.47574083470E+01  0.13111988623E+04  0.13112460784E+04  0.10000000000E+02 0. -1.
</event>
<event>
 5    1  0.1087513E-008  0.3853861E+03  0.7957747E-01  0.3428036E+00
         13   -1    0    0    0    0  0.00000000000E+00  0.00000000000E+00  0.14999999963E+04  0.15000000000E+04  0.10566000000E+00 0.  1.
        994   -1    0    0    0    0 -0.00000000000E+00 -0.00000000000E+00  0.11368683772E-12  0.17120000000E+03  0.17120000000E+03 0.  0.
         13    1    1    2    0    0  0.12674449609E+02 -0.26764749538E+01  0.67063824088E+02  0.68303534729E+02  0.10566000000E+00 0.  1.
        994    1    1    2    0    0  0.10203175067E+02 -0.39421561206E+01  0.18316455564E+01  0.17155885376E+03  0.17120000000E+03 0.  0.
        998    1    1    2    0    0 -0.22877624677E+02  0.66186310744E+01  0.14311045266E+04  0.14313376115E+04  0.10000000000E+02 0.  1.
</event>
<event>
 5    1  0.1087513E-008  0.3784071E+03  0.7957747E-01  0.3458124E+00
         13   -1    0    0    0    0  0.00000000000E+00  0.00000000000E+00  0.14999999963E+04  0.15000000000E+04  0.10566000000E+00 0. -1.
        994   -1    0    0    0    0 -0.00000000000E+00 -0.00000000000E+00  0.11368683772E-12  0.17120000000E+03  0.17120000000E+03 0.  0.
         13    1    1    2    0    0  0.16869702427E+02  0.15019904604E+02  0.49617753192E+02  0.54517125659E+02  0.10566000000E+00 0. -1.
        994    1    1    2    0    0  0.55335611353E+01 -0.29669523531E+02  0.80066598872E+01  0.17402427281E+03  0.17120000000E+03 0.  0.
        998    1    1    2    0    0 -0.22403263562E+02  0.14649618927E+02  0.14423755832E+04  0.14426586015E+04  0.10000000000E+02 0. -1.
</event>
<event>
 5    1  0.1087513E-008  0.3812428E+03  0.7957747E-01  0.3445765E+00
         13   -1    0    0    0    0  0.00000000000E+00  0.00000000000E+00  0.14999999963E+04  0.15000000000E+04  0.10566000000E+00 0.  1.
        994   -1    0    0    0    0 -0.00000000000E+00 -0.00000000000E+00  0.11368683772E-12  0.17120000000E+03  0.17120000000E+03 0.  0.
         13    1    1    2    0    0 -0.34144786140E+02  0.97743061132E+02  0.50166031519E+03  0.51223300891E+03  0.10566000000E+00 0.  1.
        994    1    1    2    0    0  0.30305189066E+02 -0.15406771812E+03  0.90484729672E+02  0.24930341465E+03  0.17120000000E+03 0.  0.
        998    1    1    2    0    0  0.38395970739E+01  0.56324656987E+02  0.90785495142E+03  0.90966357644E+03  0.10000000000E+02 0.  1.
</event>
<event>
 5    1  0.1087513E-008  0.3821623E+03  0.7957747E-01  0.3441797E+00
         13   -1    0    0    0    0  0.00000000000E+00  0.00000000000E+00  0.14999999963E+04  0.15000000000E+04  0.10566000000E+00 0.  1.
        994   -1    0    0    0    0 -0.00000000000E+00 -0.00000000000E+00  0.11368683772E-12  0.17120000000E+03  0.17120000000E+03 0.  0.
         13    1    1    2    0    0  0.25943099091E+02 -0.10791076321E+02  0.13211352343E+03  0.13506844915E+03  0.10566000000E+00 0.  1.
        994    1    1    2    0    0 -0.16693012732E+02 -0.59098135927E+01  0.40871230489E+01  0.17216192130E+03  0.17120000000E+03 0.  0.
        998    1    1    2    0    0 -0.92500863587E+01  0.16700889914E+02  0.13637993498E+04  0.13639696296E+04  0.10000000000E+02 0.  1.
</event>
<event>
 5    1  0.1087513E-008  0.3724239E+03  0.7957747E-01  0.3484825E+00
         13   -1    0    0    0    0  0.00000000000E+00  0.00000000000E+00  0.14999999963E+04  0.15000000000E+04  0.10566000000E+00 0. -1.
        994   -1    0    0    0    0 -0.00000000000E+00 -0.00000000000E+00  0.11368683772E-12  0.17120000000E+03  0.17120000000E+03 0.  0.
         13    1    1    2    0    0  0.66342704829E+02  0.45295636853E+02  0.40820105626E+03  0.41603024253E+03  0.10566000000E+00 0. -1.
        994    1    1    2    0    0 -0.57506014136E+02  0.28834255031E+01  0.19462521493E+02  0.18166861465E+03  0.17120000000E+03 0.  0.
        998    1    1    2    0    0 -0.88366906931E+01 -0.48179062356E+02  0.10723364185E+04  0.10735011428E+04  0.10000000000E+02 0.  1.
</event>
<event>
 5    1  0.1087513E-008  0.3826040E+03  0.7957747E-01  0.3439898E+00
         13   -1    0    0    0    0  0.00000000000E+00  0.00000000000E+00  0.14999999963E+04  0.15000000000E+04  0.10566000000E+00 0. -1.
        994   -1    0    0    0    0 -0.00000000000E+00 -0.00000000000E+00  0.11368683772E-12  0.17120000000E+03  0.17120000000E+03 0.  0.
         13    1    1    2    0    0  0.18324432144E+03 -0.11822792766E+03  0.10690762361E+04  0.10910913500E+04  0.10566000000E+00 0. -1.
        994    1    1    2    0    0 -0.19217901105E+03  0.11692642426E+03  0.19412381126E+03  0.34292572822E+03  0.17120000000E+03 0.  0.
        998    1    1    2    0    0  0.89346896174E+01  0.13015033985E+01  0.23679994892E+03  0.23718292181E+03  0.10000000000E+02 0. -1.
</event>
<event>
 5    1  0.1087513E-008  0.3784288E+03  0.7957747E-01  0.3458029E+00
         13   -1    0    0    0    0  0.00000000000E+00  0.00000000000E+00  0.14999999963E+04  0.15000000000E+04  0.10566000000E+00 0. -1.
        994   -1    0    0    0    0 -0.00000000000E+00 -0.00000000000E+00  0.11368683772E-12  0.17120000000E+03  0.17120000000E+03 0.  0.
         13    1    1    2    0    0  0.17315921113E+02  0.18028714641E+03  0.86256644928E+03  0.88137630265E+03  0.10566000000E+00 0. -1.
        994    1    1    2    0    0 -0.20666677321E+02 -0.19271802733E+03  0.14375382526E+03  0.29587489229E+03  0.17120000000E+03 0.  0.
        998    1    1    2    0    0  0.33507562079E+01  0.12430880922E+02  0.49367972174E+03  0.49394880507E+03  0.10000000000E+02 0. -1.
</event>
<event>
 5    1  0.1087513E-008  0.3831694E+03  0.7957747E-01  0.3437473E+00
         13   -1    0    0    0    0  0.00000000000E+00  0.00000000000E+00  0.14999999963E+04  0.15000000000E+04  0.10566000000E+00 0.  1.
        994   -1    0    0    0    0 -0.00000000000E+00 -0.00000000000E+00  0.11368683772E-12  0.17120000000E+03  0.17120000000E+03 0.  0.
         13    1    1    2    0    0 -0.66925058216E+01  0.20263144426E+02  0.87652924248E+02  0.90213252627E+02  0.10566000000E+00 0.  1.
        994    1    1    2    0    0  0.55178031763E+01 -0.14758195411E+02  0.33634535858E+01  0.17195639943E+03  0.17120000000E+03 0.  0.
        998    1    1    2    0    0  0.11747026454E+01 -0.55049490152E+01  0.14089836184E+04  0.14090303479E+04  0.10000000000E+02 0.  1.
</event>
<event>
 5    1  0.1087513E-008  0.3787643E+03  0.7957747E-01  0.3456557E+00
         13   -1    0    0    0    0  0.00000000000E+00  0.00000000000E+00  0.14999999963E+04  0.15000000000E+04  0.10566000000E+00 0.  1.
        994   -1    0    0    0    0 -0.00000000000E+00 -0.00000000000E+00  0.11368683772E-12  0.17120000000E+03  0.17120000000E+03 0.  0.
         13    1    1    2    0    0 -0.17943338146E+02 -0.27440254061E+02  0.10246126290E+03  0.10757905227E+03  0.10566000000E+00 0.  1.
        994    1    1    2    0    0  0.21134784258E+02  0.30174263197E+02  0.93272131533E+01  0.17536704984E+03  0.17120000000E+03 0.  0.
        998    1    1    2    0    0 -0.31914461120E+01 -0.27340091361E+01  0.13882115202E+04  0.13882538979E+04  0.10000000000E+02 0.  1.
</event>
<event>
 5    1  0.1087513E-008  0.3701857E+03  0.7957747E-01  0.3495038E+00
         13   -1    0    0    0    0  0.00000000000E+00  0.00000000000E+00  0.14999999963E+04  0.15000000000E+04  0.10566000000E+00 0. -1.
        994   -1    0    0    0    0 -0.00000000000E+00 -0.00000000000E+00  0.11368683772E-12  0.17120000000E+03  0.17120000000E+03 0.  0.
         13    1    1    2    0    0 -0.27116020239E+02 -0.15726909023E+02  0.40329058850E+02  0.51078942558E+02  0.10566000000E+00 0. -1.
        994    1    1    2    0    0  0.23000633319E+02  0.39249713067E+00  0.12890450974E+02  0.17321889883E+03  0.17120000000E+03 0.  0.
        998    1    1    2    0    0  0.41153869208E+01  0.15334411893E+02  0.14467804865E+04  0.14469021586E+04  0.10000000000E+02 0. -1.
</event>
<event>
 5    1  0.1087513E-008  0.3853860E+03  0.7957747E-01  0.3428037E+00
         13   -1    0    0    0    0  0.00000000000E+00  0.00000000000E+00  0.14999999963E+04  0.15000000000E+04  0.10566000000E+00 0.  1.
        994   -1    0    0    0    0 -0.00000000000E+00 -0.00000000000E+00  0.11368683772E-12  0.17120000000E+03  0.17120000000E+03 0.  0.
         13    1    1    2    0    0 -0.77498616200E+01 -0.84252514517E+01  0.45559561853E+02  0.46975845468E+02  0.10566000000E+00 0.  1.
        994    1    1    2    0    0 -0.29073176410E+00  0.11341946108E+02  0.18615155622E+01  0.17158563316E+03  0.17120000000E+03 0.  0.
        998    1    1    2    0    0  0.80405933841E+01 -0.29166946567E+01  0.14525789189E+04  0.14526385214E+04  0.10000000000E+02 0.  1.
</event>
<event>
 5    1  0.1087513E-008  0.3791210E+03  0.7957747E-01  0.3454995E+00
         13   -1    0    0    0    0  0.00000000000E+00  0.00000000000E+00  0.14999999963E+04  0.15000000000E+04  0.10566000000E+00 0.  1.
        994   -1    0    0    0    0 -0.00000000000E+00 -0.00000000000E+00  0.11368683772E-12  0.17120000000E+03  0.17120000000E+03 0.  0.
         13    1    1    2    0    0 -0.35393244816E+01  0.29940447164E+02  0.21704646252E+02  0.37149159171E+02  0.10566000000E+00 0.  1.
        994    1    1    2    0    0  0.41334851163E+01 -0.31124952349E+02  0.19414185749E+02  0.17513480227E+03  0.17120000000E+03 0.  0.
        998    1    1    2    0    0 -0.59416063471E+00  0.11845051859E+01  0.14588811643E+04  0.14589160386E+04  0.10000000000E+02 0.  1.
</event>
<event>
 5    1  0.1087513E-008  0.3723891E+03  0.7957747E-01  0.3484983E+00
         13   -1    0    0    0    0  0.00000000000E+00  0.00000000000E+00  0.14999999963E+04  0.15000000000E+04  0.10566000000E+00 0.  1.
        994   -1    0    0    0    0 -0.00000000000E+00 -0.00000000000E+00  0.11368683772E-12  0.17120000000E+03  0.17120000000E+03 0.  0.
         13    1    1    2    0    0  0.46878798320E+02 -0.84355253654E+02  0.40376335766E+03  0.41513647239E+03  0.10566000000E+00 0.  1.
        994    1    1    2    0    0 -0.50914098427E+02  0.85986171261E+02  0.43089077300E+02  0.20285949731E+03  0.17120000000E+03 0.  0.
        998    1    1    2    0    0  0.40353001065E+01 -0.16309176070E+01  0.10531475613E+04  0.10532040303E+04  0.10000000000E+02 0. -1.
</event>
<event>
 5    1  0.1087513E-008  0.3348836E+03  0.7957747E-01  0.3674683E+00
         13   -1    0    0    0    0  0.00000000000E+00  0.00000000000E+00  0.14999999963E+04  0.15000000000E+04  0.10566000000E+00 0. -1.
        994   -1    0    0    0    0 -0.00000000000E+00 -0.00000000000E+00  0.11368683772E-12  0.17120000000E+03  0.17120000000E+03 0.  0.
         13    1    1    2    0    0  0.18413096950E+03 -0.32181489100E+02  0.10694384542E+04  0.10856511781E+04  0.10566000000E+00 0. -1.
        994    1    1    2    0    0 -0.10228124950E+03  0.33281315527E+02  0.67370868886E+02  0.21311352359E+03  0.17120000000E+03 0.  0.
        998    1    1    2    0    0 -0.81849720001E+02 -0.10998264272E+01  0.36319067324E+03  0.37243529829E+03  0.10000000000E+02 0. -1.
</event>
<event>
 5    1  0.1087513E-008  0.3684688E+03  0.7957747E-01  0.3502958E+00
         13   -1    0    0    0    0  0.00000000000E+00  0.00000000000E+00  0.14999999963E+04  0.15000000000E+04  0.10566000000E+00 0.  1.
        994   -1    0    0    0    0 -0.00000000000E+00 -0.00000000000E+00  0.11368683772E-12  0.17120000000E+03  0.17120000000E+03 0.  0.
         13    1    1    2    0    0 -0.30763936558E+02  0.22450029577E+02  0.68046878908E+02  0.77979564719E+02  0.10566000000E+00 0.  1.
        994    1    1    2    0    0 -0.18145316453E+02 -0.67837993464E+02  0.27414388168E+02  0.18706211414E+03  0.17120000000E+03 0.  0.
        998    1    1    2    0    0  0.48909253011E+02  0.45387963887E+02  0.14045387292E+04  0.14061583211E+04  0.10000000000E+02 0.  1.
</event>
<event>
 5    1  0.1087513E-008  0.3759229E+03  0.7957747E-01  0.3469106E+00
         13   -1    0    0    0    0  0.00000000000E+00  0.00000000000E+00  0.14999999963E+04  0.15000000000E+04  0.10566000000E+00 0. -1.
        994   -1    0    0    0    0 -0.00000000000E+00 -0.00000000000E+00  0.11368683772E-12  0.17120000000E+03  0.17120000000E+03 0.  0.
         13    1    1    2    0    0  0.42713098379E+02  0.21659027782E+02  0.21701152645E+03  0.22223306692E+03  0.10566000000E+00 0. -1.
        994    1    1    2    0    0  0.13569513057E+01 -0.66581401141E+01  0.63620659703E+01  0.17145287408E+03  0.17120000000E+03 0.  0.
        998    1    1    2    0    0 -0.44070049685E+02 -0.15000887668E+02  0.12766264039E+04  0.12775140590E+04  0.10000000000E+02 0. -1.
</event>
<event>
 5    1  0.1087513E-008  0.3707959E+03  0.7957747E-01  0.3492241E+00
         13   -1    0    0    0    0  0.00000000000E+00  0.00000000000E+00  0.14999999963E+04  0.15000000000E+04  0.10566000000E+00 0.  1.
        994   -1    0    0    0    0 -0.00000000000E+00 -0.00000000000E+00  0.11368683772E-12  0.17120000000E+03  0.17120000000E+03 0.  0.
         13    1    1    2    0    0  0.59961856113E+02  0.78659346841E+02  0.41219173089E+03  0.42389238164E+03  0.10566000000E+00 0.  1.
        994    1    1    2    0    0 -0.49950516695E+02 -0.79357616592E+02  0.39812837515E+02  0.19921643371E+03  0.17120000000E+03 0.  0.
        998    1    1    2    0    0 -0.10011339417E+02  0.69826975106E+00  0.10479954279E+04  0.10480911847E+04  0.10000000000E+02 0.  1.
</event>
<event>
 5    1  0.1087513E-008  0.3722523E+03  0.7957747E-01  0.3485603E+00
         13   -1    0    0    0    0  0.00000000000E+00  0.00000000000E+00  0.14999999963E+04  0.15000000000E+04  0.10566000000E+00 0. -1.
        994   -1    0    0    0    0 -0.00000000000E+00 -0.00000000000E+00  0.11368683772E-12  0.17120000000E+03  0.17120000000E+03 0.  0.
         13    1    1    2    0    0  0.35537828314E+00  0.10774711527E+02  0.33665328769E+01  0.11294485817E+02  0.10566000000E+00 0. -1.
        994    1    1    2    0    0 -0.19087262290E+01 -0.12756309094E+02  0.86675293223E+01  0.17190384732E+03  0.17120000000E+03 0.  0.
        998    1    1    2    0    0  0.15533479459E+01  0.19815975673E+01  0.14879659341E+04  0.14880016669E+04  0.10000000000E+02 0. -1.
</event>
<event>
 5    1  0.1252120E-008  0.3863203E+03  0.7957747E-01  0.3424092E+00
         13   -1    0    0    0    0  0.00000000000E+00  0.00000000000E+00  0.14999999963E+04  0.15000000000E+04  0.10566000000E+00 0.  1.
        994   -1    0    0    0    0 -0.00000000000E+00 -0.00000000000E+00  0.11368683772E-12  0.17120000000E+03  0.17120000000E+03 0.  0.
         13    1    1    2    0    0  0.60567370438E+01  0.82728267050E+01  0.54472616570E+02  0.55429241789E+02  0.10566000000E+00 0.  1.
        994    1    1    2    0    0  0.88754089865E+00 -0.10344695668E+02  0.13291220500E+01  0.17151969864E+03  0.17120000000E+03 0.  0.
        998    1    1    2    0    0 -0.69442779425E+01  0.20718689634E+01  0.14441982577E+04  0.14442510596E+04  0.10000000000E+02 0.  1.
</event>
<event>
 5    1  0.1087513E-008  0.3822126E+03  0.7957747E-01  0.3441580E+00
         13   -1    0    0    0    0  0.00000000000E+00  0.00000000000E+00  0.14999999963E+04  0.15000000000E+04  0.10566000000E+00 0.  1.
        994   -1    0    0    0    0 -0.00000000000E+00 -0.00000000000E+00  0.11368683772E-12  0.17120000000E+03  0.17120000000E+03 0.  0.
         13    1    1    2    0    0  0.15454369981E+00 -0.13152510809E+02  0.29758322255E+02  0.32535846874E+02  0.10566000000E+00 0.  1.
        994    1    1    2    0    0 -0.86461882935E+01 -0.13806990356E+02  0.39016002915E+01  0.17201759224E+03  0.17120000000E+03 0.  0.
        998    1    1    2    0    0  0.84916445937E+01  0.26959501165E+02  0.14663400737E+04  0.14666465609E+04  0.10000000000E+02 0.  1.
</event>
<event>
 5    1  0.1087513E-008  0.3821155E+03  0.7957747E-01  0.3441999E+00
         13   -1    0    0    0    0  0.00000000000E+00  0.00000000000E+00  0.14999999963E+04  0.15000000000E+04  0.10566000000E+00 0. -1.
        994   -1    0    0    0    0 -0.00000000000E+00 -0.00000000000E+00  0.11368683772E-12  0.17120000000E+03  0.17120000000E+03 0.  0.
         13    1    1    2    0    0  0.65606948790E+01  0.34805446359E+02  0.18809475927E+03  0.19140039562E+03  0.10566000000E+00 0. -1.
        994    1    1    2    0    0 -0.16404620745E+02 -0.27929322873E+02  0.65597922695E+01  0.17436063068E+03  0.17120000000E+03 0.  0.
        998    1    1    2    0    0  0.98439258659E+01 -0.68761234860E+01  0.13053454447E+04  0.13054389737E+04  0.10000000000E+02 0. -1.
</event>
<event>
 5    1  0.1087513E-008  0.3844408E+03  0.7957747E-01  0.3432047E+00
         13   -1    0    0    0    0  0.00000000000E+00  0.00000000000E+00  0.14999999963E+04  0.15000000000E+04  0.10566000000E+00 0.  1.
        994   -1    0    0    0    0 -0.00000000000E+00 -0.00000000000E+00  0.11368683772E-12  0.17120000000E+03  0.17120000000E+03 0.  0.
         13    1    1    2    0    0 -0.10475530680E+02  0.16422945769E+01  0.29300529628E+02  0.31160328545E+02  0.10566000000E+00 0.  1.
        994    1    1    2    0    0  0.33202654444E+01 -0.10190395087E+02  0.22865481328E+01  0.17155039090E+03  0.17120000000E+03 0.  0.
        998    1    1    2    0    0  0.71552652358E+01  0.85481005102E+01  0.14684129185E+04  0.14684892806E+04  0.10000000000E+02 0.  1.
</event>
<event>
 5    1  0.1087513E-008  0.3819485E+03  0.7957747E-01  0.3442718E+00
         13   -1    0    0    0    0  0.00000000000E+00  0.00000000000E+00  0.14999999963E+04  0.15000000000E+04  0.10566000000E+00 0.  1.
        994   -1    0    0    0    0 -0.00000000000E+00 -0.00000000000E+00  0.11368683772E-12  0.17120000000E+03  0.17120000000E+03 0.  0.
         13    1    1    2    0    0  0.98020947062E+01 -0.59964369649E+01  0.19828937987E+02  0.22918033568E+02  0.10566000000E+00 0.  1.
        994    1    1    2    0    0 -0.56155146155E+01  0.16152264825E+01  0.32662013108E+01  0.17133082336E+03  0.17120000000E+03 0.  0.
        998    1    1    2    0    0 -0.41865800907E+01  0.43812104824E+01  0.14769048570E+04  0.14769511431E+04  0.10000000000E+02 0.  1.
</event>
<event>
 5    1  0.1087513E-008  0.3757118E+03  0.7957747E-01  0.3470046E+00
         13   -1    0    0    0    0  0.00000000000E+00  0.00000000000E+00  0.14999999963E+04  0.15000000000E+04  0.10566000000E+00 0.  1.
        994   -1    0    0    0    0 -0.00000000000E+00 -0.00000000000E+00  0.11368683772E-12  0.17120000000E+03  0.17120000000E+03 0.  0.
         13    1    1    2    0    0 -0.58865119436E+02  0.95955338106E+02  0.62991638131E+03  0.63989623206E+03  0.10566000000E+00 0.  1.
        994    1    1    2    0    0  0.23520882030E+02 -0.23671438846E+02  0.17974365850E+02  0.17534562081E+03  0.17120000000E+03 0.  0.
        998    1    1    2    0    0  0.35344237406E+02 -0.72283899259E+02  0.85210924912E+03  0.85595814713E+03  0.10000000000E+02 0. -1.
</event>
<event>
 5    1  0.1087513E-008  0.3849151E+03  0.7957747E-01  0.3430032E+00
         13   -1    0    0    0    0  0.00000000000E+00  0.00000000000E+00  0.14999999963E+04  0.15000000000E+04  0.10566000000E+00 0.  1.
        994   -1    0    0    0    0 -0.00000000000E+00 -0.00000000000E+00  0.11368683772E-12  0.17120000000E+03  0.17120000000E+03 0.  0.
         13    1    1    2    0    0 -0.55876786567E+01  0.16424826977E+02  0.80586058493E+02  0.82432524415E+02  0.10566000000E+00 0.  1.
        994    1    1    2    0    0 -0.20720035652E+01 -0.29832009846E+02  0.46195081127E+01  0.17385344939E+03  0.17120000000E+03 0.  0.
        998    1    1    2    0    0  0.76596822219E+01  0.13407182869E+02  0.14147944297E+04  0.14149140262E+04  0.10000000000E+02 0.  1.
</event>
<event>
 5    1  0.1087513E-008  0.3853563E+03  0.7957747E-01  0.3428162E+00
         13   -1    0    0    0    0  0.00000000000E+00  0.00000000000E+00  0.14999999963E+04  0.15000000000E+04  0.10566000000E+00 0.  1.
        994   -1    0    0    0    0 -0.00000000000E+00 -0.00000000000E+00  0.11368683772E-12  0.17120000000E+03  0.17120000000E+03 0.  0.
         13    1    1    2    0    0  0.17745007998E+02 -0.14901622804E+01  0.99987420614E+02  0.10156082580E+03  0.10566000000E+00 0.  1.
        994    1    1    2    0    0 -0.22973332761E+02 -0.44630264823E+01  0.32544811885E+01  0.17282281178E+03  0.17120000000E+03 0.  0.
        998    1    1    2    0    0  0.52283247635E+01  0.59531887627E+01  0.13967580945E+04  0.13968163624E+04  0.10000000000E+02 0.  1.
</event>
<event>
 5    1  0.1087513E-008  0.3740397E+03  0.7957747E-01  0.3477529E+00
         13   -1    0    0    0    0  0.00000000000E+00  0.00000000000E+00  0.14999999963E+04  0.15000000000E+04  0.10566000000E+00 0. -1.
        994   -1    0    0    0    0 -0.00000000000E+00 -0.00000000000E+00  0.11368683772E-12  0.17120000000E+03  0.17120000000E+03 0.  0.
         13    1    1    2    0    0  0.36643080725E+02  0.32420979822E+02  0.15731387559E+03  0.16474678120E+03  0.10566000000E+00 0. -1.
        994    1    1    2    0    0 -0.26184189570E+02 -0.27187635289E+02  0.12047085914E+02  0.17572521610E+03  0.17120000000E+03 0.  0.
        998    1    1    2    0    0 -0.10458891154E+02 -0.52333445335E+01  0.13306390348E+04  0.13307280027E+04  0.10000000000E+02 0. -1.
</event>
<event>
 5    1  0.1087513E-008  0.3816308E+03  0.7957747E-01  0.3444088E+00
         13   -1    0    0    0    0  0.00000000000E+00  0.00000000000E+00  0.14999999963E+04  0.15000000000E+04  0.10566000000E+00 0.  1.
        994   -1    0    0    0    0 -0.00000000000E+00 -0.00000000000E+00  0.11368683772E-12  0.17120000000E+03  0.17120000000E+03 0.  0.
         13    1    1    2    0    0  0.21693793113E+02  0.21436241784E+02  0.14389340187E+03  0.14708995679E+03  0.10566000000E+00 0.  1.
        994    1    1    2    0    0 -0.20181459302E+01 -0.17266626439E+02  0.43176649058E+01  0.17213451581E+03  0.17120000000E+03 0.  0.
        998    1    1    2    0    0 -0.19675647182E+02 -0.41696153456E+01  0.13517889295E+04  0.13519755274E+04  0.10000000000E+02 0.  1.
</event>
<event>
 5    1  0.1087513E-008  0.3979830E+03  0.7957747E-01  0.3376409E+00
         13   -1    0    0    0    0  0.00000000000E+00  0.00000000000E+00  0.14999999963E+04  0.15000000000E+04  0.10566000000E+00 0.  1.
        994   -1    0    0    0    0 -0.00000000000E+00 -0.00000000000E+00  0.11368683772E-12  0.17120000000E+03  0.17120000000E+03 0.  0.
         13    1    1    2    0    0  0.25924065195E+02 -0.17544515130E+02  0.72329098867E+01  0.32127765513E+02  0.10566000000E+00 0.  1.
        994    1    1    2    0    0 -0.19443629890E+02  0.27199260146E+02  0.30930586881E+02  0.17715528697E+03  0.17120000000E+03 0.  0.
        998    1    1    2    0    0 -0.64804353058E+01 -0.96547450170E+01  0.14618364995E+04  0.14619169475E+04  0.10000000000E+02 0.  1.
</event>
<event>
 5    1  0.1087513E-008  0.3813563E+03  0.7957747E-01  0.3445274E+00
         13   -1    0    0    0    0  0.00000000000E+00  0.00000000000E+00  0.14999999963E+04  0.15000000000E+04  0.10566000000E+00 0. -1.
        994   -1    0    0    0    0 -0.00000000000E+00 -0.00000000000E+00  0.11368683772E-12  0.17120000000E+03  0.17120000000E+03 0.  0.
         13    1    1    2    0    0  0.34339650832E+02 -0.14411668962E+02  0.17467948732E+03  0.17860526945E+03  0.10566000000E+00 0. -1.
        994    1    1    2    0    0 -0.34858710541E+02  0.20831435605E+02  0.89577202283E+01  0.17617820286E+03  0.17120000000E+03 0.  0.
        998    1    1    2    0    0  0.51905970962E+00 -0.64197666435E+01  0.13163627887E+04  0.13164165277E+04  0.10000000000E+02 0.  0.
</event>
<event>
 5    1  0.1457797E-008  0.3856079E+03  0.7957747E-01  0.3427098E+00
         13   -1    0    0    0    0  0.00000000000E+00  0.00000000000E+00  0.14999999963E+04  0.15000000000E+04  0.10566000000E+00 0. -1.
        994   -1    0    0    0    0 -0.00000000000E+00 -0.00000000000E+00  0.11368683772E-12  0.17120000000E+03  0.17120000000E+03 0.  0.
         13    1    1    2    0    0 -0.12548993321E+01 -0.10055785195E+02  0.39013851793E+02  0.40308626669E+02  0.10566000000E+00 0. -1.
        994    1    1    2    0    0  0.27910088259E+01  0.55977131826E+01  0.14570675431E+01  0.17132042251E+03  0.17120000000E+03 0.  0.
        998    1    1    2    0    0 -0.15361094938E+01  0.44580720126E+01  0.14595290769E+04  0.14595709508E+04  0.10000000000E+02 0. -1.
</event>
<event>
 5    1  0.1308511E-008  0.3858188E+03  0.7957747E-01  0.3426207E+00
         13   -1    0    0    0    0  0.00000000000E+00  0.00000000000E+00  0.14999999963E+04  0.15000000000E+04  0.10566000000E+00 0.  1.
        994   -1    0    0    0    0 -0.00000000000E+00 -0.00000000000E+00  0.11368683772E-12  0.17120000000E+03  0.17120000000E+03 0.  0.
         13    1    1    2    0    0 -0.10464321533E+02  0.54692267312E+01  0.55792691225E+02  0.57028501859E+02  0.10566000000E+00 0.  1.
        994    1    1    2    0    0  0.10382646818E+02 -0.66697918165E+01  0.17238094402E+01  0.17165283859E+03  0.17120000000E+03 0.  0.
        998    1    1    2    0    0  0.81674714578E-01  0.12005650853E+01  0.14424834956E+04  0.14425186595E+04  0.10000000000E+02 0.  1.
</event>
<event>
 5    1  0.1087513E-008  0.3809550E+03  0.7957747E-01  0.3447011E+00
         13   -1    0    0    0    0  0.00000000000E+00  0.00000000000E+00  0.14999999963E+04  0.15000000000E+04  0.10566000000E+00 0.  1.
        994   -1    0    0    0    0 -0.00000000000E+00 -0.00000000000E+00  0.11368683772E-12  0.17120000000E+03  0.17120000000E+03 0.  0.
         13    1    1    2    0    0  0.18601624056E+02 -0.22543644290E+02  0.13425044656E+03  0.13739515959E+03  0.10566000000E+00 0.  1.
        994    1    1    2    0    0 -0.10842000283E+02 -0.15497130651E+02  0.48447807371E+01  0.17230966870E+03  0.17120000000E+03 0.  0.
        998    1    1    2    0    0 -0.77596237729E+01  0.38040774941E+02  0.13609047690E+04  0.13614951717E+04  0.10000000000E+02 0.  1.
</event>
<event>
 5    1  0.1087513E-008  0.3838776E+03  0.7957747E-01  0.3434446E+00
         13   -1    0    0    0    0  0.00000000000E+00  0.00000000000E+00  0.14999999963E+04  0.15000000000E+04  0.10566000000E+00 0.  1.
        994   -1    0    0    0    0 -0.00000000000E+00 -0.00000000000E+00  0.11368683772E-12  0.17120000000E+03  0.17120000000E+03 0.  0.
         13    1    1    2    0    0  0.23593316534E+02 -0.60646071239E+01  0.13301285656E+03  0.13522520186E+03  0.10566000000E+00 0.  1.
        994    1    1    2    0    0 -0.14739976214E+02  0.10422849320E+02  0.32648501094E+01  0.17218014384E+03  0.17120000000E+03 0.  0.
        998    1    1    2    0    0 -0.88533403201E+01 -0.43582421957E+01  0.13637222896E+04  0.13637946543E+04  0.10000000000E+02 0.  1.
</event>
<event>
 5    1  0.1087513E-008  0.3835181E+03  0.7957747E-01  0.3435982E+00
         13   -1    0    0    0    0  0.00000000000E+00  0.00000000000E+00  0.14999999963E+04  0.15000000000E+04  0.10566000000E+00 0.  1.
        994   -1    0    0    0    0 -0.00000000000E+00 -0.00000000000E+00  0.11368683772E-12  0.17120000000E+03  0.17120000000E+03 0.  0.
         13    1    1    2    0    0  0.22543054535E+01  0.20512503148E+02  0.78933700464E+02  0.81586671163E+02  0.10566000000E+00 0.  1.
        994    1    1    2    0    0  0.50268870213E+02 -0.43286044400E+02  0.17048015301E+02  0.18439283006E+03  0.17120000000E+03 0.  0.
        998    1    1    2    0    0 -0.52523175666E+02  0.22773541252E+02  0.14040182805E+04  0.14052204988E+04  0.10000000000E+02 0.  1.
</event>
<event>
 5    1  0.1087513E-008  0.3735817E+03  0.7957747E-01  0.3479590E+00
         13   -1    0    0    0    0  0.00000000000E+00  0.00000000000E+00  0.14999999963E+04  0.15000000000E+04  0.10566000000E+00 0. -1.
        994   -1    0    0    0    0 -0.00000000000E+00 -0.00000000000E+00  0.11368683772E-12  0.17120000000E+03  0.17120000000E+03 0.  0.
         13    1    1    2    0    0  0.95380714283E+01 -0.15222144133E+03  0.56165363822E+03  0.58199412583E+03  0.10566000000E+00 0. -1.
        994    1    1    2    0    0 -0.45229413218E+01  0.14509461979E+03  0.91721594422E+02  0.24247720836E+03  0.17120000000E+03 0.  0.
        998    1    1    2    0    0 -0.50151301065E+01  0.71268215398E+01  0.84662476364E+03  0.84672866582E+03  0.10000000000E+02 0. -1.
</event>
<event>
 5    1  0.1087513E-008  0.3779030E+03  0.7957747E-01  0.3460341E+00
         13   -1    0    0    0    0  0.00000000000E+00  0.00000000000E+00  0.14999999963E+04  0.15000000000E+04  0.10566000000E+00 0. -1.
        994   -1    0    0    0    0 -0.00000000000E+00 -0.00000000000E+00  0.11368683772E-12  0.17120000000E+03  0.17120000000E+03 0.  0.
         13    1    1    2    0    0 -0.50145153673E+01 -0.20188308056E+02  0.40542080512E+02  0.45567363352E+02  0.10566000000E+00 0. -1.
        994    1    1    2    0    0  0.29118951323E+01  0.58850976874E+01  0.53406148987E+01  0.17140908866E+03  0.17120000000E+03 0.  0.
        998    1    1    2    0    0  0.21026202349E+01  0.14303210368E+02  0.14541173009E+04  0.14542235480E+04  0.10000000000E+02 0. -1.
</event>
<event>
 5    1  0.1087513E-008  0.3756153E+03  0.7957747E-01  0.3470475E+00
         13   -1    0    0    0    0  0.00000000000E+00  0.00000000000E+00  0.14999999963E+04  0.15000000000E+04  0.10566000000E+00 0.  1.
        994   -1    0    0    0    0 -0.00000000000E+00 -0.00000000000E+00  0.11368683772E-12  0.17120000000E+03  0.17120000000E+03 0.  0.
         13    1    1    2    0    0  0.16695002721E+02  0.42612791847E+02  0.16323257672E+03  0.16952716128E+03  0.10566000000E+00 0.  1.
        994    1    1    2    0    0 -0.71612658302E+01 -0.25097571557E+02  0.86771600950E+01  0.17339522754E+03  0.17120000000E+03 0.  0.
        998    1    1    2    0    0 -0.95337368908E+01 -0.17515220290E+02  0.13280902595E+04  0.13282776112E+04  0.10000000000E+02 0.  1.
</event>
<event>
 5    1  0.1087513E-008  0.3836460E+03  0.7957747E-01  0.3435435E+00
         13   -1    0    0    0    0  0.00000000000E+00  0.00000000000E+00  0.14999999963E+04  0.15000000000E+04  0.10566000000E+00 0.  1.
        994   -1    0    0    0    0 -0.00000000000E+00 -0.00000000000E+00  0.11368683772E-12  0.17120000000E+03  0.17120000000E+03 0.  0.
         13    1    1    2    0    0  0.89944195107E+01  0.11285674364E+02  0.40956350116E+02  0.43424645158E+02  0.10566000000E+00 0.  1.
        994    1    1    2    0    0 -0.45108692835E+02 -0.21137707411E+01  0.90692067940E+01  0.17728776807E+03  0.17120000000E+03 0.  0.
        998    1    1    2    0    0  0.36114273324E+02 -0.91719036231E+01  0.14499744394E+04  0.14504875868E+04  0.10000000000E+02 0.  1.
</event>
<event>
 5    1  0.1087513E-008  0.3781325E+03  0.7957747E-01  0.3459330E+00
         13   -1    0    0    0    0  0.00000000000E+00  0.00000000000E+00  0.14999999963E+04  0.15000000000E+04  0.10566000000E+00 0.  1.
        994   -1    0    0    0    0 -0.00000000000E+00 -0.00000000000E+00  0.11368683772E-12  0.17120000000E+03  0.17120000000E+03 0.  0.
         13    1    1    2    0    0  0.10723104379E+02  0.64652015747E+02  0.32743731830E+03  0.33393124545E+03  0.10566000000E+00 0.  1.
        994    1    1    2    0    0 -0.10119329865E+02 -0.65627656222E+02  0.20056875819E+02  0.18471899839E+03  0.17120000000E+03 0.  0.
        998    1    1    2    0    0 -0.60377451407E+00  0.97564047560E+00  0.11525058022E+04  0.11525497562E+04  0.10000000000E+02 0.  0.
</event>
<event>
 5    1  0.1087513E-008  0.3723627E+03  0.7957747E-01  0.3485102E+00
         13   -1    0    0    0    0  0.00000000000E+00  0.00000000000E+00  0.14999999963E+04  0.15000000000E+04  0.10566000000E+00 0. -1.
        994   -1    0    0    0    0 -0.00000000000E+00 -0.00000000000E+00  0.11368683772E-12  0.17120000000E+03  0.17120000000E+03 0.  0.
         13    1    1    2    0    0  0.31581917181E+01  0.63357461912E+02  0.25147600256E+03  0.25935368357E+03  0.10566000000E+00 0. -1.
        994    1    1    2    0    0  0.65935583719E+02 -0.42695392573E+02  0.29508250455E+02  0.19065826652E+03  0.17120000000E+03 0.  0.
        998    1    1    2    0    0 -0.69093775437E+02 -0.20662069339E+02  0.12190157433E+04  0.12211880499E+04  0.10000000000E+02 0. -1.
</event>
<event>
 5    1  0.1087513E-008  0.3793406E+03  0.7957747E-01  0.3454035E+00
         13   -1    0    0    0    0  0.00000000000E+00  0.00000000000E+00  0.14999999963E+04  0.15000000000E+04  0.10566000000E+00 0.  1.
        994   -1    0    0    0    0 -0.00000000000E+00 -0.00000000000E+00  0.11368683772E-12  0.17120000000E+03  0.17120000000E+03 0.  0.
         13    1    1    2    0    0  0.84779676977E+01  0.17600858405E+02  0.40710214480E+02  0.45155275217E+02  0.10566000000E+00 0.  1.
        994    1    1    2    0    0 -0.68336227140E+01 -0.13452366097E+02  0.52294548780E+01  0.17194316431E+03  0.17120000000E+03 0.  0.
        998    1    1    2    0    0 -0.16443449837E+01 -0.41484923076E+01  0.14540603269E+04  0.14541015605E+04  0.10000000000E+02 0.  1.
</event>
<event>
 5    1  0.1087513E-008  0.3851640E+03  0.7957747E-01  0.3428977E+00
         13   -1    0    0    0    0  0.00000000000E+00  0.00000000000E+00  0.14999999963E+04  0.15000000000E+04  0.10566000000E+00 0. -1.
        994   -1    0    0    0    0 -0.00000000000E+00 -0.00000000000E+00  0.11368683772E-12  0.17120000000E+03  0.17120000000E+03 0.  0.
         13    1    1    2    0    0  0.15548369039E+02 -0.93647667223E+01  0.93788420375E+02  0.95528684677E+02  0.10566000000E+00 0. -1.
        994    1    1    2    0    0 -0.27014425740E+02  0.10213304616E+02  0.42951137231E+01  0.17367204378E+03  0.17120000000E+03 0.  0.
        998    1    1    2    0    0  0.11466056701E+02 -0.84853789359E+00  0.14019164622E+04  0.14019992715E+04  0.10000000000E+02 0. -1.
</event>
<event>
 5    1  0.1087513E-008  0.3766296E+03  0.7957747E-01  0.3465967E+00
         13   -1    0    0    0    0  0.00000000000E+00  0.00000000000E+00  0.14999999963E+04  0.15000000000E+04  0.10566000000E+00 0. -1.
        994   -1    0    0    0    0 -0.00000000000E+00 -0.00000000000E+00  0.11368683772E-12  0.17120000000E+03  0.17120000000E+03 0.  0.
         13    1    1    2    0    0  0.45785580092E+02  0.35301471760E+02  0.24646443856E+03  0.25315458497E+03  0.10566000000E+00 0. -1.
        994    1    1    2    0    0 -0.42974833317E+02 -0.31719817810E+02  0.15550699793E+02  0.18001179796E+03  0.17120000000E+03 0.  0.
        998    1    1    2    0    0 -0.28107467747E+01 -0.35816539501E+01  0.12379848579E+04  0.12380336171E+04  0.10000000000E+02 0. -1.
</event>
<event>
 5    1  0.1087513E-008  0.3712705E+03  0.7957747E-01  0.3490072E+00
         13   -1    0    0    0    0  0.00000000000E+00  0.00000000000E+00  0.14999999963E+04  0.15000000000E+04  0.10566000000E+00 0. -1.
        994   -1    0    0    0    0 -0.00000000000E+00 -0.00000000000E+00  0.11368683772E-12  0.17120000000E+03  0.17120000000E+03 0.  0.
         13    1    1    2    0    0  0.42783452984E+02 -0.15941625760E+03  0.48213020162E+03  0.50960132409E+03  0.10566000000E+00 0. -1.
        994    1    1    2    0    0 -0.17131912237E+02  0.21062623715E+03  0.19017135147E+03  0.33186065918E+03  0.17120000000E+03 0.  0.
        998    1    1    2    0    0 -0.25651540748E+02 -0.51209979543E+02  0.82769844319E+03  0.82973801673E+03  0.10000000000E+02 0. -1.
</event>
<event>
 5    1  0.1087513E-008  0.3759765E+03  0.7957747E-01  0.3468867E+00
         13   -1    0    0    0    0  0.00000000000E+00  0.00000000000E+00  0.14999999963E+04  0.15000000000E+04  0.10566000000E+00 0. -1.
        994   -1    0    0    0    0 -0.00000000000E+00 -0.00000000000E+00  0.11368683772E-12  0.17120000000E+03  0.17120000000E+03 0.  0.
         13    1    1    2    0    0 -0.12413283232E+02  0.12181987562E+02  0.21951945583E+02  0.28006954501E+02  0.10566000000E+00 0. -1.
        994    1    1    2    0    0 -0.78605370990E+01 -0.22607292886E+02  0.81214909858E+01  0.17305570303E+03  0.17120000000E+03 0.  0.
        998    1    1    2    0    0  0.20273820331E+02  0.10425305324E+02  0.14699265597E+04  0.14701373425E+04  0.10000000000E+02 0. -1.
</event>
<event>
 5    1  0.1087513E-008  0.3837412E+03  0.7957747E-01  0.3435029E+00
         13   -1    0    0    0    0  0.00000000000E+00  0.00000000000E+00  0.14999999963E+04  0.15000000000E+04  0.10566000000E+00 0.  1.
        994   -1    0    0    0    0 -0.00000000000E+00 -0.00000000000E+00  0.11368683772E-12  0.17120000000E+03  0.17120000000E+03 0.  0.
         13    1    1    2    0    0 -0.10871987895E+02 -0.14631947287E+02  0.74502242398E+02  0.76699995362E+02  0.10566000000E+00 0.  1.
        994    1    1    2    0    0  0.53330629812E+01  0.66431265047E+01  0.24960842150E+01  0.17142999483E+03  0.17120000000E+03 0.  0.
        998    1    1    2    0    0  0.55389249143E+01  0.79888207827E+01  0.14230016697E+04  0.14230700098E+04  0.10000000000E+02 0.  1.
</event>
<event>
 5    1  0.1087513E-008  0.3707403E+03  0.7957747E-01  0.3492496E+00
         13   -1    0    0    0    0  0.00000000000E+00  0.00000000000E+00  0.14999999963E+04  0.15000000000E+04  0.10566000000E+00 0. -1.
        994   -1    0    0    0    0 -0.00000000000E+00 -0.00000000000E+00  0.11368683772E-12  0.17120000000E+03  0.17120000000E+03 0.  0.
         13    1    1    2    0    0  0.10389350655E+02 -0.21274569183E+02  0.28323236971E+02  0.36915617528E+02  0.10566000000E+00 0. -1.
        994    1    1    2    0    0 -0.51239015376E+01  0.88160159786E+01  0.92413100250E+01  0.17175220032E+03  0.17120000000E+03 0.  0.
        998    1    1    2    0    0 -0.52654491172E+01  0.12458553204E+02  0.14624354493E+04  0.14625321821E+04  0.10000000000E+02 0. -1.
</event>
<event>
 5    1  0.1087513E-008  0.3733895E+03  0.7957747E-01  0.3480457E+00
         13   -1    0    0    0    0  0.00000000000E+00  0.00000000000E+00  0.14999999963E+04  0.15000000000E+04  0.10566000000E+00 0.  1.
        994   -1    0    0    0    0 -0.00000000000E+00 -0.00000000000E+00  0.11368683772E-12  0.17120000000E+03  0.17120000000E+03 0.  0.
         13    1    1    2    0    0 -0.12580402461E+02 -0.30432843454E+02  0.67864675303E+02  0.75432418792E+02  0.10566000000E+00 0.  1.
        994    1    1    2    0    0 -0.10838138254E+02  0.34457735636E+02  0.11980672280E+02  0.17537895340E+03  0.17120000000E+03 0.  0.
        998    1    1    2    0    0  0.23418540714E+02 -0.40248921815E+01  0.14201546487E+04  0.14203886278E+04  0.10000000000E+02 0.  1.
</event>
<event>
 5    1  0.1493047E-008  0.3860720E+03  0.7957747E-01  0.3425138E+00
         13   -1    0    0    0    0  0.00000000000E+00  0.00000000000E+00  0.14999999963E+04  0.15000000000E+04  0.10566000000E+00 0.  1.
        994   -1    0    0    0    0 -0.00000000000E+00 -0.00000000000E+00  0.11368683772E-12  0.17120000000E+03  0.17120000000E+03 0.  0.
         13    1    1    2    0    0  0.30892999466E+01  0.10873957524E+02  0.55707853693E+02  0.56843318459E+02  0.10566000000E+00 0.  1.
        994    1    1    2    0    0 -0.73087351040E+01 -0.14083207043E+02  0.19243276424E+01  0.17194446012E+03  0.17120000000E+03 0.  0.
        998    1    1    2    0    0  0.42194351574E+01  0.32092495191E+01  0.14423678149E+04  0.14424122214E+04  0.10000000000E+02 0.  1.
</event>
<event>
 5    1  0.1087513E-008  0.3872030E+03  0.7957747E-01  0.3420382E+00
         13   -1    0    0    0    0  0.00000000000E+00  0.00000000000E+00  0.14999999963E+04  0.15000000000E+04  0.10566000000E+00 0.  1.
        994   -1    0    0    0    0 -0.00000000000E+00 -0.00000000000E+00  0.11368683772E-12  0.17120000000E+03  0.17120000000E+03 0.  0.
         13    1    1    2    0    0 -0.48115819339E+02  0.44068376120E+02  0.90736453405E+02  0.11175987198E+03  0.10566000000E+00 0.  1.
        994    1    1    2    0    0  0.52762217477E+02 -0.47119221699E+02  0.39215827763E+02  0.18934464290E+03  0.17120000000E+03 0.  0.
        998    1    1    2    0    0 -0.46463981382E+01  0.30508455793E+01  0.13700477151E+04  0.13700954851E+04  0.10000000000E+02 0.  1.
</event>
<event>
 5    1  0.1087513E-008  0.3771141E+03  0.7957747E-01  0.3463821E+00
         13   -1    0    0    0    0  0.00000000000E+00  0.00000000000E+00  0.14999999963E+04  0.15000000000E+04  0.10566000000E+00 0.  1.
        994   -1    0    0    0    0 -0.00000000000E+00 -0.00000000000E+00  0.11368683772E-12  0.17120000000E+03  0.17120000000E+03 0.  0.
         13    1    1    2    0    0 -0.14588115518E+03  0.22924973582E+02  0.46367556873E+03  0.48662296499E+03  0.10566000000E+00 0.  1.
        994    1    1    2    0    0  0.14960987412E+03 -0.19496066602E+02  0.10160833208E+03  0.24979372329E+03  0.17120000000E+03 0.  0.
        998    1    1    2    0    0 -0.37287189425E+01 -0.34289069804E+01  0.93471609547E+03  0.93478331172E+03  0.10000000000E+02 0.  1.
</event>
<event>
 5    1  0.1087513E-008  0.3859392E+03  0.7957747E-01  0.3425699E+00
         13   -1    0    0    0    0  0.00000000000E+00  0.00000000000E+00  0.14999999963E+04  0.15000000000E+04  0.10566000000E+00 0.  1.
        994   -1    0    0    0    0 -0.00000000000E+00 -0.00000000000E+00  0.11368683772E-12  0.17120000000E+03  0.17120000000E+03 0.  0.
         13    1    1    2    0    0 -0.23092528732E+01 -0.10948548743E+02  0.51086319118E+02  0.52297481139E+02  0.10566000000E+00 0.  1.
        994    1    1    2    0    0 -0.39731363827E+01  0.18239555362E+02  0.23079121547E+01  0.17223017637E+03  0.17120000000E+03 0.  0.
        998    1    1    2    0    0  0.62823892558E+01 -0.72910066191E+01  0.14466057650E+04  0.14466723425E+04  0.10000000000E+02 0.  1.
</event>
<event>
 5    1  0.1087513E-008  0.3837564E+03  0.7957747E-01  0.3434963E+00
         13   -1    0    0    0    0  0.00000000000E+00  0.00000000000E+00  0.14999999963E+04  0.15000000000E+04  0.10566000000E+00 0.  1.
        994   -1    0    0    0    0 -0.00000000000E+00 -0.00000000000E+00  0.11368683772E-12  0.17120000000E+03  0.17120000000E+03 0.  0.
         13    1    1    2    0    0  0.99757544854E+01 -0.48898014382E+01  0.26569463029E+02  0.28798843125E+02  0.10566000000E+00 0.  1.
        994    1    1    2    0    0 -0.77018225125E+01  0.57761466977E+01  0.25548964715E+01  0.17148950241E+03  0.17120000000E+03 0.  0.
        998    1    1    2    0    0 -0.22739319728E+01 -0.88634525956E+00  0.14708756368E+04  0.14709116545E+04  0.10000000000E+02 0.  1.
</event>
<event>
 5    1  0.1087513E-008  0.3781982E+03  0.7957747E-01  0.3459042E+00
         13   -1    0    0    0    0  0.00000000000E+00  0.00000000000E+00  0.14999999963E+04  0.15000000000E+04  0.10566000000E+00 0.  1.
        994   -1    0    0    0    0 -0.00000000000E+00 -0.00000000000E+00  0.11368683772E-12  0.17120000000E+03  0.17120000000E+03 0.  0.
         13    1    1    2    0    0  0.31380924177E+02  0.65634179203E+01  0.10948363054E+03  0.11408118766E+03  0.10566000000E+00 0.  1.
        994    1    1    2    0    0 -0.93772614729E+01  0.33398547092E+02  0.91030502199E+01  0.17491626998E+03  0.17120000000E+03 0.  0.
        998    1    1    2    0    0 -0.22003662704E+02 -0.39961965013E+02  0.13814133155E+04  0.13822025424E+04  0.10000000000E+02 0.  1.
</event>
<event>
 5    1  0.1087513E-008  0.3798761E+03  0.7957747E-01  0.3451698E+00
         13   -1    0    0    0    0  0.00000000000E+00  0.00000000000E+00  0.14999999963E+04  0.15000000000E+04  0.10566000000E+00 0. -1.
        994   -1    0    0    0    0 -0.00000000000E+00 -0.00000000000E+00  0.11368683772E-12  0.17120000000E+03  0.17120000000E+03 0.  0.
         13    1    1    2    0    0 -0.31686807017E+02 -0.33887187840E+01  0.11283980852E+03  0.11725344645E+03  0.10566000000E+00 0. -1.
        994    1    1    2    0    0  0.29350639350E+02  0.68799080874E+01  0.72409280154E+01  0.17398466658E+03  0.17120000000E+03 0.  0.
        998    1    1    2    0    0  0.23361676671E+01 -0.34911893034E+01  0.13799192597E+04  0.13799618870E+04  0.10000000000E+02 0. -1.
</event>
<event>
 5    1  0.1087513E-008  0.3754335E+03  0.7957747E-01  0.3471286E+00
         13   -1    0    0    0    0  0.00000000000E+00  0.00000000000E+00  0.14999999963E+04  0.15000000000E+04  0.10566000000E+00 0.  1.
        994   -1    0    0    0    0 -0.00000000000E+00 -0.00000000000E+00  0.11368683772E-12  0.17120000000E+03  0.17120000000E+03 0.  0.
         13    1    1    2    0    0 -0.17463469278E+02  0.35583061586E+02  0.13453687907E+03  0.14025444743E+03  0.10566000000E+00 0.  1.
        994    1    1    2    0    0 -0.80721113545E+01 -0.39381332151E+01  0.67301576530E+01  0.17156748788E+03  0.17120000000E+03 0.  0.
        998    1    1    2    0    0  0.25535580633E+02 -0.31644928371E+02  0.13587329596E+04  0.13593780647E+04  0.10000000000E+02 0.  1.
</event>
<event>
 5    1  0.1087513E-008  0.3858213E+03  0.7957747E-01  0.3426196E+00
         13   -1    0    0    0    0  0.00000000000E+00  0.00000000000E+00  0.14999999963E+04  0.15000000000E+04  0.10566000000E+00 0. -1.
        994   -1    0    0    0    0 -0.00000000000E+00 -0.00000000000E+00  0.11368683772E-12  0.17120000000E+03  0.17120000000E+03 0.  0.
         13    1    1    2    0    0  0.13346381299E+02 -0.44747562651E+02  0.45144466547E+02  0.64950013709E+02  0.10566000000E+00 0. -1.
        994    1    1    2    0    0 -0.32763406847E+02  0.54733597482E+02  0.34789700983E+02  0.18598110338E+03  0.17120000000E+03 0.  0.
        998    1    1    2    0    0  0.19417025549E+02 -0.99860348315E+01  0.14200658287E+04  0.14202688829E+04  0.10000000000E+02 0. -1.
</event>
<event>
 5    1  0.1087513E-008  0.3827901E+03  0.7957747E-01  0.3439099E+00
         13   -1    0    0    0    0  0.00000000000E+00  0.00000000000E+00  0.14999999963E+04  0.15000000000E+04  0.10566000000E+00 0.  1.
        994   -1    0    0    0    0 -0.00000000000E+00 -0.00000000000E+00  0.11368683772E-12  0.17120000000E+03  0.17120000000E+03 0.  0.
         13    1    1    2    0    0  0.23856231382E+02  0.24688910436E+02  0.19293264000E+03  0.19596345785E+03  0.10566000000E+00 0.  1.
        994    1    1    2    0    0 -0.31133837954E+02 -0.15562638887E+02  0.67546526657E+01  0.17483299725E+03  0.17120000000E+03 0.  0.
        998    1    1    2    0    0  0.72776065722E+01 -0.91262715491E+01  0.13003127036E+04  0.13004035449E+04  0.10000000000E+02 0.  1.
</event>
<event>
 5    1  0.1087513E-008  0.3802672E+03  0.7957747E-01  0.3449996E+00
         13   -1    0    0    0    0  0.00000000000E+00  0.00000000000E+00  0.14999999963E+04  0.15000000000E+04  0.10566000000E+00 0. -1.
        994   -1    0    0    0    0 -0.00000000000E+00 -0.00000000000E+00  0.11368683772E-12  0.17120000000E+03  0.17120000000E+03 0.  0.
         13    1    1    2    0    0 -0.28277778796E+01 -0.17635426250E+02  0.38994340449E+02  0.42890259242E+02  0.10566000000E+00 0. -1.
        994    1    1    2    0    0 -0.17581706578E+02  0.10133713019E+02  0.53749477046E+01  0.17248228491E+03  0.17120000000E+03 0.  0.
        998    1    1    2    0    0  0.20409484458E+02  0.75017132309E+01  0.14556307081E+04  0.14558274558E+04  0.10000000000E+02 0. -1.
</event>
<event>
 5    1  0.1087513E-008  0.3828396E+03  0.7957747E-01  0.3438887E+00
         13   -1    0    0    0    0  0.00000000000E+00  0.00000000000E+00  0.14999999963E+04  0.15000000000E+04  0.10566000000E+00 0.  1.
        994   -1    0    0    0    0 -0.00000000000E+00 -0.00000000000E+00  0.11368683772E-12  0.17120000000E+03  0.17120000000E+03 0.  0.
         13    1    1    2    0    0 -0.48037853365E+02  0.66009029655E+01  0.25387034776E+03  0.25845961369E+03  0.10566000000E+00 0.  1.
        994    1    1    2    0    0  0.83214930615E+02 -0.20401540858E+02  0.27411306972E+02  0.19339536524E+03  0.17120000000E+03 0.  0.
        998    1    1    2    0    0 -0.35177077250E+02  0.13800637892E+02  0.12187183416E+04  0.12193450211E+04  0.10000000000E+02 0. -1.
</event>
<event>
 5    1  0.1087513E-008  0.3767978E+03  0.7957747E-01  0.3465221E+00
         13   -1    0    0    0    0  0.00000000000E+00  0.00000000000E+00  0.14999999963E+04  0.15000000000E+04  0.10566000000E+00 0. -1.
        994   -1    0    0    0    0 -0.00000000000E+00 -0.00000000000E+00  0.11368683772E-12  0.17120000000E+03  0.17120000000E+03 0.  0.
         13    1    1    2    0    0 -0.26778085809E+02 -0.39885074205E+02  0.12063759673E+03  0.12985116839E+03  0.10566000000E+00 0. -1.
        994    1    1    2    0    0 -0.20264984498E+01 -0.12514809314E+03  0.73054762628E+02  0.22430468175E+03  0.17120000000E+03 0.  0.
        998    1    1    2    0    0  0.28804584259E+02  0.16503316734E+03  0.13063076369E+04  0.13170441499E+04  0.10000000000E+02 0. -1.
</event>
<event>
 5    1  0.1087513E-008  0.3760224E+03  0.7957747E-01  0.3468663E+00
         13   -1    0    0    0    0  0.00000000000E+00  0.00000000000E+00  0.14999999963E+04  0.15000000000E+04  0.10566000000E+00 0.  1.
        994   -1    0    0    0    0 -0.00000000000E+00 -0.00000000000E+00  0.11368683772E-12  0.17120000000E+03  0.17120000000E+03 0.  0.
         13    1    1    2    0    0  0.13802664440E+02  0.47572374907E+02  0.18035608876E+03  0.18703468747E+03  0.10566000000E+00 0.  1.
        994    1    1    2    0    0 -0.23926787466E+02 -0.39303344147E+02  0.13360769906E+02  0.17777849755E+03  0.17120000000E+03 0.  0.
        998    1    1    2    0    0  0.10124123027E+02 -0.82690307598E+01  0.13062831376E+04  0.13063868150E+04  0.10000000000E+02 0.  1.
</event>
<event>
 5    1  0.1087513E-008  0.3845765E+03  0.7957747E-01  0.3431470E+00
         13   -1    0    0    0    0  0.00000000000E+00  0.00000000000E+00  0.14999999963E+04  0.15000000000E+04  0.10566000000E+00 0. -1.
        994   -1    0    0    0    0 -0.00000000000E+00 -0.00000000000E+00  0.11368683772E-12  0.17120000000E+03  0.17120000000E+03 0.  0.
         13    1    1    2    0    0 -0.28565821305E+01 -0.99421970378E+01  0.28441532354E+02  0.30264488598E+02  0.10566000000E+00 0. -1.
        994    1    1    2    0    0 -0.16826300831E+00  0.93584718263E+01  0.21291044378E+01  0.17146889628E+03  0.17120000000E+03 0.  0.
        998    1    1    2    0    0  0.30248451388E+01  0.58372521145E+00  0.14694293595E+04  0.14694666151E+04  0.10000000000E+02 0. -1.
</event>
<event>
 5    1  0.1087513E-008  0.3798023E+03  0.7957747E-01  0.3452020E+00
         13   -1    0    0    0    0  0.00000000000E+00  0.00000000000E+00  0.14999999963E+04  0.15000000000E+04  0.10566000000E+00 0. -1.
        994   -1    0    0    0    0 -0.00000000000E+00 -0.00000000000E+00  0.11368683772E-12  0.17120000000E+03  0.17120000000E+03 0.  0.
         13    1    1    2    0    0 -0.19411335603E+02 -0.18156568775E+02  0.86536329096E+02  0.90526285448E+02  0.10566000000E+00 0. -1.
        994    1    1    2    0    0  0.88988547243E+00  0.64956491072E+01  0.43767897073E+01  0.17138139234E+03  0.17120000000E+03 0.  0.
        998    1    1    2    0    0  0.18521450131E+02  0.11660919668E+02  0.14090868775E+04  0.14092923222E+04  0.10000000000E+02 0. -1.
</event>
<event>
 5    1  0.1087513E-008  0.3763819E+03  0.7957747E-01  0.3467066E+00
         13   -1    0    0    0    0  0.00000000000E+00  0.00000000000E+00  0.14999999963E+04  0.15000000000E+04  0.10566000000E+00 0. -1.
        994   -1    0    0    0    0 -0.00000000000E+00 -0.00000000000E+00  0.11368683772E-12  0.17120000000E+03  0.17120000000E+03 0.  0.
         13    1    1    2    0    0 -0.40651145716E+02 -0.51596646252E+02  0.30923946697E+03  0.31613887557E+03  0.10566000000E+00 0. -1.
        994    1    1    2    0    0  0.27462485703E+02  0.50391603648E+02  0.17196624268E+02  0.18137989339E+03  0.17120000000E+03 0.  0.
        998    1    1    2    0    0  0.13188660013E+02  0.12050426040E+01  0.11735639050E+04  0.11736812310E+04  0.10000000000E+02 0. -1.
</event>
<event>
 5    1  0.1087513E-008  0.3822181E+03  0.7957747E-01  0.3441557E+00
         13   -1    0    0    0    0  0.00000000000E+00  0.00000000000E+00  0.14999999963E+04  0.15000000000E+04  0.10566000000E+00 0.  1.
        994   -1    0    0    0    0 -0.00000000000E+00 -0.00000000000E+00  0.11368683772E-12  0.17120000000E+03  0.17120000000E+03 0.  0.
         13    1    1    2    0    0 -0.18343044404E+02 -0.35420427993E+01  0.58612064551E+02  0.61517465976E+02  0.10566000000E+00 0.  1.
        994    1    1    2    0    0  0.43320416934E+01  0.63666055635E+01  0.32144291760E+01  0.17140324620E+03  0.17120000000E+03 0.  0.
        998    1    1    2    0    0  0.14011002711E+02 -0.28245627642E+01  0.14381735026E+04  0.14382792878E+04  0.10000000000E+02 0.  1.
</event>
<event>
 5    1  0.1087513E-008  0.3728626E+03  0.7957747E-01  0.3482837E+00
         13   -1    0    0    0    0  0.00000000000E+00  0.00000000000E+00  0.14999999963E+04  0.15000000000E+04  0.10566000000E+00 0. -1.
        994   -1    0    0    0    0 -0.00000000000E+00 -0.00000000000E+00  0.11368683772E-12  0.17120000000E+03  0.17120000000E+03 0.  0.
         13    1    1    2    0    0 -0.28168128973E+03  0.82399090895E+02  0.10034837769E+04  0.10455207606E+04  0.10566000000E+00 0. -1.
        994    1    1    2    0    0  0.27398476253E+03 -0.77401793296E+02  0.36534116552E+03  0.49380390331E+03  0.17120000000E+03 0.  0.
        998    1    1    2    0    0  0.76965271943E+01 -0.49972975990E+01  0.13117505388E+03  0.13187533612E+03  0.10000000000E+02 0.  1.
</event>
<event>
 5    1  0.1087513E-008  0.3839327E+03  0.7957747E-01  0.3434211E+00
         13   -1    0    0    0    0  0.00000000000E+00  0.00000000000E+00  0.14999999963E+04  0.15000000000E+04  0.10566000000E+00 0. -1.
        994   -1    0    0    0    0 -0.00000000000E+00 -0.00000000000E+00  0.11368683772E-12  0.17120000000E+03  0.17120000000E+03 0.  0.
         13    1    1    2    0    0  0.49508914678E+01  0.16358285355E+02  0.66090451704E+02  0.68264659939E+02  0.10566000000E+00 0. -1.
        994    1    1    2    0    0 -0.40210904033E+01 -0.13309519833E+02  0.27991511095E+01  0.17178645969E+03  0.17120000000E+03 0.  0.
        998    1    1    2    0    0 -0.92980106457E+00 -0.30487655222E+01  0.14311103935E+04  0.14311488804E+04  0.10000000000E+02 0. -1.
</event>
<event>
 5    1  0.1087513E-008  0.3838513E+03  0.7957747E-01  0.3434559E+00
         13   -1    0    0    0    0  0.00000000000E+00  0.00000000000E+00  0.14999999963E+04  0.15000000000E+04  0.10566000000E+00 0. -1.
        994   -1    0    0    0    0 -0.00000000000E+00 -0.00000000000E+00  0.11368683772E-12  0.17120000000E+03  0.17120000000E+03 0.  0.
         13    1    1    2    0    0  0.89176773813E+01  0.51757146840E+01  0.23367803325E+02  0.25541699016E+02  0.10566000000E+00 0. -1.
        994    1    1    2    0    0 -0.99944291131E+01  0.11062574841E+01  0.25353802732E+01  0.17151379120E+03  0.17120000000E+03 0.  0.
        998    1    1    2    0    0  0.10767517319E+01 -0.62819721680E+01  0.14740968127E+04  0.14741445098E+04  0.10000000000E+02 0. -1.
</event>
<event>
 5    1  0.1087513E-008  0.3813983E+03  0.7957747E-01  0.3445092E+00
         13   -1    0    0    0    0  0.00000000000E+00  0.00000000000E+00  0.14999999963E+04  0.15000000000E+04  0.10566000000E+00 0. -1.
        994   -1    0    0    0    0 -0.00000000000E+00 -0.00000000000E+00  0.11368683772E-12  0.17120000000E+03  0.17120000000E+03 0.  0.
         13    1    1    2    0    0 -0.15738878807E+02 -0.13098898559E+02  0.66044335226E+02  0.69145924168E+02  0.10566000000E+00 0. -1.
        994    1    1    2    0    0 -0.84248422631E+01 -0.19836318859E+01  0.36782547329E+01  0.17145810660E+03  0.17120000000E+03 0.  0.
        998    1    1    2    0    0  0.24163721070E+02  0.15082530445E+02  0.14302774063E+04  0.14305959692E+04  0.10000000000E+02 0. -1.
</event>
<event>
 5    1  0.1837543E-008  0.3862528E+03  0.7957747E-01  0.3424376E+00
         13   -1    0    0    0    0  0.00000000000E+00  0.00000000000E+00  0.14999999963E+04  0.15000000000E+04  0.10566000000E+00 0.  1.
        994   -1    0    0    0    0 -0.00000000000E+00 -0.00000000000E+00  0.11368683772E-12  0.17120000000E+03  0.17120000000E+03 0.  0.
         13    1    1    2    0    0  0.11310641458E+02  0.40477683261E+01  0.67975636637E+02  0.69029076329E+02  0.10566000000E+00 0.  1.
        994    1    1    2    0    0 -0.14259061287E+02 -0.82660956720E+01  0.18996868072E+01  0.17200202899E+03  0.17120000000E+03 0.  0.
        998    1    1    2    0    0  0.29484198292E+01  0.42183273460E+01  0.14301246728E+04  0.14301688947E+04  0.10000000000E+02 0.  1.
</event>
<event>
 5    1  0.1087513E-008  0.3815568E+03  0.7957747E-01  0.3444408E+00
         13   -1    0    0    0    0  0.00000000000E+00  0.00000000000E+00  0.14999999963E+04  0.15000000000E+04  0.10566000000E+00 0. -1.
        994   -1    0    0    0    0 -0.00000000000E+00 -0.00000000000E+00  0.11368683772E-12  0.17120000000E+03  0.17120000000E+03 0.  0.
         13    1    1    2    0    0 -0.15257492876E+02 -0.17181593191E+02  0.89014766702E+02  0.91932791149E+02  0.10566000000E+00 0. -1.
        994    1    1    2    0    0 -0.10769361726E+01 -0.13207098823E+02  0.39335491727E+01  0.17175709610E+03  0.17120000000E+03 0.  0.
        998    1    1    2    0    0  0.16334429049E+02  0.30388692014E+02  0.14070516804E+04  0.14075101128E+04  0.10000000000E+02 0. -1.
</event>
<event>
 5    1  0.1087513E-008  0.3841227E+03  0.7957747E-01  0.3433401E+00
         13   -1    0    0    0    0  0.00000000000E+00  0.00000000000E+00  0.14999999963E+04  0.15000000000E+04  0.10566000000E+00 0. -1.
        994   -1    0    0    0    0 -0.00000000000E+00 -0.00000000000E+00  0.11368683772E-12  0.17120000000E+03  0.17120000000E+03 0.  0.
         13    1    1    2    0    0 -0.82239286150E+01  0.17757292060E+02  0.89476617770E+02  0.91591651993E+02  0.10566000000E+00 0. -1.
        994    1    1    2    0    0  0.50948626850E+01 -0.16493981610E+02  0.30497775141E+01  0.17209517773E+03  0.17120000000E+03 0.  0.
        998    1    1    2    0    0  0.31290659300E+01 -0.12633104501E+01  0.14074736010E+04  0.14075131703E+04  0.10000000000E+02 0. -1.
</event>
<event>
 5    1  0.1087513E-008  0.3850033E+03  0.7957747E-01  0.3429658E+00
         13   -1    0    0    0    0  0.00000000000E+00  0.00000000000E+00  0.14999999963E+04  0.15000000000E+04  0.10566000000E+00 0.  1.
        994   -1    0    0    0    0 -0.00000000000E+00 -0.00000000000E+00  0.11368683772E-12  0.17120000000E+03  0.17120000000E+03 0.  0.
         13    1    1    2    0    0 -0.84020977378E+00 -0.18863047326E+02  0.10514904196E+03  0.10683095383E+03  0.10566000000E+00 0.  1.
        994    1    1    2    0    0 -0.41423396301E+01  0.17315949792E+02  0.26716624072E+01  0.17214406430E+03  0.17120000000E+03 0.  0.
        998    1    1    2    0    0  0.49825494039E+01  0.15470975340E+01  0.13921792919E+04  0.13922249819E+04  0.10000000000E+02 0.  1.
</event>
<event>
 5    1  0.1087513E-008  0.3767572E+03  0.7957747E-01  0.3465401E+00
         13   -1    0    0    0    0  0.00000000000E+00  0.00000000000E+00  0.14999999963E+04  0.15000000000E+04  0.10566000000E+00 0.  1.
        994   -1    0    0    0    0 -0.00000000000E+00 -0.00000000000E+00  0.11368683772E-12  0.17120000000E+03  0.17120000000E+03 0.  0.
         13    1    1    2    0    0 -0.10349412093E+02 -0.81295456517E+01  0.12387893903E+02  0.18074040018E+02  0.10566000000E+00 0.  1.
        994    1    1    2    0    0  0.65781779820E+01  0.90521086305E+01  0.62023597286E+01  0.17167737871E+03  0.17120000000E+03 0.  0.
        998    1    1    2    0    0  0.37712341112E+01 -0.92256297879E+00  0.14814097426E+04  0.14814485813E+04  0.10000000000E+02 0.  1.
</event>
<event>
 5    1  0.1087513E-008  0.3821879E+03  0.7957747E-01  0.3441687E+00
         13   -1    0    0    0    0  0.00000000000E+00  0.00000000000E+00  0.14999999963E+04  0.15000000000E+04  0.10566000000E+00 0. -1.
        994   -1    0    0    0    0 -0.00000000000E+00 -0.00000000000E+00  0.11368683772E-12  0.17120000000E+03  0.17120000000E+03 0.  0.
         13    1    1    2    0    0 -0.19432374425E+02  0.46463403045E+01  0.68634618965E+02  0.71483758565E+02  0.10566000000E+00 0. -1.
        994    1    1    2    0    0  0.55930428538E+01  0.16853617685E+02  0.40799874611E+01  0.17216681694E+03  0.17120000000E+03 0.  0.
        998    1    1    2    0    0  0.13839331571E+02 -0.21499957990E+02  0.14272853899E+04  0.14275494245E+04  0.10000000000E+02 0. -1.
</event>
<event>
 5    1  0.1087513E-008  0.3841907E+03  0.7957747E-01  0.3433112E+00
         13   -1    0    0    0    0  0.00000000000E+00  0.00000000000E+00  0.14999999963E+04  0.15000000000E+04  0.10566000000E+00 0.  1.
        994   -1    0    0    0    0 -0.00000000000E+00 -0.00000000000E+00  0.11368683772E-12  0.17120000000E+03  0.17120000000E+03 0.  0.
         13    1    1    2    0    0 -0.10034877265E+02 -0.98721738804E+01  0.48386684645E+02  0.50392866498E+02  0.10566000000E+00 0.  1.
        994    1    1    2    0    0  0.68896987039E+01  0.60978820161E+01  0.23116408702E+01  0.17146263674E+03  0.17120000000E+03 0.  0.
        998    1    1    2    0    0  0.31451785607E+01  0.37742918643E+01  0.14493016708E+04  0.14493444968E+04  0.10000000000E+02 0.  1.
</event>
<event>
 5    1  0.1087513E-008  0.3768766E+03  0.7957747E-01  0.3464872E+00
         13   -1    0    0    0    0  0.00000000000E+00  0.00000000000E+00  0.14999999963E+04  0.15000000000E+04  0.10566000000E+00 0.  1.
        994   -1    0    0    0    0 -0.00000000000E+00 -0.00000000000E+00  0.11368683772E-12  0.17120000000E+03  0.17120000000E+03 0.  0.
         13    1    1    2    0    0 -0.26627379781E+01  0.15453822392E+03  0.88649267123E+03  0.89986577895E+03  0.10566000000E+00 0.  1.
        994    1    1    2    0    0 -0.55441852780E+01 -0.14759337830E+03  0.83359278435E+02  0.24098288863E+03  0.17120000000E+03 0.  0.
        998    1    1    2    0    0  0.82069232561E+01 -0.69448456134E+01  0.53014804661E+03  0.53035133242E+03  0.10000000000E+02 0.  0.
</event>
<event>
 5    1  0.1087513E-008  0.3817219E+03  0.7957747E-01  0.3443695E+00
         13   -1    0    0    0    0  0.00000000000E+00  0.00000000000E+00  0.14999999963E+04  0.15000000000E+04  0.10566000000E+00 0. -1.
        994   -1    0    0    0    0 -0.00000000000E+00 -0.00000000000E+00  0.11368683772E-12  0.17120000000E+03  0.17120000000E+03 0.  0.
         13    1    1    2    0    0 -0.15336224678E+01  0.23180286050E+02  0.85822923447E+02  0.88911546000E+02  0.10566000000E+00 0. -1.
        994    1    1    2    0    0  0.71500117735E+01 -0.44584439332E+01  0.35024830093E+01  0.17144301612E+03  0.17120000000E+03 0.  0.
        998    1    1    2    0    0 -0.56163893057E+01 -0.18721842117E+02  0.14106745898E+04  0.14108454379E+04  0.10000000000E+02 0. -1.
</event>
<event>
 5    1  0.1087513E-008  0.3792426E+03  0.7957747E-01  0.3454463E+00
         13   -1    0    0    0    0  0.00000000000E+00  0.00000000000E+00  0.14999999963E+04  0.15000000000E+04  0.10566000000E+00 0.  1.
        994   -1    0    0    0    0 -0.00000000000E+00 -0.00000000000E+00  0.11368683772E-12  0.17120000000E+03  0.17120000000E+03 0.  0.
         13    1    1    2    0    0  0.19424563462E+02 -0.29719560507E+02  0.14743276315E+03  0.15164760715E+03  0.10566000000E+00 0.  1.
        994    1    1    2    0    0 -0.11610744481E+01  0.11337883601E+02  0.49514120468E+01  0.17165037774E+03  0.17120000000E+03 0.  0.
        998    1    1    2    0    0 -0.18263489014E+02  0.18381676906E+02  0.13476158211E+04  0.13479020151E+04  0.10000000000E+02 0.  1.
</event>
<event>
 5    1  0.1087513E-008  0.3798252E+03  0.7957747E-01  0.3451920E+00
         13   -1    0    0    0    0  0.00000000000E+00  0.00000000000E+00  0.14999999963E+04  0.15000000000E+04  0.10566000000E+00 0. -1.
        994   -1    0    0    0    0 -0.00000000000E+00 -0.00000000000E+00  0.11368683772E-12  0.17120000000E+03  0.17120000000E+03 0.  0.
         13    1    1    2    0    0  0.35913821267E+02  0.39378055712E+02  0.28814114739E+03  0.29302860921E+03  0.10566000000E+00 0. -1.
        994    1    1    2    0    0 -0.22013480372E+02 -0.44580631025E+02  0.12534671185E+02  0.17871369271E+03  0.17120000000E+03 0.  0.
        998    1    1    2    0    0 -0.13900340895E+02  0.52025753124E+01  0.11993241777E+04  0.11994576981E+04  0.10000000000E+02 0. -1.
</event>
<event>
 5    1  0.1087513E-008  0.3812035E+03  0.7957747E-01  0.3445935E+00
         13   -1    0    0    0    0  0.00000000000E+00  0.00000000000E+00  0.14999999963E+04  0.15000000000E+04  0.10566000000E+00 0. -1.
        994   -1    0    0    0    0 -0.00000000000E+00 -0.00000000000E+00  0.11368683772E-12  0.17120000000E+03  0.17120000000E+03 0.  0.
         13    1    1    2    0    0  0.15795564744E+02  0.98603023917E+01  0.47304977084E+02  0.50837952848E+02  0.10566000000E+00 0. -1.
        994    1    1    2    0    0 -0.12145107398E+02 -0.95651998706E+01  0.43230627584E+01  0.17195093938E+03  0.17120000000E+03 0.  0.
        998    1    1    2    0    0 -0.36504573452E+01 -0.29510252114E+00  0.14483719564E+04  0.14484111078E+04  0.10000000000E+02 0. -1.
</event>
<event>
 5    1  0.1087513E-008  0.3704481E+03  0.7957747E-01  0.3493834E+00
         13   -1    0    0    0    0  0.00000000000E+00  0.00000000000E+00  0.14999999963E+04  0.15000000000E+04  0.10566000000E+00 0. -1.
        994   -1    0    0    0    0 -0.00000000000E+00 -0.00000000000E+00  0.11368683772E-12  0.17120000000E+03  0.17120000000E+03 0.  0.
         13    1    1    2    0    0 -0.18737549791E+03 -0.10211401720E+02  0.75136921610E+03  0.77444790658E+03  0.10566000000E+00 0. -1.
        994    1    1    2    0    0  0.19204137278E+03  0.46168929991E+01  0.14969759946E+03  0.29769114169E+03  0.17120000000E+03 0.  0.
        998    1    1    2    0    0 -0.46658748668E+01  0.55945087209E+01  0.59893318072E+03  0.59906095173E+03  0.10000000000E+02 0. -1.
</event>
<event>
 5    1  0.1087513E-008  0.3834094E+03  0.7957747E-01  0.3436446E+00
         13   -1    0    0    0    0  0.00000000000E+00  0.00000000000E+00  0.14999999963E+04  0.15000000000E+04  0.10566000000E+00 0. -1.
        994   -1    0    0    0    0 -0.00000000000E+00 -0.00000000000E+00  0.11368683772E-12  0.17120000000E+03  0.17120000000E+03 0.  0.
         13    1    1    2    0    0  0.90287554568E+01  0.15550919805E+02  0.71340737029E+02  0.73572151361E+02  0.10566000000E+00 0. -1.
        994    1    1    2    0    0 -0.10995554809E+02  0.84576826440E+01  0.30583080724E+01  0.17178832286E+03  0.17120000000E+03 0.  0.
        998    1    1    2    0    0  0.19667993523E+01 -0.24008602449E+02  0.14256009512E+04  0.14258395258E+04  0.10000000000E+02 0. -1.
</event>
<event>
 5    1  0.1087513E-008  0.3831150E+03  0.7957747E-01  0.3437706E+00
         13   -1    0    0    0    0  0.00000000000E+00  0.00000000000E+00  0.14999999963E+04  0.15000000000E+04  0.10566000000E+00 0. -1.
        994   -1    0    0    0    0 -0.00000000000E+00 -0.00000000000E+00  0.11368683772E-12  0.17120000000E+03  0.17120000000E+03 0.  0.
         13    1    1    2    0    0  0.62428904760E+00 -0.15576468828E+02  0.45546401032E+02  0.48140439642E+02  0.10566000000E+00 0. -1.
        994    1    1    2    0    0  0.48946803763E+01  0.15478299211E+02  0.34413718770E+01  0.17200237988E+03  0.17120000000E+03 0.  0.
        998    1    1    2    0    0 -0.55189694239E+01  0.98169616517E-01  0.14510122234E+04  0.14510571805E+04  0.10000000000E+02 0. -1.
</event>
<event>
 5    1  0.1087513E-008  0.3808192E+03  0.7957747E-01  0.3447599E+00
         13   -1    0    0    0    0  0.00000000000E+00  0.00000000000E+00  0.14999999963E+04  0.15000000000E+04  0.10566000000E+00 0.  1.
        994   -1    0    0    0    0 -0.00000000000E+00 -0.00000000000E+00  0.11368683772E-12  0.17120000000E+03  0.17120000000E+03 0.  0.
         13    1    1    2    0    0 -0.31893526674E+02  0.13329531356E+02  0.14179406230E+03  0.14594670506E+03  0.10566000000E+00 0.  1.
        994    1    1    2    0    0  0.22804226663E+02 -0.50359789074E+02  0.13976981347E+02  0.18044649378E+03  0.17120000000E+03 0.  0.
        998    1    1    2    0    0  0.90893000113E+01  0.37030257719E+02  0.13442289526E+04  0.13448068012E+04  0.10000000000E+02 0.  1.
</event>
<event>
 5    1  0.1087513E-008  0.3771293E+03  0.7957747E-01  0.3463754E+00
         13   -1    0    0    0    0  0.00000000000E+00  0.00000000000E+00  0.14999999963E+04  0.15000000000E+04  0.10566000000E+00 0. -1.
        994   -1    0    0    0    0 -0.00000000000E+00 -0.00000000000E+00  0.11368683772E-12  0.17120000000E+03  0.17120000000E+03 0.  0.
         13    1    1    2    0    0  0.35828830775E+02  0.43120433959E+01  0.12806622096E+03  0.13305362433E+03  0.10566000000E+00 0. -1.
        994    1    1    2    0    0 -0.77683495524E+00  0.55059023383E+01  0.56936955819E+01  0.17138487857E+03  0.17120000000E+03 0.  0.
        998    1    1    2    0    0 -0.35051995819E+02 -0.98179457342E+01  0.13662400797E+04  0.13667614971E+04  0.10000000000E+02 0. -1.
</event>
<event>
 5    1  0.1087513E-008  0.3752757E+03  0.7957747E-01  0.3471991E+00
         13   -1    0    0    0    0  0.00000000000E+00  0.00000000000E+00  0.14999999963E+04  0.15000000000E+04  0.10566000000E+00 0. -1.
        994   -1    0    0    0    0 -0.00000000000E+00 -0.00000000000E+00  0.11368683772E-12  0.17120000000E+03  0.17120000000E+03 0.  0.
         13    1    1    2    0    0 -0.11370908796E+02  0.13994964794E+02  0.22176286783E+02  0.28582432821E+02  0.10566000000E+00 0. -1.
        994    1    1    2    0    0  0.32796839012E+01 -0.11732784599E+02  0.70414190067E+01  0.17177728646E+03  0.17120000000E+03 0.  0.
        998    1    1    2    0    0  0.80912248943E+01 -0.22621801950E+01  0.14707822905E+04  0.14708402807E+04  0.10000000000E+02 0. -1.
</event>
<event>
 5    1  0.1087513E-008  0.3853216E+03  0.7957747E-01  0.3428310E+00
         13   -1    0    0    0    0  0.00000000000E+00  0.00000000000E+00  0.14999999963E+04  0.15000000000E+04  0.10566000000E+00 0. -1.
        994   -1    0    0    0    0 -0.00000000000E+00 -0.00000000000E+00  0.11368683772E-12  0.17120000000E+03  0.17120000000E+03 0.  0.
         13    1    1    2    0    0 -0.12567106137E+01 -0.12211388197E+02  0.50147232906E+02  0.51628029746E+02  0.10566000000E+00 0. -1.
        994    1    1    2    0    0  0.14454388631E+02  0.11078996368E+02  0.25609477225E+01  0.17218499344E+03  0.17120000000E+03 0.  0.
        998    1    1    2    0    0 -0.13197678017E+02  0.11323918294E+01  0.14472918157E+04  0.14473869768E+04  0.10000000000E+02 0. -1.
</event>
<event>
 5    1  0.1087513E-008  0.3842947E+03  0.7957747E-01  0.3432669E+00
         13   -1    0    0    0    0  0.00000000000E+00  0.00000000000E+00  0.14999999963E+04  0.15000000000E+04  0.10566000000E+00 0.  1.
        994   -1    0    0    0    0 -0.00000000000E+00 -0.00000000000E+00  0.11368683772E-12  0.17120000000E+03  0.17120000000E+03 0.  0.
         13    1    1    2    0    0  0.15733647479E+02 -0.93462829802E+01  0.87652339322E+02  0.89542416883E+02  0.10566000000E+00 0.  1.
        994    1    1    2    0    0  0.92676851463E+00  0.13332259069E+02  0.25696818207E+01  0.17174006899E+03  0.17120000000E+03 0.  0.
        998    1    1    2    0    0 -0.16660415994E+02 -0.39859760891E+01  0.14097779751E+04  0.14099175141E+04  0.10000000000E+02 0.  1.
</event>
<event>
 5    1  0.1087513E-008  0.3819222E+03  0.7957747E-01  0.3442831E+00
         13   -1    0    0    0    0  0.00000000000E+00  0.00000000000E+00  0.14999999963E+04  0.15000000000E+04  0.10566000000E+00 0.  1.
        994   -1    0    0    0    0 -0.00000000000E+00 -0.00000000000E+00  0.11368683772E-12  0.17120000000E+03  0.17120000000E+03 0.  0.
         13    1    1    2    0    0 -0.10614279812E+02  0.15191674809E+02  0.54368521194E+02  0.57440379354E+02  0.10566000000E+00 0.  1.
        994    1    1    2    0    0  0.52781036485E+01 -0.47799513123E+01  0.33344386249E+01  0.17138046795E+03  0.17120000000E+03 0.  0.
        998    1    1    2    0    0  0.53361761637E+01 -0.10411723497E+02  0.14422970365E+04  0.14423791527E+04  0.10000000000E+02 0.  1.
</event>
<event>
 5    1  0.1087513E-008  0.2113794E+03  0.7957747E-01  0.4842106E+00
         13   -1    0    0    0    0  0.00000000000E+00  0.00000000000E+00  0.14999999963E+04  0.15000000000E+04  0.10566000000E+00 0.  1.
        994   -1    0    0    0    0 -0.00000000000E+00 -0.00000000000E+00  0.11368683772E-12  0.17120000000E+03  0.17120000000E+03 0.  0.
         13    1    1    2    0    0  0.13130075071E+03 -0.98345757856E+02  0.30393243477E+03  0.34537908346E+03  0.10566000000E+00 0.  1.
        994    1    1    2    0    0  0.89888396831E+02  0.24626004590E+02  0.12949956616E+03  0.23402124182E+03  0.17120000000E+03 0.  0.
        998    1    1    2    0    0 -0.22118914754E+03  0.73719753266E+02  0.10665679954E+04  0.10917996747E+04  0.10000000000E+02 0.  1.
</event>
<event>
 5    1  0.1087513E-008  0.3837871E+03  0.7957747E-01  0.3434833E+00
         13   -1    0    0    0    0  0.00000000000E+00  0.00000000000E+00  0.14999999963E+04  0.15000000000E+04  0.10566000000E+00 0. -1.
        994   -1    0    0    0    0 -0.00000000000E+00 -0.00000000000E+00  0.11368683772E-12  0.17120000000E+03  0.17120000000E+03 0.  0.
         13    1    1    2    0    0 -0.77956165245E+01 -0.92200216074E+01  0.31674860875E+02  0.33898206604E+02  0.10566000000E+00 0. -1.
        994    1    1    2    0    0  0.14147975434E+01  0.12905502786E+02  0.27902195358E+01  0.17171423639E+03  0.17120000000E+03 0.  0.
        998    1    1    2    0    0  0.63808189811E+01 -0.36854811788E+01  0.14655349159E+04  0.14655875570E+04  0.10000000000E+02 0. -1.
</event>
<event>
 5    1  0.1087513E-008  0.3846561E+03  0.7957747E-01  0.3431132E+00
         13   -1    0    0    0    0  0.00000000000E+00  0.00000000000E+00  0.14999999963E+04  0.15000000000E+04  0.10566000000E+00 0.  1.
        994   -1    0    0    0    0 -0.00000000000E+00 -0.00000000000E+00  0.11368683772E-12  0.17120000000E+03  0.17120000000E+03 0.  0.
         13    1    1    2    0    0 -0.10296147903E+02 -0.35074899013E+01  0.31459945002E+02  0.33287421808E+02  0.10566000000E+00 0.  1.
        994    1    1    2    0    0  0.15208652505E+02  0.18714205272E+01  0.25743967605E+01  0.17190367316E+03  0.17120000000E+03 0.  0.
        998    1    1    2    0    0 -0.49125046017E+01  0.16360693742E+01  0.14659656545E+04  0.14660089050E+04  0.10000000000E+02 0.  1.
</event>
<event>
 5    1  0.1087513E-008  0.2900291E+03  0.7957747E-01  0.3969878E+00
         13   -1    0    0    0    0  0.00000000000E+00  0.00000000000E+00  0.14999999963E+04  0.15000000000E+04  0.10566000000E+00 0.  1.
        994   -1    0    0    0    0 -0.00000000000E+00 -0.00000000000E+00  0.11368683772E-12  0.17120000000E+03  0.17120000000E+03 0.  0.
         13    1    1    2    0    0  0.42044135799E+02 -0.14080049255E+03  0.72425036765E+03  0.73900682964E+03  0.10566000000E+00 0.  1.
        994    1    1    2    0    0 -0.22598086362E+02  0.63016098224E+02  0.35094394824E+02  0.18714368461E+03  0.17120000000E+03 0.  0.
        998    1    1    2    0    0 -0.19446049437E+02  0.77784394330E+02  0.74065523381E+03  0.74504948574E+03  0.10000000000E+02 0.  1.
</event>
<event>
 5    1  0.1087513E-008  0.3818080E+03  0.7957747E-01  0.3443324E+00
         13   -1    0    0    0    0  0.00000000000E+00  0.00000000000E+00  0.14999999963E+04  0.15000000000E+04  0.10566000000E+00 0.  1.
        994   -1    0    0    0    0 -0.00000000000E+00 -0.00000000000E+00  0.11368683772E-12  0.17120000000E+03  0.17120000000E+03 0.  0.
         13    1    1    2    0    0  0.35461305446E+02 -0.58847082363E+01  0.17841315147E+03  0.18199834548E+03  0.10566000000E+00 0.  1.
        994    1    1    2    0    0 -0.36416750918E+02 -0.19547014444E+01  0.76555612984E+01  0.17520858490E+03  0.17120000000E+03 0.  0.
        998    1    1    2    0    0  0.95544547212E+00  0.78394096807E+01  0.13139312835E+04  0.13139930696E+04  0.10000000000E+02 0.  1.
</event>
<event>
 5    1  0.1338304E-008  0.3856616E+03  0.7957747E-01  0.3426871E+00
         13   -1    0    0    0    0  0.00000000000E+00  0.00000000000E+00  0.14999999963E+04  0.15000000000E+04  0.10566000000E+00 0. -1.
        994   -1    0    0    0    0 -0.00000000000E+00 -0.00000000000E+00  0.11368683772E-12  0.17120000000E+03  0.17120000000E+03 0.  0.
         13    1    1    2    0    0  0.54534298685E+01 -0.10478868572E+02  0.52699413007E+02  0.54007276169E+02  0.10566000000E+00 0. -1.
        994    1    1    2    0    0 -0.83837460303E+01  0.87483617554E+01  0.17839902845E+01  0.17163753567E+03  0.17120000000E+03 0.  0.
        998    1    1    2    0    0  0.29303161617E+01  0.17305068161E+01  0.14455165930E+04  0.14455551882E+04  0.10000000000E+02 0. -1.
</event>
<event>
 5    1  0.1087513E-008  0.3823363E+03  0.7957747E-01  0.3441048E+00
         13   -1    0    0    0    0  0.00000000000E+00  0.00000000000E+00  0.14999999963E+04  0.15000000000E+04  0.10566000000E+00 0.  1.
        994   -1    0    0    0    0 -0.00000000000E+00 -0.00000000000E+00  0.11368683772E-12  0.17120000000E+03  0.17120000000E+03 0.  0.
         13    1    1    2    0    0  0.91129553460E+01  0.20417387285E+02  0.10989242201E+03  0.11214397549E+03  0.10566000000E+00 0.  1.
        994    1    1    2    0    0  0.21842468108E+02  0.20509828179E+02  0.59422340756E+01  0.17390369924E+03  0.17120000000E+03 0.  0.
        998    1    1    2    0    0 -0.30955423454E+02 -0.40927215464E+02  0.13841653402E+04  0.13851523253E+04  0.10000000000E+02 0.  1.
</event>
<event>
 5    1  0.1087513E-008  0.3830541E+03  0.7957747E-01  0.3437967E+00
         13   -1    0    0    0    0  0.00000000000E+00  0.00000000000E+00  0.14999999963E+04  0.15000000000E+04  0.10566000000E+00 0.  1.
        994   -1    0    0    0    0 -0.00000000000E+00 -0.00000000000E+00  0.11368683772E-12  0.17120000000E+03  0.17120000000E+03 0.  0.
         13    1    1    2    0    0  0.10490291000E+02 -0.10064359557E+02  0.40988466534E+02  0.43490264329E+02  0.10566000000E+00 0.  1.
        994    1    1    2    0    0  0.17911532505E+01  0.61000415626E+01  0.27331132327E+01  0.17133980461E+03  0.17120000000E+03 0.  0.
        998    1    1    2    0    0 -0.12281444251E+02  0.39643179943E+01  0.14562784165E+04  0.14563699311E+04  0.10000000000E+02 0.  1.
</event>
<event>
 5    1  0.1087513E-008  0.3854590E+03  0.7957747E-01  0.3427728E+00
         13   -1    0    0    0    0  0.00000000000E+00  0.00000000000E+00  0.14999999963E+04  0.15000000000E+04  0.10566000000E+00 0.  1.
        994   -1    0    0    0    0 -0.00000000000E+00 -0.00000000000E+00  0.11368683772E-12  0.17120000000E+03  0.17120000000E+03 0.  0.
         13    1    1    2    0    0 -0.91024339891E+01 -0.48879630345E+01  0.37055831546E+02  0.38469368369E+02  0.10566000000E+00 0.  1.
        994    1    1    2    0    0  0.44134588300E+01  0.18585424633E+02  0.26015844969E+01  0.17228205034E+03  0.17120000000E+03 0.  0.
        998    1    1    2    0    0  0.46889751591E+01 -0.13697461598E+02  0.14603425802E+04  0.14604485813E+04  0.10000000000E+02 0.  1.
</event>
<event>
 5    1  0.1087513E-008  0.3765631E+03  0.7957747E-01  0.3466261E+00
         13   -1    0    0    0    0  0.00000000000E+00  0.00000000000E+00  0.14999999963E+04  0.15000000000E+04  0.10566000000E+00 0. -1.
        994   -1    0    0    0    0 -0.00000000000E+00 -0.00000000000E+00  0.11368683772E-12  0.17120000000E+03  0.17120000000E+03 0.  0.
         13    1    1    2    0    0  0.23017224572E+02 -0.68238720200E+01  0.46250681952E+02  0.52110407804E+02  0.10566000000E+00 0. -1.
        994    1    1    2    0    0 -0.18829855407E+02  0.34271764867E+01  0.71178251190E+01  0.17241349259E+03  0.17120000000E+03 0.  0.
        998    1    1    2    0    0 -0.41873691657E+01  0.33966955333E+01  0.14466314892E+04  0.14466760996E+04  0.10000000000E+02 0. -1.
</event>
<event>
 5    1  0.1087513E-008  0.3826663E+03  0.7957747E-01  0.3439631E+00
         13   -1    0    0    0    0  0.00000000000E+00  0.00000000000E+00  0.14999999963E+04  0.15000000000E+04  0.10566000000E+00 0. -1.
        994   -1    0    0    0    0 -0.00000000000E+00 -0.00000000000E+00  0.11368683772E-12  0.17120000000E+03  0.17120000000E+03 0.  0.
         13    1    1    2    0    0 -0.11031348412E+02 -0.61040952674E+00  0.21367761780E+02  0.24055262524E+02  0.10566000000E+00 0. -1.
        994    1    1    2    0    0 -0.65170060872E+00 -0.69971240263E+01  0.29569155230E+01  0.17136968171E+03  0.17120000000E+03 0.  0.
        998    1    1    2    0    0  0.11683049021E+02  0.76075335530E+01  0.14756753190E+04  0.14757750558E+04  0.10000000000E+02 0. -1.
</event>
<event>
 5    1  0.1087513E-008  0.3803659E+03  0.7957747E-01  0.3449567E+00
         13   -1    0    0    0    0  0.00000000000E+00  0.00000000000E+00  0.14999999963E+04  0.15000000000E+04  0.10566000000E+00 0. -1.
        994   -1    0    0    0    0 -0.00000000000E+00 -0.00000000000E+00  0.11368683772E-12  0.17120000000E+03  0.17120000000E+03 0.  0.
         13    1    1    2    0    0  0.18693210006E+02  0.30337842304E-01  0.43755264848E+02  0.47581208336E+02  0.10566000000E+00 0. -1.
        994    1    1    2    0    0 -0.60386080809E+01 -0.62587345397E+00  0.40716157756E+01  0.17135598782E+03  0.17120000000E+03 0.  0.
        998    1    1    2    0    0 -0.12654601925E+02  0.59553561166E+00  0.14521731157E+04  0.14522628038E+04  0.10000000000E+02 0. -1.
</event>
<event>
 5    1  0.1087513E-008  0.3854618E+03  0.7957747E-01  0.3427716E+00
         13   -1    0    0    0    0  0.00000000000E+00  0.00000000000E+00  0.14999999963E+04  0.15000000000E+04  0.10566000000E+00 0.  1.
        994   -1    0    0    0    0 -0.00000000000E+00 -0.00000000000E+00  0.11368683772E-12  0.17120000000E+03  0.17120000000E+03 0.  0.
         13    1    1    2    0    0 -0.67599894273E+01 -0.16205240081E+02  0.10374136357E+03  0.10521686625E+03  0.10566000000E+00 0.  1.
        994    1    1    2    0    0  0.58129495773E+01  0.17731489483E+02  0.25452647588E+01  0.17223273346E+03  0.17120000000E+03 0.  0.
        998    1    1    2    0    0  0.94703984998E+00 -0.15262494018E+01  0.13937133679E+04  0.13937504003E+04  0.10000000000E+02 0.  1.
</event>
<event>
 5    1  0.1157133E-008  0.3852501E+03  0.7957747E-01  0.3428612E+00
         13   -1    0    0    0    0  0.00000000000E+00  0.00000000000E+00  0.14999999963E+04  0.15000000000E+04  0.10566000000E+00 0.  1.
        994   -1    0    0    0    0 -0.00000000000E+00 -0.00000000000E+00  0.11368683772E-12  0.17120000000E+03  0.17120000000E+03 0.  0.
         13    1    1    2    0    0 -0.72537676893E+01 -0.78346622353E+01  0.37942699118E+02  0.39416476991E+02  0.10566000000E+00 0.  1.
        994    1    1    2    0    0  0.37251369341E+01  0.54791964476E+01  0.16502804016E+01  0.17133610730E+03  0.17120000000E+03 0.  0.
        998    1    1    2    0    0  0.35286307552E+01  0.23554657876E+01  0.14604070168E+04  0.14604474157E+04  0.10000000000E+02 0.  1.
</event>
<event>
 5    1  0.1087513E-008  0.3937502E+03  0.7957747E-01  0.3393388E+00
         13   -1    0    0    0    0  0.00000000000E+00  0.00000000000E+00  0.14999999963E+04  0.15000000000E+04  0.10566000000E+00 0.  1.
        994   -1    0    0    0    0 -0.00000000000E+00 -0.00000000000E+00  0.11368683772E-12  0.17120000000E+03  0.17120000000E+03 0.  0.
         13    1    1    2    0    0 -0.20446271973E+02  0.97378101087E+01  0.13631554498E+00  0.22647400055E+02  0.10566000000E+00 0.  1.
        994    1    1    2    0    0  0.16162786347E+02 -0.10125443930E+02  0.25485431364E+02  0.17413416520E+03  0.17120000000E+03 0.  0.
        998    1    1    2    0    0  0.42834856253E+01  0.38763382090E+00  0.14743782494E+04  0.14744184347E+04  0.10000000000E+02 0.  1.
</event>
<event>
 5    1  0.1087513E-008  0.3769653E+03  0.7957747E-01  0.3464480E+00
         13   -1    0    0    0    0  0.00000000000E+00  0.00000000000E+00  0.14999999963E+04  0.15000000000E+04  0.10566000000E+00 0. -1.
        994   -1    0    0    0    0 -0.00000000000E+00 -0.00000000000E+00  0.11368683772E-12  0.17120000000E+03  0.17120000000E+03 0.  0.
         13    1    1    2    0    0 -0.73983437783E+01 -0.49031815405E+02  0.19462259729E+03  0.20084028718E+03  0.10566000000E+00 0. -1.
        994    1    1    2    0    0  0.16713322696E+02  0.42576358677E+02  0.12770347161E+02  0.17766429928E+03  0.17120000000E+03 0.  0.
        998    1    1    2    0    0 -0.93149789175E+01  0.64554567276E+01  0.12926070518E+04  0.12926954135E+04  0.10000000000E+02 0.  0.
</event>
<event>
 5    1  0.1087513E-008  0.3786801E+03  0.7957747E-01  0.3456926E+00
         13   -1    0    0    0    0  0.00000000000E+00  0.00000000000E+00  0.14999999963E+04  0.15000000000E+04  0.10566000000E+00 0. -1.
        994   -1    0    0    0    0 -0.00000000000E+00 -0.00000000000E+00  0.11368683772E-12  0.17120000000E+03  0.17120000000E+03 0.  0.
         13    1    1    2    0    0  0.19494611328E+02 -0.11694986658E+02  0.52859812923E+02  0.57541146756E+02  0.10566000000E+00 0. -1.
        994    1    1    2    0    0 -0.95408284005E+01  0.40586739924E+01  0.51619096119E+01  0.17159133297E+03  0.17120000000E+03 0.  0.
        998    1    1    2    0    0 -0.99537829272E+01  0.76363126660E+01  0.14419782737E+04  0.14420675203E+04  0.10000000000E+02 0. -1.
</event>
<event>
 5    1  0.1131272E-008  0.3857636E+03  0.7957747E-01  0.3426440E+00
         13   -1    0    0    0    0  0.00000000000E+00  0.00000000000E+00  0.14999999963E+04  0.15000000000E+04  0.10566000000E+00 0.  1.
        994   -1    0    0    0    0 -0.00000000000E+00 -0.00000000000E+00  0.11368683772E-12  0.17120000000E+03  0.17120000000E+03 0.  0.
         13    1    1    2    0    0 -0.30667314399E+01 -0.11246264855E+02  0.56938383960E+02  0.58119480786E+02  0.10566000000E+00 0.  1.
        994    1    1    2    0    0 -0.56843608916E+01  0.36641331516E+01  0.14015319612E+01  0.17133926031E+03  0.17120000000E+03 0.  0.
        998    1    1    2    0    0  0.87510923315E+01  0.75821317029E+01  0.14416600804E+04  0.14417412589E+04  0.10000000000E+02 0.  1.
</event>
<event>
 5    1  0.1087513E-008  0.3860074E+03  0.7957747E-01  0.3425411E+00
         13   -1    0    0    0    0  0.00000000000E+00  0.00000000000E+00  0.14999999963E+04  0.15000000000E+04  0.10566000000E+00 0.  1.
        994   -1    0    0    0    0 -0.00000000000E+00 -0.00000000000E+00  0.11368683772E-12  0.17120000000E+03  0.17120000000E+03 0.  0.
         13    1    1    2    0    0 -0.41324408621E+01  0.12645254031E+02  0.77596331557E+02  0.78728529468E+02  0.10566000000E+00 0.  1.
        994    1    1    2    0    0 -0.48180840441E+01 -0.13472195768E+02  0.18021172523E+01  0.17180629098E+03  0.17120000000E+03 0.  0.
        998    1    1    2    0    0  0.89505249062E+01  0.82694173702E+00  0.14206015475E+04  0.14206651796E+04  0.10000000000E+02 0.  1.
</event>
<event>
 5    1  0.1087513E-008  0.3801152E+03  0.7957747E-01  0.3450657E+00
         13   -1    0    0    0    0  0.00000000000E+00  0.00000000000E+00  0.14999999963E+04  0.15000000000E+04  0.10566000000E+00 0.  1.
        994   -1    0    0    0    0 -0.00000000000E+00 -0.00000000000E+00  0.11368683772E-12  0.17120000000E+03  0.17120000000E+03 0.  0.
         13    1    1    2    0    0  0.23052581608E+02  0.77482187326E+01  0.69259802590E+02  0.73405638961E+02  0.10566000000E+00 0.  1.
        994    1    1    2    0    0 -0.21696331392E+02 -0.27321542295E+01  0.56746019568E+01  0.17268421054E+03  0.17120000000E+03 0.  0.
        998    1    1    2    0    0 -0.13562502162E+01 -0.50160645031E+01  0.14250655917E+04  0.14251101505E+04  0.10000000000E+02 0.  1.
</event>
<event>
 5    1  0.1087513E-008  0.3755032E+03  0.7957747E-01  0.3470975E+00
         13   -1    0    0    0    0  0.00000000000E+00  0.00000000000E+00  0.14999999963E+04  0.15000000000E+04  0.10566000000E+00 0. -1.
        994   -1    0    0    0    0 -0.00000000000E+00 -0.00000000000E+00  0.11368683772E-12  0.17120000000E+03  0.17120000000E+03 0.  0.
         13    1    1    2    0    0  0.21473318489E+02 -0.44155696946E+02  0.16857025278E+03  0.17557554006E+03  0.10566000000E+00 0. -1.
        994    1    1    2    0    0 -0.68890757281E+01  0.48249359003E+02  0.14524488687E+02  0.17859412303E+03  0.17120000000E+03 0.  0.
        998    1    1    2    0    0 -0.14584242761E+02 -0.40936620569E+01  0.13169052548E+04  0.13170303369E+04  0.10000000000E+02 0. -1.
</event>
<event>
 5    1  0.1087513E-008  0.3887767E+03  0.7957747E-01  0.3413811E+00
         13   -1    0    0    0    0  0.00000000000E+00  0.00000000000E+00  0.14999999963E+04  0.15000000000E+04  0.10566000000E+00 0.  1.
        994   -1    0    0    0    0 -0.00000000000E+00 -0.00000000000E+00  0.11368683772E-12  0.17120000000E+03  0.17120000000E+03 0.  0.
         13    1    1    2    0    0 -0.61080923482E+02 -0.13179578335E+03  0.21845321746E+03  0.26234105112E+03  0.10566000000E+00 0.  1.
        994    1    1    2    0    0  0.20389378391E+03  0.16774310007E+03  0.37123331011E+03  0.48665597014E+03  0.17120000000E+03 0.  0.
        998    1    1    2    0    0 -0.14281286043E+03 -0.35947316717E+02  0.91031346871E+03  0.92220297874E+03  0.10000000000E+02 0.  1.
</event>
<event>
 5    1  0.1087513E-008  0.3815063E+03  0.7957747E-01  0.3444626E+00
         13   -1    0    0    0    0  0.00000000000E+00  0.00000000000E+00  0.14999999963E+04  0.15000000000E+04  0.10566000000E+00 0.  1.
        994   -1    0    0    0    0 -0.00000000000E+00 -0.00000000000E+00  0.11368683772E-12  0.17120000000E+03  0.17120000000E+03 0.  0.
         13    1    1    2    0    0 -0.25097316593E+02 -0.13510165565E+02  0.11065349787E+03  0.11426551373E+03  0.10566000000E+00 0.  1.
        994    1    1    2    0    0  0.23528637019E+02  0.19693915254E+02  0.65125930236E+01  0.17404970820E+03  0.17120000000E+03 0.  0.
        998    1    1    2    0    0  0.15686795740E+01 -0.61837496889E+01  0.13828339054E+04  0.13828847781E+04  0.10000000000E+02 0.  1.
</event>
<event>
 5    1  0.1087513E-008  0.3788095E+03  0.7957747E-01  0.3456359E+00
         13   -1    0    0    0    0  0.00000000000E+00  0.00000000000E+00  0.14999999963E+04  0.15000000000E+04  0.10566000000E+00 0. -1.
        994   -1    0    0    0    0 -0.00000000000E+00 -0.00000000000E+00  0.11368683772E-12  0.17120000000E+03  0.17120000000E+03 0.  0.
         13    1    1    2    0    0 -0.98413690032E+01  0.13121981814E+02  0.25783271722E+02  0.30558586605E+02  0.10566000000E+00 0. -1.
        994    1    1    2    0    0  0.11623890639E+02 -0.16975757408E+02  0.61572220987E+01  0.17254171251E+03  0.17120000000E+03 0.  0.
        998    1    1    2    0    0 -0.17825216358E+01  0.38537755938E+01  0.14680595025E+04  0.14680997009E+04  0.10000000000E+02 0. -1.
</event>
<event>
 5    1  0.1087513E-008  0.3790990E+03  0.7957747E-01  0.3455091E+00
         13   -1    0    0    0    0  0.00000000000E+00  0.00000000000E+00  0.14999999963E+04  0.15000000000E+04  0.10566000000E+00 0.  1.
        994   -1    0    0    0    0 -0.00000000000E+00 -0.00000000000E+00  0.11368683772E-12  0.17120000000E+03  0.17120000000E+03 0.  0.
         13    1    1    2    0    0 -0.11285626762E+02 -0.10875469595E+02  0.24472871168E+02  0.29061551878E+02  0.10566000000E+00 0.  1.
        994    1    1    2    0    0  0.71847901671E+01  0.16592747492E+02  0.56855971333E+01  0.17224606380E+03  0.17120000000E+03 0.  0.
        998    1    1    2    0    0  0.41008365945E+01 -0.57172778962E+01  0.14698415280E+04  0.14698923843E+04  0.10000000000E+02 0.  1.
</event>
<event>
 5    1  0.1087513E-008  0.3752103E+03  0.7957747E-01  0.3472283E+00
         13   -1    0    0    0    0  0.00000000000E+00  0.00000000000E+00  0.14999999963E+04  0.15000000000E+04  0.10566000000E+00 0. -1.
        994   -1    0    0    0    0 -0.00000000000E+00 -0.00000000000E+00  0.11368683772E-12  0.17120000000E+03  0.17120000000E+03 0.  0.
         13    1    1    2    0    0 -0.55813226318E+02 -0.33739563809E+02  0.29055844586E+03  0.29778800517E+03  0.10566000000E+00 0. -1.
        994    1    1    2    0    0  0.37200251125E+02  0.37534397831E+02  0.16116706436E+02  0.17989407420E+03  0.17120000000E+03 0.  0.
        998    1    1    2    0    0  0.18612975193E+02 -0.37948340224E+01  0.11933248440E+04  0.11935179206E+04  0.10000000000E+02 0. -1.
</event>
<event>
 5    1  0.1087513E-008  0.3834362E+03  0.7957747E-01  0.3436332E+00
         13   -1    0    0    0    0  0.00000000000E+00  0.00000000000E+00  0.14999999963E+04  0.15000000000E+04  0.10566000000E+00 0. -1.
        994   -1    0    0    0    0 -0.00000000000E+00 -0.00000000000E+00  0.11368683772E-12  0.17120000000E+03  0.17120000000E+03 0.  0.
         13    1    1    2    0    0 -0.59253806096E+01  0.21428676414E+02  0.10305505323E+03  0.10542605688E+03  0.10566000000E+00 0. -1.
        994    1    1    2    0    0  0.93132582162E+01 -0.10200588443E+02  0.30394036683E+01  0.17178319696E+03  0.17120000000E+03 0.  0.
        998    1    1    2    0    0 -0.33878776066E+01 -0.11228087971E+02  0.13939055394E+04  0.13939907462E+04  0.10000000000E+02 0. -1.
</event>
<event>
 5    1  0.1087513E-008  0.3766595E+03  0.7957747E-01  0.3465834E+00
         13   -1    0    0    0    0  0.00000000000E+00  0.00000000000E+00  0.14999999963E+04  0.15000000000E+04  0.10566000000E+00 0.  1.
        994   -1    0    0    0    0 -0.00000000000E+00 -0.00000000000E+00  0.11368683772E-12  0.17120000000E+03  0.17120000000E+03 0.  0.
         13    1    1    2    0    0  0.19981592159E+02 -0.14216172255E+02  0.47683919078E+02  0.53620246936E+02  0.10566000000E+00 0.  1.
        994    1    1    2    0    0 -0.22503041927E+02  0.13975825544E+02  0.82046137704E+01  0.17343144548E+03  0.17120000000E+03 0.  0.
        998    1    1    2    0    0  0.25214497683E+01  0.24034671118E+00  0.14441114634E+04  0.14441483076E+04  0.10000000000E+02 0.  1.
</event>
<event>
 5    1  0.1453644E-008  0.3859502E+03  0.7957747E-01  0.3425652E+00
         13   -1    0    0    0    0  0.00000000000E+00  0.00000000000E+00  0.14999999963E+04  0.15000000000E+04  0.10566000000E+00 0. -1.
        994   -1    0    0    0    0 -0.00000000000E+00 -0.00000000000E+00  0.11368683772E-12  0.17120000000E+03  0.17120000000E+03 0.  0.
         13    1    1    2    0    0 -0.54763292156E+01  0.83796295673E+01  0.59897677158E+02  0.60728504562E+02  0.10566000000E+00 0. -1.
        994    1    1    2    0    0 -0.31993085245E+02  0.19849636653E+02  0.58205000512E+01  0.17538780972E+03  0.17120000000E+03 0.  0.
        998    1    1    2    0    0  0.37469414460E+02 -0.28229266220E+02  0.14342818191E+04  0.14350836857E+04  0.10000000000E+02 0. -1.
</event>
<event>
 5    1  0.1452955E-008  0.3864034E+03  0.7957747E-01  0.3423742E+00
         13   -1    0    0    0    0  0.00000000000E+00  0.00000000000E+00  0.14999999963E+04  0.15000000000E+04  0.10566000000E+00 0. -1.
        994   -1    0    0    0    0 -0.00000000000E+00 -0.00000000000E+00  0.11368683772E-12  0.17120000000E+03  0.17120000000E+03 0.  0.
         13    1    1    2    0    0 -0.55595823999E+01  0.88854543216E+01  0.59609695140E+02  0.60524269295E+02  0.10566000000E+00 0. -1.
        994    1    1    2    0    0  0.28950511724E+00 -0.88939215297E+01  0.11942305463E+01  0.17143527012E+03  0.17120000000E+03 0.  0.
        998    1    1    2    0    0  0.52700772827E+01  0.84672081390E-02  0.14391960706E+04  0.14392404606E+04  0.10000000000E+02 0. -1.
</event>
<event>
 5    1  0.1087513E-008  0.3808415E+03  0.7957747E-01  0.3447502E+00
         13   -1    0    0    0    0  0.00000000000E+00  0.00000000000E+00  0.14999999963E+04  0.15000000000E+04  0.10566000000E+00 0. -1.
        994   -1    0    0    0    0 -0.00000000000E+00 -0.00000000000E+00  0.11368683772E-12  0.17120000000E+03  0.17120000000E+03 0.  0.
         13    1    1    2    0    0 -0.51386845484E+01  0.28990342662E+02  0.11563766253E+03  0.11932697183E+03  0.10566000000E+00 0.  1.
        994    1    1    2    0    0 -0.96644088301E+01 -0.19844456090E+02  0.53347944823E+01  0.17269945937E+03  0.17120000000E+03 0.  0.
        998    1    1    2    0    0  0.14803093379E+02 -0.91458865724E+01  0.13790275393E+04  0.13791735688E+04  0.10000000000E+02 0. -1.
</event>
<event>
 5    1  0.1087513E-008  0.3770367E+03  0.7957747E-01  0.3464164E+00
         13   -1    0    0    0    0  0.00000000000E+00  0.00000000000E+00  0.14999999963E+04  0.15000000000E+04  0.10566000000E+00 0. -1.
        994   -1    0    0    0    0 -0.00000000000E+00 -0.00000000000E+00  0.11368683772E-12  0.17120000000E+03  0.17120000000E+03 0.  0.
         13    1    1    2    0    0 -0.30245250518E+02  0.63321451965E+01  0.83460869626E+02  0.88997748086E+02  0.10566000000E+00 0. -1.
        994    1    1    2    0    0  0.18726995327E+02  0.69341875621E+01  0.69840027243E+01  0.17250217275E+03  0.17120000000E+03 0.  0.
        998    1    1    2    0    0  0.11518255191E+02 -0.13266332759E+02  0.14095551239E+04  0.14097000792E+04  0.10000000000E+02 0. -1.
</event>
<event>
 5    1  0.1087513E-008  0.3841797E+03  0.7957747E-01  0.3433159E+00
         13   -1    0    0    0    0  0.00000000000E+00  0.00000000000E+00  0.14999999963E+04  0.15000000000E+04  0.10566000000E+00 0. -1.
        994   -1    0    0    0    0 -0.00000000000E+00 -0.00000000000E+00  0.11368683772E-12  0.17120000000E+03  0.17120000000E+03 0.  0.
         13    1    1    2    0    0 -0.11557577412E+02  0.61119339129E+01  0.41164952679E+02  0.43191409156E+02  0.10566000000E+00 0. -1.
        994    1    1    2    0    0  0.90100864630E+01 -0.54147714722E+01  0.24024239378E+01  0.17153924638E+03  0.17120000000E+03 0.  0.
        998    1    1    2    0    0  0.25474909486E+01 -0.69716244065E+00  0.14564326197E+04  0.14564693445E+04  0.10000000000E+02 0. -1.
</event>
<event>
 5    1  0.1087513E-008  0.3698423E+03  0.7957747E-01  0.3496616E+00
         13   -1    0    0    0    0  0.00000000000E+00  0.00000000000E+00  0.14999999963E+04  0.15000000000E+04  0.10566000000E+00 0.  1.
        994   -1    0    0    0    0 -0.00000000000E+00 -0.00000000000E+00  0.11368683772E-12  0.17120000000E+03  0.17120000000E+03 0.  0.
         13    1    1    2    0    0  0.14935855990E+02  0.12729652543E+01  0.76932988985E+01  0.16849280302E+02  0.10566000000E+00 0.  1.
        994    1    1    2    0    0 -0.16051179524E+02 -0.32699643120E+01  0.10280362022E+02  0.17228888204E+03  0.17120000000E+03 0.  0.
        998    1    1    2    0    0  0.11153235338E+01  0.19969990578E+01  0.14820263354E+04  0.14820618377E+04  0.10000000000E+02 0.  1.
</event>
<event>
 5    1  0.1087513E-008  0.3832015E+03  0.7957747E-01  0.3437336E+00
         13   -1    0    0    0    0  0.00000000000E+00  0.00000000000E+00  0.14999999963E+04  0.15000000000E+04  0.10566000000E+00 0.  1.
        994   -1    0    0    0    0 -0.00000000000E+00 -0.00000000000E+00  0.11368683772E-12  0.17120000000E+03  0.17120000000E+03 0.  0.
         13    1    1    2    0    0 -0.56601926816E+01 -0.17216254809E+02  0.65004863617E+02  0.67483928966E+02  0.10566000000E+00 0.  1.
        994    1    1    2    0    0  0.68192226823E+01  0.79656793712E+01  0.28894824842E+01  0.17154516302E+03  0.17120000000E+03 0.  0.
        998    1    1    2    0    0 -0.11590300007E+01  0.92505754373E+01  0.14321056502E+04  0.14321709080E+04  0.10000000000E+02 0.  1.
</event>
<event>
 5    1  0.1087513E-008  0.3827261E+03  0.7957747E-01  0.3439374E+00
         13   -1    0    0    0    0  0.00000000000E+00  0.00000000000E+00  0.14999999963E+04  0.15000000000E+04  0.10566000000E+00 0. -1.
        994   -1    0    0    0    0 -0.00000000000E+00 -0.00000000000E+00  0.11368683772E-12  0.17120000000E+03  0.17120000000E+03 0.  0.
         13    1    1    2    0    0  0.41703307028E+01 -0.11776323487E+02  0.27623981890E+02  0.30317799929E+02  0.10566000000E+00 0. -1.
        994    1    1    2    0    0  0.18007882737E+02  0.11413940678E+02  0.42707425658E+01  0.17257532015E+03  0.17120000000E+03 0.  0.
        998    1    1    2    0    0 -0.22178213440E+02  0.36238280912E+00  0.14681052718E+04  0.14683068799E+04  0.10000000000E+02 0. -1.
</event>
<event>
 5    1  0.1087513E-008  0.3763808E+03  0.7957747E-01  0.3467070E+00
         13   -1    0    0    0    0  0.00000000000E+00  0.00000000000E+00  0.14999999963E+04  0.15000000000E+04  0.10566000000E+00 0. -1.
        994   -1    0    0    0    0 -0.00000000000E+00 -0.00000000000E+00  0.11368683772E-12  0.17120000000E+03  0.17120000000E+03 0.  0.
         13    1    1    2    0    0 -0.11894512727E+02 -0.31382677719E+02  0.32426418989E+02  0.46667287325E+02  0.10566000000E+00 0. -1.
        994    1    1    2    0    0  0.18500209709E+02  0.33537164073E+02  0.19617680225E+02  0.17652561432E+03  0.17120000000E+03 0.  0.
        998    1    1    2    0    0 -0.66056969827E+01 -0.21544863543E+01  0.14479558971E+04  0.14480070984E+04  0.10000000000E+02 0. -1.
</event>
<event>
 5    1  0.1087513E-008  0.3861516E+03  0.7957747E-01  0.3424803E+00
         13   -1    0    0    0    0  0.00000000000E+00  0.00000000000E+00  0.14999999963E+04  0.15000000000E+04  0.10566000000E+00 0.  1.
        994   -1    0    0    0    0 -0.00000000000E+00 -0.00000000000E+00  0.11368683772E-12  0.17120000000E+03  0.17120000000E+03 0.  0.
         13    1    1    2    0    0  0.31675221930E+01  0.13359916095E+02  0.76881246954E+02  0.78097745500E+02  0.10566000000E+00 0.  1.
        994    1    1    2    0    0  0.65433188584E+01 -0.31098122571E+02  0.43753294318E+01  0.17417948145E+03  0.17120000000E+03 0.  0.
        998    1    1    2    0    0 -0.97108410513E+01  0.17738206475E+02  0.14187434199E+04  0.14189227731E+04  0.10000000000E+02 0.  1.
</event>
<event>
 5    1  0.1087513E-008  0.3697889E+03  0.7957747E-01  0.3496861E+00
         13   -1    0    0    0    0  0.00000000000E+00  0.00000000000E+00  0.14999999963E+04  0.15000000000E+04  0.10566000000E+00 0.  1.
        994   -1    0    0    0    0 -0.00000000000E+00 -0.00000000000E+00  0.11368683772E-12  0.17120000000E+03  0.17120000000E+03 0.  0.
         13    1    1    2    0    0 -0.23030029988E+02 -0.27806665754E+02  0.53849317447E+02  0.64833271513E+02  0.10566000000E+00 0.  1.
        994    1    1    2    0    0  0.24293944305E+02  0.30038323010E+02  0.16059219421E+02  0.17623800699E+03  0.17120000000E+03 0.  0.
        998    1    1    2    0    0 -0.12639143168E+01 -0.22316572561E+01  0.14300914594E+04  0.14301287215E+04  0.10000000000E+02 0.  1.
</event>
<event>
 5    1  0.1087513E-008  0.3749316E+03  0.7957747E-01  0.3473529E+00
         13   -1    0    0    0    0  0.00000000000E+00  0.00000000000E+00  0.14999999963E+04  0.15000000000E+04  0.10566000000E+00 0. -1.
        994   -1    0    0    0    0 -0.00000000000E+00 -0.00000000000E+00  0.11368683772E-12  0.17120000000E+03  0.17120000000E+03 0.  0.
         13    1    1    2    0    0  0.36659684628E+02  0.34073067176E+02  0.23658682554E+03  0.24182275238E+03  0.10566000000E+00 0. -1.
        994    1    1    2    0    0  0.70575990738E+01  0.37395346765E+01  0.69307677555E+01  0.17152629351E+03  0.17120000000E+03 0.  0.
        998    1    1    2    0    0 -0.43717283702E+02 -0.37812601853E+02  0.12564824030E+04  0.12578509541E+04  0.10000000000E+02 0. -1.
</event>
<event>
 5    1  0.1087513E-008  0.3714991E+03  0.7957747E-01  0.3489030E+00
         13   -1    0    0    0    0  0.00000000000E+00  0.00000000000E+00  0.14999999963E+04  0.15000000000E+04  0.10566000000E+00 0.  1.
        994   -1    0    0    0    0 -0.00000000000E+00 -0.00000000000E+00  0.11368683772E-12  0.17120000000E+03  0.17120000000E+03 0.  0.
         13    1    1    2    0    0  0.70934198901E+02  0.61993770779E+02  0.37479108081E+03  0.38644954859E+03  0.10566000000E+00 0.  1.
        994    1    1    2    0    0 -0.79168478184E+02 -0.57857957401E+02  0.42326253213E+02  0.20178241470E+03  0.17120000000E+03 0.  0.
        998    1    1    2    0    0  0.82342792826E+01 -0.41358133780E+01  0.10828826623E+04  0.10829680367E+04  0.10000000000E+02 0.  1.
</event>
<event>
 5    1  0.1087513E-008  0.3352069E+03  0.7957747E-01  0.3672859E+00
         13   -1    0    0    0    0  0.00000000000E+00  0.00000000000E+00  0.14999999963E+04  0.15000000000E+04  0.10566000000E+00 0. -1.
        994   -1    0    0    0    0 -0.00000000000E+00 -0.00000000000E+00  0.11368683772E-12  0.17120000000E+03  0.17120000000E+03 0.  0.
         13    1    1    2    0    0 -0.22816693247E+02  0.25892879716E+03  0.71338400989E+03  0.75926377512E+03  0.10566000000E+00 0. -1.
        994    1    1    2    0    0  0.85464183499E+02 -0.26540035448E+03  0.38482011600E+03  0.50511131099E+03  0.17120000000E+03 0.  0.
        998    1    1    2    0    0 -0.62647490253E+02  0.64715573220E+01  0.40179587040E+03  0.40682491388E+03  0.10000000000E+02 0. -1.
</event>
<event>
 5    1  0.1087513E-008  0.3857747E+03  0.7957747E-01  0.3426393E+00
         13   -1    0    0    0    0  0.00000000000E+00  0.00000000000E+00  0.14999999963E+04  0.15000000000E+04  0.10566000000E+00 0. -1.
        994   -1    0    0    0    0 -0.00000000000E+00 -0.00000000000E+00  0.11368683772E-12  0.17120000000E+03  0.17120000000E+03 0.  0.
         13    1    1    2    0    0  0.88076841495E+01  0.10295244134E+02  0.74283345652E+02  0.75508899854E+02  0.10566000000E+00 0. -1.
        994    1    1    2    0    0 -0.42921848238E+01 -0.80700691165E+01  0.15201289305E+01  0.17145057497E+03  0.17120000000E+03 0.  0.
        998    1    1    2    0    0 -0.45154993258E+01 -0.22251750178E+01  0.14241965217E+04  0.14242405252E+04  0.10000000000E+02 0. -1.
</event>
<event>
 5    1  0.1087513E-008  0.3836833E+03  0.7957747E-01  0.3435276E+00
         13   -1    0    0    0    0  0.00000000000E+00  0.00000000000E+00  0.14999999963E+04  0.15000000000E+04  0.10566000000E+00 0.  1.
        994   -1    0    0    0    0 -0.00000000000E+00 -0.00000000000E+00  0.11368683772E-12  0.17120000000E+03  0.17120000000E+03 0.  0.
         13    1    1    2    0    0 -0.10246943830E+02  0.35083042879E+01  0.26690550112E+02  0.28804594879E+02  0.10566000000E+00 0.  1.
        994    1    1    2    0    0 -0.11803911887E+02 -0.15645325183E+00  0.27456527436E+01  0.17162848080E+03  0.17120000000E+03 0.  0.
        998    1    1    2    0    0  0.22050855717E+02 -0.33518510361E+01  0.14705637934E+04  0.14707669243E+04  0.10000000000E+02 0.  1.
</event>
<event>
 5    1  0.1087513E-008  0.3826973E+03  0.7957747E-01  0.3439498E+00
         13   -1    0    0    0    0  0.00000000000E+00  0.00000000000E+00  0.14999999963E+04  0.15000000000E+04  0.10566000000E+00 0. -1.
        994   -1    0    0    0    0 -0.00000000000E+00 -0.00000000000E+00  0.11368683772E-12  0.17120000000E+03  0.17120000000E+03 0.  0.
         13    1    1    2    0    0 -0.19670097409E+02  0.26334216252E+01  0.67809800536E+02  0.70654284048E+02  0.10566000000E+00 0. -1.
        994    1    1    2    0    0  0.18132609194E+02 -0.90500525418E+01  0.41397184046E+01  0.17244498321E+03  0.17120000000E+03 0.  0.
        998    1    1    2    0    0  0.15374882143E+01  0.64166309165E+01  0.14280504773E+04  0.14281007327E+04  0.10000000000E+02 0. -1.
</event>
<event>
 5    1  0.1087513E-008  0.2879370E+03  0.7957747E-01  0.3986088E+00
         13   -1    0    0    0    0  0.00000000000E+00  0.00000000000E+00  0.14999999963E+04  0.15000000000E+04  0.10566000000E+00 0.  1.
        994   -1    0    0    0    0 -0.00000000000E+00 -0.00000000000E+00  0.11368683772E-12  0.17120000000E+03  0.17120000000E+03 0.  0.
         13    1    1    2    0    0 -0.13644807141E+03 -0.12170445755E+03  0.58698895516E+03  0.61480573828E+03  0.10566000000E+00 0.  1.
        994    1    1    2    0    0  0.12678056124E+03  0.96793484431E+02  0.12017875895E+03  0.26304878529E+03  0.17120000000E+03 0.  0.
        998    1    1    2    0    0  0.96675101642E+01  0.24910973114E+02  0.79283228216E+03  0.79334547643E+03  0.10000000000E+02 0.  1.
</event>
<event>
 5    1  0.1087513E-008  0.3850296E+03  0.7957747E-01  0.3429547E+00
         13   -1    0    0    0    0  0.00000000000E+00  0.00000000000E+00  0.14999999963E+04  0.15000000000E+04  0.10566000000E+00 0. -1.
        994   -1    0    0    0    0 -0.00000000000E+00 -0.00000000000E+00  0.11368683772E-12  0.17120000000E+03  0.17120000000E+03 0.  0.
         13    1    1    2    0    0 -0.17280196567E+02  0.50671692032E+01  0.86727282520E+02  0.88577164633E+02  0.10566000000E+00 0. -1.
        994    1    1    2    0    0  0.26680187159E+02 -0.24462431990E+02  0.59358915050E+01  0.17508545849E+03  0.17120000000E+03 0.  0.
        998    1    1    2    0    0 -0.93999905925E+01  0.19395262787E+02  0.14073368223E+04  0.14075373769E+04  0.10000000000E+02 0. -1.
</event>
<event>
 5    1  0.1087513E-008  0.3807909E+03  0.7957747E-01  0.3447722E+00
         13   -1    0    0    0    0  0.00000000000E+00  0.00000000000E+00  0.14999999963E+04  0.15000000000E+04  0.10566000000E+00 0. -1.
        994   -1    0    0    0    0 -0.00000000000E+00 -0.00000000000E+00  0.11368683772E-12  0.17120000000E+03  0.17120000000E+03 0.  0.
         13    1    1    2    0    0  0.22110450003E+02  0.29040289993E+02  0.13914657707E+03  0.14385406326E+03  0.10566000000E+00 0. -1.
        994    1    1    2    0    0 -0.28640059041E+02 -0.54627327807E+02  0.16524852953E+02  0.18272084909E+03  0.17120000000E+03 0.  0.
        998    1    1    2    0    0  0.65296090385E+01  0.25587037814E+02  0.13443285663E+04  0.13446250877E+04  0.10000000000E+02 0. -1.
</event>
<event>
 5    1  0.1087513E-008  0.3737512E+03  0.7957747E-01  0.3478827E+00
         13   -1    0    0    0    0  0.00000000000E+00  0.00000000000E+00  0.14999999963E+04  0.15000000000E+04  0.10566000000E+00 0.  1.
        994   -1    0    0    0    0 -0.00000000000E+00 -0.00000000000E+00  0.11368683772E-12  0.17120000000E+03  0.17120000000E+03 0.  0.
         13    1    1    2    0    0 -0.21959839370E+02 -0.21748808275E+02  0.62428558844E+02  0.69660471790E+02  0.10566000000E+00 0.  1.
        994    1    1    2    0    0  0.23064540227E+02  0.53674879381E+01  0.92380317677E+01  0.17307675804E+03  0.17120000000E+03 0.  0.
        998    1    1    2    0    0 -0.11047008570E+01  0.16381320337E+02  0.14283334057E+04  0.14284627702E+04  0.10000000000E+02 0.  1.
</event>
<event>
 5    1  0.1087513E-008  0.3819176E+03  0.7957747E-01  0.3442851E+00
         13   -1    0    0    0    0  0.00000000000E+00  0.00000000000E+00  0.14999999963E+04  0.15000000000E+04  0.10566000000E+00 0.  1.
        994   -1    0    0    0    0 -0.00000000000E+00 -0.00000000000E+00  0.11368683772E-12  0.17120000000E+03  0.17120000000E+03 0.  0.
         13    1    1    2    0    0 -0.16851935597E+01 -0.22137066366E+02  0.74484862437E+02  0.77723197830E+02  0.10566000000E+00 0.  1.
        994    1    1    2    0    0  0.47281113476E+01  0.19705695826E+02  0.45336725407E+01  0.17245481632E+03  0.17120000000E+03 0.  0.
        998    1    1    2    0    0 -0.30429177879E+01  0.24313705396E+01  0.14209814613E+04  0.14210219859E+04  0.10000000000E+02 0.  1.
</event>
<event>
 5    1  0.1087513E-008  0.3827148E+03  0.7957747E-01  0.3439422E+00
         13   -1    0    0    0    0  0.00000000000E+00  0.00000000000E+00  0.14999999963E+04  0.15000000000E+04  0.10566000000E+00 0. -1.
        994   -1    0    0    0    0 -0.00000000000E+00 -0.00000000000E+00  0.11368683772E-12  0.17120000000E+03  0.17120000000E+03 0.  0.
         13    1    1    2    0    0  0.99336624335E+01  0.42244709361E+01  0.20045073210E+02  0.22767079920E+02  0.10566000000E+00 0. -1.
        994    1    1    2    0    0 -0.37079614184E+01 -0.82855657512E+01  0.30420324231E+01  0.17146747079E+03  0.17120000000E+03 0.  0.
        998    1    1    2    0    0 -0.62257010151E+01  0.40610948152E+01  0.14769128906E+04  0.14769654493E+04  0.10000000000E+02 0. -1.
</event>
<event>
 5    1  0.1189158E-008  0.3851896E+03  0.7957747E-01  0.3428869E+00
         13   -1    0    0    0    0  0.00000000000E+00  0.00000000000E+00  0.14999999963E+04  0.15000000000E+04  0.10566000000E+00 0.  1.
        994   -1    0    0    0    0 -0.00000000000E+00 -0.00000000000E+00  0.11368683772E-12  0.17120000000E+03  0.17120000000E+03 0.  0.
         13    1    1    2    0    0  0.12828553879E+02  0.11932706057E+02  0.10510215140E+03  0.10655249721E+03  0.10566000000E+00 0.  1.
        994    1    1    2    0    0 -0.52918211873E+01 -0.22463288722E+01  0.16446735487E+01  0.17130439083E+03  0.17120000000E+03 0.  0.
        998    1    1    2    0    0 -0.75367326916E+01 -0.96863771846E+01  0.13932531713E+04  0.13933431120E+04  0.10000000000E+02 0.  1.
</event>
<event>
 5    1  0.1087513E-008  0.3832995E+03  0.7957747E-01  0.3436916E+00
         13   -1    0    0    0    0  0.00000000000E+00  0.00000000000E+00  0.14999999963E+04  0.15000000000E+04  0.10566000000E+00 0. -1.
        994   -1    0    0    0    0 -0.00000000000E+00 -0.00000000000E+00  0.11368683772E-12  0.17120000000E+03  0.17120000000E+03 0.  0.
         13    1    1    2    0    0  0.98958729415E+01  0.13150402263E+02  0.59235574258E+02  0.61479474645E+02  0.10566000000E+00 0. -1.
        994    1    1    2    0    0 -0.98157229229E+01  0.16423113072E+02  0.36882293603E+01  0.17230528168E+03  0.17120000000E+03 0.  0.
        998    1    1    2    0    0 -0.80150018625E-01 -0.29573515335E+02  0.14370761927E+04  0.14374152437E+04  0.10000000000E+02 0. -1.
</event>
<event>
 5    1  0.1087513E-008  0.3778456E+03  0.7957747E-01  0.3460593E+00
         13   -1    0    0    0    0  0.00000000000E+00  0.00000000000E+00  0.14999999963E+04  0.15000000000E+04  0.10566000000E+00 0. -1.
        994   -1    0    0    0    0 -0.00000000000E+00 -0.00000000000E+00  0.11368683772E-12  0.17120000000E+03  0.17120000000E+03 0.  0.
         13    1    1    2    0    0 -0.12050286143E+02 -0.25146389336E+02  0.72821379344E+02  0.77977655430E+02  0.10566000000E+00 0. -1.
        994    1    1    2    0    0  0.10769015279E+02  0.13037781929E+02  0.61880020694E+01  0.17214437783E+03  0.17120000000E+03 0.  0.
        998    1    1    2    0    0  0.12812708631E+01  0.12108607407E+02  0.14209906149E+04  0.14210779667E+04  0.10000000000E+02 0. -1.
</event>
<event>
 5    1  0.1087513E-008  0.3776540E+03  0.7957747E-01  0.3461438E+00
         13   -1    0    0    0    0  0.00000000000E+00  0.00000000000E+00  0.14999999963E+04  0.15000000000E+04  0.10566000000E+00 0. -1.
        994   -1    0    0    0    0 -0.00000000000E+00 -0.00000000000E+00  0.11368683772E-12  0.17120000000E+03  0.17120000000E+03 0.  0.
         13    1    1    2    0    0  0.33702636251E+02  0.25408038522E+02  0.15093985145E+03  0.15672997809E+03  0.10566000000E+00 0. -1.
        994    1    1    2    0    0 -0.35077218183E+02 -0.21954031968E+02  0.11113055050E+02  0.17648039763E+03  0.17120000000E+03 0.  0.
        998    1    1    2    0    0  0.13745819317E+01 -0.34540065538E+01  0.13379470898E+04  0.13379896243E+04  0.10000000000E+02 0. -1.
</event>
<event>
 5    1  0.1087513E-008  0.3812834E+03  0.7957747E-01  0.3445589E+00
         13   -1    0    0    0    0  0.00000000000E+00  0.00000000000E+00  0.14999999963E+04  0.15000000000E+04  0.10566000000E+00 0.  1.
        994   -1    0    0    0    0 -0.00000000000E+00 -0.00000000000E+00  0.11368683772E-12  0.17120000000E+03  0.17120000000E+03 0.  0.
         13    1    1    2    0    0  0.28311239645E+02 -0.29487063088E+02  0.24600120542E+03  0.24937445221E+03  0.10566000000E+00 0.  1.
        994    1    1    2    0    0 -0.16394764888E+02  0.12019227098E+02  0.48635106278E+01  0.17247128419E+03  0.17120000000E+03 0.  0.
        998    1    1    2    0    0 -0.11916474756E+02  0.17467835990E+02  0.12491352802E+04  0.12493542636E+04  0.10000000000E+02 0.  1.
</event>
<event>
 5    1  0.1472170E-008  0.3846264E+03  0.7957747E-01  0.3431258E+00
         13   -1    0    0    0    0  0.00000000000E+00  0.00000000000E+00  0.14999999963E+04  0.15000000000E+04  0.10566000000E+00 0. -1.
        994   -1    0    0    0    0 -0.00000000000E+00 -0.00000000000E+00  0.11368683772E-12  0.17120000000E+03  0.17120000000E+03 0.  0.
         13    1    1    2    0    0  0.11698772828E+02  0.68213234554E+01  0.48993580708E+02  0.50830835661E+02  0.10566000000E+00 0. -1.
        994    1    1    2    0    0 -0.12865553529E+02 -0.56399682392E+01  0.24657690570E+01  0.17179304912E+03  0.17120000000E+03 0.  0.
        998    1    1    2    0    0  0.11667807009E+01 -0.11813552162E+01  0.14485406465E+04  0.14485761152E+04  0.10000000000E+02 0. -1.
</event>
<event>
 5    1  0.1087513E-008  0.3851716E+03  0.7957747E-01  0.3428945E+00
         13   -1    0    0    0    0  0.00000000000E+00  0.00000000000E+00  0.14999999963E+04  0.15000000000E+04  0.10566000000E+00 0. -1.
        994   -1    0    0    0    0 -0.00000000000E+00 -0.00000000000E+00  0.11368683772E-12  0.17120000000E+03  0.17120000000E+03 0.  0.
         13    1    1    2    0    0 -0.17944478172E+02  0.54631930317E+01  0.11270695459E+03  0.11425725164E+03  0.10566000000E+00 0. -1.
        994    1    1    2    0    0  0.13613329900E+02 -0.89858408904E+00  0.21569713495E+01  0.17175628876E+03  0.17120000000E+03 0.  0.
        998    1    1    2    0    0  0.43311482716E+01 -0.45646089427E+01  0.13851360703E+04  0.13851864596E+04  0.10000000000E+02 0. -1.
</event>
<event>
 5    1  0.1087513E-008  0.3741393E+03  0.7957747E-01  0.3477081E+00
         13   -1    0    0    0    0  0.00000000000E+00  0.00000000000E+00  0.14999999963E+04  0.15000000000E+04  0.10566000000E+00 0. -1.
        994   -1    0    0    0    0 -0.00000000000E+00 -0.00000000000E+00  0.11368683772E-12  0.17120000000E+03  0.17120000000E+03 0.  0.
         13    1    1    2    0    0  0.26743117803E+02  0.72775815084E+01  0.53205149254E+02  0.59991304484E+02  0.10566000000E+00 0. -1.
        994    1    1    2    0    0 -0.98106840078E+00 -0.18897401784E+02  0.83430471624E+01  0.17244454391E+03  0.17120000000E+03 0.  0.
        998    1    1    2    0    0 -0.25762049403E+02  0.11619820276E+02  0.14384517999E+04  0.14387641516E+04  0.10000000000E+02 0. -1.
</event>
<event>
 5    1  0.1087513E-008  0.3692956E+03  0.7957747E-01  0.3499135E+00
         13   -1    0    0    0    0  0.00000000000E+00  0.00000000000E+00  0.14999999963E+04  0.15000000000E+04  0.10566000000E+00 0.  1.
        994   -1    0    0    0    0 -0.00000000000E+00 -0.00000000000E+00  0.11368683772E-12  0.17120000000E+03  0.17120000000E+03 0.  0.
         13    1    1    2    0    0 -0.32050452370E+03  0.46128475466E+02  0.70179145349E+03  0.77289212786E+03  0.10566000000E+00 0.  1.
        994    1    1    2    0    0  0.32394915016E+03 -0.43578459386E+02  0.63264599014E+03  0.73238823233E+03  0.17120000000E+03 0.  0.
        998    1    1    2    0    0 -0.34446264658E+01 -0.25500160802E+01  0.16556255265E+03  0.16591963981E+03  0.10000000000E+02 0.  0.
</event>
<event>
 5    1  0.1087513E-008  0.3710236E+03  0.7957747E-01  0.3491200E+00
         13   -1    0    0    0    0  0.00000000000E+00  0.00000000000E+00  0.14999999963E+04  0.15000000000E+04  0.10566000000E+00 0. -1.
        994   -1    0    0    0    0 -0.00000000000E+00 -0.00000000000E+00  0.11368683772E-12  0.17120000000E+03  0.17120000000E+03 0.  0.
         13    1    1    2    0    0  0.10185090555E+02 -0.11976695952E+03  0.60847375846E+03  0.62023236497E+03  0.10566000000E+00 0. -1.
        994    1    1    2    0    0  0.40247274306E+01  0.10035092196E+03  0.44334422528E+02  0.20337523691E+03  0.17120000000E+03 0.  0.
        998    1    1    2    0    0 -0.14209817986E+02  0.19416037562E+02  0.84719181529E+03  0.84759239812E+03  0.10000000000E+02 0. -1.
</event>
<event>
 5    1  0.1087513E-008  0.3708330E+03  0.7957747E-01  0.3492071E+00
         13   -1    0    0    0    0  0.00000000000E+00  0.00000000000E+00  0.14999999963E+04  0.15000000000E+04  0.10566000000E+00 0. -1.
        994   -1    0    0    0    0 -0.00000000000E+00 -0.00000000000E+00  0.11368683772E-12  0.17120000000E+03  0.17120000000E+03 0.  0.
         13    1    1    2    0    0 -0.30656395342E+02 -0.11337417185E+02  0.54519878801E+02  0.63567129496E+02  0.10566000000E+00 0. -1.
        994    1    1    2    0    0  0.37978668834E+02  0.35406698568E+01  0.13867157629E+02  0.17594503031E+03  0.17120000000E+03 0.  0.
        998    1    1    2    0    0 -0.73222734916E+01  0.77967473282E+01  0.14316129598E+04  0.14316878402E+04  0.10000000000E+02 0. -1.
</event>
<event>
 5    1  0.1087513E-008  0.3726470E+03  0.7957747E-01  0.3483813E+00
         13   -1    0    0    0    0  0.00000000000E+00  0.00000000000E+00  0.14999999963E+04  0.15000000000E+04  0.10566000000E+00 0. -1.
        994   -1    0    0    0    0 -0.00000000000E+00 -0.00000000000E+00  0.11368683772E-12  0.17120000000E+03  0.17120000000E+03 0.  0.
         13    1    1    2    0    0  0.41077072770E+01  0.20638671226E+02  0.24723021058E+02  0.32466397141E+02  0.10566000000E+00 0. -1.
        994    1    1    2    0    0  0.14122070726E+01 -0.15609039656E+02  0.87341002880E+01  0.17213762214E+03  0.17120000000E+03 0.  0.
        998    1    1    2    0    0 -0.55199143496E+01 -0.50296315702E+01  0.14665428749E+04  0.14665959807E+04  0.10000000000E+02 0. -1.
</event>
<event>
 5    1  0.1087513E-008  0.3827126E+03  0.7957747E-01  0.3439432E+00
         13   -1    0    0    0    0  0.00000000000E+00  0.00000000000E+00  0.14999999963E+04  0.15000000000E+04  0.10566000000E+00 0. -1.
        994   -1    0    0    0    0 -0.00000000000E+00 -0.00000000000E+00  0.11368683772E-12  0.17120000000E+03  0.17120000000E+03 0.  0.
         13    1    1    2    0    0  0.24446740464E+02  0.18060780111E+02  0.15349640019E+03  0.15647680638E+03  0.10566000000E+00 0. -1.
        994    1    1    2    0    0 -0.24727813810E+02 -0.14134105668E+02  0.54625058723E+01  0.17363904137E+03  0.17120000000E+03 0.  0.
        998    1    1    2    0    0  0.28107334663E+00 -0.39266744424E+01  0.13410410902E+04  0.13410841522E+04  0.10000000000E+02 0. -1.
</event>
<event>
 5    1  0.1087513E-008  0.3796493E+03  0.7957747E-01  0.3452687E+00
         13   -1    0    0    0    0  0.00000000000E+00  0.00000000000E+00  0.14999999963E+04  0.15000000000E+04  0.10566000000E+00 0.  1.
        994   -1    0    0    0    0 -0.00000000000E+00 -0.00000000000E+00  0.11368683772E-12  0.17120000000E+03  0.17120000000E+03 0.  0.
         13    1    1    2    0    0 -0.14218166874E+03 -0.32145262192E+02  0.43381609263E+03  0.45765200557E+03  0.10566000000E+00 0.  1.
        994    1    1    2    0    0  0.14441134264E+03  0.28190178980E+02  0.99323232619E+02  0.24662495132E+03  0.17120000000E+03 0.  0.
        998    1    1    2    0    0 -0.22296738971E+01  0.39550832115E+01  0.96686067102E+03  0.96692304311E+03  0.10000000000E+02 0.  0.
</event>
<event>
 5    1  0.1087513E-008  0.3732946E+03  0.7957747E-01  0.3480885E+00
         13   -1    0    0    0    0  0.00000000000E+00  0.00000000000E+00  0.14999999963E+04  0.15000000000E+04  0.10566000000E+00 0. -1.
        994   -1    0    0    0    0 -0.00000000000E+00 -0.00000000000E+00  0.11368683772E-12  0.17120000000E+03  0.17120000000E+03 0.  0.
         13    1    1    2    0    0  0.26301205042E+02  0.53884210661E+02  0.12549955278E+03  0.13908777968E+03  0.10566000000E+00 0. -1.
        994    1    1    2    0    0 -0.25599872521E+02 -0.56476280289E+02  0.26417839602E+02  0.18398985287E+03  0.17120000000E+03 0.  0.
        998    1    1    2    0    0 -0.70133252079E+00  0.25920696286E+01  0.13480826039E+04  0.13481223675E+04  0.10000000000E+02 0. -1.
</event>
<event>
 5    1  0.1087513E-008  0.3793403E+03  0.7957747E-01  0.3454036E+00
         13   -1    0    0    0    0  0.00000000000E+00  0.00000000000E+00  0.14999999963E+04  0.15000000000E+04  0.10566000000E+00 0. -1.
        994   -1    0    0    0    0 -0.00000000000E+00 -0.00000000000E+00  0.11368683772E-12  0.17120000000E+03  0.17120000000E+03 0.  0.
         13    1    1    2    0    0 -0.38177193244E+02  0.12930731974E+02  0.16033609124E+03  0.16532505929E+03  0.10566000000E+00 0. -1.
        994    1    1    2    0    0  0.40649890527E+02 -0.12219205436E+02  0.10526466743E+02  0.17669739410E+03  0.17120000000E+03 0.  0.
        998    1    1    2    0    0 -0.24726972838E+01 -0.71152653890E+00  0.13291374383E+04  0.13291775466E+04  0.10000000000E+02 0.  0.
</event>
<event>
 5    1  0.1087513E-008  0.3831353E+03  0.7957747E-01  0.3437619E+00
         13   -1    0    0    0    0  0.00000000000E+00  0.00000000000E+00  0.14999999963E+04  0.15000000000E+04  0.10566000000E+00 0.  1.
        994   -1    0    0    0    0 -0.00000000000E+00 -0.00000000000E+00  0.11368683772E-12  0.17120000000E+03  0.17120000000E+03 0.  0.
         13    1    1    2    0    0  0.17180941424E+02 -0.24417712184E+01  0.63672788470E+02  0.65995319156E+02  0.10566000000E+00 0.  1.
        994    1    1    2    0    0  0.10592269018E+02  0.39075833554E+02  0.80010122163E+01  0.17610387028E+03  0.17120000000E+03 0.  0.
        998    1    1    2    0    0 -0.27773210442E+02 -0.36634062336E+02  0.14283261956E+04  0.14291008106E+04  0.10000000000E+02 0.  1.
</event>
<event>
 5    1  0.1087513E-008  0.2297602E+03  0.7957747E-01  0.4574206E+00
         13   -1    0    0    0    0  0.00000000000E+00  0.00000000000E+00  0.14999999963E+04  0.15000000000E+04  0.10566000000E+00 0.  1.
        994   -1    0    0    0    0 -0.00000000000E+00 -0.00000000000E+00  0.11368683772E-12  0.17120000000E+03  0.17120000000E+03 0.  0.
         13    1    1    2    0    0 -0.21531569050E+02  0.15366131136E+03  0.17516374974E+03  0.23400375523E+03  0.10566000000E+00 0.  1.
        994    1    1    2    0    0  0.13571669266E+02 -0.14460143282E+03  0.16837844716E+03  0.28063233251E+03  0.17120000000E+03 0.  0.
        998    1    1    2    0    0  0.79598997835E+01 -0.90598785321E+01  0.11564577994E+04  0.11565639123E+04  0.10000000000E+02 0.  1.
</event>
<event>
 5    1  0.1087513E-008  0.3838342E+03  0.7957747E-01  0.3434632E+00
         13   -1    0    0    0    0  0.00000000000E+00  0.00000000000E+00  0.14999999963E+04  0.15000000000E+04  0.10566000000E+00 0.  1.
        994   -1    0    0    0    0 -0.00000000000E+00 -0.00000000000E+00  0.11368683772E-12  0.17120000000E+03  0.17120000000E+03 0.  0.
         13    1    1    2    0    0  0.10989065860E+02  0.14896915168E+02  0.79928755818E+02  0.82044468556E+02  0.10566000000E+00 0.  1.
        994    1    1    2    0    0 -0.59388927999E+01 -0.29165073378E+01  0.23545717258E+01  0.17134398288E+03  0.17120000000E+03 0.  0.
        998    1    1    2    0    0 -0.50501730600E+01 -0.11980407830E+02  0.14177166687E+04  0.14178115486E+04  0.10000000000E+02 0.  1.
</event>
<event>
 5    1  0.1087513E-008  0.3843309E+03  0.7957747E-01  0.3432515E+00
         13   -1    0    0    0    0  0.00000000000E+00  0.00000000000E+00  0.14999999963E+04  0.15000000000E+04  0.10566000000E+00 0.  1.
        994   -1    0    0    0    0 -0.00000000000E+00 -0.00000000000E+00  0.11368683772E-12  0.17120000000E+03  0.17120000000E+03 0.  0.
         13    1    1    2    0    0  0.40862548818E+00  0.16941540179E+02  0.74377007485E+02  0.76283243015E+02  0.10566000000E+00 0.  1.
        994    1    1    2    0    0 -0.53624888098E+01 -0.75978570955E+01  0.22477750144E+01  0.17146712866E+03  0.17120000000E+03 0.  0.
        998    1    1    2    0    0  0.49538633216E+01 -0.93436830830E+01  0.14233752138E+04  0.14234496283E+04  0.10000000000E+02 0.  1.
</event>
<event>
 5    1  0.1087513E-008  0.3802451E+03  0.7957747E-01  0.3450092E+00
         13   -1    0    0    0    0  0.00000000000E+00  0.00000000000E+00  0.14999999963E+04  0.15000000000E+04  0.10566000000E+00 0.  1.
        994   -1    0    0    0    0 -0.00000000000E+00 -0.00000000000E+00  0.11368683772E-12  0.17120000000E+03  0.17120000000E+03 0.  0.
         13    1    1    2    0    0  0.14033959869E+02 -0.69461456942E+01  0.30519326743E+02  0.34302207487E+02  0.10566000000E+00 0.  1.
        994    1    1    2    0    0  0.10852488798E+02  0.88418705090E+01  0.46642816184E+01  0.17183466097E+03  0.17120000000E+03 0.  0.
        998    1    1    2    0    0 -0.24886448666E+02 -0.18957248149E+01  0.14648163879E+04  0.14650631315E+04  0.10000000000E+02 0.  1.
</event>
<event>
 5    1  0.1087513E-008  0.3833233E+03  0.7957747E-01  0.3436815E+00
         13   -1    0    0    0    0  0.00000000000E+00  0.00000000000E+00  0.14999999963E+04  0.15000000000E+04  0.10566000000E+00 0.  1.
        994   -1    0    0    0    0 -0.00000000000E+00 -0.00000000000E+00  0.11368683772E-12  0.17120000000E+03  0.17120000000E+03 0.  0.
         13    1    1    2    0    0 -0.22894843566E+02  0.56805832272E+01  0.12814089796E+03  0.13029406657E+03  0.10566000000E+00 0.  1.
        994    1    1    2    0    0 -0.43234783146E+01 -0.45824631010E+01  0.25961630635E+01  0.17133555234E+03  0.17120000000E+03 0.  0.
        998    1    1    2    0    0  0.27218321881E+02 -0.10981201262E+01  0.13692629353E+04  0.13695703811E+04  0.10000000000E+02 0.  1.
</event>
<event>
 5    1  0.1087513E-008  0.3729372E+03  0.7957747E-01  0.3482500E+00
         13   -1    0    0    0    0  0.00000000000E+00  0.00000000000E+00  0.14999999963E+04  0.15000000000E+04  0.10566000000E+00 0. -1.
        994   -1    0    0    0    0 -0.00000000000E+00 -0.00000000000E+00  0.11368683772E-12  0.17120000000E+03  0.17120000000E+03 0.  0.
         13    1    1    2    0    0 -0.98618799047E+01 -0.16665468777E+01  0.28972150537E+01  0.10413408321E+02  0.10566000000E+00 0. -1.
        994    1    1    2    0    0 -0.85785765217E+00  0.16269253141E+02  0.86508969496E+01  0.17219088982E+03  0.17120000000E+03 0.  0.
        998    1    1    2    0    0  0.10719737557E+02 -0.14602706263E+02  0.14884518843E+04  0.14885957019E+04  0.10000000000E+02 0. -1.
</event>
<event>
 5    1  0.1087513E-008  0.3703487E+03  0.7957747E-01  0.3494290E+00
         13   -1    0    0    0    0  0.00000000000E+00  0.00000000000E+00  0.14999999963E+04  0.15000000000E+04  0.10566000000E+00 0.  1.
        994   -1    0    0    0    0 -0.00000000000E+00 -0.00000000000E+00  0.11368683772E-12  0.17120000000E+03  0.17120000000E+03 0.  0.
         13    1    1    2    0    0 -0.16932737448E+02  0.13629111532E+02  0.22413556779E+02  0.31222571486E+02  0.10566000000E+00 0.  1.
        994    1    1    2    0    0  0.78727173736E+01 -0.70798278183E+01  0.94741734820E+01  0.17178854328E+03  0.17120000000E+03 0.  0.
        998    1    1    2    0    0  0.90600200747E+01 -0.65492837135E+01  0.14681122660E+04  0.14681888852E+04  0.10000000000E+02 0.  1.
</event>
<event>
 5    1  0.1087513E-008  0.3711675E+03  0.7957747E-01  0.3490542E+00
         13   -1    0    0    0    0  0.00000000000E+00  0.00000000000E+00  0.14999999963E+04  0.15000000000E+04  0.10566000000E+00 0. -1.
        994   -1    0    0    0    0 -0.00000000000E+00 -0.00000000000E+00  0.11368683772E-12  0.17120000000E+03  0.17120000000E+03 0.  0.
         13    1    1    2    0    0 -0.13801371553E+03 -0.61939139092E+02  0.56097422642E+03  0.58101319821E+03  0.10566000000E+00 0. -1.
        994    1    1    2    0    0  0.14840882102E+03  0.44191266433E+02  0.10120084630E+03  0.25204979166E+03  0.17120000000E+03 0.  0.
        998    1    1    2    0    0 -0.10395105482E+02  0.17747872659E+02  0.83782492356E+03  0.83813701013E+03  0.10000000000E+02 0. -1.
</event>
<event>
 5    1  0.1087513E-008  0.3781591E+03  0.7957747E-01  0.3459214E+00
         13   -1    0    0    0    0  0.00000000000E+00  0.00000000000E+00  0.14999999963E+04  0.15000000000E+04  0.10566000000E+00 0. -1.
        994   -1    0    0    0    0 -0.00000000000E+00 -0.00000000000E+00  0.11368683772E-12  0.17120000000E+03  0.17120000000E+03 0.  0.
         13    1    1    2    0    0  0.29621356051E+01  0.24135945483E+02  0.56300024088E+02  0.61327171694E+02  0.10566000000E+00 0. -1.
        994    1    1    2    0    0 -0.79754494991E+02 -0.78626196456E+01  0.26980388391E+02  0.19094497013E+03  0.17120000000E+03 0.  0.
        998    1    1    2    0    0  0.76792359386E+02 -0.16273325838E+02  0.14167195838E+04  0.14189278582E+04  0.10000000000E+02 0. -1.
</event>
<event>
 5    1  0.1087513E-008  0.3851160E+03  0.7957747E-01  0.3429181E+00
         13   -1    0    0    0    0  0.00000000000E+00  0.00000000000E+00  0.14999999963E+04  0.15000000000E+04  0.10566000000E+00 0. -1.
        994   -1    0    0    0    0 -0.00000000000E+00 -0.00000000000E+00  0.11368683772E-12  0.17120000000E+03  0.17120000000E+03 0.  0.
         13    1    1    2    0    0 -0.37741588932E+01 -0.14854296671E+02  0.68931995749E+02  0.70615335494E+02  0.10566000000E+00 0. -1.
        994    1    1    2    0    0 -0.67185403040E+01  0.25168179407E+02  0.38065124781E+01  0.17321231358E+03  0.17120000000E+03 0.  0.
        998    1    1    2    0    0  0.10492699197E+02 -0.10313882736E+02  0.14272614881E+04  0.14273723509E+04  0.10000000000E+02 0. -1.
</event>
<event>
 5    1  0.1087513E-008  0.3807030E+03  0.7957747E-01  0.3448103E+00
         13   -1    0    0    0    0  0.00000000000E+00  0.00000000000E+00  0.14999999963E+04  0.15000000000E+04  0.10566000000E+00 0.  1.
        994   -1    0    0    0    0 -0.00000000000E+00 -0.00000000000E+00  0.11368683772E-12  0.17120000000E+03  0.17120000000E+03 0.  0.
         13    1    1    2    0    0  0.83581866336E+01  0.19527108750E+02  0.58132341135E+02  0.61891417094E+02  0.10566000000E+00 0.  1.
        994    1    1    2    0    0 -0.95921570143E+01 -0.11732741345E+02  0.45450542169E+01  0.17192953270E+03  0.17120000000E+03 0.  0.
        998    1    1    2    0    0  0.12339703806E+01 -0.77943674051E+01  0.14373226009E+04  0.14373790502E+04  0.10000000000E+02 0.  1.
</event>
<event>
 5    1  0.1087513E-008  0.3842986E+03  0.7957747E-01  0.3432652E+00
         13   -1    0    0    0    0  0.00000000000E+00  0.00000000000E+00  0.14999999963E+04  0.15000000000E+04  0.10566000000E+00 0.  1.
        994   -1    0    0    0    0 -0.00000000000E+00 -0.00000000000E+00  0.11368683772E-12  0.17120000000E+03  0.17120000000E+03 0.  0.
         13    1    1    2    0    0 -0.12040283615E+02 -0.11540840710E+01  0.37091954267E+02  0.39014414963E+02  0.10566000000E+00 0.  1.
        994    1    1    2    0    0  0.34795919764E+01  0.14991439151E+02  0.27598558969E+01  0.17191249987E+03  0.17120000000E+03 0.  0.
        998    1    1    2    0    0  0.85606916390E+01 -0.13837355080E+02  0.14601481861E+04  0.14602730852E+04  0.10000000000E+02 0.  1.
</event>
<event>
 5    1  0.1087513E-008  0.3711183E+03  0.7957747E-01  0.3490767E+00
         13   -1    0    0    0    0  0.00000000000E+00  0.00000000000E+00  0.14999999963E+04  0.15000000000E+04  0.10566000000E+00 0.  1.
        994   -1    0    0    0    0 -0.00000000000E+00 -0.00000000000E+00  0.11368683772E-12  0.17120000000E+03  0.17120000000E+03 0.  0.
         13    1    1    2    0    0 -0.63995829159E+02  0.13885994172E+02  0.18353350260E+03  0.19486622264E+03  0.10566000000E+00 0.  1.
        994    1    1    2    0    0  0.10401507318E+03  0.26297736151E+02  0.49442403695E+02  0.20800167706E+03  0.17120000000E+03 0.  0.
        998    1    1    2    0    0 -0.40019244019E+02 -0.40183730324E+02  0.12670240900E+04  0.12683321003E+04  0.10000000000E+02 0.  1.
</event>
<event>
 5    1  0.1087513E-008  0.3845335E+03  0.7957747E-01  0.3431653E+00
         13   -1    0    0    0    0  0.00000000000E+00  0.00000000000E+00  0.14999999963E+04  0.15000000000E+04  0.10566000000E+00 0. -1.
        994   -1    0    0    0    0 -0.00000000000E+00 -0.00000000000E+00  0.11368683772E-12  0.17120000000E+03  0.17120000000E+03 0.  0.
         13    1    1    2    0    0 -0.44590800472E+01  0.91186540493E+01  0.26545517070E+02  0.28420219687E+02  0.10566000000E+00 0. -1.
        994    1    1    2    0    0  0.84065231117E+01 -0.10786556237E+02  0.24781424506E+01  0.17176321089E+03  0.17120000000E+03 0.  0.
        998    1    1    2    0    0 -0.39474430645E+01  0.16679021872E+01  0.14709763368E+04  0.14710165694E+04  0.10000000000E+02 0. -1.
</event>
<event>
 5    1  0.1087513E-008  0.3796584E+03  0.7957747E-01  0.3452647E+00
         13   -1    0    0    0    0  0.00000000000E+00  0.00000000000E+00  0.14999999963E+04  0.15000000000E+04  0.10566000000E+00 0. -1.
        994   -1    0    0    0    0 -0.00000000000E+00 -0.00000000000E+00  0.11368683772E-12  0.17120000000E+03  0.17120000000E+03 0.  0.
         13    1    1    2    0    0  0.98244116523E+01  0.72765867024E+02  0.13999987267E+03  0.15808657748E+03  0.10566000000E+00 0. -1.
        994    1    1    2    0    0 -0.27593120476E+02 -0.83192080718E+02  0.44499054379E+02  0.19741304018E+03  0.17120000000E+03 0.  0.
        998    1    1    2    0    0  0.17768708823E+02  0.10426213694E+02  0.13155010692E+04  0.13157003823E+04  0.10000000000E+02 0. -1.
</event>
<event>
 5    1  0.1087513E-008  0.3819751E+03  0.7957747E-01  0.3442603E+00
         13   -1    0    0    0    0  0.00000000000E+00  0.00000000000E+00  0.14999999963E+04  0.15000000000E+04  0.10566000000E+00 0.  1.
        994   -1    0    0    0    0 -0.00000000000E+00 -0.00000000000E+00  0.11368683772E-12  0.17120000000E+03  0.17120000000E+03 0.  0.
         13    1    1    2    0    0  0.22955686435E+02 -0.12038744975E+01  0.86199780149E+02  0.89212253168E+02  0.10566000000E+00 0.  1.
        994    1    1    2    0    0 -0.77468982133E+01 -0.74346103664E+00  0.33406097186E+01  0.17140935459E+03  0.17120000000E+03 0.  0.
        998    1    1    2    0    0 -0.15208788222E+02  0.19473355341E+01  0.14104596064E+04  0.14105783922E+04  0.10000000000E+02 0.  1.
</event>
<event>
 5    1  0.1087513E-008  0.3760849E+03  0.7957747E-01  0.3468385E+00
         13   -1    0    0    0    0  0.00000000000E+00  0.00000000000E+00  0.14999999963E+04  0.15000000000E+04  0.10566000000E+00 0.  1.
        994   -1    0    0    0    0 -0.00000000000E+00 -0.00000000000E+00  0.11368683772E-12  0.17120000000E+03  0.17120000000E+03 0.  0.
         13    1    1    2    0    0 -0.11134570125E+02  0.18506230792E+02  0.37803212377E+02  0.43537951951E+02  0.10566000000E+00 0.  1.
        994    1    1    2    0    0  0.36596569467E+02  0.29139321779E+02  0.13570590023E+02  0.17799440970E+03  0.17120000000E+03 0.  0.
        998    1    1    2    0    0 -0.25461999342E+02 -0.47645552572E+02  0.14486261939E+04  0.14496676383E+04  0.10000000000E+02 0.  1.
</event>
<event>
 5    1  0.1087513E-008  0.3784391E+03  0.7957747E-01  0.3457983E+00
         13   -1    0    0    0    0  0.00000000000E+00  0.00000000000E+00  0.14999999963E+04  0.15000000000E+04  0.10566000000E+00 0. -1.
        994   -1    0    0    0    0 -0.00000000000E+00 -0.00000000000E+00  0.11368683772E-12  0.17120000000E+03  0.17120000000E+03 0.  0.
         13    1    1    2    0    0  0.24097603280E+03 -0.11185941188E+03  0.11768284857E+04  0.12064440610E+04  0.10566000000E+00 0. -1.
        994    1    1    2    0    0 -0.23504132324E+03  0.95405096565E+02  0.27080047956E+03  0.40864274839E+03  0.17120000000E+03 0.  0.
        998    1    1    2    0    0 -0.59347095604E+01  0.16454315317E+02  0.52371031005E+02  0.56113190594E+02  0.10000000000E+02 0. -1.
</event>
<event>
 5    1  0.1087513E-008  0.3825561E+03  0.7957747E-01  0.3440104E+00
         13   -1    0    0    0    0  0.00000000000E+00  0.00000000000E+00  0.14999999963E+04  0.15000000000E+04  0.10566000000E+00 0. -1.
        994   -1    0    0    0    0 -0.00000000000E+00 -0.00000000000E+00  0.11368683772E-12  0.17120000000E+03  0.17120000000E+03 0.  0.
         13    1    1    2    0    0 -0.10882135568E+02 -0.22686985361E+02  0.10001186092E+03  0.10312857832E+03  0.10566000000E+00 0. -1.
        994    1    1    2    0    0  0.12549218187E+02  0.29223020372E+02  0.62085536538E+01  0.17423964513E+03  0.17120000000E+03 0.  0.
        998    1    1    2    0    0 -0.16670826185E+01 -0.65360350102E+01  0.13937795817E+04  0.13938317765E+04  0.10000000000E+02 0. -1.
</event>
<event>
 5    1  0.1087513E-008  0.3690512E+03  0.7957747E-01  0.3500263E+00
         13   -1    0    0    0    0  0.00000000000E+00  0.00000000000E+00  0.14999999963E+04  0.15000000000E+04  0.10566000000E+00 0. -1.
        994   -1    0    0    0    0 -0.00000000000E+00 -0.00000000000E+00  0.11368683772E-12  0.17120000000E+03  0.17120000000E+03 0.  0.
         13    1    1    2    0    0  0.95007731378E+02 -0.18637383759E+02  0.32420004291E+03  0.33834819355E+03  0.10566000000E+00 0. -1.
        994    1    1    2    0    0 -0.10189444955E+03  0.30861154619E+02  0.51046664040E+02  0.20796656371E+03  0.17120000000E+03 0.  0.
        998    1    1    2    0    0  0.68867181690E+01 -0.12223770860E+02  0.11247532893E+04  0.11248852427E+04  0.10000000000E+02 0. -1.
</event>
<event>
 5    1  0.1087513E-008  0.3849634E+03  0.7957747E-01  0.3429828E+00
         13   -1    0    0    0    0  0.00000000000E+00  0.00000000000E+00  0.14999999963E+04  0.15000000000E+04  0.10566000000E+00 0.  1.
        994   -1    0    0    0    0 -0.00000000000E+00 -0.00000000000E+00  0.11368683772E-12  0.17120000000E+03  0.17120000000E+03 0.  0.
         13    1    1    2    0    0  0.16136613163E+02 -0.55308103014E+01  0.84471644883E+02  0.86176853623E+02  0.10566000000E+00 0.  1.
        994    1    1    2    0    0 -0.19387693542E+02 -0.30213076480E+01  0.29156719057E+01  0.17234544410E+03  0.17120000000E+03 0.  0.
        998    1    1    2    0    0  0.32510803790E+01  0.85521179494E+01  0.14126126795E+04  0.14126777023E+04  0.10000000000E+02 0.  1.
</event>
<event>
 5    1  0.1087513E-008  0.3829857E+03  0.7957747E-01  0.3438260E+00
         13   -1    0    0    0    0  0.00000000000E+00  0.00000000000E+00  0.14999999963E+04  0.15000000000E+04  0.10566000000E+00 0. -1.
        994   -1    0    0    0    0 -0.00000000000E+00 -0.00000000000E+00  0.11368683772E-12  0.17120000000E+03  0.17120000000E+03 0.  0.
         13    1    1    2    0    0 -0.65436046384E+01  0.18232269166E+02  0.71740554948E+02  0.74309843150E+02  0.10566000000E+00 0. -1.
        994    1    1    2    0    0  0.12617906238E+01 -0.92214377174E+01  0.29203124809E+01  0.17147768150E+03  0.17120000000E+03 0.  0.
        998    1    1    2    0    0  0.52818140146E+01 -0.90108314482E+01  0.14253391288E+04  0.14254124753E+04  0.10000000000E+02 0. -1.
</event>
<event>
 5    1  0.1087513E-008  0.3841046E+03  0.7957747E-01  0.3433479E+00
         13   -1    0    0    0    0  0.00000000000E+00  0.00000000000E+00  0.14999999963E+04  0.15000000000E+04  0.10566000000E+00 0.  1.
        994   -1    0    0    0    0 -0.00000000000E+00 -0.00000000000E+00  0.11368683772E-12  0.17120000000E+03  0.17120000000E+03 0.  0.
         13    1    1    2    0    0  0.78196573940E+02  0.21665577423E+03  0.12489119297E+04  0.12699745855E+04  0.10566000000E+00 0.  1.
        994    1    1    2    0    0 -0.75329343350E+02 -0.21489222947E+03  0.19761029247E+03  0.34671666812E+03  0.17120000000E+03 0.  0.
        998    1    1    2    0    0 -0.28672305891E+01 -0.17635447572E+01  0.53477774141E+02  0.54508746348E+02  0.10000000000E+02 0.  0.
</event>
<event>
 5    1  0.1087513E-008  0.3428012E+03  0.7957747E-01  0.3631061E+00
         13   -1    0    0    0    0  0.00000000000E+00  0.00000000000E+00  0.14999999963E+04  0.15000000000E+04  0.10566000000E+00 0.  1.
        994   -1    0    0    0    0 -0.00000000000E+00 -0.00000000000E+00  0.11368683772E-12  0.17120000000E+03  0.17120000000E+03 0.  0.
         13    1    1    2    0    0  0.24478398628E+03  0.66161788770E+02  0.80967572535E+03  0.84845234021E+03  0.10566000000E+00 0.  1.
        994    1    1    2    0    0 -0.24540710382E+03 -0.10745323350E+03  0.32388120285E+03  0.45384944371E+03  0.17120000000E+03 0.  0.
        998    1    1    2    0    0  0.62311754405E+00  0.41291444728E+02  0.36644306808E+03  0.36889821608E+03  0.10000000000E+02 0. -1.
</event>
<event>
 5    1  0.1087513E-008  0.3756927E+03  0.7957747E-01  0.3470131E+00
         13   -1    0    0    0    0  0.00000000000E+00  0.00000000000E+00  0.14999999963E+04  0.15000000000E+04  0.10566000000E+00 0.  1.
        994   -1    0    0    0    0 -0.00000000000E+00 -0.00000000000E+00  0.11368683772E-12  0.17120000000E+03  0.17120000000E+03 0.  0.
         13    1    1    2    0    0 -0.28914402420E+02  0.39304763166E+02  0.80181052195E+02  0.93861170725E+02  0.10566000000E+00 0.  1.
        994    1    1    2    0    0  0.35985520121E+02 -0.14148694951E+02  0.19333548548E+02  0.17657397692E+03  0.17120000000E+03 0.  0.
        998    1    1    2    0    0 -0.70711177012E+01 -0.25156068215E+02  0.14004853955E+04  0.14007648524E+04  0.10000000000E+02 0.  1.
</event>
<event>
 5    1  0.1087513E-008  0.3758572E+03  0.7957747E-01  0.3469398E+00
         13   -1    0    0    0    0  0.00000000000E+00  0.00000000000E+00  0.14999999963E+04  0.15000000000E+04  0.10566000000E+00 0. -1.
        994   -1    0    0    0    0 -0.00000000000E+00 -0.00000000000E+00  0.11368683772E-12  0.17120000000E+03  0.17120000000E+03 0.  0.
         13    1    1    2    0    0  0.96483221183E+01 -0.11393444454E+02  0.15319702832E+02  0.21391707625E+02  0.10566000000E+00 0. -1.
        994    1    1    2    0    0 -0.39489879360E+01  0.38389848811E+01  0.63420424340E+01  0.17140593284E+03  0.17120000000E+03 0.  0.
        998    1    1    2    0    0 -0.56993341824E+01  0.75544595730E+01  0.14783382510E+04  0.14784023595E+04  0.10000000000E+02 0. -1.
</event>
<event>
 5    1  0.1087513E-008  0.3700530E+03  0.7957747E-01  0.3495647E+00
         13   -1    0    0    0    0  0.00000000000E+00  0.00000000000E+00  0.14999999963E+04  0.15000000000E+04  0.10566000000E+00 0. -1.
        994   -1    0    0    0    0 -0.00000000000E+00 -0.00000000000E+00  0.11368683772E-12  0.17120000000E+03  0.17120000000E+03 0.  0.
         13    1    1    2    0    0  0.32420706492E+02 -0.20089878457E+02  0.69676099877E+02  0.79432206843E+02  0.10566000000E+00 0. -1.
        994    1    1    2    0    0  0.22863550688E+02  0.14613765810E+02  0.13545710928E+02  0.17386555261E+03  0.17120000000E+03 0.  0.
        998    1    1    2    0    0 -0.55284257181E+02  0.54761126467E+01  0.14167781855E+04  0.14179022405E+04  0.10000000000E+02 0. -1.
</event>
<event>
 5    1  0.1087513E-008  0.3751040E+03  0.7957747E-01  0.3472758E+00
         13   -1    0    0    0    0  0.00000000000E+00  0.00000000000E+00  0.14999999963E+04  0.15000000000E+04  0.10566000000E+00 0.  1.
        994   -1    0    0    0    0 -0.00000000000E+00 -0.00000000000E+00  0.11368683772E-12  0.17120000000E+03  0.17120000000E+03 0.  0.
         13    1    1    2    0    0 -0.11193310931E+02 -0.46958185668E+01  0.80134977701E+01  0.14545385253E+02  0.10566000000E+00 0.  1.
        994    1    1    2    0    0  0.10988415856E+02  0.10294237868E+02  0.73960686297E+01  0.17201993619E+03  0.17120000000E+03 0.  0.
        998    1    1    2    0    0  0.20489507532E+00 -0.55984193011E+01  0.14845904299E+04  0.14846346786E+04  0.10000000000E+02 0.  1.
</event>
<event>
 5    1  0.1087513E-008  0.3839532E+03  0.7957747E-01  0.3434124E+00
         13   -1    0    0    0    0  0.00000000000E+00  0.00000000000E+00  0.14999999963E+04  0.15000000000E+04  0.10566000000E+00 0. -1.
        994   -1    0    0    0    0 -0.00000000000E+00 -0.00000000000E+00  0.11368683772E-12  0.17120000000E+03  0.17120000000E+03 0.  0.
         13    1    1    2    0    0 -0.80168325835E+01  0.72050628245E+01  0.25978639958E+02  0.28126205451E+02  0.10566000000E+00 0. -1.
        994    1    1    2    0    0  0.46185497369E+01 -0.12028041013E+02  0.26987253490E+01  0.17170535196E+03  0.17120000000E+03 0.  0.
        998    1    1    2    0    0  0.33982828465E+01  0.48229781888E+01  0.14713226310E+04  0.14713684426E+04  0.10000000000E+02 0. -1.
</event>
<event>
 5    1  0.1087513E-008  0.3846826E+03  0.7957747E-01  0.3431019E+00
         13   -1    0    0    0    0  0.00000000000E+00  0.00000000000E+00  0.14999999963E+04  0.15000000000E+04  0.10566000000E+00 0. -1.
        994   -1    0    0    0    0 -0.00000000000E+00 -0.00000000000E+00  0.11368683772E-12  0.17120000000E+03  0.17120000000E+03 0.  0.
         13    1    1    2    0    0  0.13193929393E+02 -0.14175372558E+02  0.11104352479E+03  0.11271954810E+03  0.10566000000E+00 0. -1.
        994    1    1    2    0    0  0.10664512635E+00  0.69410967366E+01  0.19464415594E+01  0.17135174009E+03  0.17120000000E+03 0.  0.
        998    1    1    2    0    0 -0.13300574519E+02  0.72342758212E+01  0.13870100299E+04  0.13871287118E+04  0.10000000000E+02 0. -1.
</event>
<event>
 5    1  0.1087513E-008  0.3037438E+03  0.7957747E-01  0.3869649E+00
         13   -1    0    0    0    0  0.00000000000E+00  0.00000000000E+00  0.14999999963E+04  0.15000000000E+04  0.10566000000E+00 0.  1.
        994   -1    0    0    0    0 -0.00000000000E+00 -0.00000000000E+00  0.11368683772E-12  0.17120000000E+03  0.17120000000E+03 0.  0.
         13    1    1    2    0    0  0.10243298804E+03 -0.12600938682E+03  0.76366878065E+03  0.78074381221E+03  0.10566000000E+00 0.  1.
        994    1    1    2    0    0 -0.10970735477E+03  0.66993603350E+02  0.75696459593E+02  0.22707540725E+03  0.17120000000E+03 0.  0.
        998    1    1    2    0    0  0.72743667350E+01  0.59015783470E+02  0.66063475604E+03  0.66338078054E+03  0.10000000000E+02 0.  1.
</event>
<event>
 5    1  0.1087513E-008  0.3835590E+03  0.7957747E-01  0.3435807E+00
         13   -1    0    0    0    0  0.00000000000E+00  0.00000000000E+00  0.14999999963E+04  0.15000000000E+04  0.10566000000E+00 0.  1.
        994   -1    0    0    0    0 -0.00000000000E+00 -0.00000000000E+00  0.11368683772E-12  0.17120000000E+03  0.17120000000E+03 0.  0.
         13    1    1    2    0    0 -0.15677236290E+02 -0.12141152967E+02  0.82762556468E+02  0.85104848570E+02  0.10566000000E+00 0.  1.
        994    1    1    2    0    0  0.12612997354E+02  0.56528621028E+01  0.29787171373E+01  0.17178287257E+03  0.17120000000E+03 0.  0.
        998    1    1    2    0    0  0.30642389360E+01  0.64882908639E+01  0.14142587227E+04  0.14143122789E+04  0.10000000000E+02 0.  1.
</event>
<event>
 5    1  0.1087513E-008  0.3827421E+03  0.7957747E-01  0.3439305E+00
         13   -1    0    0    0    0  0.00000000000E+00  0.00000000000E+00  0.14999999963E+04  0.15000000000E+04  0.10566000000E+00 0.  1.
        994   -1    0    0    0    0 -0.00000000000E+00 -0.00000000000E+00  0.11368683772E-12  0.17120000000E+03  0.17120000000E+03 0.  0.
         13    1    1    2    0    0  0.24339529873E+02  0.17848634175E+02  0.16885989213E+03  0.17153617925E+03  0.10566000000E+00 0.  1.
        994    1    1    2    0    0 -0.31495842114E+02  0.15447103463E+02  0.68428650908E+01  0.17489101143E+03  0.17120000000E+03 0.  0.
        998    1    1    2    0    0  0.71563122402E+01 -0.33295737638E+02  0.13242972391E+04  0.13247728093E+04  0.10000000000E+02 0.  1.
</event>
<event>
 5    1  0.1087513E-008  0.3740076E+03  0.7957747E-01  0.3477673E+00
         13   -1    0    0    0    0  0.00000000000E+00  0.00000000000E+00  0.14999999963E+04  0.15000000000E+04  0.10566000000E+00 0. -1.
        994   -1    0    0    0    0 -0.00000000000E+00 -0.00000000000E+00  0.11368683772E-12  0.17120000000E+03  0.17120000000E+03 0.  0.
         13    1    1    2    0    0  0.28997623179E+02  0.93002974159E+01  0.60285812054E+02  0.67540713507E+02  0.10566000000E+00 0. -1.
        994    1    1    2    0    0 -0.25403305243E+02 -0.92845894880E+01  0.96882548133E+01  0.17359387605E+03  0.17120000000E+03 0.  0.
        998    1    1    2    0    0 -0.35943179359E+01 -0.15707927976E-01  0.14300259294E+04  0.14300654104E+04  0.10000000000E+02 0. -1.
</event>
<event>
 5    1  0.1087513E-008  0.3823232E+03  0.7957747E-01  0.3441105E+00
         13   -1    0    0    0    0  0.00000000000E+00  0.00000000000E+00  0.14999999963E+04  0.15000000000E+04  0.10566000000E+00 0.  1.
        994   -1    0    0    0    0 -0.00000000000E+00 -0.00000000000E+00  0.11368683772E-12  0.17120000000E+03  0.17120000000E+03 0.  0.
         13    1    1    2    0    0 -0.13408406033E+02  0.43368935092E+02  0.27277383670E+03  0.27652527377E+03  0.10566000000E+00 0.  1.
        994    1    1    2    0    0  0.23184291944E+02 -0.45609560325E+02  0.11698267345E+02  0.17906432600E+03  0.17120000000E+03 0.  0.
        998    1    1    2    0    0 -0.97758859115E+01  0.22406252331E+01  0.12155278922E+04  0.12156104002E+04  0.10000000000E+02 0. -1.
</event>
<event>
 5    1  0.1087513E-008  0.3853570E+03  0.7957747E-01  0.3428160E+00
         13   -1    0    0    0    0  0.00000000000E+00  0.00000000000E+00  0.14999999963E+04  0.15000000000E+04  0.10566000000E+00 0. -1.
        994   -1    0    0    0    0 -0.00000000000E+00 -0.00000000000E+00  0.11368683772E-12  0.17120000000E+03  0.17120000000E+03 0.  0.
         13    1    1    2    0    0  0.55604551162E+01 -0.15599530682E+02  0.99459055004E+02  0.10082846228E+03  0.10566000000E+00 0. -1.
        994    1    1    2    0    0 -0.58131212618E+01  0.30609826248E+01  0.15947883469E+01  0.17133343323E+03  0.17120000000E+03 0.  0.
        998    1    1    2    0    0  0.25266614554E+00  0.12538548057E+02  0.13989461529E+04  0.13990381045E+04  0.10000000000E+02 0. -1.
</event>
<event>
 5    1  0.1087513E-008  0.3838564E+03  0.7957747E-01  0.3434537E+00
         13   -1    0    0    0    0  0.00000000000E+00  0.00000000000E+00  0.14999999963E+04  0.15000000000E+04  0.10566000000E+00 0.  1.
        994   -1    0    0    0    0 -0.00000000000E+00 -0.00000000000E+00  0.11368683772E-12  0.17120000000E+03  0.17120000000E+03 0.  0.
         13    1    1    2    0    0 -0.13908242494E+02 -0.57982856716E+01  0.53256229979E+02  0.55347055221E+02  0.10566000000E+00 0.  1.
        994    1    1    2    0    0 -0.14361676725E+01  0.83681253250E+01  0.24369623966E+01  0.17142773079E+03  0.17120000000E+03 0.  0.
        998    1    1    2    0    0  0.15344410166E+02 -0.25698396534E+01  0.14443068039E+04  0.14444252140E+04  0.10000000000E+02 0.  1.
</event>
<event>
 5    1  0.1087513E-008  0.3769915E+03  0.7957747E-01  0.3464364E+00
         13   -1    0    0    0    0  0.00000000000E+00  0.00000000000E+00  0.14999999963E+04  0.15000000000E+04  0.10566000000E+00 0.  1.
        994   -1    0    0    0    0 -0.00000000000E+00 -0.00000000000E+00  0.11368683772E-12  0.17120000000E+03  0.17120000000E+03 0.  0.
         13    1    1    2    0    0  0.11813649676E+03  0.31535669507E+02  0.67208121849E+03  0.68311339156E+03  0.10566000000E+00 0.  1.
        994    1    1    2    0    0 -0.12994625462E+03 -0.49406280921E+01  0.65072968848E+02  0.22462050256E+03  0.17120000000E+03 0.  0.
        998    1    1    2    0    0  0.11809757862E+02 -0.26595041415E+02  0.76284580894E+03  0.76346610588E+03  0.10000000000E+02 0.  1.
</event>
<event>
 5    1  0.1087513E-008  0.3857470E+03  0.7957747E-01  0.3426510E+00
         13   -1    0    0    0    0  0.00000000000E+00  0.00000000000E+00  0.14999999963E+04  0.15000000000E+04  0.10566000000E+00 0. -1.
        994   -1    0    0    0    0 -0.00000000000E+00 -0.00000000000E+00  0.11368683772E-12  0.17120000000E+03  0.17120000000E+03 0.  0.
         13    1    1    2    0    0 -0.99688858834E+01 -0.10624379809E+02  0.84702087192E+02  0.85945976467E+02  0.10566000000E+00 0. -1.
        994    1    1    2    0    0  0.24192278853E+01  0.11242041705E+02  0.16936781095E+01  0.17159412784E+03  0.17120000000E+03 0.  0.
        998    1    1    2    0    0  0.75496579981E+01 -0.61766189576E+00  0.14136042310E+04  0.14136598957E+04  0.10000000000E+02 0. -1.
</event>
<event>
 5    1  0.1087513E-008  0.3788774E+03  0.7957747E-01  0.3456061E+00
         13   -1    0    0    0    0  0.00000000000E+00  0.00000000000E+00  0.14999999963E+04  0.15000000000E+04  0.10566000000E+00 0.  1.
        994   -1    0    0    0    0 -0.00000000000E+00 -0.00000000000E+00  0.11368683772E-12  0.17120000000E+03  0.17120000000E+03 0.  0.
         13    1    1    2    0    0  0.18878044542E+02  0.71566197482E+01  0.59230336571E+01  0.21040229649E+02  0.10566000000E+00 0.  1.
        994    1    1    2    0    0 -0.19961588232E+02 -0.56979813077E+01  0.17268569306E+02  0.17331640281E+03  0.17120000000E+03 0.  0.
        998    1    1    2    0    0  0.10835436898E+01 -0.14586384405E+01  0.14768083933E+04  0.14768433675E+04  0.10000000000E+02 0.  1.
</event>
<event>
 5    1  0.1087513E-008  0.3857753E+03  0.7957747E-01  0.3426391E+00
         13   -1    0    0    0    0  0.00000000000E+00  0.00000000000E+00  0.14999999963E+04  0.15000000000E+04  0.10566000000E+00 0.  1.
        994   -1    0    0    0    0 -0.00000000000E+00 -0.00000000000E+00  0.11368683772E-12  0.17120000000E+03  0.17120000000E+03 0.  0.
         13    1    1    2    0    0  0.12812226370E+02 -0.18972135276E+02  0.13801971191E+03  0.13990549346E+03  0.10566000000E+00 0.  1.
        994    1    1    2    0    0 -0.41961199150E+02  0.41967282896E+02  0.12885677601E+02  0.18165207336E+03  0.17120000000E+03 0.  0.
        998    1    1    2    0    0  0.29148972780E+02 -0.22995147620E+02  0.13490946068E+04  0.13496424332E+04  0.10000000000E+02 0.  1.
</event>
<event>
 5    1  0.1087513E-008  0.3838662E+03  0.7957747E-01  0.3434495E+00
         13   -1    0    0    0    0  0.00000000000E+00  0.00000000000E+00  0.14999999963E+04  0.15000000000E+04  0.10566000000E+00 0.  1.
        994   -1    0    0    0    0 -0.00000000000E+00 -0.00000000000E+00  0.11368683772E-12  0.17120000000E+03  0.17120000000E+03 0.  0.
         13    1    1    2    0    0 -0.24006016777E+02  0.49840797674E+00  0.12390558273E+03  0.12621070418E+03  0.10566000000E+00 0.  1.
        994    1    1    2    0    0  0.21987589226E+02  0.13449626185E+01  0.37974640829E+01  0.17265318919E+03  0.17120000000E+03 0.  0.
        998    1    1    2    0    0  0.20184275514E+01 -0.18433705953E+01  0.13722969495E+04  0.13723361066E+04  0.10000000000E+02 0.  1.
</event>
<event>
 5    1  0.1087513E-008  0.3823252E+03  0.7957747E-01  0.3441096E+00
         13   -1    0    0    0    0  0.00000000000E+00  0.00000000000E+00  0.14999999963E+04  0.15000000000E+04  0.10566000000E+00 0. -1.
        994   -1    0    0    0    0 -0.00000000000E+00 -0.00000000000E+00  0.11368683772E-12  0.17120000000E+03  0.17120000000E+03 0.  0.
         13    1    1    2    0    0 -0.55916439460E+01 -0.13841572797E+02  0.36673684122E+02  0.39595781223E+02  0.10566000000E+00 0. -1.
        994    1    1    2    0    0  0.90676504457E+00  0.96100513407E+01  0.32731308634E+01  0.17150314486E+03  0.17120000000E+03 0.  0.
        998    1    1    2    0    0  0.46848789014E+01  0.42315214561E+01  0.14600531813E+04  0.14601010739E+04  0.10000000000E+02 0. -1.
</event>
<event>
 5    1  0.1087513E-008  0.3828746E+03  0.7957747E-01  0.3438737E+00
         13   -1    0    0    0    0  0.00000000000E+00  0.00000000000E+00  0.14999999963E+04  0.15000000000E+04  0.10566000000E+00 0. -1.
        994   -1    0    0    0    0 -0.00000000000E+00 -0.00000000000E+00  0.11368683772E-12  0.17120000000E+03  0.17120000000E+03 0.  0.
         13    1    1    2    0    0 -0.20705783405E+02  0.13275460614E+02  0.11740739724E+03  0.11995613953E+03  0.10566000000E+00 0. -1.
        994    1    1    2    0    0  0.11513099882E+02  0.34470284852E+01  0.31675037623E+01  0.17165053613E+03  0.17120000000E+03 0.  0.
        998    1    1    2    0    0  0.91926835231E+01 -0.16722489099E+02  0.13794250953E+04  0.13795933243E+04  0.10000000000E+02 0. -1.
</event>
<event>
 5    1  0.1087513E-008  0.3732989E+03  0.7957747E-01  0.3480866E+00
         13   -1    0    0    0    0  0.00000000000E+00  0.00000000000E+00  0.14999999963E+04  0.15000000000E+04  0.10566000000E+00 0. -1.
        994   -1    0    0    0    0 -0.00000000000E+00 -0.00000000000E+00  0.11368683772E-12  0.17120000000E+03  0.17120000000E+03 0.  0.
         13    1    1    2    0    0  0.57873729858E+01 -0.26834408564E+02  0.28438846799E+02  0.39526678843E+02  0.10566000000E+00 0. -1.
        994    1    1    2    0    0 -0.80941090320E+02 -0.74993889229E+02  0.57106504277E+02  0.21153282571E+03  0.17120000000E+03 0.  0.
        998    1    1    2    0    0  0.75153717334E+02  0.10182829779E+03  0.14144546452E+04  0.14201404954E+04  0.10000000000E+02 0. -1.
</event>
<event>
 5    1  0.1087513E-008  0.3826983E+03  0.7957747E-01  0.3439493E+00
         13   -1    0    0    0    0  0.00000000000E+00  0.00000000000E+00  0.14999999963E+04  0.15000000000E+04  0.10566000000E+00 0. -1.
        994   -1    0    0    0    0 -0.00000000000E+00 -0.00000000000E+00  0.11368683772E-12  0.17120000000E+03  0.17120000000E+03 0.  0.
         13    1    1    2    0    0  0.67073133220E+01 -0.16028380181E+02  0.52080073782E+02  0.54902115373E+02  0.10566000000E+00 0. -1.
        994    1    1    2    0    0 -0.56682114734E+01  0.16412532472E+02  0.37768230543E+01  0.17211973808E+03  0.17120000000E+03 0.  0.
        998    1    1    2    0    0 -0.10391018487E+01 -0.38415229107E+00  0.14441430994E+04  0.14441781465E+04  0.10000000000E+02 0. -1.
</event>
<event>
 5    1  0.1087513E-008  0.3708434E+03  0.7957747E-01  0.3492024E+00
         13   -1    0    0    0    0  0.00000000000E+00  0.00000000000E+00  0.14999999963E+04  0.15000000000E+04  0.10566000000E+00 0.  1.
        994   -1    0    0    0    0 -0.00000000000E+00 -0.00000000000E+00  0.11368683772E-12  0.17120000000E+03  0.17120000000E+03 0.  0.
         13    1    1    2    0    0  0.21968284278E+02  0.57957975713E+02  0.19701935914E+03  0.20653903142E+03  0.10566000000E+00 0.  1.
        994    1    1    2    0    0 -0.19291906664E+02 -0.49131212428E+02  0.18496123956E+02  0.18010441499E+03  0.17120000000E+03 0.  0.
        998    1    1    2    0    0 -0.26763776139E+01 -0.88267632847E+01  0.12844845132E+04  0.12845565536E+04  0.10000000000E+02 0.  1.
</event>
<event>
 5    1  0.1087513E-008  0.2977116E+03  0.7957747E-01  0.3912492E+00
         13   -1    0    0    0    0  0.00000000000E+00  0.00000000000E+00  0.14999999963E+04  0.15000000000E+04  0.10566000000E+00 0.  1.
        994   -1    0    0    0    0 -0.00000000000E+00 -0.00000000000E+00  0.11368683772E-12  0.17120000000E+03  0.17120000000E+03 0.  0.
         13    1    1    2    0    0  0.21765776809E+03 -0.17086515898E+03  0.66236871246E+03  0.71784547709E+03  0.10566000000E+00 0.  1.
        994    1    1    2    0    0 -0.12022123647E+03  0.10840250915E+03  0.21175026663E+03  0.31678362506E+03  0.17120000000E+03 0.  0.
        998    1    1    2    0    0 -0.97436531613E+02  0.62462649837E+02  0.62588101719E+03  0.63657089785E+03  0.10000000000E+02 0.  1.
</event>
<event>
 5    1  0.1087513E-008  0.3801200E+03  0.7957747E-01  0.3450636E+00
         13   -1    0    0    0    0  0.00000000000E+00  0.00000000000E+00  0.14999999963E+04  0.15000000000E+04  0.10566000000E+00 0.  1.
        994   -1    0    0    0    0 -0.00000000000E+00 -0.00000000000E+00  0.11368683772E-12  0.17120000000E+03  0.17120000000E+03 0.  0.
         13    1    1    2    0    0  0.18856855768E+02 -0.56302509397E+01  0.42713600174E+02  0.47029177528E+02  0.10566000000E+00 0.  1.
        994    1    1    2    0    0 -0.33890477490E+02  0.53295446567E+01  0.80155375623E+01  0.17478746338E+03  0.17120000000E+03 0.  0.
        998    1    1    2    0    0  0.15033621722E+02  0.30070628301E+00  0.14492708585E+04  0.14493833591E+04  0.10000000000E+02 0.  1.
</event>
<event>
 5    1  0.1087513E-008  0.3844558E+03  0.7957747E-01  0.3431983E+00
         13   -1    0    0    0    0  0.00000000000E+00  0.00000000000E+00  0.14999999963E+04  0.15000000000E+04  0.10566000000E+00 0.  1.
        994   -1    0    0    0    0 -0.00000000000E+00 -0.00000000000E+00  0.11368683772E-12  0.17120000000E+03  0.17120000000E+03 0.  0.
         13    1    1    2    0    0  0.11114810612E+02 -0.25973069034E+02  0.14017725696E+03  0.14299585261E+03  0.10566000000E+00 0.  1.
        994    1    1    2    0    0 -0.38960487072E+02  0.56244215027E+02  0.17478314027E+02  0.18519250184E+03  0.17120000000E+03 0.  0.
        998    1    1    2    0    0  0.27845676460E+02 -0.30271145993E+02  0.13423444253E+04  0.13430116456E+04  0.10000000000E+02 0.  1.
</event>
<event>
 5    1  0.1087513E-008  0.3736761E+03  0.7957747E-01  0.3479165E+00
         13   -1    0    0    0    0  0.00000000000E+00  0.00000000000E+00  0.14999999963E+04  0.15000000000E+04  0.10566000000E+00 0. -1.
        994   -1    0    0    0    0 -0.00000000000E+00 -0.00000000000E+00  0.11368683772E-12  0.17120000000E+03  0.17120000000E+03 0.  0.
         13    1    1    2    0    0 -0.23265047226E+02  0.78327654320E+01  0.38766345453E+02  0.45885240988E+02  0.10566000000E+00 0. -1.
        994    1    1    2    0    0  0.73079854186E+01 -0.75937962084E+01  0.77395069006E+01  0.17169860908E+03  0.17120000000E+03 0.  0.
        998    1    1    2    0    0  0.15957061807E+02 -0.23896922354E+00  0.14534941439E+04  0.14536161499E+04  0.10000000000E+02 0. -1.
</event>
<event>
 5    1  0.1087513E-008  0.3814388E+03  0.7957747E-01  0.3444918E+00
         13   -1    0    0    0    0  0.00000000000E+00  0.00000000000E+00  0.14999999963E+04  0.15000000000E+04  0.10566000000E+00 0.  1.
        994   -1    0    0    0    0 -0.00000000000E+00 -0.00000000000E+00  0.11368683772E-12  0.17120000000E+03  0.17120000000E+03 0.  0.
         13    1    1    2    0    0  0.27661192567E+02  0.18726835339E+02  0.14235550761E+03  0.14622222009E+03  0.10566000000E+00 0.  1.
        994    1    1    2    0    0 -0.46103236155E+02 -0.41874068796E+01  0.10571802421E+02  0.17766329325E+03  0.17120000000E+03 0.  0.
        998    1    1    2    0    0  0.18442043588E+02 -0.14539428459E+02  0.13470726862E+04  0.13473144867E+04  0.10000000000E+02 0.  1.
</event>
<event>
 5    1  0.1087513E-008  0.3837327E+03  0.7957747E-01  0.3435065E+00
         13   -1    0    0    0    0  0.00000000000E+00  0.00000000000E+00  0.14999999963E+04  0.15000000000E+04  0.10566000000E+00 0. -1.
        994   -1    0    0    0    0 -0.00000000000E+00 -0.00000000000E+00  0.11368683772E-12  0.17120000000E+03  0.17120000000E+03 0.  0.
         13    1    1    2    0    0 -0.21571145163E+02  0.68779523726E+01  0.11101935432E+03  0.11330458388E+03  0.10566000000E+00 0. -1.
        994    1    1    2    0    0  0.21686956700E+02  0.12687591131E+02  0.43481129137E+01  0.17308854712E+03  0.17120000000E+03 0.  0.
        998    1    1    2    0    0 -0.11581153703E+00 -0.19565543504E+02  0.13846325290E+04  0.13848068690E+04  0.10000000000E+02 0. -1.
</event>
<event>
 5    1  0.1087513E-008  0.3763196E+03  0.7957747E-01  0.3467342E+00
         13   -1    0    0    0    0  0.00000000000E+00  0.00000000000E+00  0.14999999963E+04  0.15000000000E+04  0.10566000000E+00 0.  1.
        994   -1    0    0    0    0 -0.00000000000E+00 -0.00000000000E+00  0.11368683772E-12  0.17120000000E+03  0.17120000000E+03 0.  0.
         13    1    1    2    0    0  0.69480056483E+02  0.24160327212E+02  0.31012080652E+03  0.31872578412E+03  0.10566000000E+00 0.  1.
        994    1    1    2    0    0 -0.74765895579E+02 -0.65694836919E+02  0.40297465267E+02  0.20208680424E+03  0.17120000000E+03 0.  0.
        998    1    1    2    0    0  0.52858390962E+01  0.41534509707E+02  0.11495817245E+04  0.11503874116E+04  0.10000000000E+02 0. -1.
</event>
<event>
 5    1  0.1087513E-008  0.3856688E+03  0.7957747E-01  0.3426841E+00
         13   -1    0    0    0    0  0.00000000000E+00  0.00000000000E+00  0.14999999963E+04  0.15000000000E+04  0.10566000000E+00 0.  1.
        994   -1    0    0    0    0 -0.00000000000E+00 -0.00000000000E+00  0.11368683772E-12  0.17120000000E+03  0.17120000000E+03 0.  0.
         13    1    1    2    0    0  0.36058522357E+00  0.13552745582E+02  0.71329926340E+02  0.72607000284E+02  0.10566000000E+00 0.  1.
        994    1    1    2    0    0  0.17194338699E+01 -0.89039725173E+01  0.15683773340E+01  0.17144718425E+03  0.17120000000E+03 0.  0.
        998    1    1    2    0    0 -0.20800190934E+01 -0.46487730650E+01  0.14271016926E+04  0.14271458155E+04  0.10000000000E+02 0.  1.
</event>
<event>
 5    1  0.1087513E-008  0.3862154E+03  0.7957747E-01  0.3424534E+00
         13   -1    0    0    0    0  0.00000000000E+00  0.00000000000E+00  0.14999999963E+04  0.15000000000E+04  0.10566000000E+00 0. -1.
        994   -1    0    0    0    0 -0.00000000000E+00 -0.00000000000E+00  0.11368683772E-12  0.17120000000E+03  0.17120000000E+03 0.  0.
         13    1    1    2    0    0 -0.22935532736E+01 -0.98936361138E+01  0.49898753170E+02  0.50921912318E+02  0.10566000000E+00 0. -1.
        994    1    1    2    0    0  0.20184546803E+01  0.96887363518E+01  0.13488306323E+01  0.17149112256E+03  0.17120000000E+03 0.  0.
        998    1    1    2    0    0  0.27509859337E+00  0.20489976198E+00  0.14487524125E+04  0.14487869651E+04  0.10000000000E+02 0.  0.
</event>
<event>
 5    1  0.1087513E-008  0.3210278E+03  0.7957747E-01  0.3756467E+00
         13   -1    0    0    0    0  0.00000000000E+00  0.00000000000E+00  0.14999999963E+04  0.15000000000E+04  0.10566000000E+00 0.  1.
        994   -1    0    0    0    0 -0.00000000000E+00 -0.00000000000E+00  0.11368683772E-12  0.17120000000E+03  0.17120000000E+03 0.  0.
         13    1    1    2    0    0 -0.11131390772E+03  0.15708786623E+03  0.92512454558E+03  0.94494593484E+03  0.10566000000E+00 0.  1.
        994    1    1    2    0    0  0.65064850438E+02 -0.94887216435E+02  0.73726865842E+02  0.21904818957E+03  0.17120000000E+03 0.  0.
        998    1    1    2    0    0  0.46249057286E+02 -0.62200649796E+02  0.50114858486E+03  0.50720587560E+03  0.10000000000E+02 0.  1.
</event>
<event>
 5    1  0.1087513E-008  0.3706094E+03  0.7957747E-01  0.3493095E+00
         13   -1    0    0    0    0  0.00000000000E+00  0.00000000000E+00  0.14999999963E+04  0.15000000000E+04  0.10566000000E+00 0.  1.
        994   -1    0    0    0    0 -0.00000000000E+00 -0.00000000000E+00  0.11368683772E-12  0.17120000000E+03  0.17120000000E+03 0.  0.
         13    1    1    2    0    0 -0.57531487544E+01 -0.20561139996E+02  0.15507024766E+02  0.26388220471E+02  0.10566000000E+00 0.  1.
        994    1    1    2    0    0 -0.25339913239E+01  0.13238460369E+02  0.11898132097E+02  0.17214146361E+03  0.17120000000E+03 0.  0.
        998    1    1    2    0    0  0.82871400784E+01  0.73226796269E+01  0.14725948394E+04  0.14726703159E+04  0.10000000000E+02 0.  1.
</event>
<event>
 5    1  0.1087513E-008  0.3738660E+03  0.7957747E-01  0.3478310E+00
         13   -1    0    0    0    0  0.00000000000E+00  0.00000000000E+00  0.14999999963E+04  0.15000000000E+04  0.10566000000E+00 0.  1.
        994   -1    0    0    0    0 -0.00000000000E+00 -0.00000000000E+00  0.11368683772E-12  0.17120000000E+03  0.17120000000E+03 0.  0.
         13    1    1    2    0    0  0.62945758997E+02 -0.85022928053E+01  0.13588665399E+03  0.14999883818E+03  0.10566000000E+00 0.  1.
        994    1    1    2    0    0 -0.69940468373E+02 -0.16701983866E+02  0.31556860963E+02  0.18835047347E+03  0.17120000000E+03 0.  0.
        998    1    1    2    0    0  0.69947093756E+01  0.25204276672E+02  0.13325564813E+04  0.13328506884E+04  0.10000000000E+02 0.  1.
</event>
<event>
 5    1  0.1087513E-008  0.3792339E+03  0.7957747E-01  0.3454501E+00
         13   -1    0    0    0    0  0.00000000000E+00  0.00000000000E+00  0.14999999963E+04  0.15000000000E+04  0.10566000000E+00 0. -1.
        994   -1    0    0    0    0 -0.00000000000E+00 -0.00000000000E+00  0.11368683772E-12  0.17120000000E+03  0.17120000000E+03 0.  0.
         13    1    1    2    0    0  0.33721943696E+02  0.57389073053E+02  0.35343405478E+03  0.35964749052E+03  0.10566000000E+00 0. -1.
        994    1    1    2    0    0 -0.36295560559E+02 -0.62435870798E+02  0.22203218641E+02  0.18713104659E+03  0.17120000000E+03 0.  0.
        998    1    1    2    0    0  0.25736168634E+01  0.50467977451E+01  0.11243627229E+04  0.11244214629E+04  0.10000000000E+02 0.  0.
</event>
<event>
 5    1  0.1087513E-008  0.3726301E+03  0.7957747E-01  0.3483890E+00
         13   -1    0    0    0    0  0.00000000000E+00  0.00000000000E+00  0.14999999963E+04  0.15000000000E+04  0.10566000000E+00 0. -1.
        994   -1    0    0    0    0 -0.00000000000E+00 -0.00000000000E+00  0.11368683772E-12  0.17120000000E+03  0.17120000000E+03 0.  0.
         13    1    1    2    0    0  0.28445827932E+02  0.13382039569E+02  0.34262977914E+02  0.46499536872E+02  0.10566000000E+00 0. -1.
        994    1    1    2    0    0 -0.30222545188E+02 -0.11703849417E+02  0.16051607949E+02  0.17497850281E+03  0.17120000000E+03 0.  0.
        998    1    1    2    0    0  0.17767172559E+01 -0.16781901521E+01  0.14496854104E+04  0.14497219603E+04  0.10000000000E+02 0. -1.
</event>
<event>
 5    1  0.1087513E-008  0.3835122E+03  0.7957747E-01  0.3436007E+00
         13   -1    0    0    0    0  0.00000000000E+00  0.00000000000E+00  0.14999999963E+04  0.15000000000E+04  0.10566000000E+00 0.  1.
        994   -1    0    0    0    0 -0.00000000000E+00 -0.00000000000E+00  0.11368683772E-12  0.17120000000E+03  0.17120000000E+03 0.  0.
         13    1    1    2    0    0  0.19456799121E+02  0.23823815247E+00  0.79729391856E+02  0.82069549037E+02  0.10566000000E+00 0.  1.
        994    1    1    2    0    0 -0.11401625038E+02 -0.63248167102E+00  0.28016509808E+01  0.17160328183E+03  0.17120000000E+03 0.  0.
        998    1    1    2    0    0 -0.80551740834E+01  0.39424351855E+00  0.14174689534E+04  0.14175271691E+04  0.10000000000E+02 0.  1.
</event>
<event>
 5    1  0.1087513E-008  0.3835093E+03  0.7957747E-01  0.3436019E+00
         13   -1    0    0    0    0  0.00000000000E+00  0.00000000000E+00  0.14999999963E+04  0.15000000000E+04  0.10566000000E+00 0. -1.
        994   -1    0    0    0    0 -0.00000000000E+00 -0.00000000000E+00  0.11368683772E-12  0.17120000000E+03  0.17120000000E+03 0.  0.
         13    1    1    2    0    0  0.11702410522E+02 -0.11764389816E+02  0.61238521775E+02  0.63446946286E+02  0.10566000000E+00 0. -1.
        994    1    1    2    0    0  0.66282908093E+01  0.46508158312E+01  0.25887527115E+01  0.17141092721E+03  0.17120000000E+03 0.  0.
        998    1    1    2    0    0 -0.18330701331E+02  0.71135739848E+01  0.14361727218E+04  0.14363421265E+04  0.10000000000E+02 0. -1.
</event>
<event>
 5    1  0.1087513E-008  0.3788404E+03  0.7957747E-01  0.3456223E+00
         13   -1    0    0    0    0  0.00000000000E+00  0.00000000000E+00  0.14999999963E+04  0.15000000000E+04  0.10566000000E+00 0.  1.
        994   -1    0    0    0    0 -0.00000000000E+00 -0.00000000000E+00  0.11368683772E-12  0.17120000000E+03  0.17120000000E+03 0.  0.
         13    1    1    2    0    0 -0.63614297203E+01  0.11197442789E+02  0.15435301998E+02  0.20102493002E+02  0.10566000000E+00 0.  1.
        994    1    1    2    0    0  0.52460425429E+01 -0.10445364542E+02  0.51782723943E+01  0.17167667607E+03  0.17120000000E+03 0.  0.
        998    1    1    2    0    0  0.11153871774E+01 -0.75207824674E+00  0.14793864219E+04  0.14794208309E+04  0.10000000000E+02 0.  1.
</event>
<event>
 5    1  0.1087513E-008  0.3824988E+03  0.7957747E-01  0.3440350E+00
         13   -1    0    0    0    0  0.00000000000E+00  0.00000000000E+00  0.14999999963E+04  0.15000000000E+04  0.10566000000E+00 0. -1.
        994   -1    0    0    0    0 -0.00000000000E+00 -0.00000000000E+00  0.11368683772E-12  0.17120000000E+03  0.17120000000E+03 0.  0.
         13    1    1    2    0    0 -0.32863136691E+02  0.78010151772E+01  0.17262691180E+03  0.17590026559E+03  0.10566000000E+00 0. -1.
        994    1    1    2    0    0  0.39071084166E+02  0.39890878574E+01  0.80080804432E+01  0.17582955324E+03  0.17120000000E+03 0.  0.
        998    1    1    2    0    0 -0.62079474749E+01 -0.11790103035E+02  0.13193650040E+04  0.13194701812E+04  0.10000000000E+02 0.  0.
</event>
<event>
 5    1  0.1087513E-008  0.3789892E+03  0.7957747E-01  0.3455571E+00
         13   -1    0    0    0    0  0.00000000000E+00  0.00000000000E+00  0.14999999963E+04  0.15000000000E+04  0.10566000000E+00 0.  1.
        994   -1    0    0    0    0 -0.00000000000E+00 -0.00000000000E+00  0.11368683772E-12  0.17120000000E+03  0.17120000000E+03 0.  0.
         13    1    1    2    0    0  0.99866226765E+01 -0.18289183264E+02  0.44332808162E+02  0.48986078640E+02  0.10566000000E+00 0.  1.
        994    1    1    2    0    0 -0.11137055991E+02  0.14257404489E+02  0.57428412114E+01  0.17224902851E+03  0.17120000000E+03 0.  0.
        998    1    1    2    0    0  0.11504333148E+01  0.40317787749E+01  0.14499243469E+04  0.14499648928E+04  0.10000000000E+02 0.  1.
</event>
<event>
 5    1  0.1087513E-008  0.3705675E+03  0.7957747E-01  0.3493287E+00
         13   -1    0    0    0    0  0.00000000000E+00  0.00000000000E+00  0.14999999963E+04  0.15000000000E+04  0.10566000000E+00 0. -1.
        994   -1    0    0    0    0 -0.00000000000E+00 -0.00000000000E+00  0.11368683772E-12  0.17120000000E+03  0.17120000000E+03 0.  0.
         13    1    1    2    0    0  0.59538482779E+02  0.45182124233E+02  0.26091451546E+03  0.27140864176E+03  0.10566000000E+00 0. -1.
        994    1    1    2    0    0 -0.93809392872E+02  0.10261770691E+01  0.39988095842E+02  0.19927303641E+03  0.17120000000E+03 0.  0.
        998    1    1    2    0    0  0.34270910093E+02 -0.46208301302E+02  0.11990973850E+04  0.12005183218E+04  0.10000000000E+02 0. -1.
</event>
<event>
 5    1  0.1087513E-008  0.3853757E+03  0.7957747E-01  0.3428080E+00
         13   -1    0    0    0    0  0.00000000000E+00  0.00000000000E+00  0.14999999963E+04  0.15000000000E+04  0.10566000000E+00 0.  1.
        994   -1    0    0    0    0 -0.00000000000E+00 -0.00000000000E+00  0.11368683772E-12  0.17120000000E+03  0.17120000000E+03 0.  0.
         13    1    1    2    0    0  0.72654973324E+01  0.10904885461E+02  0.58131114964E+02  0.59589778230E+02  0.10566000000E+00 0.  1.
        994    1    1    2    0    0 -0.57390369473E+01 -0.11647969975E+02  0.19977420641E+01  0.17170335676E+03  0.17120000000E+03 0.  0.
        998    1    1    2    0    0 -0.15264603851E+01  0.74308451407E+00  0.14398711393E+04  0.14399068650E+04  0.10000000000E+02 0.  1.
</event>
<event>
 5    1  0.1087513E-008  0.3870503E+03  0.7957747E-01  0.3421023E+00
         13   -1    0    0    0    0  0.00000000000E+00  0.00000000000E+00  0.14999999963E+04  0.15000000000E+04  0.10566000000E+00 0. -1.
        994   -1    0    0    0    0 -0.00000000000E+00 -0.00000000000E+00  0.11368683772E-12  0.17120000000E+03  0.17120000000E+03 0.  0.
         13    1    1    2    0    0 -0.10464574207E+03  0.16719726861E+02  0.22938190625E+03  0.25267835419E+03  0.10566000000E+00 0. -1.
        994    1    1    2    0    0  0.10152793276E+03 -0.26070553148E+02  0.62391607702E+02  0.21021357612E+03  0.17120000000E+03 0.  0.
        998    1    1    2    0    0  0.31178093072E+01  0.93508262871E+01  0.12082264823E+04  0.12083080697E+04  0.10000000000E+02 0. -1.
</event>
<event>
 5    1  0.1087513E-008  0.3793504E+03  0.7957747E-01  0.3453992E+00
         13   -1    0    0    0    0  0.00000000000E+00  0.00000000000E+00  0.14999999963E+04  0.15000000000E+04  0.10566000000E+00 0.  1.
        994   -1    0    0    0    0 -0.00000000000E+00 -0.00000000000E+00  0.11368683772E-12  0.17120000000E+03  0.17120000000E+03 0.  0.
         13    1    1    2    0    0  0.26026479040E+02  0.28941621189E+02  0.15139601436E+03  0.15631941458E+03  0.10566000000E+00 0.  1.
        994    1    1    2    0    0 -0.28613965812E+02 -0.28414815366E+02  0.99285481406E+01  0.17616519758E+03  0.17120000000E+03 0.  0.
        998    1    1    2    0    0  0.25874867720E+01 -0.52680582363E+00  0.13386754338E+04  0.13387153878E+04  0.10000000000E+02 0.  1.
</event>
<event>
 5    1  0.1087513E-008  0.3786824E+03  0.7957747E-01  0.3456916E+00
         13   -1    0    0    0    0  0.00000000000E+00  0.00000000000E+00  0.14999999963E+04  0.15000000000E+04  0.10566000000E+00 0. -1.
        994   -1    0    0    0    0 -0.00000000000E+00 -0.00000000000E+00  0.11368683772E-12  0.17120000000E+03  0.17120000000E+03 0.  0.
         13    1    1    2    0    0 -0.17719212104E+02 -0.25459346550E+02  0.94485896638E+02  0.99447195193E+02  0.10566000000E+00 0. -1.
        994    1    1    2    0    0  0.76807553300E+01  0.28712507500E+02  0.77714776755E+01  0.17393457953E+03  0.17120000000E+03 0.  0.
        998    1    1    2    0    0  0.10038456774E+02 -0.32531609503E+01  0.13977426220E+04  0.13978182253E+04  0.10000000000E+02 0. -1.
</event>
<event>
 5    1  0.1087513E-008  0.3819612E+03  0.7957747E-01  0.3442663E+00
         13   -1    0    0    0    0  0.00000000000E+00  0.00000000000E+00  0.14999999963E+04  0.15000000000E+04  0.10566000000E+00 0. -1.
        994   -1    0    0    0    0 -0.00000000000E+00 -0.00000000000E+00  0.11368683772E-12  0.17120000000E+03  0.17120000000E+03 0.  0.
         13    1    1    2    0    0 -0.11891736845E+02  0.12893538219E+02  0.47527631624E+02  0.50661066558E+02  0.10566000000E+00 0. -1.
        994    1    1    2    0    0  0.65999118525E+01 -0.11605542801E+02  0.37386683577E+01  0.17176048760E+03  0.17120000000E+03 0.  0.
        998    1    1    2    0    0  0.52918249923E+01 -0.12879954185E+01  0.14487336963E+04  0.14487784458E+04  0.10000000000E+02 0. -1.
</event>
<event>
 5    1  0.1087513E-008  0.3779245E+03  0.7957747E-01  0.3460246E+00
         13   -1    0    0    0    0  0.00000000000E+00  0.00000000000E+00  0.14999999963E+04  0.15000000000E+04  0.10566000000E+00 0. -1.
        994   -1    0    0    0    0 -0.00000000000E+00 -0.00000000000E+00  0.11368683772E-12  0.17120000000E+03  0.17120000000E+03 0.  0.
         13    1    1    2    0    0 -0.11500654225E+02  0.32223747844E+01  0.11593975887E+02  0.16645725811E+02  0.10566000000E+00 0. -1.
        994    1    1    2    0    0  0.29178971463E+01 -0.22049475653E+01  0.52295339867E+01  0.17131889546E+03  0.17120000000E+03 0.  0.
        998    1    1    2    0    0  0.85827570785E+01 -0.10174272191E+01  0.14831764864E+04  0.14832353787E+04  0.10000000000E+02 0. -1.
</event>
<event>
 5    1  0.1087513E-008  0.3729541E+03  0.7957747E-01  0.3482424E+00
         13   -1    0    0    0    0  0.00000000000E+00  0.00000000000E+00  0.14999999963E+04  0.15000000000E+04  0.10566000000E+00 0. -1.
        994   -1    0    0    0    0 -0.00000000000E+00 -0.00000000000E+00  0.11368683772E-12  0.17120000000E+03  0.17120000000E+03 0.  0.
         13    1    1    2    0    0 -0.55437281521E+00 -0.12201503813E+02  0.19344432403E+00  0.12216079946E+02  0.10566000000E+00 0. -1.
        994    1    1    2    0    0  0.25794023588E+00  0.63628069512E+01  0.12652735928E+02  0.17178499228E+03  0.17120000000E+03 0.  0.
        998    1    1    2    0    0  0.29643257933E+00  0.58386968617E+01  0.14871538160E+04  0.14871989278E+04  0.10000000000E+02 0. -1.
</event>
<event>
 5    1  0.1087513E-008  0.3796593E+03  0.7957747E-01  0.3452643E+00
         13   -1    0    0    0    0  0.00000000000E+00  0.00000000000E+00  0.14999999963E+04  0.15000000000E+04  0.10566000000E+00 0. -1.
        994   -1    0    0    0    0 -0.00000000000E+00 -0.00000000000E+00  0.11368683772E-12  0.17120000000E+03  0.17120000000E+03 0.  0.
         13    1    1    2    0    0  0.13886239334E+02 -0.26483965229E+02  0.10198521700E+03  0.10627898996E+03  0.10566000000E+00 0. -1.
        994    1    1    2    0    0 -0.13527158915E+02  0.14244805159E+02  0.55977612337E+01  0.17241424951E+03  0.17120000000E+03 0.  0.
        998    1    1    2    0    0 -0.35908041902E+00  0.12239160071E+02  0.13924170180E+04  0.13925067605E+04  0.10000000000E+02 0. -1.
</event>
<event>
 5    1  0.1087513E-008  0.3838832E+03  0.7957747E-01  0.3434423E+00
         13   -1    0    0    0    0  0.00000000000E+00  0.00000000000E+00  0.14999999963E+04  0.15000000000E+04  0.10566000000E+00 0. -1.
        994   -1    0    0    0    0 -0.00000000000E+00 -0.00000000000E+00  0.11368683772E-12  0.17120000000E+03  0.17120000000E+03 0.  0.
         13    1    1    2    0    0  0.94951861812E+01  0.22330426495E+02  0.14304291046E+03  0.14508649801E+03  0.10566000000E+00 0. -1.
        994    1    1    2    0    0 -0.48182330305E+01 -0.57083196270E+01  0.23698224952E+01  0.17137927629E+03  0.17120000000E+03 0.  0.
        998    1    1    2    0    0 -0.46769531506E+01 -0.16622106868E+02  0.13545872633E+04  0.13547342257E+04  0.10000000000E+02 0. -1.
</event>
<event>
 5    1  0.1087513E-008  0.3848205E+03  0.7957747E-01  0.3430434E+00
         13   -1    0    0    0    0  0.00000000000E+00  0.00000000000E+00  0.14999999963E+04  0.15000000000E+04  0.10566000000E+00 0.  1.
        994   -1    0    0    0    0 -0.00000000000E+00 -0.00000000000E+00  0.11368683772E-12  0.17120000000E+03  0.17120000000E+03 0.  0.
         13    1    1    2    0    0  0.16041198646E+02  0.69295832869E+01  0.95509596030E+02  0.97094970397E+02  0.10566000000E+00 0.  1.
        994    1    1    2    0    0 -0.54649939436E+01  0.83726242513E+01  0.20483182561E+01  0.17150394340E+03  0.17120000000E+03 0.  0.
        998    1    1    2    0    0 -0.10576204702E+02 -0.15302207538E+02  0.14024420820E+04  0.14026010862E+04  0.10000000000E+02 0.  1.
</event>
<event>
 5    1  0.1087513E-008  0.3981655E+03  0.7957747E-01  0.3375686E+00
         13   -1    0    0    0    0  0.00000000000E+00  0.00000000000E+00  0.14999999963E+04  0.15000000000E+04  0.10566000000E+00 0.  1.
        994   -1    0    0    0    0 -0.00000000000E+00 -0.00000000000E+00  0.11368683772E-12  0.17120000000E+03  0.17120000000E+03 0.  0.
         13    1    1    2    0    0 -0.68059847055E+02  0.10863730858E+03  0.22655860685E+03  0.26031331333E+03  0.10566000000E+00 0.  1.
        994    1    1    2    0    0  0.40464942842E+02 -0.14868103080E+03  0.12633058358E+03  0.26270195444E+03  0.17120000000E+03 0.  0.
        998    1    1    2    0    0  0.27594904212E+02  0.40043722218E+02  0.11471108058E+04  0.11481847322E+04  0.10000000000E+02 0.  1.
</event>
<event>
 5    1  0.1087513E-008  0.3781630E+03  0.7957747E-01  0.3459196E+00
         13   -1    0    0    0    0  0.00000000000E+00  0.00000000000E+00  0.14999999963E+04  0.15000000000E+04  0.10566000000E+00 0.  1.
        994   -1    0    0    0    0 -0.00000000000E+00 -0.00000000000E+00  0.11368683772E-12  0.17120000000E+03  0.17120000000E+03 0.  0.
         13    1    1    2    0    0 -0.24514256771E+02  0.92171288513E+01  0.64173577068E+02  0.69312072592E+02  0.10566000000E+00 0.  1.
        994    1    1    2    0    0  0.15547235199E+02 -0.25195475880E+02  0.80170303124E+01  0.17392596500E+03  0.17120000000E+03 0.  0.
        998    1    1    2    0    0  0.89670215722E+01  0.15978347028E+02  0.14278093889E+04  0.14279619624E+04  0.10000000000E+02 0.  1.
</event>
<event>
 5    1  0.1149165E-008  0.3855287E+03  0.7957747E-01  0.3427433E+00
         13   -1    0    0    0    0  0.00000000000E+00  0.00000000000E+00  0.14999999963E+04  0.15000000000E+04  0.10566000000E+00 0. -1.
        994   -1    0    0    0    0 -0.00000000000E+00 -0.00000000000E+00  0.11368683772E-12  0.17120000000E+03  0.17120000000E+03 0.  0.
         13    1    1    2    0    0  0.59368910489E+01 -0.80921737835E+01  0.36128425044E+02  0.37496722684E+02  0.10566000000E+00 0. -1.
        994    1    1    2    0    0 -0.45865379413E+01  0.10229057077E+02  0.17805494863E+01  0.17157587329E+03  0.17120000000E+03 0.  0.
        998    1    1    2    0    0 -0.13503531076E+01 -0.21368832937E+01  0.14620910217E+04  0.14621274040E+04  0.10000000000E+02 0. -1.
</event>
<event>
 5    1  0.1087513E-008  0.3856718E+03  0.7957747E-01  0.3426828E+00
         13   -1    0    0    0    0  0.00000000000E+00  0.00000000000E+00  0.14999999963E+04  0.15000000000E+04  0.10566000000E+00 0.  1.
        994   -1    0    0    0    0 -0.00000000000E+00 -0.00000000000E+00  0.11368683772E-12  0.17120000000E+03  0.17120000000E+03 0.  0.
         13    1    1    2    0    0  0.10854259825E+02 -0.30133185195E+01  0.45499514914E+02  0.46873362011E+02  0.10566000000E+00 0.  1.
        994    1    1    2    0    0 -0.21400232944E+02  0.17355683799E+01  0.28111251952E+01  0.17256397246E+03  0.17120000000E+03 0.  0.
        998    1    1    2    0    0  0.10545973119E+02  0.12777501395E+01  0.14516893562E+04  0.14517626655E+04  0.10000000000E+02 0.  1.
</event>
<event>
 5    1  0.1087513E-008  0.3776173E+03  0.7957747E-01  0.3461599E+00
         13   -1    0    0    0    0  0.00000000000E+00  0.00000000000E+00  0.14999999963E+04  0.15000000000E+04  0.10566000000E+00 0.  1.
        994   -1    0    0    0    0 -0.00000000000E+00 -0.00000000000E+00  0.11368683772E-12  0.17120000000E+03  0.17120000000E+03 0.  0.
         13    1    1    2    0    0  0.30003055317E+02  0.31991022368E+02  0.15873827276E+03  0.16468594124E+03  0.10566000000E+00 0.  1.
        994    1    1    2    0    0 -0.30555500100E+02 -0.34217545855E+02  0.12464759016E+02  0.17767748661E+03  0.17120000000E+03 0.  0.
        998    1    1    2    0    0  0.55244478333E+00  0.22265234868E+01  0.13287969645E+04  0.13288365721E+04  0.10000000000E+02 0.  1.
</event>
<event>
 5    1  0.1657159E-008  0.3861041E+03  0.7957747E-01  0.3425003E+00
         13   -1    0    0    0    0  0.00000000000E+00  0.00000000000E+00  0.14999999963E+04  0.15000000000E+04  0.10566000000E+00 0.  1.
        994   -1    0    0    0    0 -0.00000000000E+00 -0.00000000000E+00  0.11368683772E-12  0.17120000000E+03  0.17120000000E+03 0.  0.
         13    1    1    2    0    0  0.55595662283E+01 -0.97722973935E+01  0.57393134321E+02  0.58484097020E+02  0.10566000000E+00 0.  1.
        994    1    1    2    0    0 -0.34555810363E+01  0.11539781543E+02  0.15586249599E+01  0.17163034962E+03  0.17120000000E+03 0.  0.
        998    1    1    2    0    0 -0.21039851919E+01 -0.17674841495E+01  0.14410482370E+04  0.14410855534E+04  0.10000000000E+02 0.  1.
</event>
<event>
 5    1  0.1087513E-008  0.3801158E+03  0.7957747E-01  0.3450654E+00
         13   -1    0    0    0    0  0.00000000000E+00  0.00000000000E+00  0.14999999963E+04  0.15000000000E+04  0.10566000000E+00 0. -1.
        994   -1    0    0    0    0 -0.00000000000E+00 -0.00000000000E+00  0.11368683772E-12  0.17120000000E+03  0.17120000000E+03 0.  0.
         13    1    1    2    0    0 -0.13726036793E+03  0.54294306159E+02  0.78018242604E+03  0.79402324232E+03  0.10566000000E+00 0. -1.
        994    1    1    2    0    0  0.16563670617E+03 -0.41130110956E+02  0.10848626528E+03  0.26496398663E+03  0.17120000000E+03 0.  0.
        998    1    1    2    0    0 -0.28376338240E+02 -0.13164195203E+02  0.61133130496E+03  0.61221277104E+03  0.10000000000E+02 0. -1.
</event>
<event>
 5    1  0.1087513E-008  0.3729329E+03  0.7957747E-01  0.3482519E+00
         13   -1    0    0    0    0  0.00000000000E+00  0.00000000000E+00  0.14999999963E+04  0.15000000000E+04  0.10566000000E+00 0. -1.
        994   -1    0    0    0    0 -0.00000000000E+00 -0.00000000000E+00  0.11368683772E-12  0.17120000000E+03  0.17120000000E+03 0.  0.
         13    1    1    2    0    0 -0.11807596186E+02 -0.47468951544E+02  0.15059241013E+03  0.15833763242E+03  0.10566000000E+00 0. -1.
        994    1    1    2    0    0 -0.58784919700E+01  0.33403104153E+02  0.11691891709E+02  0.17491845062E+03  0.17120000000E+03 0.  0.
        998    1    1    2    0    0  0.17686088156E+02  0.14065847391E+02  0.13377156944E+04  0.13379439170E+04  0.10000000000E+02 0. -1.
</event>
<event>
 5    1  0.1087513E-008  0.3839071E+03  0.7957747E-01  0.3434321E+00
         13   -1    0    0    0    0  0.00000000000E+00  0.00000000000E+00  0.14999999963E+04  0.15000000000E+04  0.10566000000E+00 0.  1.
        994   -1    0    0    0    0 -0.00000000000E+00 -0.00000000000E+00  0.11368683772E-12  0.17120000000E+03  0.17120000000E+03 0.  0.
         13    1    1    2    0    0 -0.10103155025E+02 -0.12885726419E+02  0.64542873238E+02  0.66587606479E+02  0.10566000000E+00 0.  1.
        994    1    1    2    0    0 -0.38225311957E+01  0.45104017740E+01  0.22890929132E+01  0.17131735293E+03  0.17120000000E+03 0.  0.
        998    1    1    2    0    0  0.13925686220E+02  0.83753246449E+01  0.14331680301E+04  0.14332950406E+04  0.10000000000E+02 0.  1.
</event>
<event>
 5    1  0.1087513E-008  0.3697060E+03  0.7957747E-01  0.3497243E+00
         13   -1    0    0    0    0  0.00000000000E+00  0.00000000000E+00  0.14999999963E+04  0.15000000000E+04  0.10566000000E+00 0.  1.
        994   -1    0    0    0    0 -0.00000000000E+00 -0.00000000000E+00  0.11368683772E-12  0.17120000000E+03  0.17120000000E+03 0.  0.
         13    1    1    2    0    0 -0.72160740658E+01 -0.18435695284E+02  0.16277991229E+02  0.25630660312E+02  0.10566000000E+00 0.  1.
        994    1    1    2    0    0  0.10792661184E+02  0.23386998411E+02  0.11722471617E+02  0.17352316725E+03  0.17120000000E+03 0.  0.
        998    1    1    2    0    0 -0.35765871178E+01 -0.49513031269E+01  0.14719995334E+04  0.14720461724E+04  0.10000000000E+02 0.  1.
</event>
<event>
 5    1  0.1087513E-008  0.3813408E+03  0.7957747E-01  0.3445341E+00
         13   -1    0    0    0    0  0.00000000000E+00  0.00000000000E+00  0.14999999963E+04  0.15000000000E+04  0.10566000000E+00 0. -1.
        994   -1    0    0    0    0 -0.00000000000E+00 -0.00000000000E+00  0.11368683772E-12  0.17120000000E+03  0.17120000000E+03 0.  0.
         13    1    1    2    0    0  0.53459380471E+01  0.18930298134E+02  0.53400612047E+02  0.56908450796E+02  0.10566000000E+00 0. -1.
        994    1    1    2    0    0 -0.49182938830E+01 -0.18089165322E+02  0.46282445422E+01  0.17228542644E+03  0.17120000000E+03 0.  0.
        998    1    1    2    0    0 -0.42764416415E+00 -0.84113281154E+00  0.14419711397E+04  0.14420061228E+04  0.10000000000E+02 0. -1.
</event>
<event>
 5    1  0.1087513E-008  0.3822324E+03  0.7957747E-01  0.3441496E+00
         13   -1    0    0    0    0  0.00000000000E+00  0.00000000000E+00  0.14999999963E+04  0.15000000000E+04  0.10566000000E+00 0.  1.
        994   -1    0    0    0    0 -0.00000000000E+00 -0.00000000000E+00  0.11368683772E-12  0.17120000000E+03  0.17120000000E+03 0.  0.
         13    1    1    2    0    0 -0.28522082355E+02  0.94230225794E+01  0.17213239868E+03  0.17473372993E+03  0.10566000000E+00 0.  1.
        994    1    1    2    0    0 -0.38828429895E+01 -0.11976540832E+02  0.35366827629E+01  0.17169875400E+03  0.17120000000E+03 0.  0.
        998    1    1    2    0    0  0.32404925345E+02  0.25535182531E+01  0.13243309148E+04  0.13247675161E+04  0.10000000000E+02 0.  1.
</event>
<event>
 5    1  0.1087513E-008  0.3841319E+03  0.7957747E-01  0.3433362E+00
         13   -1    0    0    0    0  0.00000000000E+00  0.00000000000E+00  0.14999999963E+04  0.15000000000E+04  0.10566000000E+00 0. -1.
        994   -1    0    0    0    0 -0.00000000000E+00 -0.00000000000E+00  0.11368683772E-12  0.17120000000E+03  0.17120000000E+03 0.  0.
         13    1    1    2    0    0  0.14529893237E+02 -0.88765320628E+01  0.67066468191E+02  0.69194168386E+02  0.10566000000E+00 0. -1.
        994    1    1    2    0    0 -0.18308607518E+02  0.52984967317E+01  0.32607100308E+01  0.17228857016E+03  0.17120000000E+03 0.  0.
        998    1    1    2    0    0  0.37787142806E+01  0.35780353311E+01  0.14296728181E+04  0.14297172615E+04  0.10000000000E+02 0. -1.
</event>
<event>
 5    1  0.1087513E-008  0.3807405E+03  0.7957747E-01  0.3447941E+00
         13   -1    0    0    0    0  0.00000000000E+00  0.00000000000E+00  0.14999999963E+04  0.15000000000E+04  0.10566000000E+00 0. -1.
        994   -1    0    0    0    0 -0.00000000000E+00 -0.00000000000E+00  0.11368683772E-12  0.17120000000E+03  0.17120000000E+03 0.  0.
         13    1    1    2    0    0  0.16619245022E+02  0.20779175670E+02  0.97341124518E+02  0.10091223480E+03  0.10566000000E+00 0. -1.
        994    1    1    2    0    0 -0.86358680283E+01 -0.26975185946E+01  0.40328325929E+01  0.17148632179E+03  0.17120000000E+03 0.  0.
        998    1    1    2    0    0 -0.79833769934E+01 -0.18081657075E+02  0.13986260392E+04  0.13988014434E+04  0.10000000000E+02 0. -1.
</event>
<event>
 5    1  0.1087513E-008  0.3726188E+03  0.7957747E-01  0.3483941E+00
         13   -1    0    0    0    0  0.00000000000E+00  0.00000000000E+00  0.14999999963E+04  0.15000000000E+04  0.10566000000E+00 0.  1.
        994   -1    0    0    0    0 -0.00000000000E+00 -0.00000000000E+00  0.11368683772E-12  0.17120000000E+03  0.17120000000E+03 0.  0.
         13    1    1    2    0    0  0.46965870908E+01 -0.26510465954E+02  0.42604841834E+02  0.50398873471E+02  0.10566000000E+00 0.  1.
        994    1    1    2    0    0 -0.26191342020E+01  0.18791307055E+02  0.91411139387E+01  0.17249050133E+03  0.17120000000E+03 0.  0.
        998    1    1    2    0    0 -0.20774528888E+01  0.77191588993E+01  0.14482540405E+04  0.14483106252E+04  0.10000000000E+02 0.  1.
</event>
<event>
 5    1  0.1087513E-008  0.3799966E+03  0.7957747E-01  0.3451173E+00
         13   -1    0    0    0    0  0.00000000000E+00  0.00000000000E+00  0.14999999963E+04  0.15000000000E+04  0.10566000000E+00 0. -1.
        994   -1    0    0    0    0 -0.00000000000E+00 -0.00000000000E+00  0.11368683772E-12  0.17120000000E+03  0.17120000000E+03 0.  0.
         13    1    1    2    0    0 -0.23620118284E+02 -0.19199748750E+02  0.12826827523E+03  0.13183058043E+03  0.10566000000E+00 0. -1.
        994    1    1    2    0    0 -0.90532052806E+01  0.77931148436E+00  0.44109252420E+01  0.17149770877E+03  0.17120000000E+03 0.  0.
        998    1    1    2    0    0  0.32673323565E+02  0.18420437265E+02  0.13673207958E+04  0.13678717108E+04  0.10000000000E+02 0. -1.
</event>
<event>
 5    1  0.1087513E-008  0.3830487E+03  0.7957747E-01  0.3437990E+00
         13   -1    0    0    0    0  0.00000000000E+00  0.00000000000E+00  0.14999999963E+04  0.15000000000E+04  0.10566000000E+00 0. -1.
        994   -1    0    0    0    0 -0.00000000000E+00 -0.00000000000E+00  0.11368683772E-12  0.17120000000E+03  0.17120000000E+03 0.  0.
         13    1    1    2    0    0 -0.53271942829E+01  0.15013244749E+02  0.51444723024E+02  0.53854871719E+02  0.10566000000E+00 0. -1.
        994    1    1    2    0    0 -0.59546142183E+01  0.26556752096E+01  0.27427572368E+01  0.17134606140E+03  0.17120000000E+03 0.  0.
        998    1    1    2    0    0  0.11281808501E+02 -0.17668919959E+02  0.14458125160E+04  0.14459990669E+04  0.10000000000E+02 0. -1.
</event>
<event>
 5    1  0.1087513E-008  0.3836409E+03  0.7957747E-01  0.3435457E+00
         13   -1    0    0    0    0  0.00000000000E+00  0.00000000000E+00  0.14999999963E+04  0.15000000000E+04  0.10566000000E+00 0.  1.
        994   -1    0    0    0    0 -0.00000000000E+00 -0.00000000000E+00  0.11368683772E-12  0.17120000000E+03  0.17120000000E+03 0.  0.
         13    1    1    2    0    0 -0.18393210050E+02 -0.56234121107E+01  0.77858130645E+02  0.80198707042E+02  0.10566000000E+00 0.  1.
        994    1    1    2    0    0  0.13444216092E+02  0.11428612511E+02  0.33355842915E+01  0.17213926412E+03  0.17120000000E+03 0.  0.
        998    1    1    2    0    0  0.49489939578E+01 -0.58052004006E+01  0.14188062813E+04  0.14188620288E+04  0.10000000000E+02 0.  1.
</event>
<event>
 5    1  0.1087513E-008  0.3811988E+03  0.7957747E-01  0.3445955E+00
         13   -1    0    0    0    0  0.00000000000E+00  0.00000000000E+00  0.14999999963E+04  0.15000000000E+04  0.10566000000E+00 0. -1.
        994   -1    0    0    0    0 -0.00000000000E+00 -0.00000000000E+00  0.11368683772E-12  0.17120000000E+03  0.17120000000E+03 0.  0.
         13    1    1    2    0    0  0.54869427362E+02 -0.10903821750E+03  0.32544367145E+03  0.34758248141E+03  0.10566000000E+00 0. -1.
        994    1    1    2    0    0 -0.53073442437E+02  0.11281170599E+03  0.76000778295E+02  0.22500851007E+03  0.17120000000E+03 0.  0.
        998    1    1    2    0    0 -0.17959849244E+01 -0.37734884929E+01  0.10985555465E+04  0.10986090085E+04  0.10000000000E+02 0. -1.
</event>
<event>
 5    1  0.1087513E-008  0.3857602E+03  0.7957747E-01  0.3426455E+00
         13   -1    0    0    0    0  0.00000000000E+00  0.00000000000E+00  0.14999999963E+04  0.15000000000E+04  0.10566000000E+00 0.  1.
        994   -1    0    0    0    0 -0.00000000000E+00 -0.00000000000E+00  0.11368683772E-12  0.17120000000E+03  0.17120000000E+03 0.  0.
         13    1    1    2    0    0  0.13116714214E+02 -0.23505939066E+01  0.73375377614E+02  0.74575670882E+02  0.10566000000E+00 0.  1.
        994    1    1    2    0    0 -0.44381642307E+01  0.54255021209E+01  0.14143853604E+01  0.17134927447E+03  0.17120000000E+03 0.  0.
        998    1    1    2    0    0 -0.86785499828E+01 -0.30749082143E+01  0.14252102333E+04  0.14252750546E+04  0.10000000000E+02 0.  1.
</event>
<event>
 5    1  0.1087513E-008  0.3838050E+03  0.7957747E-01  0.3434756E+00
         13   -1    0    0    0    0  0.00000000000E+00  0.00000000000E+00  0.14999999963E+04  0.15000000000E+04  0.10566000000E+00 0. -1.
        994   -1    0    0    0    0 -0.00000000000E+00 -0.00000000000E+00  0.11368683772E-12  0.17120000000E+03  0.17120000000E+03 0.  0.
         13    1    1    2    0    0 -0.16348904170E+02  0.48389688940E+01  0.60779211592E+02  0.63125478321E+02  0.10566000000E+00 0. -1.
        994    1    1    2    0    0  0.24774834471E+02  0.11881453806E+01  0.42583152331E+01  0.17303981438E+03  0.17120000000E+03 0.  0.
        998    1    1    2    0    0 -0.84259303009E+01 -0.60271142747E+01  0.14349624695E+04  0.14350347073E+04  0.10000000000E+02 0. -1.
</event>
<event>
 5    1  0.1087513E-008  0.3802901E+03  0.7957747E-01  0.3449896E+00
         13   -1    0    0    0    0  0.00000000000E+00  0.00000000000E+00  0.14999999963E+04  0.15000000000E+04  0.10566000000E+00 0.  1.
        994   -1    0    0    0    0 -0.00000000000E+00 -0.00000000000E+00  0.11368683772E-12  0.17120000000E+03  0.17120000000E+03 0.  0.
         13    1    1    2    0    0  0.40209811193E+02  0.28466848040E+02  0.29446778931E+03  0.29856068137E+03  0.10566000000E+00 0.  1.
        994    1    1    2    0    0 -0.17108610304E+02 -0.30463718786E+02  0.80744614683E+01  0.17491534992E+03  0.17120000000E+03 0.  0.
        998    1    1    2    0    0 -0.23101200889E+02  0.19968707467E+01  0.11974577455E+04  0.11977239687E+04  0.10000000000E+02 0.  1.
</event>
<event>
 5    1  0.1087513E-008  0.3800648E+03  0.7957747E-01  0.3450876E+00
         13   -1    0    0    0    0  0.00000000000E+00  0.00000000000E+00  0.14999999963E+04  0.15000000000E+04  0.10566000000E+00 0.  1.
        994   -1    0    0    0    0 -0.00000000000E+00 -0.00000000000E+00  0.11368683772E-12  0.17120000000E+03  0.17120000000E+03 0.  0.
         13    1    1    2    0    0  0.27590041729E+01 -0.14015522728E+02  0.23428493828E+02  0.27439979382E+02  0.10566000000E+00 0.  1.
        994    1    1    2    0    0 -0.19958239821E+01  0.62552374714E+01  0.42445227288E+01  0.17137843296E+03  0.17120000000E+03 0.  0.
        998    1    1    2    0    0 -0.76318019081E+00  0.77602852570E+01  0.14723269797E+04  0.14723815877E+04  0.10000000000E+02 0.  1.
</event>
<event>
 5    1  0.1087513E-008  0.3790337E+03  0.7957747E-01  0.3455377E+00
         13   -1    0    0    0    0  0.00000000000E+00  0.00000000000E+00  0.14999999963E+04  0.15000000000E+04  0.10566000000E+00 0.  1.
        994   -1    0    0    0    0 -0.00000000000E+00 -0.00000000000E+00  0.11368683772E-12  0.17120000000E+03  0.17120000000E+03 0.  0.
         13    1    1    2    0    0  0.12217732543E+02  0.66155570706E+01  0.18879701139E+02  0.23441264108E+02  0.10566000000E+00 0.  1.
        994    1    1    2    0    0 -0.21311094211E+01 -0.18328523499E+02  0.57643897407E+01  0.17228796995E+03  0.17120000000E+03 0.  0.
        998    1    1    2    0    0 -0.10086623122E+02  0.11712966429E+02  0.14753559054E+04  0.14754707659E+04  0.10000000000E+02 0.  1.
</event>
<event>
 5    1  0.1087513E-008  0.4204446E+03  0.7957747E-01  0.3291983E+00
         13   -1    0    0    0    0  0.00000000000E+00  0.00000000000E+00  0.14999999963E+04  0.15000000000E+04  0.10566000000E+00 0. -1.
        994   -1    0    0    0    0 -0.00000000000E+00 -0.00000000000E+00  0.11368683772E-12  0.17120000000E+03  0.17120000000E+03 0.  0.
         13    1    1    2    0    0  0.30639385384E+02 -0.45250487525E+02  0.21555693304E+02  0.58745532901E+02  0.10566000000E+00 0. -1.
        994    1    1    2    0    0 -0.55692044779E+02  0.26874027456E+02  0.57151107912E+02  0.19078654654E+03  0.17120000000E+03 0.  0.
        998    1    1    2    0    0  0.25052659396E+02  0.18376460069E+02  0.14212931951E+04  0.14216679206E+04  0.10000000000E+02 0. -1.
</event>
<event>
 5    1  0.1087513E-008  0.3816078E+03  0.7957747E-01  0.3444187E+00
         13   -1    0    0    0    0  0.00000000000E+00  0.00000000000E+00  0.14999999963E+04  0.15000000000E+04  0.10566000000E+00 0. -1.
        994   -1    0    0    0    0 -0.00000000000E+00 -0.00000000000E+00  0.11368683772E-12  0.17120000000E+03  0.17120000000E+03 0.  0.
         13    1    1    2    0    0 -0.20342914525E+02 -0.66778978848E+01  0.72662514554E+02  0.75751440098E+02  0.10566000000E+00 0. -1.
        994    1    1    2    0    0  0.51931070008E+01 -0.16504229467E+02  0.43197845792E+01  0.17212628646E+03  0.17120000000E+03 0.  0.
        998    1    1    2    0    0  0.15149807524E+02  0.23182127351E+02  0.14230176971E+04  0.14233222734E+04  0.10000000000E+02 0. -1.
</event>
<event>
 5    1  0.1087513E-008  0.3792898E+03  0.7957747E-01  0.3454257E+00
         13   -1    0    0    0    0  0.00000000000E+00  0.00000000000E+00  0.14999999963E+04  0.15000000000E+04  0.10566000000E+00 0.  1.
        994   -1    0    0    0    0 -0.00000000000E+00 -0.00000000000E+00  0.11368683772E-12  0.17120000000E+03  0.17120000000E+03 0.  0.
         13    1    1    2    0    0  0.51250447643E+01  0.38057036704E+02  0.14897688898E+03  0.15384644533E+03  0.10566000000E+00 0.  1.
        994    1    1    2    0    0 -0.44043459727E+00 -0.37412523881E+02  0.91971050381E+01  0.17548195824E+03  0.17120000000E+03 0.  0.
        998    1    1    2    0    0 -0.46846101670E+01 -0.64451282298E+00  0.13418260023E+04  0.13418715964E+04  0.10000000000E+02 0.  1.
</event>
<event>
 5    1  0.1087513E-008  0.4074743E+03  0.7957747E-01  0.3339612E+00
         13   -1    0    0    0    0  0.00000000000E+00  0.00000000000E+00  0.14999999963E+04  0.15000000000E+04  0.10566000000E+00 0. -1.
        994   -1    0    0    0    0 -0.00000000000E+00 -0.00000000000E+00  0.11368683772E-12  0.17120000000E+03  0.17120000000E+03 0.  0.
         13    1    1    2    0    0 -0.19103601189E+02 -0.32537924602E+02  0.86120195490E+01  0.38701965849E+02  0.10566000000E+00 0. -1.
        994    1    1    2    0    0  0.25973669267E+02  0.36820924178E+02  0.40565959008E+02  0.18161896647E+03  0.17120000000E+03 0.  0.
        998    1    1    2    0    0 -0.68700680789E+01 -0.42829995760E+01  0.14508220177E+04  0.14508790677E+04  0.10000000000E+02 0. -1.
</event>
<event>
 5    1  0.1087513E-008  0.3175756E+03  0.7957747E-01  0.3778021E+00
         13   -1    0    0    0    0  0.00000000000E+00  0.00000000000E+00  0.14999999963E+04  0.15000000000E+04  0.10566000000E+00 0.  1.
        994   -1    0    0    0    0 -0.00000000000E+00 -0.00000000000E+00  0.11368683772E-12  0.17120000000E+03  0.17120000000E+03 0.  0.
         13    1    1    2    0    0  0.16550625980E+03 -0.85799355586E+02  0.82635590067E+03  0.84712333057E+03  0.10566000000E+00 0.  1.
        994    1    1    2    0    0 -0.13518103320E+03  0.65945925995E+02  0.99430856716E+02  0.24863369072E+03  0.17120000000E+03 0.  0.
        998    1    1    2    0    0 -0.30325226603E+02  0.19853429591E+02  0.57421323889E+03  0.57544297871E+03  0.10000000000E+02 0.  1.
</event>
<event>
 5    1  0.1087513E-008  0.3761448E+03  0.7957747E-01  0.3468119E+00
         13   -1    0    0    0    0  0.00000000000E+00  0.00000000000E+00  0.14999999963E+04  0.15000000000E+04  0.10566000000E+00 0.  1.
        994   -1    0    0    0    0 -0.00000000000E+00 -0.00000000000E+00  0.11368683772E-12  0.17120000000E+03  0.17120000000E+03 0.  0.
         13    1    1    2    0    0  0.21296209992E+02 -0.37924243441E+01  0.37222359546E+02  0.43051437335E+02  0.10566000000E+00 0.  1.
        994    1    1    2    0    0 -0.17171173703E+01  0.57927203498E+01  0.62156626391E+01  0.17141930627E+03  0.17120000000E+03 0.  0.
        998    1    1    2    0    0 -0.19579092622E+02 -0.20002960057E+01  0.14565619741E+04  0.14567292564E+04  0.10000000000E+02 0.  1.
</event>
<event>
 5    1  0.1087513E-008  0.3853285E+03  0.7957747E-01  0.3428280E+00
         13   -1    0    0    0    0  0.00000000000E+00  0.00000000000E+00  0.14999999963E+04  0.15000000000E+04  0.10566000000E+00 0. -1.
        994   -1    0    0    0    0 -0.00000000000E+00 -0.00000000000E+00  0.11368683772E-12  0.17120000000E+03  0.17120000000E+03 0.  0.
         13    1    1    2    0    0 -0.17898679020E+00 -0.12655696213E+02  0.53574124672E+02  0.55049038878E+02  0.10566000000E+00 0. -1.
        994    1    1    2    0    0  0.82708510992E+01  0.11997860774E+02  0.21650658926E+01  0.17183271851E+03  0.17120000000E+03 0.  0.
        998    1    1    2    0    0 -0.80918643090E+01  0.65783543881E+00  0.14442608057E+04  0.14443182426E+04  0.10000000000E+02 0. -1.
</event>
<event>
 5    1  0.1087513E-008  0.3770335E+03  0.7957747E-01  0.3464178E+00
         13   -1    0    0    0    0  0.00000000000E+00  0.00000000000E+00  0.14999999963E+04  0.15000000000E+04  0.10566000000E+00 0.  1.
        994   -1    0    0    0    0 -0.00000000000E+00 -0.00000000000E+00  0.11368683772E-12  0.17120000000E+03  0.17120000000E+03 0.  0.
         13    1    1    2    0    0 -0.12046182616E+02  0.65737411943E+01  0.14851945458E+02  0.20221672454E+02  0.10566000000E+00 0.  1.
        994    1    1    2    0    0 -0.11489491111E+02 -0.32149011183E+01  0.61188551904E+01  0.17172426848E+03  0.17120000000E+03 0.  0.
        998    1    1    2    0    0  0.23535673727E+02 -0.33588400760E+01  0.14790291956E+04  0.14792540591E+04  0.10000000000E+02 0.  1.
</event>
<event>
 5    1  0.1087513E-008  0.3748247E+03  0.7957747E-01  0.3474007E+00
         13   -1    0    0    0    0  0.00000000000E+00  0.00000000000E+00  0.14999999963E+04  0.15000000000E+04  0.10566000000E+00 0.  1.
        994   -1    0    0    0    0 -0.00000000000E+00 -0.00000000000E+00  0.11368683772E-12  0.17120000000E+03  0.17120000000E+03 0.  0.
         13    1    1    2    0    0  0.18772239670E+02  0.48229404924E+02  0.17004307252E+03  0.17774456436E+03  0.10566000000E+00 0.  1.
        994    1    1    2    0    0 -0.28082660363E+02 -0.49542027993E+02  0.17880175165E+02  0.18130689180E+03  0.17120000000E+03 0.  0.
        998    1    1    2    0    0  0.93104206923E+01  0.13126230688E+01  0.13120767486E+04  0.13121485438E+04  0.10000000000E+02 0.  1.
</event>
<event>
 5    1  0.1087513E-008  0.3792749E+03  0.7957747E-01  0.3454322E+00
         13   -1    0    0    0    0  0.00000000000E+00  0.00000000000E+00  0.14999999963E+04  0.15000000000E+04  0.10566000000E+00 0. -1.
        994   -1    0    0    0    0 -0.00000000000E+00 -0.00000000000E+00  0.11368683772E-12  0.17120000000E+03  0.17120000000E+03 0.  0.
         13    1    1    2    0    0 -0.63414694617E+01 -0.17390005554E+02  0.36719047697E+02  0.41120872509E+02  0.10566000000E+00 0. -1.
        994    1    1    2    0    0  0.11929523579E+02  0.51272064580E+01  0.50647677826E+01  0.17176639267E+03  0.17120000000E+03 0.  0.
        998    1    1    2    0    0 -0.55880541176E+01  0.12262799096E+02  0.14582161808E+04  0.14583127348E+04  0.10000000000E+02 0. -1.
</event>
<event>
 5    1  0.1087513E-008  0.3847262E+03  0.7957747E-01  0.3430834E+00
         13   -1    0    0    0    0  0.00000000000E+00  0.00000000000E+00  0.14999999963E+04  0.15000000000E+04  0.10566000000E+00 0.  1.
        994   -1    0    0    0    0 -0.00000000000E+00 -0.00000000000E+00  0.11368683772E-12  0.17120000000E+03  0.17120000000E+03 0.  0.
         13    1    1    2    0    0  0.69414457801E+01 -0.10877121772E+02  0.47364171052E+02  0.49090440119E+02  0.10566000000E+00 0.  1.
        994    1    1    2    0    0 -0.22998713178E+01  0.67326844818E+01  0.19327465615E+01  0.17135867051E+03  0.17120000000E+03 0.  0.
        998    1    1    2    0    0 -0.46415744623E+01  0.41444372905E+01  0.14507030787E+04  0.14507508894E+04  0.10000000000E+02 0.  1.
</event>
<event>
 5    1  0.1087513E-008  0.3861545E+03  0.7957747E-01  0.3424791E+00
         13   -1    0    0    0    0  0.00000000000E+00  0.00000000000E+00  0.14999999963E+04  0.15000000000E+04  0.10566000000E+00 0. -1.
        994   -1    0    0    0    0 -0.00000000000E+00 -0.00000000000E+00  0.11368683772E-12  0.17120000000E+03  0.17120000000E+03 0.  0.
         13    1    1    2    0    0  0.99843496044E+01  0.57380685554E+01  0.62757443547E+02  0.63805333260E+02  0.10566000000E+00 0. -1.
        994    1    1    2    0    0 -0.78359479186E+01 -0.51909005714E+01  0.13475439894E+01  0.17146312549E+03  0.17120000000E+03 0.  0.
        998    1    1    2    0    0 -0.21484016858E+01 -0.54716798402E+00  0.14358950087E+04  0.14359315412E+04  0.10000000000E+02 0. -1.
</event>
<event>
 5    1  0.1087513E-008  0.3777166E+03  0.7957747E-01  0.3461161E+00
         13   -1    0    0    0    0  0.00000000000E+00  0.00000000000E+00  0.14999999963E+04  0.15000000000E+04  0.10566000000E+00 0. -1.
        994   -1    0    0    0    0 -0.00000000000E+00 -0.00000000000E+00  0.11368683772E-12  0.17120000000E+03  0.17120000000E+03 0.  0.
         13    1    1    2    0    0  0.83404337101E+01 -0.31072789626E+02  0.95040847612E+02  0.10033870125E+03  0.10566000000E+00 0. -1.
        994    1    1    2    0    0 -0.12372833977E+01  0.22224020266E+02  0.69608281599E+01  0.17278116528E+03  0.17120000000E+03 0.  0.
        998    1    1    2    0    0 -0.71031503123E+01  0.88487693597E+01  0.13979983205E+04  0.13980801335E+04  0.10000000000E+02 0. -1.
</event>
<event>
 5    1  0.1087513E-008  0.3726845E+03  0.7957747E-01  0.3483644E+00
         13   -1    0    0    0    0  0.00000000000E+00  0.00000000000E+00  0.14999999963E+04  0.15000000000E+04  0.10566000000E+00 0. -1.
        994   -1    0    0    0    0 -0.00000000000E+00 -0.00000000000E+00  0.11368683772E-12  0.17120000000E+03  0.17120000000E+03 0.  0.
         13    1    1    2    0    0 -0.20263402948E+02 -0.26440118385E+02  0.65802727790E+02  0.73754291454E+02  0.10566000000E+00 0. -1.
        994    1    1    2    0    0  0.28321263010E+02  0.15134663598E+02  0.11413475609E+02  0.17455904275E+03  0.17120000000E+03 0.  0.
        998    1    1    2    0    0 -0.80578600617E+01  0.11305454787E+02  0.14227837929E+04  0.14228866658E+04  0.10000000000E+02 0. -1.
</event>
<event>
 5    1  0.1087513E-008  0.3831198E+03  0.7957747E-01  0.3437686E+00
         13   -1    0    0    0    0  0.00000000000E+00  0.00000000000E+00  0.14999999963E+04  0.15000000000E+04  0.10566000000E+00 0. -1.
        994   -1    0    0    0    0 -0.00000000000E+00 -0.00000000000E+00  0.11368683772E-12  0.17120000000E+03  0.17120000000E+03 0.  0.
         13    1    1    2    0    0 -0.21045855186E+02 -0.23286057155E+02  0.17176216046E+03  0.17460647012E+03  0.10566000000E+00 0. -1.
        994    1    1    2    0    0  0.82892277052E+01  0.35578506384E+02  0.69948233677E+01  0.17519391818E+03  0.17120000000E+03 0.  0.
        998    1    1    2    0    0  0.12756627481E+02 -0.12292449229E+02  0.13212430124E+04  0.13213996117E+04  0.10000000000E+02 0. -1.
</event>
<event>
 5    1  0.1087513E-008  0.3707649E+03  0.7957747E-01  0.3492383E+00
         13   -1    0    0    0    0  0.00000000000E+00  0.00000000000E+00  0.14999999963E+04  0.15000000000E+04  0.10566000000E+00 0.  1.
        994   -1    0    0    0    0 -0.00000000000E+00 -0.00000000000E+00  0.11368683772E-12  0.17120000000E+03  0.17120000000E+03 0.  0.
         13    1    1    2    0    0 -0.39357771985E+02 -0.22184821189E+02  0.81697075301E+02  0.93357505235E+02  0.10566000000E+00 0.  1.
        994    1    1    2    0    0  0.35793328403E+02  0.27943911100E+02  0.18607144522E+02  0.17809461068E+03  0.17120000000E+03 0.  0.
        998    1    1    2    0    0  0.35644435817E+01 -0.57590899109E+01  0.13996957765E+04  0.13997478841E+04  0.10000000000E+02 0.  1.
</event>
<event>
 5    1  0.1381127E-008  0.3848614E+03  0.7957747E-01  0.3430260E+00
         13   -1    0    0    0    0  0.00000000000E+00  0.00000000000E+00  0.14999999963E+04  0.15000000000E+04  0.10566000000E+00 0.  1.
        994   -1    0    0    0    0 -0.00000000000E+00 -0.00000000000E+00  0.11368683772E-12  0.17120000000E+03  0.17120000000E+03 0.  0.
         13    1    1    2    0    0  0.95467995807E+01 -0.88651383677E+01  0.48440638469E+02  0.50162123957E+02  0.10566000000E+00 0.  1.
        994    1    1    2    0    0 -0.91967210702E+01  0.10622989910E+02  0.23487801259E+01  0.17179168886E+03  0.17120000000E+03 0.  0.
        998    1    1    2    0    0 -0.35007851055E+00 -0.17578515426E+01  0.14492105777E+04  0.14492461872E+04  0.10000000000E+02 0.  1.
</event>
<event>
 5    1  0.1087513E-008  0.3782047E+03  0.7957747E-01  0.3459013E+00
         13   -1    0    0    0    0  0.00000000000E+00  0.00000000000E+00  0.14999999963E+04  0.15000000000E+04  0.10566000000E+00 0. -1.
        994   -1    0    0    0    0 -0.00000000000E+00 -0.00000000000E+00  0.11368683772E-12  0.17120000000E+03  0.17120000000E+03 0.  0.
         13    1    1    2    0    0  0.81156406208E+01 -0.19766462070E+02  0.43591777207E+02  0.48547202284E+02  0.10566000000E+00 0. -1.
        994    1    1    2    0    0 -0.16734090728E+02  0.62902268575E+01  0.61176609138E+01  0.17223954982E+03  0.17120000000E+03 0.  0.
        998    1    1    2    0    0  0.86184501068E+01  0.13476235213E+02  0.14502905582E+04  0.14504132479E+04  0.10000000000E+02 0. -1.
</event>
<event>
 5    1  0.1087513E-008  0.3832252E+03  0.7957747E-01  0.3437234E+00
         13   -1    0    0    0    0  0.00000000000E+00  0.00000000000E+00  0.14999999963E+04  0.15000000000E+04  0.10566000000E+00 0.  1.
        994   -1    0    0    0    0 -0.00000000000E+00 -0.00000000000E+00  0.11368683772E-12  0.17120000000E+03  0.17120000000E+03 0.  0.
         13    1    1    2    0    0  0.11716480731E+02 -0.20516554721E+01  0.27308820981E+02  0.29787045478E+02  0.10566000000E+00 0.  1.
        994    1    1    2    0    0 -0.82536819364E+01 -0.53360955065E+00  0.27401624147E+01  0.17142157535E+03  0.17120000000E+03 0.  0.
        998    1    1    2    0    0 -0.34627987949E+01  0.25852650228E+01  0.14699510129E+04  0.14699913792E+04  0.10000000000E+02 0.  1.
</event>
<event>
 5    1  0.1087513E-008  0.3890858E+03  0.7957747E-01  0.3412527E+00
         13   -1    0    0    0    0  0.00000000000E+00  0.00000000000E+00  0.14999999963E+04  0.15000000000E+04  0.10566000000E+00 0. -1.
        994   -1    0    0    0    0 -0.00000000000E+00 -0.00000000000E+00  0.11368683772E-12  0.17120000000E+03  0.17120000000E+03 0.  0.
         13    1    1    2    0    0  0.66904896901E+02 -0.17744451028E+02  0.10107841849E+03  0.12250709621E+03  0.10566000000E+00 0. -1.
        994    1    1    2    0    0 -0.61847191135E+02  0.22250595462E+01  0.35914468810E+02  0.18555138105E+03  0.17120000000E+03 0.  0.
        998    1    1    2    0    0 -0.50577057659E+01  0.15519391482E+02  0.13630071090E+04  0.13631415227E+04  0.10000000000E+02 0. -1.
</event>
<event>
 5    1  0.1437936E-008  0.3856659E+03  0.7957747E-01  0.3426853E+00
         13   -1    0    0    0    0  0.00000000000E+00  0.00000000000E+00  0.14999999963E+04  0.15000000000E+04  0.10566000000E+00 0.  1.
        994   -1    0    0    0    0 -0.00000000000E+00 -0.00000000000E+00  0.11368683772E-12  0.17120000000E+03  0.17120000000E+03 0.  0.
         13    1    1    2    0    0 -0.89805137715E+01  0.94671710011E+01  0.63488937477E+02  0.64816149996E+02  0.10566000000E+00 0.  1.
        994    1    1    2    0    0  0.11721961676E+02 -0.84293392381E+01  0.19842518583E+01  0.17181919392E+03  0.17120000000E+03 0.  0.
        998    1    1    2    0    0 -0.27414479046E+01 -0.10378317630E+01  0.14345268069E+04  0.14345646561E+04  0.10000000000E+02 0.  1.
</event>
<event>
 5    1  0.1087513E-008  0.3550030E+03  0.7957747E-01  0.3567787E+00
         13   -1    0    0    0    0  0.00000000000E+00  0.00000000000E+00  0.14999999963E+04  0.15000000000E+04  0.10566000000E+00 0. -1.
        994   -1    0    0    0    0 -0.00000000000E+00 -0.00000000000E+00  0.11368683772E-12  0.17120000000E+03  0.17120000000E+03 0.  0.
         13    1    1    2    0    0  0.28157353280E+03  0.68470738446E+02  0.82584058713E+03  0.87520545183E+03  0.10566000000E+00 0. -1.
        994    1    1    2    0    0 -0.27549478259E+03 -0.60160187873E+02  0.38719265455E+03  0.50866906253E+03  0.17120000000E+03 0.  0.
        998    1    1    2    0    0 -0.60787502123E+01 -0.83105505735E+01  0.28696675459E+03  0.28732548564E+03  0.10000000000E+02 0. -1.
</event>
<event>
 5    1  0.1087513E-008  0.3684810E+03  0.7957747E-01  0.3502901E+00
         13   -1    0    0    0    0  0.00000000000E+00  0.00000000000E+00  0.14999999963E+04  0.15000000000E+04  0.10566000000E+00 0.  1.
        994   -1    0    0    0    0 -0.00000000000E+00 -0.00000000000E+00  0.11368683772E-12  0.17120000000E+03  0.17120000000E+03 0.  0.
         13    1    1    2    0    0 -0.44029712728E+02 -0.17935750078E+02  0.10834717851E+03  0.11831918268E+03  0.10566000000E+00 0.  1.
        994    1    1    2    0    0  0.25983827370E+02  0.18018460825E+02  0.13548370674E+02  0.17462194181E+03  0.17120000000E+03 0.  0.
        998    1    1    2    0    0  0.18045885359E+02 -0.82710747286E-01  0.13781044471E+04  0.13782588755E+04  0.10000000000E+02 0.  1.
</event>
<event>
 5    1  0.1087513E-008  0.3800991E+03  0.7957747E-01  0.3450727E+00
         13   -1    0    0    0    0  0.00000000000E+00  0.00000000000E+00  0.14999999963E+04  0.15000000000E+04  0.10566000000E+00 0. -1.
        994   -1    0    0    0    0 -0.00000000000E+00 -0.00000000000E+00  0.11368683772E-12  0.17120000000E+03  0.17120000000E+03 0.  0.
         13    1    1    2    0    0 -0.38281568240E+01 -0.17971913975E+02  0.41049890197E+02  0.44974983334E+02  0.10566000000E+00 0. -1.
        994    1    1    2    0    0 -0.68991002781E+01  0.48001828065E+01  0.43192395136E+01  0.17146059363E+03  0.17120000000E+03 0.  0.
        998    1    1    2    0    0  0.10727257102E+02  0.13171731169E+02  0.14546308666E+04  0.14547644230E+04  0.10000000000E+02 0. -1.
</event>
<event>
 5    1  0.1087513E-008  0.3819160E+03  0.7957747E-01  0.3442858E+00
         13   -1    0    0    0    0  0.00000000000E+00  0.00000000000E+00  0.14999999963E+04  0.15000000000E+04  0.10566000000E+00 0. -1.
        994   -1    0    0    0    0 -0.00000000000E+00 -0.00000000000E+00  0.11368683772E-12  0.17120000000E+03  0.17120000000E+03 0.  0.
         13    1    1    2    0    0 -0.25223346405E+02  0.16719947291E+01  0.10259564154E+03  0.10566404117E+03  0.10566000000E+00 0. -1.
        994    1    1    2    0    0  0.10485702393E+02 -0.54851411677E+01  0.36343774411E+01  0.17164697908E+03  0.17120000000E+03 0.  0.
        998    1    1    2    0    0  0.14737644013E+02  0.38131464386E+01  0.13937699773E+04  0.13938889797E+04  0.10000000000E+02 0. -1.
</event>
<event>
 5    1  0.1087513E-008  0.3841821E+03  0.7957747E-01  0.3433149E+00
         13   -1    0    0    0    0  0.00000000000E+00  0.00000000000E+00  0.14999999963E+04  0.15000000000E+04  0.10566000000E+00 0.  1.
        994   -1    0    0    0    0 -0.00000000000E+00 -0.00000000000E+00  0.11368683772E-12  0.17120000000E+03  0.17120000000E+03 0.  0.
         13    1    1    2    0    0 -0.14902149246E+02 -0.17714427412E+02  0.11823568607E+03  0.12048055285E+03  0.10566000000E+00 0.  1.
        994    1    1    2    0    0  0.25258460069E+02  0.15502978618E+02  0.49383552417E+01  0.17381645349E+03  0.17120000000E+03 0.  0.
        998    1    1    2    0    0 -0.10356310823E+02  0.22114487937E+01  0.13768259550E+04  0.13769029937E+04  0.10000000000E+02 0.  1.
</event>
<event>
 5    1  0.1087513E-008  0.3756228E+03  0.7957747E-01  0.3470442E+00
         13   -1    0    0    0    0  0.00000000000E+00  0.00000000000E+00  0.14999999963E+04  0.15000000000E+04  0.10566000000E+00 0.  1.
        994   -1    0    0    0    0 -0.00000000000E+00 -0.00000000000E+00  0.11368683772E-12  0.17120000000E+03  0.17120000000E+03 0.  0.
         13    1    1    2    0    0  0.19714770136E+02  0.24707356643E+02  0.74798696311E+02  0.81203335939E+02  0.10566000000E+00 0.  1.
        994    1    1    2    0    0 -0.14051109523E+02 -0.20579707461E+02  0.84684400879E+01  0.17321117896E+03  0.17120000000E+03 0.  0.
        998    1    1    2    0    0 -0.56636606124E+01 -0.41276491821E+01  0.14167328599E+04  0.14167854851E+04  0.10000000000E+02 0.  1.
</event>
<event>
 5    1  0.1087513E-008  0.3851743E+03  0.7957747E-01  0.3428933E+00
         13   -1    0    0    0    0  0.00000000000E+00  0.00000000000E+00  0.14999999963E+04  0.15000000000E+04  0.10566000000E+00 0.  1.
        994   -1    0    0    0    0 -0.00000000000E+00 -0.00000000000E+00  0.11368683772E-12  0.17120000000E+03  0.17120000000E+03 0.  0.
         13    1    1    2    0    0 -0.92968614913E+01  0.73757403642E+01  0.43886817348E+02  0.45463139800E+02  0.10566000000E+00 0.  1.
        994    1    1    2    0    0  0.12893812810E+02 -0.82162824897E+01  0.23123041966E+01  0.17189690066E+03  0.17120000000E+03 0.  0.
        998    1    1    2    0    0 -0.35969513186E+01  0.84054212548E+00  0.14538008747E+04  0.14538399595E+04  0.10000000000E+02 0.  1.
</event>
<event>
 5    1  0.1087513E-008  0.3734424E+03  0.7957747E-01  0.3480218E+00
         13   -1    0    0    0    0  0.00000000000E+00  0.00000000000E+00  0.14999999963E+04  0.15000000000E+04  0.10566000000E+00 0.  1.
        994   -1    0    0    0    0 -0.00000000000E+00 -0.00000000000E+00  0.11368683772E-12  0.17120000000E+03  0.17120000000E+03 0.  0.
         13    1    1    2    0    0  0.14702554329E+02  0.13722836601E+03  0.62169790348E+03  0.63683285397E+03  0.10566000000E+00 0.  1.
        994    1    1    2    0    0 -0.24146504547E+02 -0.14498757439E+03  0.85328124064E+02  0.24123594087E+03  0.17120000000E+03 0.  0.
        998    1    1    2    0    0  0.94439502178E+01  0.77592083873E+01  0.79297396873E+03  0.79313120516E+03  0.10000000000E+02 0.  1.
</event>
<event>
 5    1  0.1087513E-008  0.3811480E+03  0.7957747E-01  0.3446175E+00
         13   -1    0    0    0    0  0.00000000000E+00  0.00000000000E+00  0.14999999963E+04  0.15000000000E+04  0.10566000000E+00 0. -1.
        994   -1    0    0    0    0 -0.00000000000E+00 -0.00000000000E+00  0.11368683772E-12  0.17120000000E+03  0.17120000000E+03 0.  0.
         13    1    1    2    0    0  0.10001957687E+02 -0.27951549173E+02  0.12097410484E+03  0.12456353184E+03  0.10566000000E+00 0. -1.
        994    1    1    2    0    0  0.14829117109E+01  0.22143870527E+02  0.51968277143E+01  0.17271073229E+03  0.17120000000E+03 0.  0.
        998    1    1    2    0    0 -0.11484869398E+02  0.58076786459E+01  0.13738290637E+04  0.13739257359E+04  0.10000000000E+02 0. -1.
</event>
<event>
 5    1  0.1087513E-008  0.3762987E+03  0.7957747E-01  0.3467435E+00
         13   -1    0    0    0    0  0.00000000000E+00  0.00000000000E+00  0.14999999963E+04  0.15000000000E+04  0.10566000000E+00 0. -1.
        994   -1    0    0    0    0 -0.00000000000E+00 -0.00000000000E+00  0.11368683772E-12  0.17120000000E+03  0.17120000000E+03 0.  0.
         13    1    1    2    0    0  0.18512270056E+02 -0.14821396772E+03  0.79922276421E+03  0.81306034362E+03  0.10566000000E+00 0. -1.
        994    1    1    2    0    0 -0.14311775941E+02  0.14748446658E+03  0.84357274613E+02  0.24162384939E+03  0.17120000000E+03 0.  0.
        998    1    1    2    0    0 -0.42004941152E+01  0.72950113904E+00  0.61641995745E+03  0.61651580699E+03  0.10000000000E+02 0.  0.
</event>
<event>
 5    1  0.1087513E-008  0.3813266E+03  0.7957747E-01  0.3445402E+00
         13   -1    0    0    0    0  0.00000000000E+00  0.00000000000E+00  0.14999999963E+04  0.15000000000E+04  0.10566000000E+00 0. -1.
        994   -1    0    0    0    0 -0.00000000000E+00 -0.00000000000E+00  0.11368683772E-12  0.17120000000E+03  0.17120000000E+03 0.  0.
         13    1    1    2    0    0 -0.76061964684E+01 -0.66172231470E+01 -0.49810065098E+01  0.11245597218E+02  0.10566000000E+00 0. -1.
        994    1    1    2    0    0  0.10272166690E+02  0.58962492439E+01  0.17568989067E+02  0.17250621015E+03  0.17120000000E+03 0.  0.
        998    1    1    2    0    0 -0.26659702216E+01  0.72097390307E+00  0.14874120137E+04  0.14874481926E+04  0.10000000000E+02 0. -1.
</event>
<event>
 5    1  0.1087513E-008  0.3844775E+03  0.7957747E-01  0.3431891E+00
         13   -1    0    0    0    0  0.00000000000E+00  0.00000000000E+00  0.14999999963E+04  0.15000000000E+04  0.10566000000E+00 0. -1.
        994   -1    0    0    0    0 -0.00000000000E+00 -0.00000000000E+00  0.11368683772E-12  0.17120000000E+03  0.17120000000E+03 0.  0.
         13    1    1    2    0    0 -0.14302157967E+02 -0.57315877782E+01  0.61492589403E+02  0.63393631672E+02  0.10566000000E+00 0. -1.
        994    1    1    2    0    0  0.13329456527E+02  0.20917922375E+01  0.24897104214E+01  0.17174891168E+03  0.17120000000E+03 0.  0.
        998    1    1    2    0    0  0.97270144009E+00  0.36397955407E+01  0.14360176965E+04  0.14360574566E+04  0.10000000000E+02 0. -1.
</event>
<event>
 5    1  0.1087513E-008  0.3772261E+03  0.7957747E-01  0.3463326E+00
         13   -1    0    0    0    0  0.00000000000E+00  0.00000000000E+00  0.14999999963E+04  0.15000000000E+04  0.10566000000E+00 0.  1.
        994   -1    0    0    0    0 -0.00000000000E+00 -0.00000000000E+00  0.11368683772E-12  0.17120000000E+03  0.17120000000E+03 0.  0.
         13    1    1    2    0    0  0.35005830213E+02 -0.37788458656E+02  0.20887381949E+03  0.21513172567E+03  0.10566000000E+00 0.  1.
        994    1    1    2    0    0 -0.33800360653E+02  0.36041885854E+02  0.13821972259E+02  0.17872316255E+03  0.17120000000E+03 0.  0.
        998    1    1    2    0    0 -0.12054695596E+01  0.17465728027E+01  0.12773042045E+04  0.12773451118E+04  0.10000000000E+02 0.  1.
</event>
<event>
 5    1  0.1087513E-008  0.3770598E+03  0.7957747E-01  0.3464062E+00
         13   -1    0    0    0    0  0.00000000000E+00  0.00000000000E+00  0.14999999963E+04  0.15000000000E+04  0.10566000000E+00 0. -1.
        994   -1    0    0    0    0 -0.00000000000E+00 -0.00000000000E+00  0.11368683772E-12  0.17120000000E+03  0.17120000000E+03 0.  0.
         13    1    1    2    0    0  0.26581577415E+02  0.39714694869E+02  0.23770944839E+03  0.24246573009E+03  0.10566000000E+00 0. -1.
        994    1    1    2    0    0 -0.71866364240E+01 -0.72533561262E+00  0.58009083301E+01  0.17145047213E+03  0.17120000000E+03 0.  0.
        998    1    1    2    0    0 -0.19394940991E+02 -0.38989359257E+02  0.12564896396E+04  0.12572837978E+04  0.10000000000E+02 0. -1.
</event>
<event>
 5    1  0.1087513E-008  0.3779912E+03  0.7957747E-01  0.3459952E+00
         13   -1    0    0    0    0  0.00000000000E+00  0.00000000000E+00  0.14999999963E+04  0.15000000000E+04  0.10566000000E+00 0.  1.
        994   -1    0    0    0    0 -0.00000000000E+00 -0.00000000000E+00  0.11368683772E-12  0.17120000000E+03  0.17120000000E+03 0.  0.
         13    1    1    2    0    0  0.83533236880E+02 -0.40905883182E+01  0.46730850120E+03  0.47473337889E+03  0.10566000000E+00 0.  1.
        994    1    1    2    0    0 -0.82742550231E+02  0.37624210542E+01  0.28596924096E+02  0.19232189033E+03  0.17120000000E+03 0.  0.
        998    1    1    2    0    0 -0.79068664896E+00  0.32816726402E+00  0.10040945710E+04  0.10041447308E+04  0.10000000000E+02 0.  0.
</event>
<event>
 5    1  0.1087513E-008  0.3798293E+03  0.7957747E-01  0.3451902E+00
         13   -1    0    0    0    0  0.00000000000E+00  0.00000000000E+00  0.14999999963E+04  0.15000000000E+04  0.10566000000E+00 0.  1.
        994   -1    0    0    0    0 -0.00000000000E+00 -0.00000000000E+00  0.11368683772E-12  0.17120000000E+03  0.17120000000E+03 0.  0.
         13    1    1    2    0    0 -0.32457601450E+02  0.62502130379E+01  0.96753892693E+02  0.10224425642E+03  0.10566000000E+00 0.  1.
        994    1    1    2    0    0  0.73099886204E+02 -0.28413252929E+02  0.25075226704E+02  0.18997134863E+03  0.17120000000E+03 0.  0.
        998    1    1    2    0    0 -0.40642284754E+02  0.22163039891E+02  0.13781708769E+04  0.13789843950E+04  0.10000000000E+02 0.  1.
</event>
<event>
 5    1  0.1087513E-008  0.3766080E+03  0.7957747E-01  0.3466062E+00
         13   -1    0    0    0    0  0.00000000000E+00  0.00000000000E+00  0.14999999963E+04  0.15000000000E+04  0.10566000000E+00 0. -1.
        994   -1    0    0    0    0 -0.00000000000E+00 -0.00000000000E+00  0.11368683772E-12  0.17120000000E+03  0.17120000000E+03 0.  0.
         13    1    1    2    0    0 -0.71709075326E+02 -0.82883499934E+02  0.39142894782E+03  0.40648308501E+03  0.10566000000E+00 0. -1.
        994    1    1    2    0    0  0.76430568886E+02  0.30530894029E+02  0.39137675668E+02  0.19394577852E+03  0.17120000000E+03 0.  0.
        998    1    1    2    0    0 -0.47214935597E+01  0.52352605905E+02  0.10694333728E+04  0.10707711365E+04  0.10000000000E+02 0. -1.
</event>
<event>
 5    1  0.1087513E-008  0.3822518E+03  0.7957747E-01  0.3441412E+00
         13   -1    0    0    0    0  0.00000000000E+00  0.00000000000E+00  0.14999999963E+04  0.15000000000E+04  0.10566000000E+00 0.  1.
        994   -1    0    0    0    0 -0.00000000000E+00 -0.00000000000E+00  0.11368683772E-12  0.17120000000E+03  0.17120000000E+03 0.  0.
         13    1    1    2    0    0 -0.10498942940E+02 -0.16607430586E+02  0.66836324820E+02  0.69664481862E+02  0.10566000000E+00 0.  1.
        994    1    1    2    0    0 -0.33794666952E+01  0.41941445244E+01  0.30970323451E+01  0.17131270605E+03  0.17120000000E+03 0.  0.
        998    1    1    2    0    0  0.13878409635E+02  0.12413286062E+02  0.14300666391E+04  0.14302228121E+04  0.10000000000E+02 0.  1.
</event>
<event>
 5    1  0.1087513E-008  0.3840339E+03  0.7957747E-01  0.3433780E+00
         13   -1    0    0    0    0  0.00000000000E+00  0.00000000000E+00  0.14999999963E+04  0.15000000000E+04  0.10566000000E+00 0. -1.
        994   -1    0    0    0    0 -0.00000000000E+00 -0.00000000000E+00  0.11368683772E-12  0.17120000000E+03  0.17120000000E+03 0.  0.
         13    1    1    2    0    0  0.82435250164E+01  0.10043498217E+02  0.40211413620E+02  0.42258685622E+02  0.10566000000E+00 0. -1.
        994    1    1    2    0    0  0.29420133465E+00 -0.63596665027E+01  0.22442660896E+01  0.17133303430E+03  0.17120000000E+03 0.  0.
        998    1    1    2    0    0 -0.85377263510E+01 -0.36838317143E+01  0.14575443166E+04  0.14576082801E+04  0.10000000000E+02 0. -1.
</event>
<event>
 5    1  0.1087513E-008  0.3806095E+03  0.7957747E-01  0.3448509E+00
         13   -1    0    0    0    0  0.00000000000E+00  0.00000000000E+00  0.14999999963E+04  0.15000000000E+04  0.10566000000E+00 0. -1.
        994   -1    0    0    0    0 -0.00000000000E+00 -0.00000000000E+00  0.11368683772E-12  0.17120000000E+03  0.17120000000E+03 0.  0.
         13    1    1    2    0    0  0.11287463880E+03 -0.48392677285E+02  0.64159697169E+03  0.65324514582E+03  0.10566000000E+00 0. -1.
        994    1    1    2    0    0 -0.15425316321E+03  0.37129161536E+02  0.92956620462E+02  0.25124288305E+03  0.17120000000E+03 0.  0.
        998    1    1    2    0    0  0.41378524411E+02  0.11263515749E+02  0.76544640413E+03  0.76671197112E+03  0.10000000000E+02 0. -1.
</event>
<event>
 5    1  0.1087513E-008  0.3837617E+03  0.7957747E-01  0.3434941E+00
         13   -1    0    0    0    0  0.00000000000E+00  0.00000000000E+00  0.14999999963E+04  0.15000000000E+04  0.10566000000E+00 0.  1.
        994   -1    0    0    0    0 -0.00000000000E+00 -0.00000000000E+00  0.11368683772E-12  0.17120000000E+03  0.17120000000E+03 0.  0.
         13    1    1    2    0    0  0.63697121289E+01 -0.78037792891E+01  0.21611314582E+02  0.23843915068E+02  0.10566000000E+00 0.  1.
        994    1    1    2    0    0 -0.40033820817E+01  0.98652458903E+01  0.26205570349E+01  0.17155074312E+03  0.17120000000E+03 0.  0.
        998    1    1    2    0    0 -0.23663300472E+01 -0.20614666012E+01  0.14757681247E+04  0.14758053418E+04  0.10000000000E+02 0.  1.
</event>
<event>
 5    1  0.1087513E-008  0.3853225E+03  0.7957747E-01  0.3428305E+00
         13   -1    0    0    0    0  0.00000000000E+00  0.00000000000E+00  0.14999999963E+04  0.15000000000E+04  0.10566000000E+00 0. -1.
        994   -1    0    0    0    0 -0.00000000000E+00 -0.00000000000E+00  0.11368683772E-12  0.17120000000E+03  0.17120000000E+03 0.  0.
         13    1    1    2    0    0 -0.77951401234E-01  0.10934021876E+02  0.43593360935E+02  0.44943867128E+02  0.10566000000E+00 0. -1.
        994    1    1    2    0    0  0.85765602120E+01  0.49990483873E+01  0.17939126665E+01  0.17149695622E+03  0.17120000000E+03 0.  0.
        998    1    1    2    0    0 -0.84986088107E+01 -0.15933070263E+02  0.14546127227E+04  0.14547591767E+04  0.10000000000E+02 0. -1.
</event>
<event>
 5    1  0.1087513E-008  0.3839410E+03  0.7957747E-01  0.3434176E+00
         13   -1    0    0    0    0  0.00000000000E+00  0.00000000000E+00  0.14999999963E+04  0.15000000000E+04  0.10566000000E+00 0.  1.
        994   -1    0    0    0    0 -0.00000000000E+00 -0.00000000000E+00  0.11368683772E-12  0.17120000000E+03  0.17120000000E+03 0.  0.
         13    1    1    2    0    0  0.12199812751E+02  0.17804264951E+02  0.11321573345E+03  0.11525467776E+03  0.10566000000E+00 0.  1.
        994    1    1    2    0    0  0.10729656331E+01 -0.86499745248E+01  0.24075926143E+01  0.17143864738E+03  0.17120000000E+03 0.  0.
        998    1    1    2    0    0 -0.13272778384E+02 -0.91542904262E+01  0.13843766702E+04  0.13845066749E+04  0.10000000000E+02 0.  1.
</event>
<event>
 5    1  0.1087513E-008  0.3768912E+03  0.7957747E-01  0.3464808E+00
         13   -1    0    0    0    0  0.00000000000E+00  0.00000000000E+00  0.14999999963E+04  0.15000000000E+04  0.10566000000E+00 0.  1.
        994   -1    0    0    0    0 -0.00000000000E+00 -0.00000000000E+00  0.11368683772E-12  0.17120000000E+03  0.17120000000E+03 0.  0.
         13    1    1    2    0    0 -0.51064274068E+02 -0.56597033987E+01  0.21433516482E+03  0.22040682016E+03  0.10566000000E+00 0.  1.
        994    1    1    2    0    0  0.38773679665E+02  0.11494054463E+02  0.11254955928E+02  0.17627145417E+03  0.17120000000E+03 0.  0.
        998    1    1    2    0    0  0.12290594403E+02 -0.58343510639E+01  0.12744098755E+04  0.12745217257E+04  0.10000000000E+02 0.  1.
</event>
<event>
 5    1  0.1087513E-008  0.3737083E+03  0.7957747E-01  0.3479020E+00
         13   -1    0    0    0    0  0.00000000000E+00  0.00000000000E+00  0.14999999963E+04  0.15000000000E+04  0.10566000000E+00 0.  1.
        994   -1    0    0    0    0 -0.00000000000E+00 -0.00000000000E+00  0.11368683772E-12  0.17120000000E+03  0.17120000000E+03 0.  0.
         13    1    1    2    0    0 -0.17585598882E+01  0.27630727163E+02  0.24095707378E+02  0.36703731343E+02  0.10566000000E+00 0.  1.
        994    1    1    2    0    0 -0.71730992681E+00 -0.24624128901E+02  0.15065627209E+02  0.17361818851E+03  0.17120000000E+03 0.  0.
        998    1    1    2    0    0  0.24758698150E+01 -0.30065982627E+01  0.14608386617E+04  0.14608780801E+04  0.10000000000E+02 0.  1.
</event>
<event>
 5    1  0.1087513E-008  0.3710037E+03  0.7957747E-01  0.3491291E+00
         13   -1    0    0    0    0  0.00000000000E+00  0.00000000000E+00  0.14999999963E+04  0.15000000000E+04  0.10566000000E+00 0.  1.
        994   -1    0    0    0    0 -0.00000000000E+00 -0.00000000000E+00  0.11368683772E-12  0.17120000000E+03  0.17120000000E+03 0.  0.
         13    1    1    2    0    0  0.73750771448E+02 -0.28814651374E+02  0.36861869164E+03  0.37702680464E+03  0.10566000000E+00 0.  1.
        994    1    1    2    0    0 -0.39185941479E+02  0.11864570065E+02  0.14543618407E+02  0.17662746918E+03  0.17120000000E+03 0.  0.
        998    1    1    2    0    0 -0.34564829970E+02  0.16950081309E+02  0.11168376862E+04  0.11175457262E+04  0.10000000000E+02 0.  1.
</event>
<event>
 5    1  0.1087513E-008  0.3736766E+03  0.7957747E-01  0.3479163E+00
         13   -1    0    0    0    0  0.00000000000E+00  0.00000000000E+00  0.14999999963E+04  0.15000000000E+04  0.10566000000E+00 0. -1.
        994   -1    0    0    0    0 -0.00000000000E+00 -0.00000000000E+00  0.11368683772E-12  0.17120000000E+03  0.17120000000E+03 0.  0.
         13    1    1    2    0    0 -0.14413570830E+03 -0.42149054533E+02  0.82619100445E+03  0.83972807039E+03  0.10566000000E+00 0. -1.
        994    1    1    2    0    0  0.12457620684E+03  0.59977033409E+02  0.75731320757E+02  0.23272547946E+03  0.17120000000E+03 0.  0.
        998    1    1    2    0    0  0.19559501454E+02 -0.17827978876E+02  0.59807767108E+03  0.59874645015E+03  0.10000000000E+02 0. -1.
</event>
<event>
 5    1  0.1087513E-008  0.3785219E+03  0.7957747E-01  0.3457620E+00
         13   -1    0    0    0    0  0.00000000000E+00  0.00000000000E+00  0.14999999963E+04  0.15000000000E+04  0.10566000000E+00 0. -1.
        994   -1    0    0    0    0 -0.00000000000E+00 -0.00000000000E+00  0.11368683772E-12  0.17120000000E+03  0.17120000000E+03 0.  0.
         13    1    1    2    0    0  0.35082755672E+02 -0.26398017119E+02  0.23090432083E+03  0.23504142527E+03  0.10566000000E+00 0. -1.
        994    1    1    2    0    0  0.15429618635E+02  0.29405932376E+02  0.85946770285E+01  0.17460266454E+03  0.17120000000E+03 0.  0.
        998    1    1    2    0    0 -0.50512374306E+02 -0.30079152571E+01  0.12605009984E+04  0.12615559102E+04  0.10000000000E+02 0. -1.
</event>
<event>
 5    1  0.1087513E-008  0.3852012E+03  0.7957747E-01  0.3428819E+00
         13   -1    0    0    0    0  0.00000000000E+00  0.00000000000E+00  0.14999999963E+04  0.15000000000E+04  0.10566000000E+00 0. -1.
        994   -1    0    0    0    0 -0.00000000000E+00 -0.00000000000E+00  0.11368683772E-12  0.17120000000E+03  0.17120000000E+03 0.  0.
         13    1    1    2    0    0  0.62976868085E+01  0.99447868246E+01  0.48227687529E+02  0.49643535859E+02  0.10566000000E+00 0. -1.
        994    1    1    2    0    0 -0.25380717212E+01  0.52627609992E+01  0.16424825663E+01  0.17130754861E+03  0.17120000000E+03 0.  0.
        998    1    1    2    0    0 -0.37596150873E+01 -0.15207547824E+02  0.14501298262E+04  0.14502489155E+04  0.10000000000E+02 0. -1.
</event>
<event>
 5    1  0.1087513E-008  0.3876004E+03  0.7957747E-01  0.3418718E+00
         13   -1    0    0    0    0  0.00000000000E+00  0.00000000000E+00  0.14999999963E+04  0.15000000000E+04  0.10566000000E+00 0. -1.
        994   -1    0    0    0    0 -0.00000000000E+00 -0.00000000000E+00  0.11368683772E-12  0.17120000000E+03  0.17120000000E+03 0.  0.
         13    1    1    2    0    0 -0.32547026971E+02  0.33679303363E+02  0.44024408913E+02  0.64278800423E+02  0.10566000000E+00 0. -1.
        994    1    1    2    0    0  0.35549389996E+02 -0.35034573206E+02  0.29911764883E+02  0.18081851157E+03  0.17120000000E+03 0.  0.
        998    1    1    2    0    0 -0.30023630255E+01  0.13552698430E+01  0.14260638225E+04  0.14261026880E+04  0.10000000000E+02 0. -1.
</event>
<event>
 5    1  0.1087513E-008  0.3722705E+03  0.7957747E-01  0.3485521E+00
         13   -1    0    0    0    0  0.00000000000E+00  0.00000000000E+00  0.14999999963E+04  0.15000000000E+04  0.10566000000E+00 0. -1.
        994   -1    0    0    0    0 -0.00000000000E+00 -0.00000000000E+00  0.11368683772E-12  0.17120000000E+03  0.17120000000E+03 0.  0.
         13    1    1    2    0    0 -0.11060733196E+03  0.59558010726E+02  0.49418198742E+03  0.50989899625E+03  0.10566000000E+00 0. -1.
        994    1    1    2    0    0  0.96021581662E+02 -0.47077420773E+02  0.53619099795E+02  0.20885611208E+03  0.17120000000E+03 0.  0.
        998    1    1    2    0    0  0.14585750295E+02 -0.12480589952E+02  0.95219890907E+03  0.95244489167E+03  0.10000000000E+02 0.  0.
</event>
<event>
 5    1  0.1087513E-008  0.3698685E+03  0.7957747E-01  0.3496496E+00
         13   -1    0    0    0    0  0.00000000000E+00  0.00000000000E+00  0.14999999963E+04  0.15000000000E+04  0.10566000000E+00 0.  1.
        994   -1    0    0    0    0 -0.00000000000E+00 -0.00000000000E+00  0.11368683772E-12  0.17120000000E+03  0.17120000000E+03 0.  0.
         13    1    1    2    0    0 -0.29270031834E+02  0.80597174452E+01  0.41409104124E+02  0.51346069735E+02  0.10566000000E+00 0.  1.
        994    1    1    2    0    0  0.47676016769E+02 -0.36397248450E+02  0.21888242003E+02  0.18271917635E+03  0.17120000000E+03 0.  0.
        998    1    1    2    0    0 -0.18405984935E+02  0.28337531005E+02  0.14367026502E+04  0.14371347539E+04  0.10000000000E+02 0.  1.
</event>
<event>
 5    1  0.1087513E-008  0.3834122E+03  0.7957747E-01  0.3436434E+00
         13   -1    0    0    0    0  0.00000000000E+00  0.00000000000E+00  0.14999999963E+04  0.15000000000E+04  0.10566000000E+00 0. -1.
        994   -1    0    0    0    0 -0.00000000000E+00 -0.00000000000E+00  0.11368683772E-12  0.17120000000E+03  0.17120000000E+03 0.  0.
         13    1    1    2    0    0 -0.10595731108E+02  0.22979916914E+02  0.14405813598E+03  0.14626381577E+03  0.10566000000E+00 0. -1.
        994    1    1    2    0    0  0.49834003933E+01 -0.22172201486E+01  0.25188845654E+01  0.17130538557E+03  0.17120000000E+03 0.  0.
        998    1    1    2    0    0  0.56123307150E+01 -0.20762696765E+02  0.13534229757E+04  0.13536307987E+04  0.10000000000E+02 0. -1.
</event>
<event>
 5    1  0.1087513E-008  0.3728487E+03  0.7957747E-01  0.3482900E+00
         13   -1    0    0    0    0  0.00000000000E+00  0.00000000000E+00  0.14999999963E+04  0.15000000000E+04  0.10566000000E+00 0. -1.
        994   -1    0    0    0    0 -0.00000000000E+00 -0.00000000000E+00  0.11368683772E-12  0.17120000000E+03  0.17120000000E+03 0.  0.
         13    1    1    2    0    0  0.12771509943E+02 -0.44484156976E+01  0.81584453372E+01  0.15794659313E+02  0.10566000000E+00 0. -1.
        994    1    1    2    0    0 -0.84298915119E+01  0.14791886815E+02  0.87807559075E+01  0.17226840877E+03  0.17120000000E+03 0.  0.
        998    1    1    2    0    0 -0.43416184312E+01 -0.10343471117E+02  0.14830607950E+04  0.14831369319E+04  0.10000000000E+02 0. -1.
</event>
<event>
 5    1  0.1087513E-008  0.2760855E+03  0.7957747E-01  0.4083074E+00
         13   -1    0    0    0    0  0.00000000000E+00  0.00000000000E+00  0.14999999963E+04  0.15000000000E+04  0.10566000000E+00 0.  1.
        994   -1    0    0    0    0 -0.00000000000E+00 -0.00000000000E+00  0.11368683772E-12  0.17120000000E+03  0.17120000000E+03 0.  0.
         13    1    1    2    0    0  0.76464090219E+02  0.15244290919E+03  0.66116793924E+03  0.68280938240E+03  0.10566000000E+00 0.  1.
        994    1    1    2    0    0  0.12324225534E+02 -0.70474966693E+02  0.52594099996E+02  0.19285794466E+03  0.17120000000E+03 0.  0.
        998    1    1    2    0    0 -0.88788315754E+02 -0.81967942494E+02  0.78623795704E+03  0.79553267294E+03  0.10000000000E+02 0.  1.
</event>
<event>
 5    1  0.1087513E-008  0.3805343E+03  0.7957747E-01  0.3448835E+00
         13   -1    0    0    0    0  0.00000000000E+00  0.00000000000E+00  0.14999999963E+04  0.15000000000E+04  0.10566000000E+00 0. -1.
        994   -1    0    0    0    0 -0.00000000000E+00 -0.00000000000E+00  0.11368683772E-12  0.17120000000E+03  0.17120000000E+03 0.  0.
         13    1    1    2    0    0 -0.32518655548E+02  0.80570343379E+00  0.12237488290E+03  0.12662438646E+03  0.10566000000E+00 0. -1.
        994    1    1    2    0    0  0.37194437537E+02  0.34451189711E+00  0.84944295866E+01  0.17539994358E+03  0.17120000000E+03 0.  0.
        998    1    1    2    0    0 -0.46757819893E+01 -0.11502153309E+01  0.13691306838E+04  0.13691756700E+04  0.10000000000E+02 0. -1.
</event>
<event>
 5    1  0.1087513E-008  0.3850739E+03  0.7957747E-01  0.3429359E+00
         13   -1    0    0    0    0  0.00000000000E+00  0.00000000000E+00  0.14999999963E+04  0.15000000000E+04  0.10566000000E+00 0. -1.
        994   -1    0    0    0    0 -0.00000000000E+00 -0.00000000000E+00  0.11368683772E-12  0.17120000000E+03  0.17120000000E+03 0.  0.
         13    1    1    2    0    0  0.38010369467E+01  0.10505443005E+02  0.38447184681E+02  0.40037599685E+02  0.10566000000E+00 0. -1.
        994    1    1    2    0    0 -0.61920903491E+01 -0.91601976992E+01  0.19955221945E+01  0.17156827595E+03  0.17120000000E+03 0.  0.
        998    1    1    2    0    0  0.23910534024E+01 -0.13452453058E+01  0.14595572894E+04  0.14595941244E+04  0.10000000000E+02 0. -1.
</event>
<event>
 5    1  0.1381030E-008  0.3860920E+03  0.7957747E-01  0.3425054E+00
         13   -1    0    0    0    0  0.00000000000E+00  0.00000000000E+00  0.14999999963E+04  0.15000000000E+04  0.10566000000E+00 0. -1.
        994   -1    0    0    0    0 -0.00000000000E+00 -0.00000000000E+00  0.11368683772E-12  0.17120000000E+03  0.17120000000E+03 0.  0.
         13    1    1    2    0    0 -0.10395485273E+02  0.88369081483E-01  0.49702925783E+02  0.50778597052E+02  0.10566000000E+00 0. -1.
        994    1    1    2    0    0  0.87400828328E+01  0.42749429601E+00  0.13399356085E+01  0.17142872346E+03  0.17120000000E+03 0.  0.
        998    1    1    2    0    0  0.16554024402E+01 -0.51586337750E+00  0.14489571349E+04  0.14489926795E+04  0.10000000000E+02 0. -1.
</event>
<event>
 5    1  0.1087513E-008  0.3802405E+03  0.7957747E-01  0.3450112E+00
         13   -1    0    0    0    0  0.00000000000E+00  0.00000000000E+00  0.14999999963E+04  0.15000000000E+04  0.10566000000E+00 0. -1.
        994   -1    0    0    0    0 -0.00000000000E+00 -0.00000000000E+00  0.11368683772E-12  0.17120000000E+03  0.17120000000E+03 0.  0.
         13    1    1    2    0    0  0.18721817361E+02  0.52605753161E+01  0.44937959370E+02  0.48965410795E+02  0.10566000000E+00 0. -1.
        994    1    1    2    0    0 -0.15740973017E+02 -0.68999378821E+01  0.49990591855E+01  0.17213314023E+03  0.17120000000E+03 0.  0.
        998    1    1    2    0    0 -0.29808443434E+01  0.16393625660E+01  0.14500629777E+04  0.14501014490E+04  0.10000000000E+02 0. -1.
</event>
<event>
 5    1  0.1087513E-008  0.3807083E+03  0.7957747E-01  0.3448080E+00
         13   -1    0    0    0    0  0.00000000000E+00  0.00000000000E+00  0.14999999963E+04  0.15000000000E+04  0.10566000000E+00 0.  1.
        994   -1    0    0    0    0 -0.00000000000E+00 -0.00000000000E+00  0.11368683772E-12  0.17120000000E+03  0.17120000000E+03 0.  0.
         13    1    1    2    0    0 -0.75975408355E+02  0.30647395109E+02  0.25572761741E+03  0.26852960911E+03  0.10566000000E+00 0.  1.
        994    1    1    2    0    0 -0.65122424298E+01 -0.29984443774E+01  0.16903880078E+02  0.17218182579E+03  0.17120000000E+03 0.  0.
        998    1    1    2    0    0  0.82487650784E+02 -0.27648950732E+02  0.12273684988E+04  0.12304885651E+04  0.10000000000E+02 0.  1.
</event>
<event>
 5    1  0.1087513E-008  0.3862252E+03  0.7957747E-01  0.3424492E+00
         13   -1    0    0    0    0  0.00000000000E+00  0.00000000000E+00  0.14999999963E+04  0.15000000000E+04  0.10566000000E+00 0. -1.
        994   -1    0    0    0    0 -0.00000000000E+00 -0.00000000000E+00  0.11368683772E-12  0.17120000000E+03  0.17120000000E+03 0.  0.
         13    1    1    2    0    0 -0.75922897734E+01  0.74543844427E+01  0.56574566424E+02  0.57566513195E+02  0.10566000000E+00 0. -1.
        994    1    1    2    0    0  0.87581329758E+01 -0.11775246601E+00  0.12743978384E+01  0.17142865236E+03  0.17120000000E+03 0.  0.
        998    1    1    2    0    0 -0.11658432024E+01 -0.73366319767E+01  0.14421510320E+04  0.14422048344E+04  0.10000000000E+02 0. -1.
</event>
<event>
 5    1  0.1087513E-008  0.3819861E+03  0.7957747E-01  0.3442556E+00
         13   -1    0    0    0    0  0.00000000000E+00  0.00000000000E+00  0.14999999963E+04  0.15000000000E+04  0.10566000000E+00 0.  1.
        994   -1    0    0    0    0 -0.00000000000E+00 -0.00000000000E+00  0.11368683772E-12  0.17120000000E+03  0.17120000000E+03 0.  0.
         13    1    1    2    0    0  0.10737927615E+02 -0.28803688532E+02  0.14933164415E+03  0.15246280422E+03  0.10566000000E+00 0.  1.
        994    1    1    2    0    0 -0.16102784464E+02  0.14004086485E+02  0.46478835918E+01  0.17258753410E+03  0.17120000000E+03 0.  0.
        998    1    1    2    0    0  0.53648568494E+01  0.14799602047E+02  0.13460204685E+04  0.13461496617E+04  0.10000000000E+02 0.  1.
</event>
<event>
 5    1  0.1087513E-008  0.3765009E+03  0.7957747E-01  0.3466537E+00
         13   -1    0    0    0    0  0.00000000000E+00  0.00000000000E+00  0.14999999963E+04  0.15000000000E+04  0.10566000000E+00 0. -1.
        994   -1    0    0    0    0 -0.00000000000E+00 -0.00000000000E+00  0.11368683772E-12  0.17120000000E+03  0.17120000000E+03 0.  0.
         13    1    1    2    0    0 -0.30967482311E+02 -0.26223447022E+02  0.17964974996E+03  0.18417572576E+03  0.10566000000E+00 0. -1.
        994    1    1    2    0    0 -0.13746863056E+02 -0.14041041535E+02  0.72169730943E+01  0.17247507586E+03  0.17120000000E+03 0.  0.
        998    1    1    2    0    0  0.44714345368E+02  0.40264488557E+02  0.13131332732E+04  0.13145491984E+04  0.10000000000E+02 0. -1.
</event>
<event>
 5    1  0.1087513E-008  0.3747569E+03  0.7957747E-01  0.3474311E+00
         13   -1    0    0    0    0  0.00000000000E+00  0.00000000000E+00  0.14999999963E+04  0.15000000000E+04  0.10566000000E+00 0. -1.
        994   -1    0    0    0    0 -0.00000000000E+00 -0.00000000000E+00  0.11368683772E-12  0.17120000000E+03  0.17120000000E+03 0.  0.
         13    1    1    2    0    0  0.10117768939E+02 -0.31473910307E+02  0.85698661136E+02  0.91854493427E+02  0.10566000000E+00 0. -1.
        994    1    1    2    0    0 -0.25750145120E+01 -0.47953337887E+01  0.69044087536E+01  0.17142560131E+03  0.17120000000E+03 0.  0.
        998    1    1    2    0    0 -0.75427544269E+01  0.36269244095E+02  0.14073969264E+04  0.14079199053E+04  0.10000000000E+02 0. -1.
</event>
<event>
 5    1  0.1087513E-008  0.3797461E+03  0.7957747E-01  0.3452265E+00
         13   -1    0    0    0    0  0.00000000000E+00  0.00000000000E+00  0.14999999963E+04  0.15000000000E+04  0.10566000000E+00 0. -1.
        994   -1    0    0    0    0 -0.00000000000E+00 -0.00000000000E+00  0.11368683772E-12  0.17120000000E+03  0.17120000000E+03 0.  0.
         13    1    1    2    0    0  0.29302152422E+02  0.15425510781E+03  0.94024968295E+03  0.95326949593E+03  0.10566000000E+00 0. -1.
        994    1    1    2    0    0 -0.36995594137E+02 -0.15280285136E+03  0.91958596783E+02  0.24996641553E+03  0.17120000000E+03 0.  0.
        998    1    1    2    0    0  0.76934417155E+01 -0.14522564511E+01  0.46779171655E+03  0.46796408854E+03  0.10000000000E+02 0.  0.
</event>
<event>
 5    1  0.1087513E-008  0.3828752E+03  0.7957747E-01  0.3438734E+00
         13   -1    0    0    0    0  0.00000000000E+00  0.00000000000E+00  0.14999999963E+04  0.15000000000E+04  0.10566000000E+00 0. -1.
        994   -1    0    0    0    0 -0.00000000000E+00 -0.00000000000E+00  0.11368683772E-12  0.17120000000E+03  0.17120000000E+03 0.  0.
         13    1    1    2    0    0 -0.10016770244E+01 -0.30229092862E+02  0.16648753756E+03  0.16921262582E+03  0.10566000000E+00 0. -1.
        994    1    1    2    0    0  0.12426837948E+02  0.19776178533E+02  0.44973248328E+01  0.17284440827E+03  0.17120000000E+03 0.  0.
        998    1    1    2    0    0 -0.11425160923E+02  0.10452914329E+02  0.13290151339E+04  0.13291429659E+04  0.10000000000E+02 0. -1.
</event>
<event>
 5    1  0.1087513E-008  0.3768729E+03  0.7957747E-01  0.3464888E+00
         13   -1    0    0    0    0  0.00000000000E+00  0.00000000000E+00  0.14999999963E+04  0.15000000000E+04  0.10566000000E+00 0. -1.
        994   -1    0    0    0    0 -0.00000000000E+00 -0.00000000000E+00  0.11368683772E-12  0.17120000000E+03  0.17120000000E+03 0.  0.
         13    1    1    2    0    0 -0.23881310220E+02 -0.35185563370E+02  0.55366887700E+02  0.69812923339E+02  0.10566000000E+00 0. -1.
        994    1    1    2    0    0  0.16959449101E+02  0.32832579225E+02  0.19528094617E+02  0.17622822604E+03  0.17120000000E+03 0.  0.
        998    1    1    2    0    0  0.69218611188E+01  0.23529841452E+01  0.14251050140E+04  0.14251588506E+04  0.10000000000E+02 0. -1.
</event>
<event>
 5    1  0.1087513E-008  0.3800749E+03  0.7957747E-01  0.3450833E+00
         13   -1    0    0    0    0  0.00000000000E+00  0.00000000000E+00  0.14999999963E+04  0.15000000000E+04  0.10566000000E+00 0.  1.
        994   -1    0    0    0    0 -0.00000000000E+00 -0.00000000000E+00  0.11368683772E-12  0.17120000000E+03  0.17120000000E+03 0.  0.
         13    1    1    2    0    0 -0.99102373512E+01  0.32765682849E+02  0.16750949588E+03  0.17097147467E+03  0.10566000000E+00 0.  1.
        994    1    1    2    0    0 -0.41329050934E+02 -0.10835909604E+02  0.10220607097E+02  0.17674673462E+03  0.17120000000E+03 0.  0.
        998    1    1    2    0    0  0.51239288286E+02 -0.21929773245E+02  0.13222698933E+04  0.13234817907E+04  0.10000000000E+02 0.  1.
</event>
<event>
 5    1  0.1087513E-008  0.3756164E+03  0.7957747E-01  0.3470471E+00
         13   -1    0    0    0    0  0.00000000000E+00  0.00000000000E+00  0.14999999963E+04  0.15000000000E+04  0.10566000000E+00 0.  1.
        994   -1    0    0    0    0 -0.00000000000E+00 -0.00000000000E+00  0.11368683772E-12  0.17120000000E+03  0.17120000000E+03 0.  0.
         13    1    1    2    0    0  0.20853501219E+02 -0.77905562577E+01  0.36154013759E+02  0.42458039931E+02  0.10566000000E+00 0.  1.
        994    1    1    2    0    0 -0.22283335588E+02 -0.10784940706E+02  0.84442374888E+01  0.17318662517E+03  0.17120000000E+03 0.  0.
        998    1    1    2    0    0  0.14298343692E+01  0.18575496963E+02  0.14554017450E+04  0.14555553349E+04  0.10000000000E+02 0.  1.
</event>
<event>
 5    1  0.1087513E-008  0.3745771E+03  0.7957747E-01  0.3475116E+00
         13   -1    0    0    0    0  0.00000000000E+00  0.00000000000E+00  0.14999999963E+04  0.15000000000E+04  0.10566000000E+00 0.  1.
        994   -1    0    0    0    0 -0.00000000000E+00 -0.00000000000E+00  0.11368683772E-12  0.17120000000E+03  0.17120000000E+03 0.  0.
         13    1    1    2    0    0  0.74135993064E+02  0.16387274926E+02  0.28473562163E+03  0.29468470208E+03  0.10566000000E+00 0.  1.
        994    1    1    2    0    0 -0.95862495585E+02 -0.21879288623E+02  0.40555669532E+02  0.20155030057E+03  0.17120000000E+03 0.  0.
        998    1    1    2    0    0  0.21726502520E+02  0.54920136974E+01  0.11747087051E+04  0.11749649974E+04  0.10000000000E+02 0.  1.
</event>
<event>
 5    1  0.1087513E-008  0.3710822E+03  0.7957747E-01  0.3490932E+00
         13   -1    0    0    0    0  0.00000000000E+00  0.00000000000E+00  0.14999999963E+04  0.15000000000E+04  0.10566000000E+00 0.  1.
        994   -1    0    0    0    0 -0.00000000000E+00 -0.00000000000E+00  0.11368683772E-12  0.17120000000E+03  0.17120000000E+03 0.  0.
         13    1    1    2    0    0 -0.21869371322E+03 -0.12060541088E+03  0.11305761927E+04  0.11578320880E+04  0.10566000000E+00 0.  1.
        994    1    1    2    0    0  0.20813627082E+03  0.11129215144E+03  0.22599560626E+03  0.36890392279E+03  0.17120000000E+03 0.  0.
        998    1    1    2    0    0  0.10557442398E+02  0.93132594355E+01  0.14342819731E+03  0.14446398920E+03  0.10000000000E+02 0. -1.
</event>
<event>
 5    1  0.1087513E-008  0.3814662E+03  0.7957747E-01  0.3444799E+00
         13   -1    0    0    0    0  0.00000000000E+00  0.00000000000E+00  0.14999999963E+04  0.15000000000E+04  0.10566000000E+00 0.  1.
        994   -1    0    0    0    0 -0.00000000000E+00 -0.00000000000E+00  0.11368683772E-12  0.17120000000E+03  0.17120000000E+03 0.  0.
         13    1    1    2    0    0  0.24674603290E+02 -0.23744567276E+02  0.18976558564E+03  0.19283057118E+03  0.10566000000E+00 0.  1.
        994    1    1    2    0    0 -0.11430684018E+02 -0.10762186477E+01  0.38335026102E+01  0.17162737114E+03  0.17120000000E+03 0.  0.
        998    1    1    2    0    0 -0.13243919272E+02  0.24820785924E+02  0.13064009080E+04  0.13067420577E+04  0.10000000000E+02 0.  1.
</event>
<event>
 5    1  0.1087513E-008  0.3784755E+03  0.7957747E-01  0.3457824E+00
         13   -1    0    0    0    0  0.00000000000E+00  0.00000000000E+00  0.14999999963E+04  0.15000000000E+04  0.10566000000E+00 0. -1.
        994   -1    0    0    0    0 -0.00000000000E+00 -0.00000000000E+00  0.11368683772E-12  0.17120000000E+03  0.17120000000E+03 0.  0.
         13    1    1    2    0    0 -0.14962534765E+02  0.71213808655E+02  0.40906379544E+03  0.41548584079E+03  0.10566000000E+00 0. -1.
        994    1    1    2    0    0  0.10370526295E+02 -0.68063692400E+02  0.20999841090E+02  0.18571657806E+03  0.17120000000E+03 0.  0.
        998    1    1    2    0    0  0.45920084695E+01 -0.31501162551E+01  0.10699363597E+04  0.10699975812E+04  0.10000000000E+02 0. -1.
</event>
<event>
 5    1  0.1087513E-008  0.3841809E+03  0.7957747E-01  0.3433153E+00
         13   -1    0    0    0    0  0.00000000000E+00  0.00000000000E+00  0.14999999963E+04  0.15000000000E+04  0.10566000000E+00 0. -1.
        994   -1    0    0    0    0 -0.00000000000E+00 -0.00000000000E+00  0.11368683772E-12  0.17120000000E+03  0.17120000000E+03 0.  0.
         13    1    1    2    0    0  0.90359866520E+01  0.13867897784E+02  0.70887694698E+02  0.72794533224E+02  0.10566000000E+00 0. -1.
        994    1    1    2    0    0 -0.12068227273E+02  0.63177107417E+01  0.26494255164E+01  0.17176150626E+03  0.17120000000E+03 0.  0.
        998    1    1    2    0    0  0.30322406212E+01 -0.20185608525E+02  0.14264628761E+04  0.14266439605E+04  0.10000000000E+02 0. -1.
</event>
<event>
 5    1  0.1087513E-008  0.3813993E+03  0.7957747E-01  0.3445088E+00
         13   -1    0    0    0    0  0.00000000000E+00  0.00000000000E+00  0.14999999963E+04  0.15000000000E+04  0.10566000000E+00 0. -1.
        994   -1    0    0    0    0 -0.00000000000E+00 -0.00000000000E+00  0.11368683772E-12  0.17120000000E+03  0.17120000000E+03 0.  0.
         13    1    1    2    0    0  0.35418526305E+02  0.83470992359E+02  0.52964658041E+03  0.53735220282E+03  0.10566000000E+00 0. -1.
        994    1    1    2    0    0 -0.65706380942E+02 -0.99513934009E+02  0.52290485785E+02  0.21509087954E+03  0.17120000000E+03 0.  0.
        998    1    1    2    0    0  0.30287854637E+02  0.16042941650E+02  0.91806293008E+03  0.91875691764E+03  0.10000000000E+02 0.  1.
</event>
<event>
 5    1  0.1087513E-008  0.3828608E+03  0.7957747E-01  0.3438796E+00
         13   -1    0    0    0    0  0.00000000000E+00  0.00000000000E+00  0.14999999963E+04  0.15000000000E+04  0.10566000000E+00 0.  1.
        994   -1    0    0    0    0 -0.00000000000E+00 -0.00000000000E+00  0.11368683772E-12  0.17120000000E+03  0.17120000000E+03 0.  0.
         13    1    1    2    0    0 -0.27609281867E+01  0.18594566058E+02  0.65330062714E+02  0.67980944900E+02  0.10566000000E+00 0.  1.
        994    1    1    2    0    0 -0.79367335064E+01 -0.11687876023E+02  0.33572015784E+01  0.17181475195E+03  0.17120000000E+03 0.  0.
        998    1    1    2    0    0  0.10697661693E+02 -0.69066900345E+01  0.14313127320E+04  0.14314043032E+04  0.10000000000E+02 0.  1.
</event>
<event>
 5    1  0.1087513E-008  0.3853605E+03  0.7957747E-01  0.3428145E+00
         13   -1    0    0    0    0  0.00000000000E+00  0.00000000000E+00  0.14999999963E+04  0.15000000000E+04  0.10566000000E+00 0. -1.
        994   -1    0    0    0    0 -0.00000000000E+00 -0.00000000000E+00  0.11368683772E-12  0.17120000000E+03  0.17120000000E+03 0.  0.
         13    1    1    2    0    0  0.91744924677E+01 -0.13690507850E+02  0.92977387716E+02  0.94426728779E+02  0.10566000000E+00 0. -1.
        994    1    1    2    0    0 -0.49092269237E+01  0.11000735342E+02  0.19280987445E+01  0.17163412904E+03  0.17120000000E+03 0.  0.
        998    1    1    2    0    0 -0.42652655440E+01  0.26897725078E+01  0.14050945098E+04  0.14051391422E+04  0.10000000000E+02 0. -1.
</event>
<event>
 5    1  0.1087513E-008  0.3737505E+03  0.7957747E-01  0.3478830E+00
         13   -1    0    0    0    0  0.00000000000E+00  0.00000000000E+00  0.14999999963E+04  0.15000000000E+04  0.10566000000E+00 0. -1.
        994   -1    0    0    0    0 -0.00000000000E+00 -0.00000000000E+00  0.11368683772E-12  0.17120000000E+03  0.17120000000E+03 0.  0.
         13    1    1    2    0    0 -0.20705686525E+02  0.55691467620E+02  0.12702787492E+03  0.14023678972E+03  0.10566000000E+00 0. -1.
        994    1    1    2    0    0  0.21165602890E+02 -0.43475793509E+02  0.21265288663E+02  0.17916411434E+03  0.17120000000E+03 0.  0.
        998    1    1    2    0    0 -0.45991636477E+00 -0.12215674110E+02  0.13517068327E+04  0.13517990959E+04  0.10000000000E+02 0. -1.
</event>
<event>
 5    1  0.1087513E-008  0.3858902E+03  0.7957747E-01  0.3425906E+00
         13   -1    0    0    0    0  0.00000000000E+00  0.00000000000E+00  0.14999999963E+04  0.15000000000E+04  0.10566000000E+00 0. -1.
        994   -1    0    0    0    0 -0.00000000000E+00 -0.00000000000E+00  0.11368683772E-12  0.17120000000E+03  0.17120000000E+03 0.  0.
         13    1    1    2    0    0  0.43229446302E+01 -0.12378967288E+02  0.72843518617E+02  0.74014296254E+02  0.10566000000E+00 0. -1.
        994    1    1    2    0    0 -0.63599510951E+00  0.93066287125E+01  0.14742122697E+01  0.17146029024E+03  0.17120000000E+03 0.  0.
        998    1    1    2    0    0 -0.36869495207E+01  0.30723385756E+01  0.14256822654E+04  0.14257254135E+04  0.10000000000E+02 0. -1.
</event>
<event>
 5    1  0.1087513E-008  0.4376464E+03  0.7957747E-01  0.3233090E+00
         13   -1    0    0    0    0  0.00000000000E+00  0.00000000000E+00  0.14999999963E+04  0.15000000000E+04  0.10566000000E+00 0. -1.
        994   -1    0    0    0    0 -0.00000000000E+00 -0.00000000000E+00  0.11368683772E-12  0.17120000000E+03  0.17120000000E+03 0.  0.
         13    1    1    2    0    0  0.25489635339E+02 -0.11175151316E+03  0.10305813228E+03  0.15413991046E+03  0.10566000000E+00 0. -1.
        994    1    1    2    0    0 -0.17943489725E+02  0.11205011815E+03  0.11566580703E+03  0.23572275392E+03  0.17120000000E+03 0.  0.
        998    1    1    2    0    0 -0.75461456138E+01 -0.29860499310E+00  0.12812760570E+04  0.12813373356E+04  0.10000000000E+02 0. -1.
</event>
<event>
 5    1  0.1087513E-008  0.3833204E+03  0.7957747E-01  0.3436827E+00
         13   -1    0    0    0    0  0.00000000000E+00  0.00000000000E+00  0.14999999963E+04  0.15000000000E+04  0.10566000000E+00 0.  1.
        994   -1    0    0    0    0 -0.00000000000E+00 -0.00000000000E+00  0.11368683772E-12  0.17120000000E+03  0.17120000000E+03 0.  0.
         13    1    1    2    0    0 -0.10505504509E+02 -0.45991624484E+01  0.25885012928E+02  0.28311887583E+02  0.10566000000E+00 0.  1.
        994    1    1    2    0    0  0.61689850845E+01  0.41588783685E+01  0.26493698412E+01  0.17138206384E+03  0.17120000000E+03 0.  0.
        998    1    1    2    0    0  0.43365194242E+01  0.44028407992E+00  0.14714656135E+04  0.14715060486E+04  0.10000000000E+02 0.  1.
</event>
<event>
 5    1  0.1087513E-008  0.3842838E+03  0.7957747E-01  0.3432715E+00
         13   -1    0    0    0    0  0.00000000000E+00  0.00000000000E+00  0.14999999963E+04  0.15000000000E+04  0.10566000000E+00 0. -1.
        994   -1    0    0    0    0 -0.00000000000E+00 -0.00000000000E+00  0.11368683772E-12  0.17120000000E+03  0.17120000000E+03 0.  0.
         13    1    1    2    0    0  0.99203688245E+01  0.69276047716E+01  0.36164240668E+02  0.38134877640E+02  0.10566000000E+00 0. -1.
        994    1    1    2    0    0 -0.24241169507E+01 -0.13646764314E+02  0.26196567717E+01  0.17178013017E+03  0.17120000000E+03 0.  0.
        998    1    1    2    0    0 -0.74962518738E+01  0.67191595425E+01  0.14612160988E+04  0.14612849922E+04  0.10000000000E+02 0. -1.
</event>
<event>
 5    1  0.1087513E-008  0.3798889E+03  0.7957747E-01  0.3451642E+00
         13   -1    0    0    0    0  0.00000000000E+00  0.00000000000E+00  0.14999999963E+04  0.15000000000E+04  0.10566000000E+00 0.  1.
        994   -1    0    0    0    0 -0.00000000000E+00 -0.00000000000E+00  0.11368683772E-12  0.17120000000E+03  0.17120000000E+03 0.  0.
         13    1    1    2    0    0  0.21112505607E+02  0.25933670215E+02  0.12657024987E+03  0.13091345408E+03  0.10566000000E+00 0.  1.
        994    1    1    2    0    0 -0.11907539246E+02 -0.25560629414E+02  0.68528163574E+01  0.17364197753E+03  0.17120000000E+03 0.  0.
        998    1    1    2    0    0 -0.92049663607E+01 -0.37304080057E+00  0.13665769300E+04  0.13666445684E+04  0.10000000000E+02 0.  1.
</event>
<event>
 5    1  0.1087513E-008  0.3830510E+03  0.7957747E-01  0.3437980E+00
         13   -1    0    0    0    0  0.00000000000E+00  0.00000000000E+00  0.14999999963E+04  0.15000000000E+04  0.10566000000E+00 0.  1.
        994   -1    0    0    0    0 -0.00000000000E+00 -0.00000000000E+00  0.11368683772E-12  0.17120000000E+03  0.17120000000E+03 0.  0.
         13    1    1    2    0    0 -0.21745079105E+02  0.96209310455E+01  0.10531609488E+03  0.10796713289E+03  0.10566000000E+00 0.  1.
        994    1    1    2    0    0  0.14555546507E+02 -0.12895965775E+02  0.38534339330E+01  0.17234401301E+03  0.17120000000E+03 0.  0.
        998    1    1    2    0    0  0.71895325973E+01  0.32750347292E+01  0.13908304675E+04  0.13908888541E+04  0.10000000000E+02 0.  1.
</event>
<event>
 5    1  0.1087513E-008  0.3756413E+03  0.7957747E-01  0.3470360E+00
         13   -1    0    0    0    0  0.00000000000E+00  0.00000000000E+00  0.14999999963E+04  0.15000000000E+04  0.10566000000E+00 0.  1.
        994   -1    0    0    0    0 -0.00000000000E+00 -0.00000000000E+00  0.11368683772E-12  0.17120000000E+03  0.17120000000E+03 0.  0.
         13    1    1    2    0    0  0.84191212265E+02  0.32311761242E+02  0.48360732667E+03  0.49194335823E+03  0.10566000000E+00 0.  1.
        994    1    1    2    0    0 -0.66429021195E+02 -0.51879168636E+02  0.30840922900E+02  0.19329993668E+03  0.17120000000E+03 0.  0.
        998    1    1    2    0    0 -0.17762191071E+02  0.19567407394E+02  0.98555174671E+03  0.98595670509E+03  0.10000000000E+02 0.  1.
</event>
<event>
 5    1  0.1087513E-008  0.3852179E+03  0.7957747E-01  0.3428748E+00
         13   -1    0    0    0    0  0.00000000000E+00  0.00000000000E+00  0.14999999963E+04  0.15000000000E+04  0.10566000000E+00 0. -1.
        994   -1    0    0    0    0 -0.00000000000E+00 -0.00000000000E+00  0.11368683772E-12  0.17120000000E+03  0.17120000000E+03 0.  0.
         13    1    1    2    0    0  0.15009939778E+02  0.17722070969E+01  0.72602442821E+02  0.74159051219E+02  0.10566000000E+00 0. -1.
        994    1    1    2    0    0 -0.14858056236E+02 -0.26792058798E+01  0.22714180756E+01  0.17187943251E+03  0.17120000000E+03 0.  0.
        998    1    1    2    0    0 -0.15188354121E+00  0.90699878299E+00  0.14251261354E+04  0.14251615163E+04  0.10000000000E+02 0. -1.
</event>
<event>
 5    1  0.1087513E-008  0.3842566E+03  0.7957747E-01  0.3432831E+00
         13   -1    0    0    0    0  0.00000000000E+00  0.00000000000E+00  0.14999999963E+04  0.15000000000E+04  0.10566000000E+00 0. -1.
        994   -1    0    0    0    0 -0.00000000000E+00 -0.00000000000E+00  0.11368683772E-12  0.17120000000E+03  0.17120000000E+03 0.  0.
         13    1    1    2    0    0  0.22373319226E+02 -0.45439468073E+01  0.13373406837E+03  0.13566880655E+03  0.10566000000E+00 0. -1.
        994    1    1    2    0    0 -0.10657803742E+02  0.87511281267E+00  0.23767624650E+01  0.17155011980E+03  0.17120000000E+03 0.  0.
        998    1    1    2    0    0 -0.11715515484E+02  0.36688339947E+01  0.13638891654E+04  0.13639810736E+04  0.10000000000E+02 0. -1.
</event>
<event>
 5    1  0.1087513E-008  0.3852455E+03  0.7957747E-01  0.3428632E+00
         13   -1    0    0    0    0  0.00000000000E+00  0.00000000000E+00  0.14999999963E+04  0.15000000000E+04  0.10566000000E+00 0. -1.
        994   -1    0    0    0    0 -0.00000000000E+00 -0.00000000000E+00  0.11368683772E-12  0.17120000000E+03  0.17120000000E+03 0.  0.
         13    1    1    2    0    0  0.13882122823E+02  0.99504609523E+01  0.92645722626E+02  0.94207038443E+02  0.10566000000E+00 0. -1.
        994    1    1    2    0    0 -0.13510305130E+02 -0.10020128616E+02  0.24385687798E+01  0.17204161688E+03  0.17120000000E+03 0.  0.
        998    1    1    2    0    0 -0.37181769279E+00  0.69667663626E-01  0.14049157049E+04  0.14049513447E+04  0.10000000000E+02 0.  0.
</event>
<event>
 5    1  0.1087513E-008  0.3713518E+03  0.7957747E-01  0.3489701E+00
         13   -1    0    0    0    0  0.00000000000E+00  0.00000000000E+00  0.14999999963E+04  0.15000000000E+04  0.10566000000E+00 0.  1.
        994   -1    0    0    0    0 -0.00000000000E+00 -0.00000000000E+00  0.11368683772E-12  0.17120000000E+03  0.17120000000E+03 0.  0.
         13    1    1    2    0    0  0.25602234448E+02 -0.46167443912E+02  0.14185100663E+03  0.15135595969E+03  0.10566000000E+00 0.  1.
        994    1    1    2    0    0 -0.20281546828E+02  0.55327430171E+02  0.20611434966E+02  0.18222715748E+03  0.17120000000E+03 0.  0.
        998    1    1    2    0    0 -0.53206876206E+01 -0.91599862588E+01  0.13375375547E+04  0.13376168828E+04  0.10000000000E+02 0.  1.
</event>
<event>
 5    1  0.1087513E-008  0.3854294E+03  0.7957747E-01  0.3427853E+00
         13   -1    0    0    0    0  0.00000000000E+00  0.00000000000E+00  0.14999999963E+04  0.15000000000E+04  0.10566000000E+00 0.  1.
        994   -1    0    0    0    0 -0.00000000000E+00 -0.00000000000E+00  0.11368683772E-12  0.17120000000E+03  0.17120000000E+03 0.  0.
         13    1    1    2    0    0 -0.39191740724E+00  0.10009690967E+02  0.36488747756E+02  0.37838966547E+02  0.10566000000E+00 0.  1.
        994    1    1    2    0    0 -0.60038026000E+01 -0.13628163541E+01  0.15415724734E+01  0.17131759793E+03  0.17120000000E+03 0.  0.
        998    1    1    2    0    0  0.63957200073E+01 -0.86468746124E+01  0.14619696760E+04  0.14620434355E+04  0.10000000000E+02 0.  1.
</event>
<event>
 5    1  0.1087513E-008  0.3797806E+03  0.7957747E-01  0.3452114E+00
         13   -1    0    0    0    0  0.00000000000E+00  0.00000000000E+00  0.14999999963E+04  0.15000000000E+04  0.10566000000E+00 0.  1.
        994   -1    0    0    0    0 -0.00000000000E+00 -0.00000000000E+00  0.11368683772E-12  0.17120000000E+03  0.17120000000E+03 0.  0.
         13    1    1    2    0    0  0.23613818996E+02  0.10410041613E+01  0.67064917620E+02  0.71108441670E+02  0.10566000000E+00 0.  1.
        994    1    1    2    0    0 -0.56165752489E+01  0.12057104661E+02  0.48359968289E+01  0.17178401135E+03  0.17120000000E+03 0.  0.
        998    1    1    2    0    0 -0.17997243747E+02 -0.13098108822E+02  0.14280990818E+04  0.14283075470E+04  0.10000000000E+02 0.  1.
</event>
<event>
 5    1  0.1087513E-008  0.3803287E+03  0.7957747E-01  0.3449728E+00
         13   -1    0    0    0    0  0.00000000000E+00  0.00000000000E+00  0.14999999963E+04  0.15000000000E+04  0.10566000000E+00 0. -1.
        994   -1    0    0    0    0 -0.00000000000E+00 -0.00000000000E+00  0.11368683772E-12  0.17120000000E+03  0.17120000000E+03 0.  0.
         13    1    1    2    0    0  0.12535584242E+02  0.46019637254E+02  0.23882197057E+03  0.24353827764E+03  0.10566000000E+00 0. -1.
        994    1    1    2    0    0 -0.17771001974E+02 -0.46304110028E+02  0.12225633068E+02  0.17865829178E+03  0.17120000000E+03 0.  0.
        998    1    1    2    0    0  0.52354177321E+01  0.28447277354E+00  0.12489523926E+04  0.12490034306E+04  0.10000000000E+02 0. -1.
</event>
<event>
 5    1  0.1087513E-008  0.3761862E+03  0.7957747E-01  0.3467935E+00
         13   -1    0    0    0    0  0.00000000000E+00  0.00000000000E+00  0.14999999963E+04  0.15000000000E+04  0.10566000000E+00 0. -1.
        994   -1    0    0    0    0 -0.00000000000E+00 -0.00000000000E+00  0.11368683772E-12  0.17120000000E+03  0.17120000000E+03 0.  0.
         13    1    1    2    0    0 -0.19535789597E+02 -0.43603354682E+01  0.29608480119E+02  0.35739793782E+02  0.10566000000E+00 0. -1.
        994    1    1    2    0    0  0.24251445761E+02  0.40258690778E+01  0.81196398674E+01  0.17314649519E+03  0.17120000000E+03 0.  0.
        998    1    1    2    0    0 -0.47156561641E+01  0.33446639043E+00  0.14622718763E+04  0.14623137110E+04  0.10000000000E+02 0. -1.
</event>
<event>
 5    1  0.1087513E-008  0.3774316E+03  0.7957747E-01  0.3462419E+00
         13   -1    0    0    0    0  0.00000000000E+00  0.00000000000E+00  0.14999999963E+04  0.15000000000E+04  0.10566000000E+00 0.  1.
        994   -1    0    0    0    0 -0.00000000000E+00 -0.00000000000E+00  0.11368683772E-12  0.17120000000E+03  0.17120000000E+03 0.  0.
         13    1    1    2    0    0 -0.21513316509E+02  0.55485194982E+02  0.10566505149E+03  0.12127054019E+03  0.10566000000E+00 0.  1.
        994    1    1    2    0    0  0.25725406386E+02 -0.55143812234E+02  0.28337409548E+02  0.18388878525E+03  0.17120000000E+03 0.  0.
        998    1    1    2    0    0 -0.42120898770E+01 -0.34138274764E+00  0.13659975352E+04  0.13660406746E+04  0.10000000000E+02 0.  1.
</event>
<event>
 5    1  0.1087513E-008  0.3850167E+03  0.7957747E-01  0.3429602E+00
         13   -1    0    0    0    0  0.00000000000E+00  0.00000000000E+00  0.14999999963E+04  0.15000000000E+04  0.10566000000E+00 0. -1.
        994   -1    0    0    0    0 -0.00000000000E+00 -0.00000000000E+00  0.11368683772E-12  0.17120000000E+03  0.17120000000E+03 0.  0.
         13    1    1    2    0    0  0.10881314814E+02  0.28867211605E+01  0.33849528017E+02  0.35672648937E+02  0.10566000000E+00 0. -1.
        994    1    1    2    0    0 -0.39774728962E+02  0.13519438356E+01  0.68477706474E+01  0.17589823416E+03  0.17120000000E+03 0.  0.
        998    1    1    2    0    0  0.28893414148E+02 -0.42386649961E+01  0.14593026976E+04  0.14596291169E+04  0.10000000000E+02 0. -1.
</event>
<event>
 5    1  0.1087513E-008  0.3832841E+03  0.7957747E-01  0.3436982E+00
         13   -1    0    0    0    0  0.00000000000E+00  0.00000000000E+00  0.14999999963E+04  0.15000000000E+04  0.10566000000E+00 0. -1.
        994   -1    0    0    0    0 -0.00000000000E+00 -0.00000000000E+00  0.11368683772E-12  0.17120000000E+03  0.17120000000E+03 0.  0.
         13    1    1    2    0    0  0.22194851854E+02  0.16129360569E+02  0.16071846023E+03  0.16304355965E+03  0.10566000000E+00 0. -1.
        994    1    1    2    0    0 -0.21268232362E+02  0.12730220680E+02  0.45189144258E+01  0.17304408922E+03  0.17120000000E+03 0.  0.
        998    1    1    2    0    0 -0.92661949152E+00 -0.28859581249E+02  0.13347626216E+04  0.13351123511E+04  0.10000000000E+02 0. -1.
</event>
<event>
 5    1  0.1087513E-008  0.3836834E+03  0.7957747E-01  0.3435275E+00
         13   -1    0    0    0    0  0.00000000000E+00  0.00000000000E+00  0.14999999963E+04  0.15000000000E+04  0.10566000000E+00 0.  1.
        994   -1    0    0    0    0 -0.00000000000E+00 -0.00000000000E+00  0.11368683772E-12  0.17120000000E+03  0.17120000000E+03 0.  0.
         13    1    1    2    0    0 -0.83177038856E+01  0.25047593999E+02  0.14258520077E+03  0.14500729915E+03  0.10566000000E+00 0.  1.
        994    1    1    2    0    0  0.11909423445E+02 -0.21143121423E+02  0.42325031912E+01  0.17296305974E+03  0.17120000000E+03 0.  0.
        998    1    1    2    0    0 -0.35917195594E+01 -0.39044725760E+01  0.13531822923E+04  0.13532296411E+04  0.10000000000E+02 0.  1.
</event>
<event>
 5    1  0.1087513E-008  0.3843540E+03  0.7957747E-01  0.3432416E+00
         13   -1    0    0    0    0  0.00000000000E+00  0.00000000000E+00  0.14999999963E+04  0.15000000000E+04  0.10566000000E+00 0.  1.
        994   -1    0    0    0    0 -0.00000000000E+00 -0.00000000000E+00  0.11368683772E-12  0.17120000000E+03  0.17120000000E+03 0.  0.
         13    1    1    2    0    0  0.18454010227E+02 -0.16927532526E+01  0.90316785299E+02  0.92198420690E+02  0.10566000000E+00 0.  1.
        994    1    1    2    0    0 -0.61203060586E+01  0.26765436455E+02  0.44394833514E+01  0.17344450336E+03  0.17120000000E+03 0.  0.
        998    1    1    2    0    0 -0.12333704168E+02 -0.25072683202E+02  0.14052437276E+04  0.14055570759E+04  0.10000000000E+02 0.  1.
</event>
<event>
 5    1  0.1087513E-008  0.3769539E+03  0.7957747E-01  0.3464530E+00
         13   -1    0    0    0    0  0.00000000000E+00  0.00000000000E+00  0.14999999963E+04  0.15000000000E+04  0.10566000000E+00 0. -1.
        994   -1    0    0    0    0 -0.00000000000E+00 -0.00000000000E+00  0.11368683772E-12  0.17120000000E+03  0.17120000000E+03 0.  0.
         13    1    1    2    0    0 -0.14447464714E+02  0.19698329288E+02  0.53564673968E+02  0.58872224986E+02  0.10566000000E+00 0. -1.
        994    1    1    2    0    0 -0.27835139950E+01  0.53983363663E+00  0.57059347034E+01  0.17131852516E+03  0.17120000000E+03 0.  0.
        998    1    1    2    0    0  0.17230978709E+02 -0.20238162924E+02  0.14407293876E+04  0.14410092499E+04  0.10000000000E+02 0. -1.
</event>
<event>
 5    1  0.1087513E-008  0.3841268E+03  0.7957747E-01  0.3433384E+00
         13   -1    0    0    0    0  0.00000000000E+00  0.00000000000E+00  0.14999999963E+04  0.15000000000E+04  0.10566000000E+00 0.  1.
        994   -1    0    0    0    0 -0.00000000000E+00 -0.00000000000E+00  0.11368683772E-12  0.17120000000E+03  0.17120000000E+03 0.  0.
         13    1    1    2    0    0 -0.81817988198E+01  0.13118355042E+02  0.55944815496E+02  0.58041938422E+02  0.10566000000E+00 0.  1.
        994    1    1    2    0    0  0.10039323401E+02 -0.11868972481E+02  0.28617040530E+01  0.17192815323E+03  0.17120000000E+03 0.  0.
        998    1    1    2    0    0 -0.18575245816E+01 -0.12493825609E+01  0.14411934767E+04  0.14412299084E+04  0.10000000000E+02 0.  1.
</event>
<event>
 5    1  0.1087513E-008  0.3828710E+03  0.7957747E-01  0.3438752E+00
         13   -1    0    0    0    0  0.00000000000E+00  0.00000000000E+00  0.14999999963E+04  0.15000000000E+04  0.10566000000E+00 0. -1.
        994   -1    0    0    0    0 -0.00000000000E+00 -0.00000000000E+00  0.11368683772E-12  0.17120000000E+03  0.17120000000E+03 0.  0.
         13    1    1    2    0    0 -0.17737556352E+02 -0.54115942237E+01  0.61416529800E+02  0.64155339249E+02  0.10566000000E+00 0. -1.
        994    1    1    2    0    0  0.17159066025E+02  0.38338026972E+01  0.37152013323E+01  0.17214056556E+03  0.17120000000E+03 0.  0.
        998    1    1    2    0    0  0.57849032701E+00  0.15777915264E+01  0.14348682651E+04  0.14349040952E+04  0.10000000000E+02 0. -1.
</event>
<event>
 5    1  0.1087513E-008  0.3755375E+03  0.7957747E-01  0.3470822E+00
         13   -1    0    0    0    0  0.00000000000E+00  0.00000000000E+00  0.14999999963E+04  0.15000000000E+04  0.10566000000E+00 0.  1.
        994   -1    0    0    0    0 -0.00000000000E+00 -0.00000000000E+00  0.11368683772E-12  0.17120000000E+03  0.17120000000E+03 0.  0.
         13    1    1    2    0    0 -0.76748634260E+01  0.13010168451E+02  0.15507981068E+02  0.21648941142E+02  0.10566000000E+00 0.  1.
        994    1    1    2    0    0  0.18674269266E+01  0.46863888382E+01  0.64893328281E+01  0.17139720232E+03  0.17120000000E+03 0.  0.
        998    1    1    2    0    0  0.58074364994E+01 -0.17696557289E+02  0.14780026824E+04  0.14781538565E+04  0.10000000000E+02 0.  1.
</event>
<event>
 5    1  0.1087513E-008  0.3834757E+03  0.7957747E-01  0.3436163E+00
         13   -1    0    0    0    0  0.00000000000E+00  0.00000000000E+00  0.14999999963E+04  0.15000000000E+04  0.10566000000E+00 0.  1.
        994   -1    0    0    0    0 -0.00000000000E+00 -0.00000000000E+00  0.11368683772E-12  0.17120000000E+03  0.17120000000E+03 0.  0.
         13    1    1    2    0    0 -0.16135878193E+02 -0.26097445088E+01  0.55265529032E+02  0.57632171525E+02  0.10566000000E+00 0.  1.
        994    1    1    2    0    0  0.10757419627E+02  0.13231512376E+01  0.27771396216E+01  0.17156522174E+03  0.17120000000E+03 0.  0.
        998    1    1    2    0    0  0.53784585664E+01  0.12865932712E+01  0.14419573276E+04  0.14420026067E+04  0.10000000000E+02 0.  1.
</event>
<event>
 5    1  0.1087513E-008  0.3857076E+03  0.7957747E-01  0.3426677E+00
         13   -1    0    0    0    0  0.00000000000E+00  0.00000000000E+00  0.14999999963E+04  0.15000000000E+04  0.10566000000E+00 0. -1.
        994   -1    0    0    0    0 -0.00000000000E+00 -0.00000000000E+00  0.11368683772E-12  0.17120000000E+03  0.17120000000E+03 0.  0.
         13    1    1    2    0    0 -0.31361206694E+01  0.17580794651E+02  0.94305750738E+02  0.95981797127E+02  0.10566000000E+00 0. -1.
        994    1    1    2    0    0  0.46400042194E+01 -0.46501488220E+02  0.84779839953E+01  0.17766607515E+03  0.17120000000E+03 0.  0.
        998    1    1    2    0    0 -0.15038835500E+01  0.28920693569E+02  0.13972162615E+04  0.13975521277E+04  0.10000000000E+02 0. -1.
</event>
<event>
 5    1  0.1087513E-008  0.3827919E+03  0.7957747E-01  0.3439091E+00
         13   -1    0    0    0    0  0.00000000000E+00  0.00000000000E+00  0.14999999963E+04  0.15000000000E+04  0.10566000000E+00 0. -1.
        994   -1    0    0    0    0 -0.00000000000E+00 -0.00000000000E+00  0.11368683772E-12  0.17120000000E+03  0.17120000000E+03 0.  0.
         13    1    1    2    0    0  0.37928078177E+02  0.82696338474E+01  0.21282218281E+03  0.21633358181E+03  0.10566000000E+00 0. -1.
        994    1    1    2    0    0 -0.44905555449E+02 -0.49662139879E+02  0.17723786909E+02  0.18467920747E+03  0.17120000000E+03 0.  0.
        998    1    1    2    0    0  0.69774772718E+01  0.41392506032E+02  0.12694540266E+04  0.12701872107E+04  0.10000000000E+02 0. -1.
</event>
<event>
 5    1  0.1087513E-008  0.3845915E+03  0.7957747E-01  0.3431406E+00
         13   -1    0    0    0    0  0.00000000000E+00  0.00000000000E+00  0.14999999963E+04  0.15000000000E+04  0.10566000000E+00 0.  1.
        994   -1    0    0    0    0 -0.00000000000E+00 -0.00000000000E+00  0.11368683772E-12  0.17120000000E+03  0.17120000000E+03 0.  0.
         13    1    1    2    0    0 -0.50757222235E+01  0.98917499939E+01  0.32865388412E+02  0.34695166717E+02  0.10566000000E+00 0.  1.
        994    1    1    2    0    0  0.13421178169E+02 -0.55025204960E+01  0.25262405206E+01  0.17183197504E+03  0.17120000000E+03 0.  0.
        998    1    1    2    0    0 -0.83454559456E+01 -0.43892294979E+01  0.14646083673E+04  0.14646728582E+04  0.10000000000E+02 0.  1.
</event>
<event>
 5    1  0.1087513E-008  0.3702451E+03  0.7957747E-01  0.3494765E+00
         13   -1    0    0    0    0  0.00000000000E+00  0.00000000000E+00  0.14999999963E+04  0.15000000000E+04  0.10566000000E+00 0.  1.
        994   -1    0    0    0    0 -0.00000000000E+00 -0.00000000000E+00  0.11368683772E-12  0.17120000000E+03  0.17120000000E+03 0.  0.
         13    1    1    2    0    0 -0.12609194434E+02  0.80545913315E+01  0.80127370091E+01  0.16973018123E+02  0.10566000000E+00 0.  1.
        994    1    1    2    0    0  0.20449821352E+02  0.15937819034E+01  0.10595863964E+02  0.17274966763E+03  0.17120000000E+03 0.  0.
        998    1    1    2    0    0 -0.78406269182E+01 -0.96483732350E+01  0.14813913953E+04  0.14814773142E+04  0.10000000000E+02 0.  1.
</event>
<event>
 5    1  0.1087513E-008  0.3819813E+03  0.7957747E-01  0.3442577E+00
         13   -1    0    0    0    0  0.00000000000E+00  0.00000000000E+00  0.14999999963E+04  0.15000000000E+04  0.10566000000E+00 0. -1.
        994   -1    0    0    0    0 -0.00000000000E+00 -0.00000000000E+00  0.11368683772E-12  0.17120000000E+03  0.17120000000E+03 0.  0.
         13    1    1    2    0    0 -0.89488994945E+01  0.26374333088E+02  0.12310109880E+03  0.12621243971E+03  0.10566000000E+00 0. -1.
        994    1    1    2    0    0  0.81414660398E+01 -0.14369258652E+02  0.40427526459E+01  0.17204227071E+03  0.17120000000E+03 0.  0.
        998    1    1    2    0    0  0.80743345466E+00 -0.12005074435E+02  0.13728561448E+04  0.13729452896E+04  0.10000000000E+02 0. -1.
</event>
<event>
 5    1  0.1087513E-008  0.3853546E+03  0.7957747E-01  0.3428170E+00
         13   -1    0    0    0    0  0.00000000000E+00  0.00000000000E+00  0.14999999963E+04  0.15000000000E+04  0.10566000000E+00 0. -1.
        994   -1    0    0    0    0 -0.00000000000E+00 -0.00000000000E+00  0.11368683772E-12  0.17120000000E+03  0.17120000000E+03 0.  0.
         13    1    1    2    0    0  0.94669514467E+01 -0.56491051201E+01  0.41408272498E+02  0.42850808087E+02  0.10566000000E+00 0. -1.
        994    1    1    2    0    0 -0.10091076617E+02  0.14643337989E+01  0.17957928155E+01  0.17151279536E+03  0.17120000000E+03 0.  0.
        998    1    1    2    0    0  0.62412517068E+00  0.41847713213E+01  0.14567959310E+04  0.14568363966E+04  0.10000000000E+02 0. -1.
</event>
<event>
 5    1  0.1087513E-008  0.3764629E+03  0.7957747E-01  0.3466706E+00
         13   -1    0    0    0    0  0.00000000000E+00  0.00000000000E+00  0.14999999963E+04  0.15000000000E+04  0.10566000000E+00 0.  1.
        994   -1    0    0    0    0 -0.00000000000E+00 -0.00000000000E+00  0.11368683772E-12  0.17120000000E+03  0.17120000000E+03 0.  0.
         13    1    1    2    0    0 -0.13802260645E+02  0.59605213544E+01  0.16439959299E+02  0.22278097754E+02  0.10566000000E+00 0.  1.
        994    1    1    2    0    0  0.97734747289E+01 -0.72326993810E+01  0.64296277901E+01  0.17175160221E+03  0.17120000000E+03 0.  0.
        998    1    1    2    0    0  0.40287859166E+01  0.12721780266E+01  0.14771304092E+04  0.14771703000E+04  0.10000000000E+02 0.  1.
</event>
<event>
 5    1  0.1087513E-008  0.3851658E+03  0.7957747E-01  0.3428969E+00
         13   -1    0    0    0    0  0.00000000000E+00  0.00000000000E+00  0.14999999963E+04  0.15000000000E+04  0.10566000000E+00 0.  1.
        994   -1    0    0    0    0 -0.00000000000E+00 -0.00000000000E+00  0.11368683772E-12  0.17120000000E+03  0.17120000000E+03 0.  0.
         13    1    1    2    0    0 -0.13566442883E+02  0.93060291174E+01  0.88508044189E+02  0.90024083447E+02  0.10566000000E+00 0.  1.
        994    1    1    2    0    0  0.71150647582E+01 -0.60215878730E+01  0.18334570347E+01  0.17146336411E+03  0.17120000000E+03 0.  0.
        998    1    1    2    0    0  0.64513781247E+01 -0.32844412444E+01  0.14096584951E+04  0.14097125524E+04  0.10000000000E+02 0.  1.
</event>
<event>
 5    1  0.1087513E-008  0.3823032E+03  0.7957747E-01  0.3441191E+00
         13   -1    0    0    0    0  0.00000000000E+00  0.00000000000E+00  0.14999999963E+04  0.15000000000E+04  0.10566000000E+00 0. -1.
        994   -1    0    0    0    0 -0.00000000000E+00 -0.00000000000E+00  0.11368683772E-12  0.17120000000E+03  0.17120000000E+03 0.  0.
         13    1    1    2    0    0 -0.23419279626E+02  0.11919268351E+02  0.11418671483E+03  0.11717144970E+03  0.10566000000E+00 0. -1.
        994    1    1    2    0    0  0.17205995110E+02 -0.42738207327E+01  0.40184570644E+01  0.17216242275E+03  0.17120000000E+03 0.  0.
        998    1    1    2    0    0  0.62132845156E+01 -0.76454476184E+01  0.13817948244E+04  0.13818661276E+04  0.10000000000E+02 0. -1.
</event>
<event>
 5    1  0.1087513E-008  0.3299938E+03  0.7957747E-01  0.3702719E+00
         13   -1    0    0    0    0  0.00000000000E+00  0.00000000000E+00  0.14999999963E+04  0.15000000000E+04  0.10566000000E+00 0. -1.
        994   -1    0    0    0    0 -0.00000000000E+00 -0.00000000000E+00  0.11368683772E-12  0.17120000000E+03  0.17120000000E+03 0.  0.
         13    1    1    2    0    0 -0.99104399715E+01 -0.27694592608E+03  0.48786079551E+03  0.56107524429E+03  0.10566000000E+00 0. -1.
        994    1    1    2    0    0  0.10039622036E+02  0.28693351305E+03  0.52249005103E+03  0.62027165690E+03  0.17120000000E+03 0.  0.
        998    1    1    2    0    0 -0.12918206445E+00 -0.99875869750E+01  0.48964914974E+03  0.48985309881E+03  0.10000000000E+02 0.  0.
</event>
<event>
 5    1  0.1087513E-008  0.3767713E+03  0.7957747E-01  0.3465339E+00
         13   -1    0    0    0    0  0.00000000000E+00  0.00000000000E+00  0.14999999963E+04  0.15000000000E+04  0.10566000000E+00 0. -1.
        994   -1    0    0    0    0 -0.00000000000E+00 -0.00000000000E+00  0.11368683772E-12  0.17120000000E+03  0.17120000000E+03 0.  0.
         13    1    1    2    0    0 -0.22564512915E+02  0.10761833930E+01  0.41023377738E+02  0.46832084075E+02  0.10566000000E+00 0. -1.
        994    1    1    2    0    0  0.22121694749E+02  0.83706941375E+00  0.74296307351E+01  0.17278515410E+03  0.17120000000E+03 0.  0.
        998    1    1    2    0    0  0.44281816636E+00 -0.19132528068E+01  0.14515469878E+04  0.14515827618E+04  0.10000000000E+02 0. -1.
</event>
<event>
 5    1  0.1087513E-008  0.3733889E+03  0.7957747E-01  0.3480459E+00
         13   -1    0    0    0    0  0.00000000000E+00  0.00000000000E+00  0.14999999963E+04  0.15000000000E+04  0.10566000000E+00 0. -1.
        994   -1    0    0    0    0 -0.00000000000E+00 -0.00000000000E+00  0.11368683772E-12  0.17120000000E+03  0.17120000000E+03 0.  0.
         13    1    1    2    0    0  0.44348760870E+02 -0.23885734651E+02  0.20257780306E+03  0.20874654097E+03  0.10566000000E+00 0. -1.
        994    1    1    2    0    0  0.45262772595E+01  0.16880738775E+00  0.75784999985E+01  0.17142750463E+03  0.17120000000E+03 0.  0.
        998    1    1    2    0    0 -0.48875038129E+02  0.23716927263E+02  0.12898436932E+04  0.12910259544E+04  0.10000000000E+02 0. -1.
</event>
<event>
 5    1  0.1087513E-008  0.3826315E+03  0.7957747E-01  0.3439780E+00
         13   -1    0    0    0    0  0.00000000000E+00  0.00000000000E+00  0.14999999963E+04  0.15000000000E+04  0.10566000000E+00 0. -1.
        994   -1    0    0    0    0 -0.00000000000E+00 -0.00000000000E+00  0.11368683772E-12  0.17120000000E+03  0.17120000000E+03 0.  0.
         13    1    1    2    0    0 -0.13260676028E+02  0.31337644261E+02  0.18898064099E+03  0.19201975760E+03  0.10566000000E+00 0. -1.
        994    1    1    2    0    0  0.78979658333E+02 -0.83984898004E+01  0.24006235946E+02  0.19024736641E+03  0.17120000000E+03 0.  0.
        998    1    1    2    0    0 -0.65718982305E+02 -0.22939154461E+02  0.12870131193E+04  0.12889328760E+04  0.10000000000E+02 0. -1.
</event>
<event>
 5    1  0.1087513E-008  0.3831565E+03  0.7957747E-01  0.3437529E+00
         13   -1    0    0    0    0  0.00000000000E+00  0.00000000000E+00  0.14999999963E+04  0.15000000000E+04  0.10566000000E+00 0.  1.
        994   -1    0    0    0    0 -0.00000000000E+00 -0.00000000000E+00  0.11368683772E-12  0.17120000000E+03  0.17120000000E+03 0.  0.
         13    1    1    2    0    0  0.69290485372E+01 -0.19957429913E+02  0.97169109669E+02  0.99439216410E+02  0.10566000000E+00 0.  1.
        994    1    1    2    0    0  0.81376479012E+01 -0.15794656945E+01  0.27755504798E+01  0.17142304310E+03  0.17120000000E+03 0.  0.
        998    1    1    2    0    0 -0.15066696438E+02  0.21536895608E+02  0.14000553361E+04  0.14003377405E+04  0.10000000000E+02 0.  1.
</event>
<event>
 5    1  0.1087513E-008  0.3696927E+03  0.7957747E-01  0.3497305E+00
         13   -1    0    0    0    0  0.00000000000E+00  0.00000000000E+00  0.14999999963E+04  0.15000000000E+04  0.10566000000E+00 0.  1.
        994   -1    0    0    0    0 -0.00000000000E+00 -0.00000000000E+00  0.11368683772E-12  0.17120000000E+03  0.17120000000E+03 0.  0.
         13    1    1    2    0    0  0.19718403137E+03 -0.10971448053E+03  0.11610418149E+04  0.11827666366E+04  0.10566000000E+00 0.  1.
        994    1    1    2    0    0 -0.18951363324E+03  0.14230502949E+03  0.22407785138E+03  0.36835643347E+03  0.17120000000E+03 0.  0.
        998    1    1    2    0    0 -0.76703981356E+01 -0.32590548955E+02  0.11488033000E+03  0.12007692997E+03  0.10000000000E+02 0.  1.
</event>
<event>
 5    1  0.1087513E-008  0.3818089E+03  0.7957747E-01  0.3443320E+00
         13   -1    0    0    0    0  0.00000000000E+00  0.00000000000E+00  0.14999999963E+04  0.15000000000E+04  0.10566000000E+00 0.  1.
        994   -1    0    0    0    0 -0.00000000000E+00 -0.00000000000E+00  0.11368683772E-12  0.17120000000E+03  0.17120000000E+03 0.  0.
         13    1    1    2    0    0  0.17031962566E+02 -0.56032559506E+01  0.49507414293E+02  0.52654339424E+02  0.10566000000E+00 0.  1.
        994    1    1    2    0    0 -0.66927149538E+01  0.56017298421E+01  0.34759695211E+01  0.17145755794E+03  0.17120000000E+03 0.  0.
        998    1    1    2    0    0 -0.10339247612E+02  0.15261085165E-02  0.14470166125E+04  0.14470881026E+04  0.10000000000E+02 0.  1.
</event>
<event>
 5    1  0.1087513E-008  0.2882392E+03  0.7957747E-01  0.3983731E+00
         13   -1    0    0    0    0  0.00000000000E+00  0.00000000000E+00  0.14999999963E+04  0.15000000000E+04  0.10566000000E+00 0. -1.
        994   -1    0    0    0    0 -0.00000000000E+00 -0.00000000000E+00  0.11368683772E-12  0.17120000000E+03  0.17120000000E+03 0.  0.
         13    1    1    2    0    0  0.60042534084E+02  0.10649435678E+03  0.71909644685E+03  0.72941474139E+03  0.10566000000E+00 0. -1.
        994    1    1    2    0    0 -0.64487906647E+02 -0.23322691894E+02  0.30766768901E+02  0.18697238333E+03  0.17120000000E+03 0.  0.
        998    1    1    2    0    0  0.44453725629E+01 -0.83171664889E+02  0.75013678053E+03  0.75481287527E+03  0.10000000000E+02 0. -1.
</event>
<event>
 5    1  0.1087513E-008  0.3844515E+03  0.7957747E-01  0.3432002E+00
         13   -1    0    0    0    0  0.00000000000E+00  0.00000000000E+00  0.14999999963E+04  0.15000000000E+04  0.10566000000E+00 0. -1.
        994   -1    0    0    0    0 -0.00000000000E+00 -0.00000000000E+00  0.11368683772E-12  0.17120000000E+03  0.17120000000E+03 0.  0.
         13    1    1    2    0    0  0.13645981895E+02  0.42630449446E+01  0.51956216616E+02  0.53887345298E+02  0.10566000000E+00 0. -1.
        994    1    1    2    0    0 -0.15902183653E+02  0.12657537043E+01  0.27415323376E+01  0.17196347745E+03  0.17120000000E+03 0.  0.
        998    1    1    2    0    0  0.22562017572E+01 -0.55287986489E+01  0.14453022473E+04  0.14453491773E+04  0.10000000000E+02 0. -1.
</event>
<event>
 5    1  0.1087513E-008  0.3744397E+03  0.7957747E-01  0.3475732E+00
         13   -1    0    0    0    0  0.00000000000E+00  0.00000000000E+00  0.14999999963E+04  0.15000000000E+04  0.10566000000E+00 0.  1.
        994   -1    0    0    0    0 -0.00000000000E+00 -0.00000000000E+00  0.11368683772E-12  0.17120000000E+03  0.17120000000E+03 0.  0.
         13    1    1    2    0    0  0.93462382845E+01  0.92029910406E+01  0.91197031827E+01  0.15975836890E+02  0.10566000000E+00 0.  1.
        994    1    1    2    0    0 -0.15830687407E+02 -0.32124620733E+01  0.78558440135E+01  0.17213972482E+03  0.17120000000E+03 0.  0.
        998    1    1    2    0    0  0.64844491223E+01 -0.59905289674E+01  0.14830244491E+04  0.14830844383E+04  0.10000000000E+02 0.  1.
</event>
<event>
 5    1  0.1087513E-008  0.3856033E+03  0.7957747E-01  0.3427117E+00
         13   -1    0    0    0    0  0.00000000000E+00  0.00000000000E+00  0.14999999963E+04  0.15000000000E+04  0.10566000000E+00 0.  1.
        994   -1    0    0    0    0 -0.00000000000E+00 -0.00000000000E+00  0.11368683772E-12  0.17120000000E+03  0.17120000000E+03 0.  0.
         13    1    1    2    0    0 -0.51811708162E+01 -0.11621007909E+02  0.61949754008E+02  0.63242988082E+02  0.10566000000E+00 0.  1.
        994    1    1    2    0    0  0.89267747487E+01  0.34049697973E+01  0.16305558277E+01  0.17147413752E+03  0.17120000000E+03 0.  0.
        998    1    1    2    0    0 -0.37456039325E+01  0.82160381121E+01  0.14364196864E+04  0.14364828744E+04  0.10000000000E+02 0.  1.
</event>
<event>
 5    1  0.1087513E-008  0.3790223E+03  0.7957747E-01  0.3455427E+00
         13   -1    0    0    0    0  0.00000000000E+00  0.00000000000E+00  0.14999999963E+04  0.15000000000E+04  0.10566000000E+00 0. -1.
        994   -1    0    0    0    0 -0.00000000000E+00 -0.00000000000E+00  0.11368683772E-12  0.17120000000E+03  0.17120000000E+03 0.  0.
         13    1    1    2    0    0  0.27750223680E+02  0.23086321607E+02  0.16477371395E+03  0.16868147833E+03  0.10566000000E+00 0. -1.
        994    1    1    2    0    0 -0.55076978776E+02  0.60504169286E+02  0.27416233517E+02  0.19171676492E+03  0.17120000000E+03 0.  0.
        998    1    1    2    0    0  0.27326755096E+02 -0.83590490892E+02  0.13078100488E+04  0.13108017567E+04  0.10000000000E+02 0. -1.
</event>
<event>
 5    1  0.1087513E-008  0.3777670E+03  0.7957747E-01  0.3460939E+00
         13   -1    0    0    0    0  0.00000000000E+00  0.00000000000E+00  0.14999999963E+04  0.15000000000E+04  0.10566000000E+00 0. -1.
        994   -1    0    0    0    0 -0.00000000000E+00 -0.00000000000E+00  0.11368683772E-12  0.17120000000E+03  0.17120000000E+03 0.  0.
         13    1    1    2    0    0  0.39126710004E+02 -0.16115477513E+02  0.23095181509E+03  0.23479642269E+03  0.10566000000E+00 0. -1.
        994    1    1    2    0    0  0.37018129091E+02  0.70831255440E+02  0.27087139943E+02  0.19086791710E+03  0.17120000000E+03 0.  0.
        998    1    1    2    0    0 -0.76144839095E+02 -0.54715777926E+02  0.12419610412E+04  0.12455356602E+04  0.10000000000E+02 0. -1.
</event>
<event>
 5    1  0.1087513E-008  0.3861816E+03  0.7957747E-01  0.3424676E+00
         13   -1    0    0    0    0  0.00000000000E+00  0.00000000000E+00  0.14999999963E+04  0.15000000000E+04  0.10566000000E+00 0. -1.
        994   -1    0    0    0    0 -0.00000000000E+00 -0.00000000000E+00  0.11368683772E-12  0.17120000000E+03  0.17120000000E+03 0.  0.
         13    1    1    2    0    0  0.58860012267E+01  0.99948978424E+01  0.66561410206E+02  0.67564602315E+02  0.10566000000E+00 0. -1.
        994    1    1    2    0    0  0.20084758951E+01 -0.75559017708E+01  0.12448826848E+01  0.17138294944E+03  0.17120000000E+03 0.  0.
        998    1    1    2    0    0 -0.78944771218E+01 -0.24389960716E+01  0.14321937034E+04  0.14322524482E+04  0.10000000000E+02 0. -1.
</event>
<event>
 5    1  0.1087513E-008  0.3693594E+03  0.7957747E-01  0.3498840E+00
         13   -1    0    0    0    0  0.00000000000E+00  0.00000000000E+00  0.14999999963E+04  0.15000000000E+04  0.10566000000E+00 0. -1.
        994   -1    0    0    0    0 -0.00000000000E+00 -0.00000000000E+00  0.11368683772E-12  0.17120000000E+03  0.17120000000E+03 0.  0.
         13    1    1    2    0    0  0.42937875187E+02 -0.98326864862E+02  0.44696824519E+03  0.45966559241E+03  0.10566000000E+00 0. -1.
        994    1    1    2    0    0 -0.10781452688E+02  0.90312348406E+02  0.40041435822E+02  0.19795281402E+03  0.17120000000E+03 0.  0.
        998    1    1    2    0    0 -0.32156422499E+02  0.80145164562E+01  0.10129903153E+04  0.10135815936E+04  0.10000000000E+02 0. -1.
</event>
<event>
 5    1  0.1087513E-008  0.3809545E+03  0.7957747E-01  0.3447013E+00
         13   -1    0    0    0    0  0.00000000000E+00  0.00000000000E+00  0.14999999963E+04  0.15000000000E+04  0.10566000000E+00 0. -1.
        994   -1    0    0    0    0 -0.00000000000E+00 -0.00000000000E+00  0.11368683772E-12  0.17120000000E+03  0.17120000000E+03 0.  0.
         13    1    1    2    0    0  0.46751581190E+02 -0.81610073618E+02  0.47779920451E+03  0.48696817704E+03  0.10566000000E+00 0. -1.
        994    1    1    2    0    0  0.36469675425E+02 -0.65513205434E+01  0.21861251943E+02  0.17652283525E+03  0.17120000000E+03 0.  0.
        998    1    1    2    0    0 -0.83221256614E+02  0.88161394162E+02  0.10003395398E+04  0.10077089877E+04  0.10000000000E+02 0. -1.
</event>
<event>
 5    1  0.1087513E-008  0.3843056E+03  0.7957747E-01  0.3432623E+00
         13   -1    0    0    0    0  0.00000000000E+00  0.00000000000E+00  0.14999999963E+04  0.15000000000E+04  0.10566000000E+00 0. -1.
        994   -1    0    0    0    0 -0.00000000000E+00 -0.00000000000E+00  0.11368683772E-12  0.17120000000E+03  0.17120000000E+03 0.  0.
         13    1    1    2    0    0 -0.88417140511E+01  0.81214931564E+01  0.35824310077E+02  0.37782627158E+02  0.10566000000E+00 0. -1.
        994    1    1    2    0    0  0.43865287031E+01 -0.93281166609E+01  0.23256139769E+01  0.17152581110E+03  0.17120000000E+03 0.  0.
        998    1    1    2    0    0  0.44551853480E+01  0.12066235045E+01  0.14618500722E+04  0.14618915617E+04  0.10000000000E+02 0. -1.
</event>
<event>
 5    1  0.1087513E-008  0.3715498E+03  0.7957747E-01  0.3488799E+00
         13   -1    0    0    0    0  0.00000000000E+00  0.00000000000E+00  0.14999999963E+04  0.15000000000E+04  0.10566000000E+00 0. -1.
        994   -1    0    0    0    0 -0.00000000000E+00 -0.00000000000E+00  0.11368683772E-12  0.17120000000E+03  0.17120000000E+03 0.  0.
         13    1    1    2    0    0 -0.26612975337E+02  0.46712792069E+02  0.14722478921E+03  0.15673380338E+03  0.10566000000E+00 0. -1.
        994    1    1    2    0    0  0.39459141970E+02 -0.47531551464E+02  0.21702916089E+02  0.18329410475E+03  0.17120000000E+03 0.  0.
        998    1    1    2    0    0 -0.12846166632E+02  0.81875939543E+00  0.13310722910E+04  0.13311720919E+04  0.10000000000E+02 0. -1.
</event>
<event>
 5    1  0.1087513E-008  0.3846325E+03  0.7957747E-01  0.3431232E+00
         13   -1    0    0    0    0  0.00000000000E+00  0.00000000000E+00  0.14999999963E+04  0.15000000000E+04  0.10566000000E+00 0.  1.
        994   -1    0    0    0    0 -0.00000000000E+00 -0.00000000000E+00  0.11368683772E-12  0.17120000000E+03  0.17120000000E+03 0.  0.
         13    1    1    2    0    0  0.10024282629E+02  0.17456266528E+02  0.11533846765E+03  0.11708194040E+03  0.10566000000E+00 0.  1.
        994    1    1    2    0    0 -0.89274432592E+01 -0.48192948658E+01  0.21516534557E+01  0.17151383168E+03  0.17120000000E+03 0.  0.
        998    1    1    2    0    0 -0.10968393694E+01 -0.12636971663E+02  0.13825098752E+04  0.13826042279E+04  0.10000000000E+02 0.  1.
</event>
<event>
 5    1  0.1087513E-008  0.3786427E+03  0.7957747E-01  0.3457090E+00
         13   -1    0    0    0    0  0.00000000000E+00  0.00000000000E+00  0.14999999963E+04  0.15000000000E+04  0.10566000000E+00 0.  1.
        994   -1    0    0    0    0 -0.00000000000E+00 -0.00000000000E+00  0.11368683772E-12  0.17120000000E+03  0.17120000000E+03 0.  0.
         13    1    1    2    0    0  0.10863121680E+02  0.35280236779E+02  0.14126304007E+03  0.14600671277E+03  0.10566000000E+00 0.  1.
        994    1    1    2    0    0 -0.22985681838E+02 -0.14036669087E+02  0.72594869013E+01  0.17345751583E+03  0.17120000000E+03 0.  0.
        998    1    1    2    0    0  0.12122560158E+02 -0.21243567692E+02  0.13514774693E+04  0.13517357714E+04  0.10000000000E+02 0.  1.
</event>
<event>
 5    1  0.1087513E-008  0.3857592E+03  0.7957747E-01  0.3426459E+00
         13   -1    0    0    0    0  0.00000000000E+00  0.00000000000E+00  0.14999999963E+04  0.15000000000E+04  0.10566000000E+00 0. -1.
        994   -1    0    0    0    0 -0.00000000000E+00 -0.00000000000E+00  0.11368683772E-12  0.17120000000E+03  0.17120000000E+03 0.  0.
         13    1    1    2    0    0  0.57707412935E+01 -0.12486384899E+02  0.76161254414E+02  0.77393533973E+02  0.10566000000E+00 0. -1.
        994    1    1    2    0    0 -0.69412160005E+01  0.66168968120E+01  0.15554529395E+01  0.17147543042E+03  0.17120000000E+03 0.  0.
        998    1    1    2    0    0  0.11704747070E+01  0.58694880874E+01  0.14222832889E+04  0.14223310356E+04  0.10000000000E+02 0. -1.
</event>
<event>
 5    1  0.1087513E-008  0.3859016E+03  0.7957747E-01  0.3425857E+00
         13   -1    0    0    0    0  0.00000000000E+00  0.00000000000E+00  0.14999999963E+04  0.15000000000E+04  0.10566000000E+00 0. -1.
        994   -1    0    0    0    0 -0.00000000000E+00 -0.00000000000E+00  0.11368683772E-12  0.17120000000E+03  0.17120000000E+03 0.  0.
         13    1    1    2    0    0  0.59959111180E+01 -0.10077015232E+02  0.64762730269E+02  0.65815800398E+02  0.10566000000E+00 0. -1.
        994    1    1    2    0    0 -0.26057722397E-01 -0.60948490248E+01  0.13049775794E+01  0.17131342863E+03  0.17120000000E+03 0.  0.
        998    1    1    2    0    0 -0.59698533956E+01  0.16171864257E+02  0.14339322884E+04  0.14340707710E+04  0.10000000000E+02 0. -1.
</event>
<event>
 5    1  0.1087513E-008  0.3847753E+03  0.7957747E-01  0.3430626E+00
         13   -1    0    0    0    0  0.00000000000E+00  0.00000000000E+00  0.14999999963E+04  0.15000000000E+04  0.10566000000E+00 0.  1.
        994   -1    0    0    0    0 -0.00000000000E+00 -0.00000000000E+00  0.11368683772E-12  0.17120000000E+03  0.17120000000E+03 0.  0.
         13    1    1    2    0    0 -0.19708800103E+02 -0.20378495980E+01  0.10648626899E+03  0.10831401700E+03  0.10566000000E+00 0.  1.
        994    1    1    2    0    0  0.19823158072E+02 -0.17717273970E+00  0.30361394439E+01  0.17237066783E+03  0.17120000000E+03 0.  0.
        998    1    1    2    0    0 -0.11435796891E+00  0.22150223378E+01  0.13904775878E+04  0.13905153152E+04  0.10000000000E+02 0.  1.
</event>
<event>
 5    1  0.1087513E-008  0.3828980E+03  0.7957747E-01  0.3438636E+00
         13   -1    0    0    0    0  0.00000000000E+00  0.00000000000E+00  0.14999999963E+04  0.15000000000E+04  0.10566000000E+00 0. -1.
        994   -1    0    0    0    0 -0.00000000000E+00 -0.00000000000E+00  0.11368683772E-12  0.17120000000E+03  0.17120000000E+03 0.  0.
         13    1    1    2    0    0  0.20062688672E+02  0.59524680159E+01  0.78119880387E+02  0.80874410217E+02  0.10566000000E+00 0. -1.
        994    1    1    2    0    0 -0.19514690889E+02 -0.40266582824E+01  0.39931235598E+01  0.17240192045E+03  0.17120000000E+03 0.  0.
        998    1    1    2    0    0 -0.54799778302E+00 -0.19258097335E+01  0.14178869923E+04  0.14179236693E+04  0.10000000000E+02 0. -1.
</event>
<event>
 5    1  0.1087513E-008  0.3693329E+03  0.7957747E-01  0.3498963E+00
         13   -1    0    0    0    0  0.00000000000E+00  0.00000000000E+00  0.14999999963E+04  0.15000000000E+04  0.10566000000E+00 0.  1.
        994   -1    0    0    0    0 -0.00000000000E+00 -0.00000000000E+00  0.11368683772E-12  0.17120000000E+03  0.17120000000E+03 0.  0.
         13    1    1    2    0    0 -0.31290738154E+02  0.73851179311E+01  0.48437972432E+02  0.58136895328E+02  0.10566000000E+00 0.  1.
        994    1    1    2    0    0  0.31828765282E+02 -0.84428112101E+01  0.13385428664E+02  0.17485125410E+03  0.17120000000E+03 0.  0.
        998    1    1    2    0    0 -0.53802712814E+00  0.10576932790E+01  0.14381765952E+04  0.14382118506E+04  0.10000000000E+02 0.  1.
</event>
<event>
 5    1  0.1087513E-008  0.3758926E+03  0.7957747E-01  0.3469240E+00
         13   -1    0    0    0    0  0.00000000000E+00  0.00000000000E+00  0.14999999963E+04  0.15000000000E+04  0.10566000000E+00 0.  1.
        994   -1    0    0    0    0 -0.00000000000E+00 -0.00000000000E+00  0.11368683772E-12  0.17120000000E+03  0.17120000000E+03 0.  0.
         13    1    1    2    0    0 -0.53239768079E+02 -0.46130915112E+02  0.33243057767E+03  0.33981264598E+03  0.10566000000E+00 0.  1.
        994    1    1    2    0    0  0.63297420820E+02  0.23119517875E+02  0.21769384427E+02  0.18526851240E+03  0.17120000000E+03 0.  0.
        998    1    1    2    0    0 -0.10057652741E+02  0.23011397237E+02  0.11458000342E+04  0.11461188416E+04  0.10000000000E+02 0.  1.
</event>
<event>
 5    1  0.1087513E-008  0.3828901E+03  0.7957747E-01  0.3438670E+00
         13   -1    0    0    0    0  0.00000000000E+00  0.00000000000E+00  0.14999999963E+04  0.15000000000E+04  0.10566000000E+00 0.  1.
        994   -1    0    0    0    0 -0.00000000000E+00 -0.00000000000E+00  0.11368683772E-12  0.17120000000E+03  0.17120000000E+03 0.  0.
         13    1    1    2    0    0 -0.71043011664E+01  0.13477208979E+02  0.42420132991E+02  0.45073108435E+02  0.10566000000E+00 0.  1.
        994    1    1    2    0    0  0.53551435730E+01 -0.87567707586E+01  0.30302551868E+01  0.17153419788E+03  0.17120000000E+03 0.  0.
        998    1    1    2    0    0  0.17491575935E+01 -0.47204382203E+01  0.14545496081E+04  0.14545926937E+04  0.10000000000E+02 0.  1.
</event>
<event>
 5    1  0.1087513E-008  0.3705812E+03  0.7957747E-01  0.3493224E+00
         13   -1    0    0    0    0  0.00000000000E+00  0.00000000000E+00  0.14999999963E+04  0.15000000000E+04  0.10566000000E+00 0. -1.
        994   -1    0    0    0    0 -0.00000000000E+00 -0.00000000000E+00  0.11368683772E-12  0.17120000000E+03  0.17120000000E+03 0.  0.
         13    1    1    2    0    0 -0.20436028060E+02 -0.53179401511E+02  0.23965450380E+03  0.24633305167E+03  0.10566000000E+00 0. -1.
        994    1    1    2    0    0  0.14162831054E+02 -0.21522665922E+02  0.11259627311E+02  0.17349360259E+03  0.17120000000E+03 0.  0.
        998    1    1    2    0    0  0.62731970061E+01  0.74702067433E+02  0.12490858652E+04  0.12513733457E+04  0.10000000000E+02 0. -1.
</event>
<event>
 5    1  0.1087513E-008  0.3758971E+03  0.7957747E-01  0.3469220E+00
         13   -1    0    0    0    0  0.00000000000E+00  0.00000000000E+00  0.14999999963E+04  0.15000000000E+04  0.10566000000E+00 0.  1.
        994   -1    0    0    0    0 -0.00000000000E+00 -0.00000000000E+00  0.11368683772E-12  0.17120000000E+03  0.17120000000E+03 0.  0.
         13    1    1    2    0    0  0.14030319110E+01  0.99185525607E+01  0.52310181820E+01  0.11301367116E+02  0.10566000000E+00 0.  1.
        994    1    1    2    0    0 -0.43811158206E+00 -0.46698244943E+01  0.62933302146E+01  0.17137982731E+03  0.17120000000E+03 0.  0.
        998    1    1    2    0    0 -0.96492032893E+00 -0.52487280664E+01  0.14884756479E+04  0.14885188056E+04  0.10000000000E+02 0.  1.
</event>
<event>
 5    1  0.1087513E-008  0.3764702E+03  0.7957747E-01  0.3466673E+00
         13   -1    0    0    0    0  0.00000000000E+00  0.00000000000E+00  0.14999999963E+04  0.15000000000E+04  0.10566000000E+00 0.  1.
        994   -1    0    0    0    0 -0.00000000000E+00 -0.00000000000E+00  0.11368683772E-12  0.17120000000E+03  0.17120000000E+03 0.  0.
         13    1    1    2    0    0 -0.10838584240E+02  0.10007825697E+02  0.15533214456E+02  0.21422497494E+02  0.10566000000E+00 0.  1.
        994    1    1    2    0    0 -0.70362118218E+01 -0.31920284506E+02  0.95480013354E+01  0.17455376584E+03  0.17120000000E+03 0.  0.
        998    1    1    2    0    0  0.17874796062E+02  0.21912458809E+02  0.14749187805E+04  0.14752237367E+04  0.10000000000E+02 0.  1.
</event>
<event>
 5    1  0.1087513E-008  0.3736036E+03  0.7957747E-01  0.3479492E+00
         13   -1    0    0    0    0  0.00000000000E+00  0.00000000000E+00  0.14999999963E+04  0.15000000000E+04  0.10566000000E+00 0.  1.
        994   -1    0    0    0    0 -0.00000000000E+00 -0.00000000000E+00  0.11368683772E-12  0.17120000000E+03  0.17120000000E+03 0.  0.
         13    1    1    2    0    0  0.24319031830E+02 -0.39193086142E+02  0.13891373373E+03  0.14637127414E+03  0.10566000000E+00 0.  1.
        994    1    1    2    0    0 -0.24575214686E+02  0.21457353987E+02  0.11041294036E+02  0.17463020756E+03  0.17120000000E+03 0.  0.
        998    1    1    2    0    0  0.25618285643E+00  0.17735732154E+02  0.13500449685E+04  0.13501985183E+04  0.10000000000E+02 0.  1.
</event>
<event>
 5    1  0.1087513E-008  0.3697035E+03  0.7957747E-01  0.3497255E+00
         13   -1    0    0    0    0  0.00000000000E+00  0.00000000000E+00  0.14999999963E+04  0.15000000000E+04  0.10566000000E+00 0. -1.
        994   -1    0    0    0    0 -0.00000000000E+00 -0.00000000000E+00  0.11368683772E-12  0.17120000000E+03  0.17120000000E+03 0.  0.
         13    1    1    2    0    0  0.10427104360E+02  0.69176375026E+01  0.39138184980E+01  0.13111344447E+02  0.10566000000E+00 0. -1.
        994    1    1    2    0    0 -0.98300224214E+01 -0.99592193002E+01  0.10102146983E+02  0.17206774469E+03  0.17120000000E+03 0.  0.
        998    1    1    2    0    0 -0.59708193841E+00  0.30415817976E+01  0.14859840308E+04  0.14860209109E+04  0.10000000000E+02 0. -1.
</event>
<event>
 5    1  0.1087513E-008  0.3805887E+03  0.7957747E-01  0.3448599E+00
         13   -1    0    0    0    0  0.00000000000E+00  0.00000000000E+00  0.14999999963E+04  0.15000000000E+04  0.10566000000E+00 0. -1.
        994   -1    0    0    0    0 -0.00000000000E+00 -0.00000000000E+00  0.11368683772E-12  0.17120000000E+03  0.17120000000E+03 0.  0.
         13    1    1    2    0    0 -0.46604987056E+01 -0.24282568328E+02  0.76194313783E+02  0.80105854902E+02  0.10566000000E+00 0. -1.
        994    1    1    2    0    0 -0.47966916092E+00  0.21937209298E+02  0.54443234354E+01  0.17268628171E+03  0.17120000000E+03 0.  0.
        998    1    1    2    0    0  0.51401678665E+01  0.23453590294E+01  0.14183613591E+04  0.14184078634E+04  0.10000000000E+02 0. -1.
</event>
<event>
 5    1  0.1087513E-008  0.4167660E+03  0.7957747E-01  0.3305195E+00
         13   -1    0    0    0    0  0.00000000000E+00  0.00000000000E+00  0.14999999963E+04  0.15000000000E+04  0.10566000000E+00 0.  1.
        994   -1    0    0    0    0 -0.00000000000E+00 -0.00000000000E+00  0.11368683772E-12  0.17120000000E+03  0.17120000000E+03 0.  0.
         13    1    1    2    0    0  0.29689768148E+02 -0.26871309231E+02  0.54857541929E+01  0.40418489031E+02  0.10566000000E+00 0.  1.
        994    1    1    2    0    0 -0.34542138778E+02  0.32886880245E+02  0.47831372968E+02  0.18404343640E+03  0.17120000000E+03 0.  0.
        998    1    1    2    0    0  0.48523706307E+01 -0.60155710145E+01  0.14466828691E+04  0.14467380746E+04  0.10000000000E+02 0.  1.
</event>
<event>
 5    1  0.1087513E-008  0.3825633E+03  0.7957747E-01  0.3440073E+00
         13   -1    0    0    0    0  0.00000000000E+00  0.00000000000E+00  0.14999999963E+04  0.15000000000E+04  0.10566000000E+00 0. -1.
        994   -1    0    0    0    0 -0.00000000000E+00 -0.00000000000E+00  0.11368683772E-12  0.17120000000E+03  0.17120000000E+03 0.  0.
         13    1    1    2    0    0 -0.33206000242E+01  0.18166535480E+02  0.60165179465E+02  0.62935755973E+02  0.10566000000E+00 0. -1.
        994    1    1    2    0    0  0.11700145238E+02 -0.61193106930E+01  0.34228658670E+01  0.17174252640E+03  0.17120000000E+03 0.  0.
        998    1    1    2    0    0 -0.83795452139E+01 -0.12047224787E+02  0.14364119509E+04  0.14365217176E+04  0.10000000000E+02 0. -1.
</event>
<event>
 5    1  0.1087513E-008  0.3794182E+03  0.7957747E-01  0.3453696E+00
         13   -1    0    0    0    0  0.00000000000E+00  0.00000000000E+00  0.14999999963E+04  0.15000000000E+04  0.10566000000E+00 0.  1.
        994   -1    0    0    0    0 -0.00000000000E+00 -0.00000000000E+00  0.11368683772E-12  0.17120000000E+03  0.17120000000E+03 0.  0.
         13    1    1    2    0    0  0.26277339776E+02 -0.14820764752E+03  0.40900237802E+03  0.43581987307E+03  0.10566000000E+00 0.  1.
        994    1    1    2    0    0 -0.89114097312E+02  0.16052786255E+03  0.15058807831E+03  0.29274003198E+03  0.17120000000E+03 0.  0.
        998    1    1    2    0    0  0.62836757536E+02 -0.12320215032E+02  0.94040953994E+03  0.94264009495E+03  0.10000000000E+02 0.  1.
</event>
<event>
 5    1  0.1087513E-008  0.3843466E+03  0.7957747E-01  0.3432448E+00
         13   -1    0    0    0    0  0.00000000000E+00  0.00000000000E+00  0.14999999963E+04  0.15000000000E+04  0.10566000000E+00 0. -1.
        994   -1    0    0    0    0 -0.00000000000E+00 -0.00000000000E+00  0.11368683772E-12  0.17120000000E+03  0.17120000000E+03 0.  0.
         13    1    1    2    0    0  0.10091989206E+02  0.16025366609E+01  0.26170246880E+02  0.28094649948E+02  0.10566000000E+00 0. -1.
        994    1    1    2    0    0 -0.79311778510E+01  0.37642523816E+01  0.22089274158E+01  0.17143918029E+03  0.17120000000E+03 0.  0.
        998    1    1    2    0    0 -0.21608113551E+01 -0.53667890425E+01  0.14716208220E+04  0.14716661698E+04  0.10000000000E+02 0. -1.
</event>
<event>
 5    1  0.1087513E-008  0.3842887E+03  0.7957747E-01  0.3432694E+00
         13   -1    0    0    0    0  0.00000000000E+00  0.00000000000E+00  0.14999999963E+04  0.15000000000E+04  0.10566000000E+00 0. -1.
        994   -1    0    0    0    0 -0.00000000000E+00 -0.00000000000E+00  0.11368683772E-12  0.17120000000E+03  0.17120000000E+03 0.  0.
         13    1    1    2    0    0 -0.28391763954E+01 -0.14084815115E+02  0.50634020524E+02  0.52633241757E+02  0.10566000000E+00 0. -1.
        994    1    1    2    0    0  0.22452003407E+02  0.96044124063E+01  0.39518226279E+01  0.17297801622E+03  0.17120000000E+03 0.  0.
        998    1    1    2    0    0 -0.19612827012E+02  0.44804027090E+01  0.14454141531E+04  0.14455887420E+04  0.10000000000E+02 0. -1.
</event>
<event>
 5    1  0.1087513E-008  0.3816968E+03  0.7957747E-01  0.3443803E+00
         13   -1    0    0    0    0  0.00000000000E+00  0.00000000000E+00  0.14999999963E+04  0.15000000000E+04  0.10566000000E+00 0. -1.
        994   -1    0    0    0    0 -0.00000000000E+00 -0.00000000000E+00  0.11368683772E-12  0.17120000000E+03  0.17120000000E+03 0.  0.
         13    1    1    2    0    0  0.10154282629E+01  0.29437379364E+02  0.13133519405E+03  0.13459767739E+03  0.10566000000E+00 0. -1.
        994    1    1    2    0    0  0.11585188702E+02 -0.18070038283E+02  0.48121872175E+01  0.17260747384E+03  0.17120000000E+03 0.  0.
        998    1    1    2    0    0 -0.12600616965E+02 -0.11367341080E+02  0.13638526150E+04  0.13639948488E+04  0.10000000000E+02 0. -1.
</event>
<event>
 5    1  0.1087513E-008  0.3834251E+03  0.7957747E-01  0.3436379E+00
         13   -1    0    0    0    0  0.00000000000E+00  0.00000000000E+00  0.14999999963E+04  0.15000000000E+04  0.10566000000E+00 0.  1.
        994   -1    0    0    0    0 -0.00000000000E+00 -0.00000000000E+00  0.11368683772E-12  0.17120000000E+03  0.17120000000E+03 0.  0.
         13    1    1    2    0    0  0.51873131372E+01 -0.26117401033E+02  0.12979178946E+03  0.13249508153E+03  0.10566000000E+00 0.  1.
        994    1    1    2    0    0  0.65825935571E+01  0.34537958164E+02  0.65110936829E+01  0.17489435506E+03  0.17120000000E+03 0.  0.
        998    1    1    2    0    0 -0.11769906694E+02 -0.84205571308E+01  0.13636971131E+04  0.13638105634E+04  0.10000000000E+02 0.  1.
</event>
<event>
 5    1  0.1087513E-008  0.3755085E+03  0.7957747E-01  0.3470951E+00
         13   -1    0    0    0    0  0.00000000000E+00  0.00000000000E+00  0.14999999963E+04  0.15000000000E+04  0.10566000000E+00 0.  1.
        994   -1    0    0    0    0 -0.00000000000E+00 -0.00000000000E+00  0.11368683772E-12  0.17120000000E+03  0.17120000000E+03 0.  0.
         13    1    1    2    0    0  0.65274137270E+02 -0.16789807462E+02  0.37977392138E+03  0.38570824875E+03  0.10566000000E+00 0.  1.
        994    1    1    2    0    0 -0.27235356703E+02  0.14807955688E+02  0.96858993878E+01  0.17425354187E+03  0.17120000000E+03 0.  0.
        998    1    1    2    0    0 -0.38038780566E+02  0.19818517740E+01  0.11105401755E+04  0.11112382094E+04  0.10000000000E+02 0.  1.
</event>
<event>
 5    1  0.1087513E-008  0.3789276E+03  0.7957747E-01  0.3455841E+00
         13   -1    0    0    0    0  0.00000000000E+00  0.00000000000E+00  0.14999999963E+04  0.15000000000E+04  0.10566000000E+00 0.  1.
        994   -1    0    0    0    0 -0.00000000000E+00 -0.00000000000E+00  0.11368683772E-12  0.17120000000E+03  0.17120000000E+03 0.  0.
         13    1    1    2    0    0  0.28048210890E+02 -0.25114216580E+02  0.13638193307E+03  0.14148310443E+03  0.10566000000E+00 0.  1.
        994    1    1    2    0    0 -0.35404609454E+02  0.19194791869E+02  0.10136039109E+02  0.17616499566E+03  0.17120000000E+03 0.  0.
        998    1    1    2    0    0  0.73563985643E+01  0.59194247105E+01  0.13534820241E+04  0.13535518999E+04  0.10000000000E+02 0.  1.
</event>
<event>
 5    1  0.1087513E-008  0.3822039E+03  0.7957747E-01  0.3441618E+00
         13   -1    0    0    0    0  0.00000000000E+00  0.00000000000E+00  0.14999999963E+04  0.15000000000E+04  0.10566000000E+00 0. -1.
        994   -1    0    0    0    0 -0.00000000000E+00 -0.00000000000E+00  0.11368683772E-12  0.17120000000E+03  0.17120000000E+03 0.  0.
         13    1    1    2    0    0 -0.15268609530E+02 -0.27749823585E+01  0.39584512535E+02  0.42517946337E+02  0.10566000000E+00 0. -1.
        994    1    1    2    0    0  0.65031600046E+01 -0.81139366584E+01  0.33836719554E+01  0.17154887436E+03  0.17120000000E+03 0.  0.
        998    1    1    2    0    0  0.87654495257E+01  0.10888919017E+02  0.14570318118E+04  0.14571331793E+04  0.10000000000E+02 0. -1.
</event>
<event>
 5    1  0.1087513E-008  0.3797125E+03  0.7957747E-01  0.3452411E+00
         13   -1    0    0    0    0  0.00000000000E+00  0.00000000000E+00  0.14999999963E+04  0.15000000000E+04  0.10566000000E+00 0. -1.
        994   -1    0    0    0    0 -0.00000000000E+00 -0.00000000000E+00  0.11368683772E-12  0.17120000000E+03  0.17120000000E+03 0.  0.
         13    1    1    2    0    0  0.24410942674E+02 -0.33835557070E+02  0.24279247288E+03  0.24635124334E+03  0.10566000000E+00 0. -1.
        994    1    1    2    0    0 -0.61209492158E+01 -0.18005576526E+01  0.44145618224E+01  0.17137571702E+03  0.17120000000E+03 0.  0.
        998    1    1    2    0    0 -0.18289993458E+02  0.35636114723E+02  0.12527929616E+04  0.12534730396E+04  0.10000000000E+02 0. -1.
</event>
<event>
 5    1  0.1278893E-008  0.3858130E+03  0.7957747E-01  0.3426231E+00
         13   -1    0    0    0    0  0.00000000000E+00  0.00000000000E+00  0.14999999963E+04  0.15000000000E+04  0.10566000000E+00 0. -1.
        994   -1    0    0    0    0 -0.00000000000E+00 -0.00000000000E+00  0.11368683772E-12  0.17120000000E+03  0.17120000000E+03 0.  0.
         13    1    1    2    0    0 -0.93873536478E+01 -0.97726975705E+01  0.72945342280E+02  0.74193410426E+02  0.10566000000E+00 0. -1.
        994    1    1    2    0    0  0.60572283120E+01  0.12833470245E+02  0.18878567671E+01  0.17179753193E+03  0.17120000000E+03 0.  0.
        998    1    1    2    0    0  0.33301253358E+01 -0.30607726743E+01  0.14251667972E+04  0.14252090576E+04  0.10000000000E+02 0. -1.
</event>
<event>
 5    1  0.1087513E-008  0.3819029E+03  0.7957747E-01  0.3442914E+00
         13   -1    0    0    0    0  0.00000000000E+00  0.00000000000E+00  0.14999999963E+04  0.15000000000E+04  0.10566000000E+00 0. -1.
        994   -1    0    0    0    0 -0.00000000000E+00 -0.00000000000E+00  0.11368683772E-12  0.17120000000E+03  0.17120000000E+03 0.  0.
         13    1    1    2    0    0 -0.11995506716E+02 -0.10222939430E+02  0.35533608613E+02  0.38872216004E+02  0.10566000000E+00 0. -1.
        994    1    1    2    0    0  0.24990226384E+02  0.15398149859E+02  0.60432232525E+01  0.17380326516E+03  0.17120000000E+03 0.  0.
        998    1    1    2    0    0 -0.12994719668E+02 -0.51752104290E+01  0.14584231644E+04  0.14585245188E+04  0.10000000000E+02 0. -1.
</event>
<event>
 5    1  0.1087513E-008  0.2666696E+03  0.7957747E-01  0.4167040E+00
         13   -1    0    0    0    0  0.00000000000E+00  0.00000000000E+00  0.14999999963E+04  0.15000000000E+04  0.10566000000E+00 0.  1.
        994   -1    0    0    0    0 -0.00000000000E+00 -0.00000000000E+00  0.11368683772E-12  0.17120000000E+03  0.17120000000E+03 0.  0.
         13    1    1    2    0    0  0.13412689596E+03  0.10861050428E+03  0.32066701256E+03  0.36416151632E+03  0.10566000000E+00 0.  1.
        994    1    1    2    0    0 -0.15405062850E+03 -0.17036816905E+03  0.26466776025E+03  0.39001970781E+03  0.17120000000E+03 0.  0.
        998    1    1    2    0    0  0.19923732539E+02  0.61757664776E+02  0.91466522346E+03  0.91701877587E+03  0.10000000000E+02 0.  1.
</event>
<event>
 5    1  0.1087513E-008  0.3834702E+03  0.7957747E-01  0.3436186E+00
         13   -1    0    0    0    0  0.00000000000E+00  0.00000000000E+00  0.14999999963E+04  0.15000000000E+04  0.10566000000E+00 0. -1.
        994   -1    0    0    0    0 -0.00000000000E+00 -0.00000000000E+00  0.11368683772E-12  0.17120000000E+03  0.17120000000E+03 0.  0.
         13    1    1    2    0    0  0.28915325354E+02  0.88138236537E+01  0.17560298928E+03  0.17818585953E+03  0.10566000000E+00 0. -1.
        994    1    1    2    0    0 -0.22321936628E+02 -0.21005198216E+02  0.55028182578E+01  0.17400921877E+03  0.17120000000E+03 0.  0.
        998    1    1    2    0    0 -0.65933887255E+01  0.12191374562E+02  0.13188941887E+04  0.13190049217E+04  0.10000000000E+02 0. -1.
</event>
<event>
 5    1  0.1087513E-008  0.3781959E+03  0.7957747E-01  0.3459052E+00
         13   -1    0    0    0    0  0.00000000000E+00  0.00000000000E+00  0.14999999963E+04  0.15000000000E+04  0.10566000000E+00 0. -1.
        994   -1    0    0    0    0 -0.00000000000E+00 -0.00000000000E+00  0.11368683772E-12  0.17120000000E+03  0.17120000000E+03 0.  0.
         13    1    1    2    0    0  0.30699822266E+02 -0.87672391661E+02  0.27061072727E+03  0.28611030080E+03  0.10566000000E+00 0. -1.
        994    1    1    2    0    0 -0.39506429999E+02  0.49975442785E+02  0.30097116942E+02  0.18513124896E+03  0.17120000000E+03 0.  0.
        998    1    1    2    0    0  0.88066077330E+01  0.37696948875E+02  0.11992921521E+04  0.11999584502E+04  0.10000000000E+02 0. -1.
</event>
<event>
 5    1  0.1087513E-008  0.3831378E+03  0.7957747E-01  0.3437608E+00
         13   -1    0    0    0    0  0.00000000000E+00  0.00000000000E+00  0.14999999963E+04  0.15000000000E+04  0.10566000000E+00 0. -1.
        994   -1    0    0    0    0 -0.00000000000E+00 -0.00000000000E+00  0.11368683772E-12  0.17120000000E+03  0.17120000000E+03 0.  0.
         13    1    1    2    0    0 -0.79793501925E+01  0.27210227508E+02  0.13676179413E+03  0.13967056243E+03  0.10566000000E+00 0. -1.
        994    1    1    2    0    0  0.39794090452E+01 -0.35763877268E+02  0.68536287540E+01  0.17507513484E+03  0.17120000000E+03 0.  0.
        998    1    1    2    0    0  0.39999411473E+01  0.85536497605E+01  0.13563845734E+04  0.13564543027E+04  0.10000000000E+02 0. -1.
</event>
<event>
 5    1  0.1087513E-008  0.3770702E+03  0.7957747E-01  0.3464015E+00
         13   -1    0    0    0    0  0.00000000000E+00  0.00000000000E+00  0.14999999963E+04  0.15000000000E+04  0.10566000000E+00 0.  1.
        994   -1    0    0    0    0 -0.00000000000E+00 -0.00000000000E+00  0.11368683772E-12  0.17120000000E+03  0.17120000000E+03 0.  0.
         13    1    1    2    0    0  0.93544626878E+01 -0.18628705281E+02  0.35703856211E+02  0.41343816285E+02  0.10566000000E+00 0.  1.
        994    1    1    2    0    0 -0.86133536034E+01  0.18738821611E+02  0.70565210209E+01  0.17258206102E+03  0.17120000000E+03 0.  0.
        998    1    1    2    0    0 -0.74110908442E+00 -0.11011632956E+00  0.14572396190E+04  0.14572741227E+04  0.10000000000E+02 0.  0.
</event>
<event>
 5    1  0.1087513E-008  0.3793343E+03  0.7957747E-01  0.3454062E+00
         13   -1    0    0    0    0  0.00000000000E+00  0.00000000000E+00  0.14999999963E+04  0.15000000000E+04  0.10566000000E+00 0.  1.
        994   -1    0    0    0    0 -0.00000000000E+00 -0.00000000000E+00  0.11368683772E-12  0.17120000000E+03  0.17120000000E+03 0.  0.
         13    1    1    2    0    0  0.21800972716E+02  0.42610757740E+02  0.21510952771E+03  0.22037032278E+03  0.10566000000E+00 0.  1.
        994    1    1    2    0    0 -0.19557300274E+02 -0.47135385937E+02  0.13244409172E+02  0.17913427080E+03  0.17120000000E+03 0.  0.
        998    1    1    2    0    0 -0.22436724417E+01  0.45246281961E+01  0.12716460594E+04  0.12716954064E+04  0.10000000000E+02 0.  1.
</event>
<event>
 5    1  0.1087513E-008  0.3808092E+03  0.7957747E-01  0.3447642E+00
         13   -1    0    0    0    0  0.00000000000E+00  0.00000000000E+00  0.14999999963E+04  0.15000000000E+04  0.10566000000E+00 0. -1.
        994   -1    0    0    0    0 -0.00000000000E+00 -0.00000000000E+00  0.11368683772E-12  0.17120000000E+03  0.17120000000E+03 0.  0.
         13    1    1    2    0    0 -0.14449606226E+02 -0.10135019655E+02  0.42446566256E+02  0.45969902049E+02  0.10566000000E+00 0. -1.
        994    1    1    2    0    0  0.19548963621E+01 -0.56187876450E+01  0.38432150992E+01  0.17134644057E+03  0.17120000000E+03 0.  0.
        998    1    1    2    0    0  0.12494709864E+02  0.15753807300E+02  0.14537102149E+04  0.14538836574E+04  0.10000000000E+02 0. -1.
</event>
<event>
 5    1  0.1087513E-008  0.3798420E+03  0.7957747E-01  0.3451847E+00
         13   -1    0    0    0    0  0.00000000000E+00  0.00000000000E+00  0.14999999963E+04  0.15000000000E+04  0.10566000000E+00 0. -1.
        994   -1    0    0    0    0 -0.00000000000E+00 -0.00000000000E+00  0.11368683772E-12  0.17120000000E+03  0.17120000000E+03 0.  0.
         13    1    1    2    0    0  0.38715388794E+02  0.50837459662E+02  0.30371016171E+03  0.31035979464E+03  0.10566000000E+00 0. -1.
        994    1    1    2    0    0 -0.53170109844E+02 -0.72579470269E+02  0.31780868798E+02  0.19599567267E+03  0.17120000000E+03 0.  0.
        998    1    1    2    0    0  0.14454721050E+02  0.21742010606E+02  0.11645089658E+04  0.11648445327E+04  0.10000000000E+02 0. -1.
</event>
<event>
 5    1  0.1087513E-008  0.3804185E+03  0.7957747E-01  0.3449338E+00
         13   -1    0    0    0    0  0.00000000000E+00  0.00000000000E+00  0.14999999963E+04  0.15000000000E+04  0.10566000000E+00 0. -1.
        994   -1    0    0    0    0 -0.00000000000E+00 -0.00000000000E+00  0.11368683772E-12  0.17120000000E+03  0.17120000000E+03 0.  0.
         13    1    1    2    0    0  0.98682932105E+01  0.39028068555E+02  0.17019003019E+03  0.17488633705E+03  0.10566000000E+00 0. -1.
        994    1    1    2    0    0 -0.12574893899E+02 -0.49670415117E+02  0.12736198865E+02  0.17915615774E+03  0.17120000000E+03 0.  0.
        998    1    1    2    0    0  0.27066006889E+01  0.10642346561E+02  0.13170737672E+04  0.13171575052E+04  0.10000000000E+02 0. -1.
</event>
<event>
 5    1  0.1087513E-008  0.3852630E+03  0.7957747E-01  0.3428557E+00
         13   -1    0    0    0    0  0.00000000000E+00  0.00000000000E+00  0.14999999963E+04  0.15000000000E+04  0.10566000000E+00 0.  1.
        994   -1    0    0    0    0 -0.00000000000E+00 -0.00000000000E+00  0.11368683772E-12  0.17120000000E+03  0.17120000000E+03 0.  0.
         13    1    1    2    0    0  0.82674558131E+00  0.14523412874E+02  0.78654029444E+02  0.79988002486E+02  0.10566000000E+00 0.  1.
        994    1    1    2    0    0  0.56376515840E+01  0.44238143491E+01  0.16683680359E+01  0.17135803658E+03  0.17120000000E+03 0.  0.
        998    1    1    2    0    0 -0.64643971653E+01 -0.18947227223E+02  0.14196775988E+04  0.14198539609E+04  0.10000000000E+02 0.  1.
</event>
<event>
 5    1  0.1087513E-008  0.3840170E+03  0.7957747E-01  0.3433852E+00
         13   -1    0    0    0    0  0.00000000000E+00  0.00000000000E+00  0.14999999963E+04  0.15000000000E+04  0.10566000000E+00 0.  1.
        994   -1    0    0    0    0 -0.00000000000E+00 -0.00000000000E+00  0.11368683772E-12  0.17120000000E+03  0.17120000000E+03 0.  0.
         13    1    1    2    0    0 -0.10928056276E+02  0.57835783232E+01  0.35419110150E+02  0.37515286485E+02  0.10566000000E+00 0.  1.
        994    1    1    2    0    0  0.11521979044E+02  0.22180433303E+01  0.25733007662E+01  0.17162091246E+03  0.17120000000E+03 0.  0.
        998    1    1    2    0    0 -0.59392276733E+00 -0.80016216535E+01  0.14620075854E+04  0.14620638011E+04  0.10000000000E+02 0.  1.
</event>
<event>
 5    1  0.1087513E-008  0.3825494E+03  0.7957747E-01  0.3440133E+00
         13   -1    0    0    0    0  0.00000000000E+00  0.00000000000E+00  0.14999999963E+04  0.15000000000E+04  0.10566000000E+00 0.  1.
        994   -1    0    0    0    0 -0.00000000000E+00 -0.00000000000E+00  0.11368683772E-12  0.17120000000E+03  0.17120000000E+03 0.  0.
         13    1    1    2    0    0 -0.62652454706E+01 -0.12966663090E+02  0.37948790037E+02  0.40589524287E+02  0.10566000000E+00 0.  1.
        994    1    1    2    0    0 -0.11163566546E+02 -0.37750085940E+01  0.33122560713E+01  0.17163707918E+03  0.17120000000E+03 0.  0.
        998    1    1    2    0    0  0.17428812017E+02  0.16741671684E+02  0.14587389502E+04  0.14589733965E+04  0.10000000000E+02 0.  1.
</event>
<event>
 5    1  0.1146391E-008  0.3858767E+03  0.7957747E-01  0.3425963E+00
         13   -1    0    0    0    0  0.00000000000E+00  0.00000000000E+00  0.14999999963E+04  0.15000000000E+04  0.10566000000E+00 0. -1.
        994   -1    0    0    0    0 -0.00000000000E+00 -0.00000000000E+00  0.11368683772E-12  0.17120000000E+03  0.17120000000E+03 0.  0.
         13    1    1    2    0    0 -0.20442483864E+01  0.12898735803E+02  0.77309744383E+02  0.78405127877E+02  0.10566000000E+00 0. -1.
        994    1    1    2    0    0  0.62200663341E+01  0.10034806330E+01  0.13257003564E+01  0.17132102521E+03  0.17120000000E+03 0.  0.
        998    1    1    2    0    0 -0.41758179477E+01 -0.13902216436E+02  0.14213645515E+04  0.14214738469E+04  0.10000000000E+02 0. -1.
</event>
<event>
 5    1  0.1087513E-008  0.3849071E+03  0.7957747E-01  0.3430066E+00
         13   -1    0    0    0    0  0.00000000000E+00  0.00000000000E+00  0.14999999963E+04  0.15000000000E+04  0.10566000000E+00 0.  1.
        994   -1    0    0    0    0 -0.00000000000E+00 -0.00000000000E+00  0.11368683772E-12  0.17120000000E+03  0.17120000000E+03 0.  0.
         13    1    1    2    0    0 -0.84739376174E+00 -0.16710763939E+02  0.95848328722E+02  0.97297898181E+02  0.10566000000E+00 0.  1.
        994    1    1    2    0    0  0.98806635761E+01 -0.72205271147E+01  0.21690960153E+01  0.17165054181E+03  0.17120000000E+03 0.  0.
        998    1    1    2    0    0 -0.90332698143E+01  0.23931291054E+02  0.14019825715E+04  0.14022515600E+04  0.10000000000E+02 0.  1.
</event>
<event>
 5    1  0.1087513E-008  0.3749909E+03  0.7957747E-01  0.3473264E+00
         13   -1    0    0    0    0  0.00000000000E+00  0.00000000000E+00  0.14999999963E+04  0.15000000000E+04  0.10566000000E+00 0.  1.
        994   -1    0    0    0    0 -0.00000000000E+00 -0.00000000000E+00  0.11368683772E-12  0.17120000000E+03  0.17120000000E+03 0.  0.
         13    1    1    2    0    0  0.10578262856E+03  0.48939959120E+02  0.62339752681E+03  0.63419994615E+03  0.10566000000E+00 0.  1.
        994    1    1    2    0    0 -0.97585502840E+02 -0.51273431940E+02  0.49182987183E+02  0.20947625502E+03  0.17120000000E+03 0.  0.
        998    1    1    2    0    0 -0.81971257174E+01  0.23334728200E+01  0.82741948229E+03  0.82752379883E+03  0.10000000000E+02 0.  1.
</event>
<event>
 5    1  0.1087513E-008  0.3847313E+03  0.7957747E-01  0.3430813E+00
         13   -1    0    0    0    0  0.00000000000E+00  0.00000000000E+00  0.14999999963E+04  0.15000000000E+04  0.10566000000E+00 0.  1.
        994   -1    0    0    0    0 -0.00000000000E+00 -0.00000000000E+00  0.11368683772E-12  0.17120000000E+03  0.17120000000E+03 0.  0.
         13    1    1    2    0    0 -0.19686760971E+02  0.47545134671E+01  0.10246568263E+03  0.10444807914E+03  0.10566000000E+00 0.  1.
        994    1    1    2    0    0  0.24391457598E+02 -0.27831890000E+02  0.62845849501E+01  0.17526692019E+03  0.17120000000E+03 0.  0.
        998    1    1    2    0    0 -0.47046966273E+01  0.23077376533E+02  0.13912497287E+04  0.13914850007E+04  0.10000000000E+02 0.  1.
</event>
<event>
 5    1  0.1087513E-008  0.3801385E+03  0.7957747E-01  0.3450556E+00
         13   -1    0    0    0    0  0.00000000000E+00  0.00000000000E+00  0.14999999963E+04  0.15000000000E+04  0.10566000000E+00 0. -1.
        994   -1    0    0    0    0 -0.00000000000E+00 -0.00000000000E+00  0.11368683772E-12  0.17120000000E+03  0.17120000000E+03 0.  0.
         13    1    1    2    0    0  0.21114759491E+02  0.10681792235E+02  0.76051594244E+02  0.79647912118E+02  0.10566000000E+00 0. -1.
        994    1    1    2    0    0  0.74020850223E+01  0.99287054489E+01  0.45758970735E+01  0.17170832504E+03  0.17120000000E+03 0.  0.
        998    1    1    2    0    0 -0.28516844514E+02 -0.20610497684E+02  0.14193725050E+04  0.14198437628E+04  0.10000000000E+02 0. -1.
</event>
<event>
 5    1  0.1087513E-008  0.3778558E+03  0.7957747E-01  0.3460548E+00
         13   -1    0    0    0    0  0.00000000000E+00  0.00000000000E+00  0.14999999963E+04  0.15000000000E+04  0.10566000000E+00 0.  1.
        994   -1    0    0    0    0 -0.00000000000E+00 -0.00000000000E+00  0.11368683772E-12  0.17120000000E+03  0.17120000000E+03 0.  0.
         13    1    1    2    0    0 -0.27095322151E+02  0.31515385763E+02  0.17525989921E+03  0.18012056923E+03  0.10566000000E+00 0.  1.
        994    1    1    2    0    0  0.90451951760E+01 -0.97803997938E+01  0.58171728448E+01  0.17181603905E+03  0.17120000000E+03 0.  0.
        998    1    1    2    0    0  0.18050126976E+02 -0.21734985969E+02  0.13189229242E+04  0.13192633917E+04  0.10000000000E+02 0.  1.
</event>
<event>
 5    1  0.2003248E-008  0.3863954E+03  0.7957747E-01  0.3423776E+00
         13   -1    0    0    0    0  0.00000000000E+00  0.00000000000E+00  0.14999999963E+04  0.15000000000E+04  0.10566000000E+00 0. -1.
        994   -1    0    0    0    0 -0.00000000000E+00 -0.00000000000E+00  0.11368683772E-12  0.17120000000E+03  0.17120000000E+03 0.  0.
         13    1    1    2    0    0 -0.76452806715E+01 -0.80920220041E+01  0.65215464842E+02  0.66158893244E+02  0.10566000000E+00 0. -1.
        994    1    1    2    0    0  0.81527682416E+01  0.76857139260E+01  0.13500134074E+01  0.17157156048E+03  0.17120000000E+03 0.  0.
        998    1    1    2    0    0 -0.50748757020E+00  0.40630807810E+00  0.14334345180E+04  0.14334695463E+04  0.10000000000E+02 0.  0.
</event>
<event>
 5    1  0.1087513E-008  0.3811433E+03  0.7957747E-01  0.3446195E+00
         13   -1    0    0    0    0  0.00000000000E+00  0.00000000000E+00  0.14999999963E+04  0.15000000000E+04  0.10566000000E+00 0.  1.
        994   -1    0    0    0    0 -0.00000000000E+00 -0.00000000000E+00  0.11368683772E-12  0.17120000000E+03  0.17120000000E+03 0.  0.
         13    1    1    2    0    0  0.66172959231E+01 -0.17901094817E+02  0.48144850170E+02  0.51789724492E+02  0.10566000000E+00 0.  1.
        994    1    1    2    0    0 -0.21771912994E+02  0.15223597086E+02  0.59111480214E+01  0.17334980754E+03  0.17120000000E+03 0.  0.
        998    1    1    2    0    0  0.15154617071E+02  0.26774977316E+01  0.14459439981E+04  0.14460604680E+04  0.10000000000E+02 0.  1.
</event>
<event>
 5    1  0.1087513E-008  0.3800110E+03  0.7957747E-01  0.3451111E+00
         13   -1    0    0    0    0  0.00000000000E+00  0.00000000000E+00  0.14999999963E+04  0.15000000000E+04  0.10566000000E+00 0. -1.
        994   -1    0    0    0    0 -0.00000000000E+00 -0.00000000000E+00  0.11368683772E-12  0.17120000000E+03  0.17120000000E+03 0.  0.
         13    1    1    2    0    0  0.11265002970E+02  0.14200361114E+02  0.38403213984E+02  0.42466087129E+02  0.10566000000E+00 0. -1.
        994    1    1    2    0    0 -0.22761852106E+01 -0.11753645256E+02  0.46068807790E+01  0.17167991305E+03  0.17120000000E+03 0.  0.
        998    1    1    2    0    0 -0.89888177598E+01 -0.24467158574E+01  0.14569899015E+04  0.14570539998E+04  0.10000000000E+02 0. -1.
</event>
<event>
 5    1  0.1087513E-008  0.3802975E+03  0.7957747E-01  0.3449864E+00
         13   -1    0    0    0    0  0.00000000000E+00  0.00000000000E+00  0.14999999963E+04  0.15000000000E+04  0.10566000000E+00 0.  1.
        994   -1    0    0    0    0 -0.00000000000E+00 -0.00000000000E+00  0.11368683772E-12  0.17120000000E+03  0.17120000000E+03 0.  0.
         13    1    1    2    0    0 -0.16112698366E+02  0.40180008568E+02  0.23138362137E+03  0.23539847820E+03  0.10566000000E+00 0.  1.
        994    1    1    2    0    0  0.29770598400E+01 -0.27070872635E+02  0.64639923046E+01  0.17347310520E+03  0.17120000000E+03 0.  0.
        998    1    1    2    0    0  0.13135638526E+02 -0.13109135933E+02  0.12621523826E+04  0.12623284166E+04  0.10000000000E+02 0.  1.
</event>
<event>
 5    1  0.1087513E-008  0.3842587E+03  0.7957747E-01  0.3432822E+00
         13   -1    0    0    0    0  0.00000000000E+00  0.00000000000E+00  0.14999999963E+04  0.15000000000E+04  0.10566000000E+00 0. -1.
        994   -1    0    0    0    0 -0.00000000000E+00 -0.00000000000E+00  0.11368683772E-12  0.17120000000E+03  0.17120000000E+03 0.  0.
         13    1    1    2    0    0  0.17891811625E+02 -0.16598053736E+00  0.92238673274E+02  0.93958120906E+02  0.10566000000E+00 0. -1.
        994    1    1    2    0    0  0.91657319612E+01  0.99380159490E+00  0.22788873777E+01  0.17146320775E+03  0.17120000000E+03 0.  0.
        998    1    1    2    0    0 -0.27057543586E+02 -0.82782105754E+00  0.14054824356E+04  0.14057786713E+04  0.10000000000E+02 0. -1.
</event>
<event>
 5    1  0.1087513E-008  0.3770446E+03  0.7957747E-01  0.3464129E+00
         13   -1    0    0    0    0  0.00000000000E+00  0.00000000000E+00  0.14999999963E+04  0.15000000000E+04  0.10566000000E+00 0.  1.
        994   -1    0    0    0    0 -0.00000000000E+00 -0.00000000000E+00  0.11368683772E-12  0.17120000000E+03  0.17120000000E+03 0.  0.
         13    1    1    2    0    0  0.22426819715E+02  0.12522194159E+02  0.55581112321E+02  0.61229394901E+02  0.10566000000E+00 0.  1.
        994    1    1    2    0    0 -0.22757248109E+02 -0.21197781851E+01  0.73980487650E+01  0.17287728864E+03  0.17120000000E+03 0.  0.
        998    1    1    2    0    0  0.33042839412E+00 -0.10402415974E+02  0.14370208352E+04  0.14370933165E+04  0.10000000000E+02 0.  1.
</event>
<event>
 5    1  0.1087513E-008  0.3859867E+03  0.7957747E-01  0.3425498E+00
         13   -1    0    0    0    0  0.00000000000E+00  0.00000000000E+00  0.14999999963E+04  0.15000000000E+04  0.10566000000E+00 0.  1.
        994   -1    0    0    0    0 -0.00000000000E+00 -0.00000000000E+00  0.11368683772E-12  0.17120000000E+03  0.17120000000E+03 0.  0.
         13    1    1    2    0    0 -0.35050349414E+01  0.10478357597E+02  0.53179184048E+02  0.54314988980E+02  0.10566000000E+00 0.  1.
        994    1    1    2    0    0  0.79295495195E+01 -0.79198903535E+01  0.15528983803E+01  0.17157346506E+03  0.17120000000E+03 0.  0.
        998    1    1    2    0    0 -0.44245145781E+01 -0.25584672433E+01  0.14452679139E+04  0.14453115460E+04  0.10000000000E+02 0.  1.
</event>
<event>
 5    1  0.1087513E-008  0.3853563E+03  0.7957747E-01  0.3428162E+00
         13   -1    0    0    0    0  0.00000000000E+00  0.00000000000E+00  0.14999999963E+04  0.15000000000E+04  0.10566000000E+00 0.  1.
        994   -1    0    0    0    0 -0.00000000000E+00 -0.00000000000E+00  0.11368683772E-12  0.17120000000E+03  0.17120000000E+03 0.  0.
         13    1    1    2    0    0 -0.11083074901E+02  0.86401435661E+01  0.68805195941E+02  0.70225727356E+02  0.10566000000E+00 0.  1.
        994    1    1    2    0    0  0.54446632484E+01 -0.59663758942E+01  0.16676741751E+01  0.17139855057E+03  0.17120000000E+03 0.  0.
        998    1    1    2    0    0  0.56384116527E+01 -0.26737676720E+01  0.14295271262E+04  0.14295757221E+04  0.10000000000E+02 0.  1.
</event>
<event>
 5    1  0.1087513E-008  0.3807888E+03  0.7957747E-01  0.3447731E+00
         13   -1    0    0    0    0  0.00000000000E+00  0.00000000000E+00  0.14999999963E+04  0.15000000000E+04  0.10566000000E+00 0. -1.
        994   -1    0    0    0    0 -0.00000000000E+00 -0.00000000000E+00  0.11368683772E-12  0.17120000000E+03  0.17120000000E+03 0.  0.
         13    1    1    2    0    0  0.18090206511E+02  0.75683432177E+01  0.49998396153E+02  0.53706481663E+02  0.10566000000E+00 0. -1.
        994    1    1    2    0    0 -0.14988671429E+02  0.10897352688E+01  0.44888772096E+01  0.17191695034E+03  0.17120000000E+03 0.  0.
        998    1    1    2    0    0 -0.31015350825E+01 -0.86580784864E+01  0.14455127229E+04  0.14455765680E+04  0.10000000000E+02 0. -1.
</event>
<event>
 5    1  0.1087513E-008  0.3850592E+03  0.7957747E-01  0.3429421E+00
         13   -1    0    0    0    0  0.00000000000E+00  0.00000000000E+00  0.14999999963E+04  0.15000000000E+04  0.10566000000E+00 0. -1.
        994   -1    0    0    0    0 -0.00000000000E+00 -0.00000000000E+00  0.11368683772E-12  0.17120000000E+03  0.17120000000E+03 0.  0.
         13    1    1    2    0    0  0.77952384048E+01  0.15543011812E+02  0.99218266605E+02  0.10073046486E+03  0.10566000000E+00 0. -1.
        994    1    1    2    0    0  0.14801126361E+02 -0.13832366015E+02  0.29513474691E+01  0.17241971506E+03  0.17120000000E+03 0.  0.
        998    1    1    2    0    0 -0.22596364765E+02 -0.17106457969E+01  0.13978303822E+04  0.13980498201E+04  0.10000000000E+02 0. -1.
</event>
<event>
 5    1  0.1087513E-008  0.3789883E+03  0.7957747E-01  0.3455576E+00
         13   -1    0    0    0    0  0.00000000000E+00  0.00000000000E+00  0.14999999963E+04  0.15000000000E+04  0.10566000000E+00 0.  1.
        994   -1    0    0    0    0 -0.00000000000E+00 -0.00000000000E+00  0.11368683772E-12  0.17120000000E+03  0.17120000000E+03 0.  0.
         13    1    1    2    0    0  0.76501966717E+02 -0.45679115702E+02  0.47177530943E+03  0.48011570093E+03  0.10566000000E+00 0.  1.
        994    1    1    2    0    0 -0.96977671448E+02  0.44762098214E+02  0.43914118743E+02  0.20650957368E+03  0.17120000000E+03 0.  0.
        998    1    1    2    0    0  0.20475704730E+02  0.91701748851E+00  0.98431056810E+03  0.98457472539E+03  0.10000000000E+02 0.  1.
</event>
<event>
 5    1  0.1087513E-008  0.3814733E+03  0.7957747E-01  0.3444768E+00
         13   -1    0    0    0    0  0.00000000000E+00  0.00000000000E+00  0.14999999963E+04  0.15000000000E+04  0.10566000000E+00 0. -1.
        994   -1    0    0    0    0 -0.00000000000E+00 -0.00000000000E+00  0.11368683772E-12  0.17120000000E+03  0.17120000000E+03 0.  0.
         13    1    1    2    0    0  0.23006628459E+02 -0.44568047697E+01  0.90825383985E+02  0.93799944573E+02  0.10566000000E+00 0. -1.
        994    1    1    2    0    0  0.52235034180E+01 -0.19127561384E+02  0.47002665689E+01  0.17240847165E+03  0.17120000000E+03 0.  0.
        998    1    1    2    0    0 -0.28230131877E+02  0.23584366154E+02  0.14044743457E+04  0.14049915838E+04  0.10000000000E+02 0. -1.
</event>
<event>
 5    1  0.1087513E-008  0.3847855E+03  0.7957747E-01  0.3430582E+00
         13   -1    0    0    0    0  0.00000000000E+00  0.00000000000E+00  0.14999999963E+04  0.15000000000E+04  0.10566000000E+00 0. -1.
        994   -1    0    0    0    0 -0.00000000000E+00 -0.00000000000E+00  0.11368683772E-12  0.17120000000E+03  0.17120000000E+03 0.  0.
         13    1    1    2    0    0 -0.27770258441E+01 -0.16131808175E+02  0.70812214885E+02  0.72679626090E+02  0.10566000000E+00 0. -1.
        994    1    1    2    0    0  0.17313064541E+02  0.21647121021E+02  0.42693174014E+01  0.17348200807E+03  0.17120000000E+03 0.  0.
        998    1    1    2    0    0 -0.14536038697E+02 -0.55153128459E+01  0.14249184640E+04  0.14250383658E+04  0.10000000000E+02 0. -1.
</event>
<event>
 5    1  0.1087513E-008  0.3790076E+03  0.7957747E-01  0.3455491E+00
         13   -1    0    0    0    0  0.00000000000E+00  0.00000000000E+00  0.14999999963E+04  0.15000000000E+04  0.10566000000E+00 0.  1.
        994   -1    0    0    0    0 -0.00000000000E+00 -0.00000000000E+00  0.11368683772E-12  0.17120000000E+03  0.17120000000E+03 0.  0.
         13    1    1    2    0    0 -0.12120523712E+02  0.63072596240E+01  0.18109006569E+02  0.22685587979E+02  0.10566000000E+00 0.  1.
        994    1    1    2    0    0  0.11143972214E+02 -0.21755225292E+01  0.50674615636E+01  0.17165092537E+03  0.17120000000E+03 0.  0.
        998    1    1    2    0    0  0.97655149829E+00 -0.41317370949E+01  0.14768235281E+04  0.14768634866E+04  0.10000000000E+02 0.  1.
</event>
<event>
 5    1  0.1087513E-008  0.3790917E+03  0.7957747E-01  0.3455123E+00
         13   -1    0    0    0    0  0.00000000000E+00  0.00000000000E+00  0.14999999963E+04  0.15000000000E+04  0.10566000000E+00 0.  1.
        994   -1    0    0    0    0 -0.00000000000E+00 -0.00000000000E+00  0.11368683772E-12  0.17120000000E+03  0.17120000000E+03 0.  0.
         13    1    1    2    0    0 -0.16105300758E+02  0.33034884532E+01  0.29734465523E+02  0.33977100412E+02  0.10566000000E+00 0.  1.
        994    1    1    2    0    0 -0.11402344837E+02  0.16535234113E+02  0.59462093497E+01  0.17247673710E+03  0.17120000000E+03 0.  0.
        998    1    1    2    0    0  0.27507645595E+02 -0.19838722566E+02  0.14643193214E+04  0.14647461625E+04  0.10000000000E+02 0.  1.
</event>
<event>
 5    1  0.1087513E-008  0.3838453E+03  0.7957747E-01  0.3434584E+00
         13   -1    0    0    0    0  0.00000000000E+00  0.00000000000E+00  0.14999999963E+04  0.15000000000E+04  0.10566000000E+00 0. -1.
        994   -1    0    0    0    0 -0.00000000000E+00 -0.00000000000E+00  0.11368683772E-12  0.17120000000E+03  0.17120000000E+03 0.  0.
         13    1    1    2    0    0 -0.16540164272E+03 -0.68727475870E+01  0.46816454428E+03  0.49657123332E+03  0.10566000000E+00 0. -1.
        994    1    1    2    0    0  0.16409777964E+03  0.74599065869E+01  0.12582343665E+03  0.26856043770E+03  0.17120000000E+03 0.  0.
        998    1    1    2    0    0  0.13038630788E+01 -0.58715899985E+00  0.90601201536E+03  0.90606832898E+03  0.10000000000E+02 0.  0.
</event>
<event>
 5    1  0.1087513E-008  0.3724074E+03  0.7957747E-01  0.3484899E+00
         13   -1    0    0    0    0  0.00000000000E+00  0.00000000000E+00  0.14999999963E+04  0.15000000000E+04  0.10566000000E+00 0.  1.
        994   -1    0    0    0    0 -0.00000000000E+00 -0.00000000000E+00  0.11368683772E-12  0.17120000000E+03  0.17120000000E+03 0.  0.
         13    1    1    2    0    0 -0.56632440739E+02 -0.82559813418E+02  0.55861420725E+03  0.56751493359E+03  0.10566000000E+00 0.  1.
        994    1    1    2    0    0  0.47458391563E+02  0.50881072307E+02  0.24804518822E+02  0.18645612514E+03  0.17120000000E+03 0.  0.
        998    1    1    2    0    0  0.91740491759E+01  0.31678741111E+02  0.91658127021E+03  0.91722894127E+03  0.10000000000E+02 0.  1.
</event>
<event>
 5    1  0.1087513E-008  0.3830888E+03  0.7957747E-01  0.3437818E+00
         13   -1    0    0    0    0  0.00000000000E+00  0.00000000000E+00  0.14999999963E+04  0.15000000000E+04  0.10566000000E+00 0.  1.
        994   -1    0    0    0    0 -0.00000000000E+00 -0.00000000000E+00  0.11368683772E-12  0.17120000000E+03  0.17120000000E+03 0.  0.
         13    1    1    2    0    0  0.69978279651E+02  0.22591037472E+03  0.11197125757E+04  0.11444163230E+04  0.10566000000E+00 0.  1.
        994    1    1    2    0    0 -0.55288136994E+02 -0.23742932814E+03  0.23355928718E+03  0.37853512992E+03  0.17120000000E+03 0.  0.
        998    1    1    2    0    0 -0.14690142657E+02  0.11518953419E+02  0.14672813337E+03  0.14824854705E+03  0.10000000000E+02 0. -1.
</event>
<event>
 5    1  0.1087513E-008  0.3835721E+03  0.7957747E-01  0.3435751E+00
         13   -1    0    0    0    0  0.00000000000E+00  0.00000000000E+00  0.14999999963E+04  0.15000000000E+04  0.10566000000E+00 0.  1.
        994   -1    0    0    0    0 -0.00000000000E+00 -0.00000000000E+00  0.11368683772E-12  0.17120000000E+03  0.17120000000E+03 0.  0.
         13    1    1    2    0    0  0.26250324565E+02 -0.22793973587E+01  0.14237770408E+03  0.14479536241E+03  0.10566000000E+00 0.  1.
        994    1    1    2    0    0 -0.20922237986E+02 -0.33697217473E+01  0.38259015967E+01  0.17254904401E+03  0.17120000000E+03 0.  0.
        998    1    1    2    0    0 -0.53280865784E+01  0.56491191060E+01  0.13537963906E+04  0.13538555936E+04  0.10000000000E+02 0.  1.
</event>
<event>
 5    1  0.1087513E-008  0.3815637E+03  0.7957747E-01  0.3444378E+00
         13   -1    0    0    0    0  0.00000000000E+00  0.00000000000E+00  0.14999999963E+04  0.15000000000E+04  0.10566000000E+00 0. -1.
        994   -1    0    0    0    0 -0.00000000000E+00 -0.00000000000E+00  0.11368683772E-12  0.17120000000E+03  0.17120000000E+03 0.  0.
         13    1    1    2    0    0 -0.69107757792E+01  0.14427138955E+02  0.36641737603E+02  0.39981611510E+02  0.10566000000E+00 0. -1.
        994    1    1    2    0    0  0.32240595700E+01 -0.13526174053E+02  0.39891508028E+01  0.17181008489E+03  0.17120000000E+03 0.  0.
        998    1    1    2    0    0  0.36867162092E+01 -0.90096490200E+00  0.14593691079E+04  0.14594083036E+04  0.10000000000E+02 0. -1.
</event>
<event>
 5    1  0.1087513E-008  0.3808676E+03  0.7957747E-01  0.3447390E+00
         13   -1    0    0    0    0  0.00000000000E+00  0.00000000000E+00  0.14999999963E+04  0.15000000000E+04  0.10566000000E+00 0.  1.
        994   -1    0    0    0    0 -0.00000000000E+00 -0.00000000000E+00  0.11368683772E-12  0.17120000000E+03  0.17120000000E+03 0.  0.
         13    1    1    2    0    0 -0.24067602726E+02  0.76295554274E+00  0.72599518170E+02  0.76488775678E+02  0.10566000000E+00 0.  1.
        994    1    1    2    0    0  0.28130468488E+02 -0.82941505028E+01  0.65682131510E+01  0.17381800141E+03  0.17120000000E+03 0.  0.
        998    1    1    2    0    0 -0.40628657620E+01  0.75311949601E+01  0.14208322650E+04  0.14208932229E+04  0.10000000000E+02 0.  1.
</event>
<event>
 5    1  0.1087513E-008  0.3781896E+03  0.7957747E-01  0.3459080E+00
         13   -1    0    0    0    0  0.00000000000E+00  0.00000000000E+00  0.14999999963E+04  0.15000000000E+04  0.10566000000E+00 0.  1.
        994   -1    0    0    0    0 -0.00000000000E+00 -0.00000000000E+00  0.11368683772E-12  0.17120000000E+03  0.17120000000E+03 0.  0.
         13    1    1    2    0    0 -0.10468830200E+01  0.15477530962E+02  0.21506404813E+02  0.26517664692E+02  0.10566000000E+00 0.  1.
        994    1    1    2    0    0  0.17079411088E+01 -0.14202818574E+02  0.57383300881E+01  0.17189242435E+03  0.17120000000E+03 0.  0.
        998    1    1    2    0    0 -0.66105808879E+00 -0.12747123881E+01  0.14727552614E+04  0.14727899110E+04  0.10000000000E+02 0.  1.
</event>
<event>
 5    1  0.1087513E-008  0.3709499E+03  0.7957747E-01  0.3491537E+00
         13   -1    0    0    0    0  0.00000000000E+00  0.00000000000E+00  0.14999999963E+04  0.15000000000E+04  0.10566000000E+00 0.  1.
        994   -1    0    0    0    0 -0.00000000000E+00 -0.00000000000E+00  0.11368683772E-12  0.17120000000E+03  0.17120000000E+03 0.  0.
         13    1    1    2    0    0  0.63466561063E+02 -0.61658434943E+02  0.33854561855E+03  0.34991843904E+03  0.10566000000E+00 0.  1.
        994    1    1    2    0    0 -0.58048637249E+02  0.15452942478E+02  0.24208715423E+02  0.18304081408E+03  0.17120000000E+03 0.  0.
        998    1    1    2    0    0 -0.54179238134E+01  0.46205492465E+02  0.11372456623E+04  0.11382407469E+04  0.10000000000E+02 0.  1.
</event>
<event>
 5    1  0.1087513E-008  0.3845686E+03  0.7957747E-01  0.3431504E+00
         13   -1    0    0    0    0  0.00000000000E+00  0.00000000000E+00  0.14999999963E+04  0.15000000000E+04  0.10566000000E+00 0.  1.
        994   -1    0    0    0    0 -0.00000000000E+00 -0.00000000000E+00  0.11368683772E-12  0.17120000000E+03  0.17120000000E+03 0.  0.
         13    1    1    2    0    0  0.71946693216E+01  0.83273181958E+01  0.30471033193E+02  0.32397569706E+02  0.10566000000E+00 0.  1.
        994    1    1    2    0    0  0.62872597418E+01 -0.35642487234E+02  0.61703278606E+01  0.17509263113E+03  0.17120000000E+03 0.  0.
        998    1    1    2    0    0 -0.13481929063E+02  0.27315169038E+02  0.14633586352E+04  0.14637097992E+04  0.10000000000E+02 0.  1.
</event>
<event>
 5    1  0.1087513E-008  0.3871242E+03  0.7957747E-01  0.3420713E+00
         13   -1    0    0    0    0  0.00000000000E+00  0.00000000000E+00  0.14999999963E+04  0.15000000000E+04  0.10566000000E+00 0.  1.
        994   -1    0    0    0    0 -0.00000000000E+00 -0.00000000000E+00  0.11368683772E-12  0.17120000000E+03  0.17120000000E+03 0.  0.
         13    1    1    2    0    0 -0.12168390473E+03  0.21329541097E+01  0.31291321550E+03  0.33574724684E+03  0.10566000000E+00 0.  1.
        994    1    1    2    0    0  0.10050722375E+03 -0.27430893711E+02  0.61917536706E+02  0.20975551794E+03  0.17120000000E+03 0.  0.
        998    1    1    2    0    0  0.21176680979E+02  0.25297939601E+02  0.11251692441E+04  0.11256972352E+04  0.10000000000E+02 0.  1.
</event>
<event>
 5    1  0.1087513E-008  0.3806407E+03  0.7957747E-01  0.3448373E+00
         13   -1    0    0    0    0  0.00000000000E+00  0.00000000000E+00  0.14999999963E+04  0.15000000000E+04  0.10566000000E+00 0.  1.
        994   -1    0    0    0    0 -0.00000000000E+00 -0.00000000000E+00  0.11368683772E-12  0.17120000000E+03  0.17120000000E+03 0.  0.
         13    1    1    2    0    0 -0.52563808936E+01  0.26848785243E+02  0.11079510577E+03  0.11412297506E+03  0.10566000000E+00 0.  1.
        994    1    1    2    0    0 -0.84570783150E+00  0.66842167780E+01  0.39615143427E+01  0.17137831710E+03  0.17120000000E+03 0.  0.
        998    1    1    2    0    0  0.61020887251E+01 -0.33533002021E+02  0.13852433762E+04  0.13856987078E+04  0.10000000000E+02 0.  1.
</event>
<event>
 5    1  0.1087513E-008  0.3831397E+03  0.7957747E-01  0.3437600E+00
         13   -1    0    0    0    0  0.00000000000E+00  0.00000000000E+00  0.14999999963E+04  0.15000000000E+04  0.10566000000E+00 0.  1.
        994   -1    0    0    0    0 -0.00000000000E+00 -0.00000000000E+00  0.11368683772E-12  0.17120000000E+03  0.17120000000E+03 0.  0.
         13    1    1    2    0    0 -0.14546892090E+02 -0.22469697050E+02  0.15783201464E+03  0.16008577502E+03  0.10566000000E+00 0.  1.
        994    1    1    2    0    0  0.72607252584E+01 -0.33158141248E+01  0.27673924033E+01  0.17140831723E+03  0.17120000000E+03 0.  0.
        998    1    1    2    0    0  0.72861668319E+01  0.25785511174E+02  0.13394005892E+04  0.13397059078E+04  0.10000000000E+02 0.  1.
</event>
<event>
 5    1  0.1087513E-008  0.3802627E+03  0.7957747E-01  0.3450015E+00
         13   -1    0    0    0    0  0.00000000000E+00  0.00000000000E+00  0.14999999963E+04  0.15000000000E+04  0.10566000000E+00 0.  1.
        994   -1    0    0    0    0 -0.00000000000E+00 -0.00000000000E+00  0.11368683772E-12  0.17120000000E+03  0.17120000000E+03 0.  0.
         13    1    1    2    0    0 -0.30171960533E+02 -0.22618255265E+02  0.21424175081E+03  0.21753498943E+03  0.10566000000E+00 0.  1.
        994    1    1    2    0    0  0.10632582972E+01 -0.51441037991E+01  0.40927644380E+01  0.17132945760E+03  0.17120000000E+03 0.  0.
        998    1    1    2    0    0  0.29108702236E+02  0.27762359064E+02  0.12816654810E+04  0.12823355530E+04  0.10000000000E+02 0.  1.
</event>
<event>
 5    1  0.1087513E-008  0.3832805E+03  0.7957747E-01  0.3436998E+00
         13   -1    0    0    0    0  0.00000000000E+00  0.00000000000E+00  0.14999999963E+04  0.15000000000E+04  0.10566000000E+00 0.  1.
        994   -1    0    0    0    0 -0.00000000000E+00 -0.00000000000E+00  0.11368683772E-12  0.17120000000E+03  0.17120000000E+03 0.  0.
         13    1    1    2    0    0 -0.98347504912E+01  0.12489696136E+02  0.48552008668E+02  0.51088389449E+02  0.10566000000E+00 0.  1.
        994    1    1    2    0    0  0.13690286442E+02 -0.11477769947E+02  0.35424558681E+01  0.17216605978E+03  0.17120000000E+03 0.  0.
        998    1    1    2    0    0 -0.38555359509E+01 -0.10119261899E+01  0.14479055317E+04  0.14479455508E+04  0.10000000000E+02 0.  1.
</event>
<event>
 5    1  0.1087513E-008  0.3808687E+03  0.7957747E-01  0.3447385E+00
         13   -1    0    0    0    0  0.00000000000E+00  0.00000000000E+00  0.14999999963E+04  0.15000000000E+04  0.10566000000E+00 0.  1.
        994   -1    0    0    0    0 -0.00000000000E+00 -0.00000000000E+00  0.11368683772E-12  0.17120000000E+03  0.17120000000E+03 0.  0.
         13    1    1    2    0    0  0.29375903623E+02  0.17859199810E+02  0.16702413226E+03  0.17052556012E+03  0.10566000000E+00 0.  1.
        994    1    1    2    0    0 -0.45367690145E+01 -0.17850461130E+02  0.48268209775E+01  0.17225550626E+03  0.17120000000E+03 0.  0.
        998    1    1    2    0    0 -0.24839134608E+02 -0.87386797678E-02  0.13281490430E+04  0.13284189336E+04  0.10000000000E+02 0.  1.
</event>
<event>
 5    1  0.1087513E-008  0.3836248E+03  0.7957747E-01  0.3435526E+00
         13   -1    0    0    0    0  0.00000000000E+00  0.00000000000E+00  0.14999999963E+04  0.15000000000E+04  0.10566000000E+00 0.  1.
        994   -1    0    0    0    0 -0.00000000000E+00 -0.00000000000E+00  0.11368683772E-12  0.17120000000E+03  0.17120000000E+03 0.  0.
         13    1    1    2    0    0 -0.91455795355E+01  0.41596353424E+01  0.20698862415E+02  0.23008656209E+02  0.10566000000E+00 0.  1.
        994    1    1    2    0    0  0.11436564458E+02 -0.29157887160E+01  0.27747278100E+01  0.17162877365E+03  0.17120000000E+03 0.  0.
        998    1    1    2    0    0 -0.22909849225E+01 -0.12438466264E+01  0.14765264061E+04  0.14765625701E+04  0.10000000000E+02 0.  1.
</event>
<event>
 5    1  0.1087513E-008  0.3832526E+03  0.7957747E-01  0.3437117E+00
         13   -1    0    0    0    0  0.00000000000E+00  0.00000000000E+00  0.14999999963E+04  0.15000000000E+04  0.10566000000E+00 0.  1.
        994   -1    0    0    0    0 -0.00000000000E+00 -0.00000000000E+00  0.11368683772E-12  0.17120000000E+03  0.17120000000E+03 0.  0.
         13    1    1    2    0    0 -0.40449617061E+01 -0.23082229566E+02  0.96742708084E+02  0.99540513201E+02  0.10566000000E+00 0.  1.
        994    1    1    2    0    0  0.98639914300E+01  0.32743951393E+02  0.63776650347E+01  0.17469853832E+03  0.17120000000E+03 0.  0.
        998    1    1    2    0    0 -0.58190297239E+01 -0.96617218272E+01  0.13968796232E+04  0.13969609485E+04  0.10000000000E+02 0.  1.
</event>
<event>
 5    1  0.1087513E-008  0.3814028E+03  0.7957747E-01  0.3445073E+00
         13   -1    0    0    0    0  0.00000000000E+00  0.00000000000E+00  0.14999999963E+04  0.15000000000E+04  0.10566000000E+00 0.  1.
        994   -1    0    0    0    0 -0.00000000000E+00 -0.00000000000E+00  0.11368683772E-12  0.17120000000E+03  0.17120000000E+03 0.  0.
         13    1    1    2    0    0 -0.18438533169E+02 -0.17141488770E+02  0.84454595899E+02  0.88127181251E+02  0.10566000000E+00 0.  1.
        994    1    1    2    0    0  0.11082411374E+02  0.33887187001E+02  0.76680325185E+01  0.17504113804E+03  0.17120000000E+03 0.  0.
        998    1    1    2    0    0  0.73561217952E+01 -0.16745698231E+02  0.14078773679E+04  0.14080316807E+04  0.10000000000E+02 0.  1.
</event>
<event>
 5    1  0.1087513E-008  0.3843755E+03  0.7957747E-01  0.3432325E+00
         13   -1    0    0    0    0  0.00000000000E+00  0.00000000000E+00  0.14999999963E+04  0.15000000000E+04  0.10566000000E+00 0.  1.
        994   -1    0    0    0    0 -0.00000000000E+00 -0.00000000000E+00  0.11368683772E-12  0.17120000000E+03  0.17120000000E+03 0.  0.
         13    1    1    2    0    0  0.14201404048E+02  0.16463930753E+02  0.12878858664E+03  0.13061107191E+03  0.10566000000E+00 0.  1.
        994    1    1    2    0    0 -0.43834203852E+02  0.23560093038E+02  0.10144486022E+02  0.17857453908E+03  0.17120000000E+03 0.  0.
        998    1    1    2    0    0  0.29632799805E+02 -0.40024023791E+02  0.13610669236E+04  0.13620143890E+04  0.10000000000E+02 0.  1.
</event>
<event>
 5    1  0.1087513E-008  0.3791370E+03  0.7957747E-01  0.3454925E+00
         13   -1    0    0    0    0  0.00000000000E+00  0.00000000000E+00  0.14999999963E+04  0.15000000000E+04  0.10566000000E+00 0. -1.
        994   -1    0    0    0    0 -0.00000000000E+00 -0.00000000000E+00  0.11368683772E-12  0.17120000000E+03  0.17120000000E+03 0.  0.
         13    1    1    2    0    0  0.40869595632E+02  0.30877928371E+02  0.24281822424E+03  0.24816218788E+03  0.10566000000E+00 0. -1.
        994    1    1    2    0    0 -0.43047184080E+02 -0.26626838641E+02  0.13207050225E+02  0.17901372788E+03  0.17120000000E+03 0.  0.
        998    1    1    2    0    0  0.21775884487E+01 -0.42510897299E+01  0.12439747218E+04  0.12440240842E+04  0.10000000000E+02 0.  1.
</event>
<event>
 5    1  0.1087513E-008  0.3824470E+03  0.7957747E-01  0.3440573E+00
         13   -1    0    0    0    0  0.00000000000E+00  0.00000000000E+00  0.14999999963E+04  0.15000000000E+04  0.10566000000E+00 0.  1.
        994   -1    0    0    0    0 -0.00000000000E+00 -0.00000000000E+00  0.11368683772E-12  0.17120000000E+03  0.17120000000E+03 0.  0.
         13    1    1    2    0    0 -0.24632919190E+02  0.16208022923E+02  0.13747506379E+03  0.14060186714E+03  0.10566000000E+00 0.  1.
        994    1    1    2    0    0  0.23945292653E+02 -0.16289598778E+02  0.56892880310E+01  0.17372546177E+03  0.17120000000E+03 0.  0.
        998    1    1    2    0    0  0.68762653685E+00  0.81575855237E-01  0.13568356445E+04  0.13568726711E+04  0.10000000000E+02 0.  0.
</event>
<event>
 5    1  0.1087513E-008  0.3767199E+03  0.7957747E-01  0.3465566E+00
         13   -1    0    0    0    0  0.00000000000E+00  0.00000000000E+00  0.14999999963E+04  0.15000000000E+04  0.10566000000E+00 0.  1.
        994   -1    0    0    0    0 -0.00000000000E+00 -0.00000000000E+00  0.11368683772E-12  0.17120000000E+03  0.17120000000E+03 0.  0.
         13    1    1    2    0    0  0.42858704964E+02  0.25591349261E+01  0.13838580429E+03  0.14489327023E+03  0.10566000000E+00 0.  1.
        994    1    1    2    0    0 -0.49709353679E+02 -0.22567172511E+01  0.14212661649E+02  0.17885064262E+03  0.17120000000E+03 0.  0.
        998    1    1    2    0    0  0.68506487142E+01 -0.30241767500E+00  0.13474015303E+04  0.13474560871E+04  0.10000000000E+02 0.  1.
</event>
<event>
 5    1  0.1087513E-008  0.3841042E+03  0.7957747E-01  0.3433480E+00
         13   -1    0    0    0    0  0.00000000000E+00  0.00000000000E+00  0.14999999963E+04  0.15000000000E+04  0.10566000000E+00 0.  1.
        994   -1    0    0    0    0 -0.00000000000E+00 -0.00000000000E+00  0.11368683772E-12  0.17120000000E+03  0.17120000000E+03 0.  0.
         13    1    1    2    0    0 -0.93033287548E+01 -0.12811615529E+02  0.58005737149E+02  0.60127914687E+02  0.10566000000E+00 0.  1.
        994    1    1    2    0    0  0.18875895286E+02  0.70566736448E+01  0.34160811985E+01  0.17241579300E+03  0.17120000000E+03 0.  0.
        998    1    1    2    0    0 -0.95725665314E+01  0.57549418840E+01  0.14385781779E+04  0.14386562923E+04  0.10000000000E+02 0.  1.
</event>
<event>
 5    1  0.1087513E-008  0.3818320E+03  0.7957747E-01  0.3443220E+00
         13   -1    0    0    0    0  0.00000000000E+00  0.00000000000E+00  0.14999999963E+04  0.15000000000E+04  0.10566000000E+00 0.  1.
        994   -1    0    0    0    0 -0.00000000000E+00 -0.00000000000E+00  0.11368683772E-12  0.17120000000E+03  0.17120000000E+03 0.  0.
         13    1    1    2    0    0  0.93708354054E+00  0.13370630744E+02  0.27537398986E+02  0.30626318731E+02  0.10566000000E+00 0.  1.
        994    1    1    2    0    0 -0.17842616178E+02  0.91823503556E+00  0.42725620229E+01  0.17218274273E+03  0.17120000000E+03 0.  0.
        998    1    1    2    0    0  0.16905532638E+02 -0.14288865780E+02  0.14681900353E+04  0.14683909385E+04  0.10000000000E+02 0.  1.
</event>
<event>
 5    1  0.1087513E-008  0.3761109E+03  0.7957747E-01  0.3468269E+00
         13   -1    0    0    0    0  0.00000000000E+00  0.00000000000E+00  0.14999999963E+04  0.15000000000E+04  0.10566000000E+00 0. -1.
        994   -1    0    0    0    0 -0.00000000000E+00 -0.00000000000E+00  0.11368683772E-12  0.17120000000E+03  0.17120000000E+03 0.  0.
         13    1    1    2    0    0 -0.74175521650E+02 -0.42188990749E+02  0.39736717244E+03  0.40642662296E+03  0.10566000000E+00 0. -1.
        994    1    1    2    0    0 -0.16962327543E+00 -0.27932485744E+02  0.16999703098E+02  0.17429481472E+03  0.17120000000E+03 0.  0.
        998    1    1    2    0    0  0.74345144925E+02  0.70121476494E+02  0.10856331207E+04  0.10904785623E+04  0.10000000000E+02 0. -1.
</event>
<event>
 5    1  0.1087513E-008  0.4015792E+03  0.7957747E-01  0.3362264E+00
         13   -1    0    0    0    0  0.00000000000E+00  0.00000000000E+00  0.14999999963E+04  0.15000000000E+04  0.10566000000E+00 0. -1.
        994   -1    0    0    0    0 -0.00000000000E+00 -0.00000000000E+00  0.11368683772E-12  0.17120000000E+03  0.17120000000E+03 0.  0.
         13    1    1    2    0    0  0.98741213663E+02  0.46945105093E+02  0.17462315249E+03  0.20602651945E+03  0.10566000000E+00 0. -1.
        994    1    1    2    0    0 -0.98684651670E+02 -0.49577994952E+02  0.78620310740E+02  0.21837406284E+03  0.17120000000E+03 0.  0.
        998    1    1    2    0    0 -0.56561992576E-01  0.26328898599E+01  0.12467565330E+04  0.12467994177E+04  0.10000000000E+02 0.  0.
</event>
<event>
 5    1  0.1087513E-008  0.3749150E+03  0.7957747E-01  0.3473603E+00
         13   -1    0    0    0    0  0.00000000000E+00  0.00000000000E+00  0.14999999963E+04  0.15000000000E+04  0.10566000000E+00 0.  1.
        994   -1    0    0    0    0 -0.00000000000E+00 -0.00000000000E+00  0.11368683772E-12  0.17120000000E+03  0.17120000000E+03 0.  0.
         13    1    1    2    0    0  0.46878628486E+02  0.46268224471E+01  0.21410887187E+03  0.21922963639E+03  0.10566000000E+00 0.  1.
        994    1    1    2    0    0  0.16007364968E+02 -0.66537833091E+02  0.22817680580E+02  0.18577837741E+03  0.17120000000E+03 0.  0.
        998    1    1    2    0    0 -0.62885993454E+02  0.61911010644E+02  0.12630734438E+04  0.12661919862E+04  0.10000000000E+02 0.  1.
</event>
<event>
 5    1  0.1087513E-008  0.3838844E+03  0.7957747E-01  0.3434417E+00
         13   -1    0    0    0    0  0.00000000000E+00  0.00000000000E+00  0.14999999963E+04  0.15000000000E+04  0.10566000000E+00 0.  1.
        994   -1    0    0    0    0 -0.00000000000E+00 -0.00000000000E+00  0.11368683772E-12  0.17120000000E+03  0.17120000000E+03 0.  0.
         13    1    1    2    0    0  0.17433676960E+02  0.75866710752E-01  0.72126518688E+02  0.74203670463E+02  0.10566000000E+00 0.  1.
        994    1    1    2    0    0 -0.39499982677E+01  0.37752213466E+01  0.22835775756E+01  0.17130239201E+03  0.17120000000E+03 0.  0.
        998    1    1    2    0    0 -0.13483678692E+02 -0.38510880573E+01  0.14255899000E+04  0.14256939375E+04  0.10000000000E+02 0.  1.
</event>
<event>
 5    1  0.1087513E-008  0.3857708E+03  0.7957747E-01  0.3426410E+00
         13   -1    0    0    0    0  0.00000000000E+00  0.00000000000E+00  0.14999999963E+04  0.15000000000E+04  0.10566000000E+00 0. -1.
        994   -1    0    0    0    0 -0.00000000000E+00 -0.00000000000E+00  0.11368683772E-12  0.17120000000E+03  0.17120000000E+03 0.  0.
         13    1    1    2    0    0 -0.11286336275E+02 -0.69568358711E+01  0.71227845334E+02  0.72451335852E+02  0.10566000000E+00 0. -1.
        994    1    1    2    0    0  0.10492943447E+02 -0.95817760813E+00  0.16121997638E+01  0.17153151068E+03  0.17120000000E+03 0.  0.
        998    1    1    2    0    0  0.79339282752E+00  0.79150134793E+01  0.14271599512E+04  0.14272171535E+04  0.10000000000E+02 0. -1.
</event>
<event>
 5    1  0.1087513E-008  0.3685909E+03  0.7957747E-01  0.3502392E+00
         13   -1    0    0    0    0  0.00000000000E+00  0.00000000000E+00  0.14999999963E+04  0.15000000000E+04  0.10566000000E+00 0.  1.
        994   -1    0    0    0    0 -0.00000000000E+00 -0.00000000000E+00  0.11368683772E-12  0.17120000000E+03  0.17120000000E+03 0.  0.
         13    1    1    2    0    0 -0.78472754825E+02  0.33603104056E-01  0.25089667037E+03  0.26288234012E+03  0.10566000000E+00 0.  1.
        994    1    1    2    0    0  0.80092542927E+02  0.11281274877E+02  0.33096219779E+02  0.19221571829E+03  0.17120000000E+03 0.  0.
        998    1    1    2    0    0 -0.16197881019E+01 -0.11314877981E+02  0.12160071061E+04  0.12161019416E+04  0.10000000000E+02 0.  1.
</event>
<event>
 5    1  0.1087513E-008  0.3772303E+03  0.7957747E-01  0.3463308E+00
         13   -1    0    0    0    0  0.00000000000E+00  0.00000000000E+00  0.14999999963E+04  0.15000000000E+04  0.10566000000E+00 0. -1.
        994   -1    0    0    0    0 -0.00000000000E+00 -0.00000000000E+00  0.11368683772E-12  0.17120000000E+03  0.17120000000E+03 0.  0.
         13    1    1    2    0    0  0.75703642305E+02  0.37314660211E+02  0.26844302614E+03  0.28139846263E+03  0.10566000000E+00 0. -1.
        994    1    1    2    0    0  0.11974728667E+02 -0.95914090548E+02  0.49141611686E+02  0.20265054871E+03  0.17120000000E+03 0.  0.
        998    1    1    2    0    0 -0.87678370971E+02  0.58599430337E+02  0.11824153585E+04  0.11871509887E+04  0.10000000000E+02 0. -1.
</event>
<event>
 5    1  0.1087513E-008  0.4399209E+03  0.7957747E-01  0.3225639E+00
         13   -1    0    0    0    0  0.00000000000E+00  0.00000000000E+00  0.14999999963E+04  0.15000000000E+04  0.10566000000E+00 0. -1.
        994   -1    0    0    0    0 -0.00000000000E+00 -0.00000000000E+00  0.11368683772E-12  0.17120000000E+03  0.17120000000E+03 0.  0.
         13    1    1    2    0    0 -0.94176773060E+02 -0.11497893066E+02  0.64482408720E+02  0.11471468227E+03  0.10566000000E+00 0. -1.
        994    1    1    2    0    0  0.94549727454E+02  0.92327768917E+00  0.97759132017E+02  0.21864764187E+03  0.17120000000E+03 0.  0.
        998    1    1    2    0    0 -0.37295439474E+00  0.10574615376E+02  0.13377584555E+04  0.13378376759E+04  0.10000000000E+02 0. -1.
</event>
<event>
 5    1  0.1087513E-008  0.3708533E+03  0.7957747E-01  0.3491978E+00
         13   -1    0    0    0    0  0.00000000000E+00  0.00000000000E+00  0.14999999963E+04  0.15000000000E+04  0.10566000000E+00 0. -1.
        994   -1    0    0    0    0 -0.00000000000E+00 -0.00000000000E+00  0.11368683772E-12  0.17120000000E+03  0.17120000000E+03 0.  0.
         13    1    1    2    0    0 -0.72437609669E+02  0.17702635520E+02  0.28432154012E+03  0.29393764635E+03  0.10566000000E+00 0. -1.
        994    1    1    2    0    0  0.64109783710E+02  0.15437845368E+02  0.23967496686E+02  0.18501965391E+03  0.17120000000E+03 0.  0.
        998    1    1    2    0    0  0.83278259585E+01 -0.33140480888E+02  0.11917109595E+04  0.11922426997E+04  0.10000000000E+02 0. -1.
</event>
<event>
 5    1  0.1087513E-008  0.3829490E+03  0.7957747E-01  0.3438418E+00
         13   -1    0    0    0    0  0.00000000000E+00  0.00000000000E+00  0.14999999963E+04  0.15000000000E+04  0.10566000000E+00 0. -1.
        994   -1    0    0    0    0 -0.00000000000E+00 -0.00000000000E+00  0.11368683772E-12  0.17120000000E+03  0.17120000000E+03 0.  0.
         13    1    1    2    0    0 -0.78718910482E+00 -0.19602028027E+02  0.71700115130E+02  0.74335569166E+02  0.10566000000E+00 0. -1.
        994    1    1    2    0    0 -0.19408060955E+02  0.13928061637E+02  0.45434143716E+01  0.17291832276E+03  0.17120000000E+03 0.  0.
        998    1    1    2    0    0  0.20195250060E+02  0.56739663894E+01  0.14237564668E+04  0.14239461081E+04  0.10000000000E+02 0. -1.
</event>
<event>
 5    1  0.1087513E-008  0.3737900E+03  0.7957747E-01  0.3478652E+00
         13   -1    0    0    0    0  0.00000000000E+00  0.00000000000E+00  0.14999999963E+04  0.15000000000E+04  0.10566000000E+00 0.  1.
        994   -1    0    0    0    0 -0.00000000000E+00 -0.00000000000E+00  0.11368683772E-12  0.17120000000E+03  0.17120000000E+03 0.  0.
         13    1    1    2    0    0  0.50942644345E+02 -0.68780365440E+02  0.50483811463E+03  0.51204240531E+03  0.10566000000E+00 0.  1.
        994    1    1    2    0    0 -0.48678566577E+02  0.25609098884E+02  0.17698806808E+02  0.18068789819E+03  0.17120000000E+03 0.  0.
        998    1    1    2    0    0 -0.22640777680E+01  0.43171266556E+02  0.97746307484E+03  0.97846969650E+03  0.10000000000E+02 0.  1.
</event>
<event>
 5    1  0.1087513E-008  0.3845726E+03  0.7957747E-01  0.3431487E+00
         13   -1    0    0    0    0  0.00000000000E+00  0.00000000000E+00  0.14999999963E+04  0.15000000000E+04  0.10566000000E+00 0. -1.
        994   -1    0    0    0    0 -0.00000000000E+00 -0.00000000000E+00  0.11368683772E-12  0.17120000000E+03  0.17120000000E+03 0.  0.
         13    1    1    2    0    0 -0.87147542712E+01  0.22040335569E+02  0.13727188232E+03  0.13930292235E+03  0.10566000000E+00 0. -1.
        994    1    1    2    0    0  0.15283825608E+02 -0.22584525297E+02  0.42953277938E+01  0.17341149313E+03  0.17120000000E+03 0.  0.
        998    1    1    2    0    0 -0.65690713363E+01  0.54418972777E+00  0.13584327862E+04  0.13584855845E+04  0.10000000000E+02 0. -1.
</event>
<event>
 5    1  0.1087513E-008  0.3845251E+03  0.7957747E-01  0.3431689E+00
         13   -1    0    0    0    0  0.00000000000E+00  0.00000000000E+00  0.14999999963E+04  0.15000000000E+04  0.10566000000E+00 0. -1.
        994   -1    0    0    0    0 -0.00000000000E+00 -0.00000000000E+00  0.11368683772E-12  0.17120000000E+03  0.17120000000E+03 0.  0.
         13    1    1    2    0    0  0.49468384357E+01  0.21723441095E+02  0.13430219219E+03  0.13613768433E+03  0.10566000000E+00 0. -1.
        994    1    1    2    0    0  0.17918544691E+02 -0.17688087154E+02  0.39569336854E+01  0.17308679902E+03  0.17120000000E+03 0.  0.
        998    1    1    2    0    0 -0.22865383127E+02 -0.40353539407E+01  0.13617408704E+04  0.13619755166E+04  0.10000000000E+02 0. -1.
</event>
<event>
 5    1  0.1087513E-008  0.3931176E+03  0.7957747E-01  0.3395957E+00
         13   -1    0    0    0    0  0.00000000000E+00  0.00000000000E+00  0.14999999963E+04  0.15000000000E+04  0.10566000000E+00 0.  1.
        994   -1    0    0    0    0 -0.00000000000E+00 -0.00000000000E+00  0.11368683772E-12  0.17120000000E+03  0.17120000000E+03 0.  0.
         13    1    1    2    0    0 -0.16681350469E+02 -0.14532797941E+02 -0.65494810400E+00  0.22133905903E+02  0.10566000000E+00 0.  1.
        994    1    1    2    0    0  0.27381195084E+02  0.44720215652E+02  0.34273985388E+02  0.18230132640E+03  0.17120000000E+03 0.  0.
        998    1    1    2    0    0 -0.10699844616E+02 -0.30187417711E+02  0.14663809590E+04  0.14667647677E+04  0.10000000000E+02 0.  1.
</event>
<event>
 5    1  0.1087513E-008  0.3693018E+03  0.7957747E-01  0.3499106E+00
         13   -1    0    0    0    0  0.00000000000E+00  0.00000000000E+00  0.14999999963E+04  0.15000000000E+04  0.10566000000E+00 0.  1.
        994   -1    0    0    0    0 -0.00000000000E+00 -0.00000000000E+00  0.11368683772E-12  0.17120000000E+03  0.17120000000E+03 0.  0.
         13    1    1    2    0    0  0.51464936402E+02  0.64353481018E+01  0.13932931272E+03  0.14866984204E+03  0.10566000000E+00 0.  1.
        994    1    1    2    0    0 -0.25692262088E+02 -0.88075693792E+01  0.12195436498E+02  0.17376948605E+03  0.17120000000E+03 0.  0.
        998    1    1    2    0    0 -0.25772674314E+02  0.23722212774E+01  0.13484752471E+04  0.13487606719E+04  0.10000000000E+02 0.  1.
</event>
<event>
 5    1  0.1087513E-008  0.3795860E+03  0.7957747E-01  0.3452963E+00
         13   -1    0    0    0    0  0.00000000000E+00  0.00000000000E+00  0.14999999963E+04  0.15000000000E+04  0.10566000000E+00 0.  1.
        994   -1    0    0    0    0 -0.00000000000E+00 -0.00000000000E+00  0.11368683772E-12  0.17120000000E+03  0.17120000000E+03 0.  0.
         13    1    1    2    0    0 -0.10301862043E+03  0.13297858854E+02  0.27339881317E+03  0.29246639365E+03  0.10566000000E+00 0.  1.
        994    1    1    2    0    0  0.99275326645E+02 -0.89387355568E+01  0.52992983425E+02  0.20506873912E+03  0.17120000000E+03 0.  0.
        998    1    1    2    0    0  0.37432937857E+01 -0.43591232969E+01  0.11736081997E+04  0.11736648672E+04  0.10000000000E+02 0.  1.
</event>
<event>
 5    1  0.1087513E-008  0.3828669E+03  0.7957747E-01  0.3438769E+00
         13   -1    0    0    0    0  0.00000000000E+00  0.00000000000E+00  0.14999999963E+04  0.15000000000E+04  0.10566000000E+00 0. -1.
        994   -1    0    0    0    0 -0.00000000000E+00 -0.00000000000E+00  0.11368683772E-12  0.17120000000E+03  0.17120000000E+03 0.  0.
         13    1    1    2    0    0  0.87154735946E+01 -0.28773672134E+02  0.16062819770E+03  0.16341760232E+03  0.10566000000E+00 0. -1.
        994    1    1    2    0    0 -0.75105963650E+01  0.21468439879E+02  0.44078322591E+01  0.17276044673E+03  0.17120000000E+03 0.  0.
        998    1    1    2    0    0 -0.12048772296E+01  0.73052322548E+01  0.13349639663E+04  0.13350219509E+04  0.10000000000E+02 0. -1.
</event>
<event>
 5    1  0.1087513E-008  0.3709463E+03  0.7957747E-01  0.3491553E+00
         13   -1    0    0    0    0  0.00000000000E+00  0.00000000000E+00  0.14999999963E+04  0.15000000000E+04  0.10566000000E+00 0. -1.
        994   -1    0    0    0    0 -0.00000000000E+00 -0.00000000000E+00  0.11368683772E-12  0.17120000000E+03  0.17120000000E+03 0.  0.
         13    1    1    2    0    0  0.91898236166E+01  0.56436557425E+02  0.10938195819E+03  0.12342593655E+03  0.10566000000E+00 0. -1.
        994    1    1    2    0    0  0.38455788095E+02 -0.10782026156E+03  0.58936365991E+02  0.21421249188E+03  0.17120000000E+03 0.  0.
        998    1    1    2    0    0 -0.47645611712E+02  0.51383704135E+02  0.13316816721E+04  0.13335615716E+04  0.10000000000E+02 0. -1.
</event>
<event>
 5    1  0.1087513E-008  0.3828483E+03  0.7957747E-01  0.3438850E+00
         13   -1    0    0    0    0  0.00000000000E+00  0.00000000000E+00  0.14999999963E+04  0.15000000000E+04  0.10566000000E+00 0. -1.
        994   -1    0    0    0    0 -0.00000000000E+00 -0.00000000000E+00  0.11368683772E-12  0.17120000000E+03  0.17120000000E+03 0.  0.
         13    1    1    2    0    0  0.25716235387E+02 -0.20641101985E+02  0.17652497134E+03  0.17957855251E+03  0.10566000000E+00 0. -1.
        994    1    1    2    0    0 -0.25225248876E+02  0.24193447663E+02  0.67585330010E+01  0.17486209955E+03  0.17120000000E+03 0.  0.
        998    1    1    2    0    0 -0.49098651156E+00 -0.35523456779E+01  0.13167164919E+04  0.13167593479E+04  0.10000000000E+02 0.  0.
</event>
<event>
 5    1  0.1087513E-008  0.3839926E+03  0.7957747E-01  0.3433956E+00
         13   -1    0    0    0    0  0.00000000000E+00  0.00000000000E+00  0.14999999963E+04  0.15000000000E+04  0.10566000000E+00 0. -1.
        994   -1    0    0    0    0 -0.00000000000E+00 -0.00000000000E+00  0.11368683772E-12  0.17120000000E+03  0.17120000000E+03 0.  0.
         13    1    1    2    0    0  0.15180575475E+02 -0.55975137690E+01  0.60438684456E+02  0.62566986302E+02  0.10566000000E+00 0. -1.
        994    1    1    2    0    0 -0.10675874440E+02  0.64318608200E+01  0.26438463998E+01  0.17167344889E+03  0.17120000000E+03 0.  0.
        998    1    1    2    0    0 -0.45047010344E+01 -0.83434705105E+00  0.14369174654E+04  0.14369595648E+04  0.10000000000E+02 0. -1.
</event>
<event>
 5    1  0.1087513E-008  0.3824527E+03  0.7957747E-01  0.3440548E+00
         13   -1    0    0    0    0  0.00000000000E+00  0.00000000000E+00  0.14999999963E+04  0.15000000000E+04  0.10566000000E+00 0.  1.
        994   -1    0    0    0    0 -0.00000000000E+00 -0.00000000000E+00  0.11368683772E-12  0.17120000000E+03  0.17120000000E+03 0.  0.
         13    1    1    2    0    0 -0.16374633467E+02 -0.15653170414E+01  0.46007546942E+02  0.48859844231E+02  0.10566000000E+00 0.  1.
        994    1    1    2    0    0  0.94621513160E+01 -0.17728089767E+01  0.32075116885E+01  0.17150044691E+03  0.17120000000E+03 0.  0.
        998    1    1    2    0    0  0.69124821510E+01  0.33381260181E+01  0.14507849376E+04  0.14508397089E+04  0.10000000000E+02 0.  1.
</event>
<event>
 5    1  0.1087513E-008  0.3874405E+03  0.7957747E-01  0.3419387E+00
         13   -1    0    0    0    0  0.00000000000E+00  0.00000000000E+00  0.14999999963E+04  0.15000000000E+04  0.10566000000E+00 0.  1.
        994   -1    0    0    0    0 -0.00000000000E+00 -0.00000000000E+00  0.11368683772E-12  0.17120000000E+03  0.17120000000E+03 0.  0.
         13    1    1    2    0    0  0.18706404063E+02  0.72827194468E+02  0.12612478595E+03  0.14683733381E+03  0.10566000000E+00 0.  1.
        994    1    1    2    0    0 -0.12967890166E+02 -0.62043568859E+02  0.35601573350E+02  0.18599592102E+03  0.17120000000E+03 0.  0.
        998    1    1    2    0    0 -0.57385138968E+01 -0.10783625608E+02  0.13382736370E+04  0.13383667452E+04  0.10000000000E+02 0.  1.
</event>
<event>
 5    1  0.1087513E-008  0.3822511E+03  0.7957747E-01  0.3441415E+00
         13   -1    0    0    0    0  0.00000000000E+00  0.00000000000E+00  0.14999999963E+04  0.15000000000E+04  0.10566000000E+00 0. -1.
        994   -1    0    0    0    0 -0.00000000000E+00 -0.00000000000E+00  0.11368683772E-12  0.17120000000E+03  0.17120000000E+03 0.  0.
         13    1    1    2    0    0 -0.15224100268E+02  0.17647841591E+01  0.37773896173E+02  0.40764765279E+02  0.10566000000E+00 0. -1.
        994    1    1    2    0    0  0.12013672114E+02 -0.48886677937E+01  0.35595305898E+01  0.17172750988E+03  0.17120000000E+03 0.  0.
        998    1    1    2    0    0  0.32104281541E+01  0.31238836347E+01  0.14586665695E+04  0.14587077248E+04  0.10000000000E+02 0. -1.
</event>
<event>
 5    1  0.1087513E-008  0.3802050E+03  0.7957747E-01  0.3450266E+00
         13   -1    0    0    0    0  0.00000000000E+00  0.00000000000E+00  0.14999999963E+04  0.15000000000E+04  0.10566000000E+00 0. -1.
        994   -1    0    0    0    0 -0.00000000000E+00 -0.00000000000E+00  0.11368683772E-12  0.17120000000E+03  0.17120000000E+03 0.  0.
         13    1    1    2    0    0 -0.45189936494E+02  0.92251935602E+01  0.21939034327E+03  0.22418601303E+03  0.10566000000E+00 0. -1.
        994    1    1    2    0    0  0.47886381124E+02 -0.15401068002E+02  0.12529273446E+02  0.17887627312E+03  0.17120000000E+03 0.  0.
        998    1    1    2    0    0 -0.26964446301E+01  0.61758744416E+01  0.12680803796E+04  0.12681377138E+04  0.10000000000E+02 0. -1.
</event>
<event>
 5    1  0.1087513E-008  0.3856265E+03  0.7957747E-01  0.3427020E+00
         13   -1    0    0    0    0  0.00000000000E+00  0.00000000000E+00  0.14999999963E+04  0.15000000000E+04  0.10566000000E+00 0. -1.
        994   -1    0    0    0    0 -0.00000000000E+00 -0.00000000000E+00  0.11368683772E-12  0.17120000000E+03  0.17120000000E+03 0.  0.
         13    1    1    2    0    0 -0.41406731182E+01 -0.11420240636E+02  0.52853793961E+02  0.54231925746E+02  0.10566000000E+00 0. -1.
        994    1    1    2    0    0  0.10595322994E+02  0.15497118802E+02  0.24769121662E+01  0.17224400325E+03  0.17120000000E+03 0.  0.
        998    1    1    2    0    0 -0.64546498760E+01 -0.40768781667E+01  0.14446692902E+04  0.14447240710E+04  0.10000000000E+02 0. -1.
</event>
<event>
 5    1  0.1087513E-008  0.3847244E+03  0.7957747E-01  0.3430842E+00
         13   -1    0    0    0    0  0.00000000000E+00  0.00000000000E+00  0.14999999963E+04  0.15000000000E+04  0.10566000000E+00 0.  1.
        994   -1    0    0    0    0 -0.00000000000E+00 -0.00000000000E+00  0.11368683772E-12  0.17120000000E+03  0.17120000000E+03 0.  0.
         13    1    1    2    0    0  0.31607822728E+01 -0.14676976763E+02  0.63127569129E+02  0.64888406820E+02  0.10566000000E+00 0.  1.
        994    1    1    2    0    0  0.17991416326E+01  0.11919225974E+02  0.22454455732E+01  0.17163853555E+03  0.17120000000E+03 0.  0.
        998    1    1    2    0    0 -0.49599239054E+01  0.27577507885E+01  0.14346269816E+04  0.14346730576E+04  0.10000000000E+02 0.  1.
</event>
<event>
 5    1  0.1087513E-008  0.3740007E+03  0.7957747E-01  0.3477704E+00
         13   -1    0    0    0    0  0.00000000000E+00  0.00000000000E+00  0.14999999963E+04  0.15000000000E+04  0.10566000000E+00 0.  1.
        994   -1    0    0    0    0 -0.00000000000E+00 -0.00000000000E+00  0.11368683772E-12  0.17120000000E+03  0.17120000000E+03 0.  0.
         13    1    1    2    0    0  0.43195357207E+02 -0.12148049299E+02  0.12107289992E+03  0.12912037889E+03  0.10566000000E+00 0.  1.
        994    1    1    2    0    0 -0.50899383303E+02  0.24170670180E+02  0.18100010367E+02  0.18114088134E+03  0.17120000000E+03 0.  0.
        998    1    1    2    0    0  0.77040260962E+01 -0.12022620881E+02  0.13608270860E+04  0.13609387398E+04  0.10000000000E+02 0.  1.
</event>
<event>
 5    1  0.1087513E-008  0.3834464E+03  0.7957747E-01  0.3436288E+00
         13   -1    0    0    0    0  0.00000000000E+00  0.00000000000E+00  0.14999999963E+04  0.15000000000E+04  0.10566000000E+00 0.  1.
        994   -1    0    0    0    0 -0.00000000000E+00 -0.00000000000E+00  0.11368683772E-12  0.17120000000E+03  0.17120000000E+03 0.  0.
         13    1    1    2    0    0 -0.16717750222E+01 -0.11406388548E+02  0.28279556110E+02  0.30539236881E+02  0.10566000000E+00 0.  1.
        994    1    1    2    0    0  0.10318714916E+02 -0.76076254994E+01  0.29468515782E+01  0.17170461781E+03  0.17120000000E+03 0.  0.
        998    1    1    2    0    0 -0.86469398935E+01  0.19014014048E+02  0.14687735886E+04  0.14689561453E+04  0.10000000000E+02 0.  1.
</event>
<event>
 5    1  0.1301347E-008  0.3844688E+03  0.7957747E-01  0.3431928E+00
         13   -1    0    0    0    0  0.00000000000E+00  0.00000000000E+00  0.14999999963E+04  0.15000000000E+04  0.10566000000E+00 0.  1.
        994   -1    0    0    0    0 -0.00000000000E+00 -0.00000000000E+00  0.11368683772E-12  0.17120000000E+03  0.17120000000E+03 0.  0.
         13    1    1    2    0    0  0.80757199695E+01  0.89713692004E+01  0.47673994838E+02  0.49178487840E+02  0.10566000000E+00 0.  1.
        994    1    1    2    0    0  0.21593707863E+02  0.26645811556E+02  0.57788305849E+01  0.17469723059E+03  0.17120000000E+03 0.  0.
        998    1    1    2    0    0 -0.29669427833E+02 -0.35617180757E+02  0.14465471709E+04  0.14473242816E+04  0.10000000000E+02 0.  1.
</event>
<event>
 5    1  0.1087513E-008  0.3695271E+03  0.7957747E-01  0.3498067E+00
         13   -1    0    0    0    0  0.00000000000E+00  0.00000000000E+00  0.14999999963E+04  0.15000000000E+04  0.10566000000E+00 0.  1.
        994   -1    0    0    0    0 -0.00000000000E+00 -0.00000000000E+00  0.11368683772E-12  0.17120000000E+03  0.17120000000E+03 0.  0.
         13    1    1    2    0    0 -0.21157134667E+02 -0.41116985708E+02  0.10331068091E+03  0.11318718485E+03  0.10566000000E+00 0.  1.
        994    1    1    2    0    0  0.16968614773E+02  0.39815874603E+02  0.16032136989E+02  0.17731245634E+03  0.17120000000E+03 0.  0.
        998    1    1    2    0    0  0.41885198940E+01  0.13011111058E+01  0.13806571784E+04  0.13807003588E+04  0.10000000000E+02 0.  1.
</event>
<event>
 5    1  0.1087513E-008  0.3807425E+03  0.7957747E-01  0.3447932E+00
         13   -1    0    0    0    0  0.00000000000E+00  0.00000000000E+00  0.14999999963E+04  0.15000000000E+04  0.10566000000E+00 0.  1.
        994   -1    0    0    0    0 -0.00000000000E+00 -0.00000000000E+00  0.11368683772E-12  0.17120000000E+03  0.17120000000E+03 0.  0.
         13    1    1    2    0    0 -0.49270669625E+02 -0.44355694045E+01  0.29603971569E+03  0.30014462779E+03  0.10566000000E+00 0.  1.
        994    1    1    2    0    0  0.38003832477E+02 -0.11718912901E+01  0.85948005439E+01  0.17558181913E+03  0.17120000000E+03 0.  0.
        998    1    1    2    0    0  0.11266837149E+02  0.56074606946E+01  0.11953654800E+04  0.11954735531E+04  0.10000000000E+02 0.  1.
</event>
<event>
 5    1  0.1087513E-008  0.3869144E+03  0.7957747E-01  0.3421593E+00
         13   -1    0    0    0    0  0.00000000000E+00  0.00000000000E+00  0.14999999963E+04  0.15000000000E+04  0.10566000000E+00 0.  1.
        994   -1    0    0    0    0 -0.00000000000E+00 -0.00000000000E+00  0.11368683772E-12  0.17120000000E+03  0.17120000000E+03 0.  0.
         13    1    1    2    0    0  0.26632651780E+02 -0.34861306204E+02  0.40923141004E+02  0.59994361775E+02  0.10566000000E+00 0.  1.
        994    1    1    2    0    0 -0.17722615327E+02  0.17823669830E+02  0.22530652673E+02  0.17449597305E+03  0.17120000000E+03 0.  0.
        998    1    1    2    0    0 -0.89100364522E+01  0.17037636374E+02  0.14365462026E+04  0.14367096652E+04  0.10000000000E+02 0.  1.
</event>
<event>
 5    1  0.1087513E-008  0.3824607E+03  0.7957747E-01  0.3440514E+00
         13   -1    0    0    0    0  0.00000000000E+00  0.00000000000E+00  0.14999999963E+04  0.15000000000E+04  0.10566000000E+00 0.  1.
        994   -1    0    0    0    0 -0.00000000000E+00 -0.00000000000E+00  0.11368683772E-12  0.17120000000E+03  0.17120000000E+03 0.  0.
         13    1    1    2    0    0  0.30211880239E+02 -0.16589137690E+02  0.20180893722E+03  0.20473108094E+03  0.10566000000E+00 0.  1.
        994    1    1    2    0    0 -0.14790275761E+02  0.17753911218E+02  0.46687228298E+01  0.17281548135E+03  0.17120000000E+03 0.  0.
        998    1    1    2    0    0 -0.15421604478E+02 -0.11647735283E+01  0.12935223362E+04  0.12936534377E+04  0.10000000000E+02 0.  1.
</event>
<event>
 5    1  0.1087513E-008  0.3859586E+03  0.7957747E-01  0.3425617E+00
         13   -1    0    0    0    0  0.00000000000E+00  0.00000000000E+00  0.14999999963E+04  0.15000000000E+04  0.10566000000E+00 0. -1.
        994   -1    0    0    0    0 -0.00000000000E+00 -0.00000000000E+00  0.11368683772E-12  0.17120000000E+03  0.17120000000E+03 0.  0.
         13    1    1    2    0    0 -0.10184505262E+02 -0.60812750770E+01  0.60784924748E+02  0.61931609818E+02  0.10566000000E+00 0. -1.
        994    1    1    2    0    0  0.86449675507E+01  0.45422799262E+01  0.14676875051E+01  0.17148458204E+03  0.17120000000E+03 0.  0.
        998    1    1    2    0    0  0.15395377112E+01  0.15389951508E+01  0.14377473840E+04  0.14377838081E+04  0.10000000000E+02 0. -1.
</event>
<event>
 5    1  0.1087513E-008  0.3787443E+03  0.7957747E-01  0.3456644E+00
         13   -1    0    0    0    0  0.00000000000E+00  0.00000000000E+00  0.14999999963E+04  0.15000000000E+04  0.10566000000E+00 0. -1.
        994   -1    0    0    0    0 -0.00000000000E+00 -0.00000000000E+00  0.11368683772E-12  0.17120000000E+03  0.17120000000E+03 0.  0.
         13    1    1    2    0    0  0.13048839413E+03  0.13599110880E+03  0.91848694573E+03  0.93762416955E+03  0.10566000000E+00 0. -1.
        994    1    1    2    0    0 -0.14136240253E+03 -0.13687203774E+03  0.14814687162E+03  0.29995702882E+03  0.17120000000E+03 0.  0.
        998    1    1    2    0    0  0.10874008404E+02  0.88092894175E+00  0.43336617892E+03  0.43361880163E+03  0.10000000000E+02 0. -1.
</event>
<event>
 5    1  0.1087513E-008  0.3819260E+03  0.7957747E-01  0.3442815E+00
         13   -1    0    0    0    0  0.00000000000E+00  0.00000000000E+00  0.14999999963E+04  0.15000000000E+04  0.10566000000E+00 0. -1.
        994   -1    0    0    0    0 -0.00000000000E+00 -0.00000000000E+00  0.11368683772E-12  0.17120000000E+03  0.17120000000E+03 0.  0.
         13    1    1    2    0    0 -0.28145853923E+02 -0.34094404262E+02  0.24506293259E+03  0.24901901451E+03  0.10566000000E+00 0. -1.
        994    1    1    2    0    0  0.29126032024E+02  0.41690746476E+02  0.11803724878E+02  0.17898383168E+03  0.17120000000E+03 0.  0.
        998    1    1    2    0    0 -0.98017810148E+00 -0.75963422141E+01  0.12431333388E+04  0.12431971538E+04  0.10000000000E+02 0. -1.
</event>
<event>
 5    1  0.1087513E-008  0.3813328E+03  0.7957747E-01  0.3445376E+00
         13   -1    0    0    0    0  0.00000000000E+00  0.00000000000E+00  0.14999999963E+04  0.15000000000E+04  0.10566000000E+00 0. -1.
        994   -1    0    0    0    0 -0.00000000000E+00 -0.00000000000E+00  0.11368683772E-12  0.17120000000E+03  0.17120000000E+03 0.  0.
         13    1    1    2    0    0  0.22571719835E+02 -0.61320652722E+01  0.72359489121E+02  0.76045983396E+02  0.10566000000E+00 0. -1.
        994    1    1    2    0    0 -0.28450778968E+02  0.10376668937E+02  0.65202750492E+01  0.17398010251E+03  0.17120000000E+03 0.  0.
        998    1    1    2    0    0  0.58790591330E+01 -0.42446036653E+01  0.14211202321E+04  0.14211739141E+04  0.10000000000E+02 0. -1.
</event>
<event>
 5    1  0.1087513E-008  0.3845945E+03  0.7957747E-01  0.3431394E+00
         13   -1    0    0    0    0  0.00000000000E+00  0.00000000000E+00  0.14999999963E+04  0.15000000000E+04  0.10566000000E+00 0. -1.
        994   -1    0    0    0    0 -0.00000000000E+00 -0.00000000000E+00  0.11368683772E-12  0.17120000000E+03  0.17120000000E+03 0.  0.
         13    1    1    2    0    0  0.10530972110E+02  0.14537610109E+01  0.31768900416E+02  0.33500581970E+02  0.10566000000E+00 0. -1.
        994    1    1    2    0    0  0.14061730252E+01  0.72518599323E+01  0.20113074035E+01  0.17137109486E+03  0.17120000000E+03 0.  0.
        998    1    1    2    0    0 -0.11937145135E+02 -0.87056209432E+01  0.14662197885E+04  0.14663283232E+04  0.10000000000E+02 0. -1.
</event>
<event>
 5    1  0.1087513E-008  0.3838272E+03  0.7957747E-01  0.3434661E+00
         13   -1    0    0    0    0  0.00000000000E+00  0.00000000000E+00  0.14999999963E+04  0.15000000000E+04  0.10566000000E+00 0.  1.
        994   -1    0    0    0    0 -0.00000000000E+00 -0.00000000000E+00  0.11368683772E-12  0.17120000000E+03  0.17120000000E+03 0.  0.
         13    1    1    2    0    0 -0.19149289007E+02 -0.20800696125E+01  0.81638036713E+02  0.83879688611E+02  0.10566000000E+00 0.  1.
        994    1    1    2    0    0  0.15905687298E+02 -0.17347317273E+01  0.30590820702E+01  0.17197324840E+03  0.17120000000E+03 0.  0.
        998    1    1    2    0    0  0.32436017093E+01  0.38148013398E+01  0.14153028775E+04  0.14153470630E+04  0.10000000000E+02 0.  1.
</event>
<event>
 5    1  0.1087513E-008  0.3832914E+03  0.7957747E-01  0.3436951E+00
         13   -1    0    0    0    0  0.00000000000E+00  0.00000000000E+00  0.14999999963E+04  0.15000000000E+04  0.10566000000E+00 0.  1.
        994   -1    0    0    0    0 -0.00000000000E+00 -0.00000000000E+00  0.11368683772E-12  0.17120000000E+03  0.17120000000E+03 0.  0.
         13    1    1    2    0    0 -0.10832080369E+02  0.15882735602E+02  0.69210288381E+02  0.71830846001E+02  0.10566000000E+00 0.  1.
        994    1    1    2    0    0  0.10674357203E+02 -0.22290416288E+02  0.45033156295E+01  0.17303330434E+03  0.17120000000E+03 0.  0.
        998    1    1    2    0    0  0.15772316547E+00  0.64076806863E+01  0.14262863923E+04  0.14263358497E+04  0.10000000000E+02 0.  1.
</event>
<event>
 5    1  0.1087513E-008  0.3749134E+03  0.7957747E-01  0.3473610E+00
         13   -1    0    0    0    0  0.00000000000E+00  0.00000000000E+00  0.14999999963E+04  0.15000000000E+04  0.10566000000E+00 0. -1.
        994   -1    0    0    0    0 -0.00000000000E+00 -0.00000000000E+00  0.11368683772E-12  0.17120000000E+03  0.17120000000E+03 0.  0.
         13    1    1    2    0    0 -0.32900610753E+02 -0.19551713006E+02  0.12214491297E+03  0.12800043202E+03  0.10566000000E+00 0. -1.
        994    1    1    2    0    0 -0.50112126854E+01 -0.31193617356E+01  0.68417043502E+01  0.17143830257E+03  0.17120000000E+03 0.  0.
        998    1    1    2    0    0  0.37911823438E+02  0.22671074741E+02  0.13710133790E+04  0.13717612654E+04  0.10000000000E+02 0. -1.
</event>
<event>
 5    1  0.1087513E-008  0.3854788E+03  0.7957747E-01  0.3427644E+00
         13   -1    0    0    0    0  0.00000000000E+00  0.00000000000E+00  0.14999999963E+04  0.15000000000E+04  0.10566000000E+00 0.  1.
        994   -1    0    0    0    0 -0.00000000000E+00 -0.00000000000E+00  0.11368683772E-12  0.17120000000E+03  0.17120000000E+03 0.  0.
         13    1    1    2    0    0 -0.11418438318E+01 -0.13334091880E+02  0.63297508510E+02  0.64696889888E+02  0.10566000000E+00 0.  1.
        994    1    1    2    0    0 -0.72090416875E+01  0.12693876725E+02  0.20926788450E+01  0.17183400156E+03  0.17120000000E+03 0.  0.
        998    1    1    2    0    0  0.83508855193E+01  0.64021515443E+00  0.14346098089E+04  0.14346691085E+04  0.10000000000E+02 0.  1.
</event>
<event>
 5    1  0.1087513E-008  0.3723793E+03  0.7957747E-01  0.3485027E+00
         13   -1    0    0    0    0  0.00000000000E+00  0.00000000000E+00  0.14999999963E+04  0.15000000000E+04  0.10566000000E+00 0.  1.
        994   -1    0    0    0    0 -0.00000000000E+00 -0.00000000000E+00  0.11368683772E-12  0.17120000000E+03  0.17120000000E+03 0.  0.
         13    1    1    2    0    0 -0.60523762306E+01  0.15911411697E+02  0.14414352047E+02  0.22306702786E+02  0.10566000000E+00 0.  1.
        994    1    1    2    0    0  0.15363245184E+02 -0.10614010849E+02  0.92274563686E+01  0.17246237990E+03  0.17120000000E+03 0.  0.
        998    1    1    2    0    0 -0.93108689533E+01 -0.52974008480E+01  0.14763581879E+04  0.14764309173E+04  0.10000000000E+02 0.  1.
</event>
<event>
 5    1  0.1087513E-008  0.3780203E+03  0.7957747E-01  0.3459824E+00
         13   -1    0    0    0    0  0.00000000000E+00  0.00000000000E+00  0.14999999963E+04  0.15000000000E+04  0.10566000000E+00 0. -1.
        994   -1    0    0    0    0 -0.00000000000E+00 -0.00000000000E+00  0.11368683772E-12  0.17120000000E+03  0.17120000000E+03 0.  0.
         13    1    1    2    0    0 -0.25923503333E+02 -0.13632885787E+02  0.84424733297E+02  0.89361235198E+02  0.10566000000E+00 0. -1.
        994    1    1    2    0    0  0.27237391222E+02 -0.27739106285E+02  0.10238269672E+02  0.17585674756E+03  0.17120000000E+03 0.  0.
        998    1    1    2    0    0 -0.13138878893E+01  0.41371992072E+02  0.14053369933E+04  0.14059820172E+04  0.10000000000E+02 0. -1.
</event>
<event>
 5    1  0.1087513E-008  0.3927254E+03  0.7957747E-01  0.3397555E+00
         13   -1    0    0    0    0  0.00000000000E+00  0.00000000000E+00  0.14999999963E+04  0.15000000000E+04  0.10566000000E+00 0.  1.
        994   -1    0    0    0    0 -0.00000000000E+00 -0.00000000000E+00  0.11368683772E-12  0.17120000000E+03  0.17120000000E+03 0.  0.
         13    1    1    2    0    0  0.26789604457E+02 -0.13996660358E+02  0.93271927022E+01  0.31632216108E+02  0.10566000000E+00 0.  1.
        994    1    1    2    0    0 -0.33436444329E+02  0.88469720931E+01  0.28062189250E+02  0.17689881625E+03  0.17120000000E+03 0.  0.
        998    1    1    2    0    0  0.66468398719E+01  0.51496882650E+01  0.14626106143E+04  0.14626689676E+04  0.10000000000E+02 0.  1.
</event>
<event>
 5    1  0.1087513E-008  0.3838036E+03  0.7957747E-01  0.3434762E+00
         13   -1    0    0    0    0  0.00000000000E+00  0.00000000000E+00  0.14999999963E+04  0.15000000000E+04  0.10566000000E+00 0.  1.
        994   -1    0    0    0    0 -0.00000000000E+00 -0.00000000000E+00  0.11368683772E-12  0.17120000000E+03  0.17120000000E+03 0.  0.
         13    1    1    2    0    0 -0.21695796940E+02 -0.44408208069E+01  0.12658894003E+03  0.12851147573E+03  0.10566000000E+00 0.  1.
        994    1    1    2    0    0 -0.17301227216E+01 -0.12723966068E+02  0.27698821940E+01  0.17170324658E+03  0.17120000000E+03 0.  0.
        998    1    1    2    0    0  0.23425919662E+02  0.17164786875E+02  0.13706411741E+04  0.13709852777E+04  0.10000000000E+02 0.  1.
</event>
<event>
 5    1  0.1087513E-008  0.3743289E+03  0.7957747E-01  0.3476230E+00
         13   -1    0    0    0    0  0.00000000000E+00  0.00000000000E+00  0.14999999963E+04  0.15000000000E+04  0.10566000000E+00 0. -1.
        994   -1    0    0    0    0 -0.00000000000E+00 -0.00000000000E+00  0.11368683772E-12  0.17120000000E+03  0.17120000000E+03 0.  0.
         13    1    1    2    0    0 -0.88149079387E+00  0.10664613817E+02  0.45601992745E+01  0.11632609138E+02  0.10566000000E+00 0. -1.
        994    1    1    2    0    0 -0.53583253684E+01 -0.35019859827E+02  0.11311780294E+02  0.17519274701E+03  0.17120000000E+03 0.  0.
        998    1    1    2    0    0  0.62398161623E+01  0.24355246010E+02  0.14841280167E+04  0.14843746438E+04  0.10000000000E+02 0. -1.
</event>
<event>
 5    1  0.1087513E-008  0.3713353E+03  0.7957747E-01  0.3489776E+00
         13   -1    0    0    0    0  0.00000000000E+00  0.00000000000E+00  0.14999999963E+04  0.15000000000E+04  0.10566000000E+00 0.  1.
        994   -1    0    0    0    0 -0.00000000000E+00 -0.00000000000E+00  0.11368683772E-12  0.17120000000E+03  0.17120000000E+03 0.  0.
         13    1    1    2    0    0 -0.11281681014E+03 -0.13183266468E+03  0.66494247972E+03  0.68720884498E+03  0.10566000000E+00 0.  1.
        994    1    1    2    0    0  0.10863814381E+03  0.12950522913E+03  0.12001408857E+03  0.26886180859E+03  0.17120000000E+03 0.  0.
        998    1    1    2    0    0  0.41786663283E+01  0.23274355466E+01  0.71504342799E+03  0.71512934643E+03  0.10000000000E+02 0.  0.
</event>
<event>
 5    1  0.1087513E-008  0.3797016E+03  0.7957747E-01  0.3452459E+00
         13   -1    0    0    0    0  0.00000000000E+00  0.00000000000E+00  0.14999999963E+04  0.15000000000E+04  0.10566000000E+00 0. -1.
        994   -1    0    0    0    0 -0.00000000000E+00 -0.00000000000E+00  0.11368683772E-12  0.17120000000E+03  0.17120000000E+03 0.  0.
         13    1    1    2    0    0 -0.17241753201E+02 -0.38299106348E+02  0.17869570239E+03  0.18356542381E+03  0.10566000000E+00 0. -1.
        994    1    1    2    0    0  0.16620137860E+02  0.41256513198E+02  0.10932366397E+02  0.17722100750E+03  0.17120000000E+03 0.  0.
        998    1    1    2    0    0  0.62161534069E+00 -0.29574068500E+01  0.13103719275E+04  0.13104135687E+04  0.10000000000E+02 0. -1.
</event>
<event>
 5    1  0.1087513E-008  0.3782051E+03  0.7957747E-01  0.3459011E+00
         13   -1    0    0    0    0  0.00000000000E+00  0.00000000000E+00  0.14999999963E+04  0.15000000000E+04  0.10566000000E+00 0. -1.
        994   -1    0    0    0    0 -0.00000000000E+00 -0.00000000000E+00  0.11368683772E-12  0.17120000000E+03  0.17120000000E+03 0.  0.
         13    1    1    2    0    0 -0.88659035740E+01  0.29474093735E+02  0.85798511222E+02  0.91152192182E+02  0.10566000000E+00 0. -1.
        994    1    1    2    0    0  0.53219825818E+01 -0.35193529218E+02  0.93142088111E+01  0.17510883040E+03  0.17120000000E+03 0.  0.
        998    1    1    2    0    0  0.35439209922E+01  0.57194354831E+01  0.14048872762E+04  0.14049389774E+04  0.10000000000E+02 0. -1.
</event>
<event>
 5    1  0.1087513E-008  0.3819731E+03  0.7957747E-01  0.3442612E+00
         13   -1    0    0    0    0  0.00000000000E+00  0.00000000000E+00  0.14999999963E+04  0.15000000000E+04  0.10566000000E+00 0. -1.
        994   -1    0    0    0    0 -0.00000000000E+00 -0.00000000000E+00  0.11368683772E-12  0.17120000000E+03  0.17120000000E+03 0.  0.
         13    1    1    2    0    0 -0.18751095409E+02 -0.27180746713E+00  0.59755889836E+02  0.62629505766E+02  0.10566000000E+00 0. -1.
        994    1    1    2    0    0 -0.62491374765E+01  0.15729713420E+02  0.40924831876E+01  0.17208330547E+03  0.17120000000E+03 0.  0.
        998    1    1    2    0    0  0.25000232885E+02 -0.15457905953E+02  0.14361516233E+04  0.14364871888E+04  0.10000000000E+02 0. -1.
</event>
<event>
 5    1  0.1087513E-008  0.3812841E+03  0.7957747E-01  0.3445586E+00
         13   -1    0    0    0    0  0.00000000000E+00  0.00000000000E+00  0.14999999963E+04  0.15000000000E+04  0.10566000000E+00 0.  1.
        994   -1    0    0    0    0 -0.00000000000E+00 -0.00000000000E+00  0.11368683772E-12  0.17120000000E+03  0.17120000000E+03 0.  0.
         13    1    1    2    0    0 -0.75308574689E+02 -0.36005230268E+02  0.21251474186E+03  0.22832057441E+03  0.10566000000E+00 0.  1.
        994    1    1    2    0    0  0.42489548511E+02 -0.28588063686E+01  0.23665966430E+02  0.17799733839E+03  0.17120000000E+03 0.  0.
        998    1    1    2    0    0  0.32819026177E+02  0.38864036636E+02  0.12638192880E+04  0.12648820872E+04  0.10000000000E+02 0.  1.
</event>
<event>
 5    1  0.1087513E-008  0.3857282E+03  0.7957747E-01  0.3426590E+00
         13   -1    0    0    0    0  0.00000000000E+00  0.00000000000E+00  0.14999999963E+04  0.15000000000E+04  0.10566000000E+00 0.  1.
        994   -1    0    0    0    0 -0.00000000000E+00 -0.00000000000E+00  0.11368683772E-12  0.17120000000E+03  0.17120000000E+03 0.  0.
         13    1    1    2    0    0  0.10519809227E+02  0.98898882430E+00  0.44758110387E+02  0.45988521335E+02  0.10566000000E+00 0.  1.
        994    1    1    2    0    0 -0.45622631194E+01 -0.10021895362E+02  0.16669369131E+01  0.17156185855E+03  0.17120000000E+03 0.  0.
        998    1    1    2    0    0 -0.59575461077E+01  0.90329065381E+01  0.14535749490E+04  0.14536496201E+04  0.10000000000E+02 0.  1.
</event>
<event>
 5    1  0.1087513E-008  0.3817579E+03  0.7957747E-01  0.3443540E+00
         13   -1    0    0    0    0  0.00000000000E+00  0.00000000000E+00  0.14999999963E+04  0.15000000000E+04  0.10566000000E+00 0. -1.
        994   -1    0    0    0    0 -0.00000000000E+00 -0.00000000000E+00  0.11368683772E-12  0.17120000000E+03  0.17120000000E+03 0.  0.
         13    1    1    2    0    0  0.26341670906E+02  0.12104942062E+02  0.11891202955E+03  0.12239483316E+03  0.10566000000E+00 0. -1.
        994    1    1    2    0    0 -0.29693386944E+02 -0.67221881162E+01  0.63351108653E+01  0.17400131802E+03  0.17120000000E+03 0.  0.
        998    1    1    2    0    0  0.33517160380E+01 -0.53827539456E+01  0.13747528559E+04  0.13748038488E+04  0.10000000000E+02 0. -1.
</event>
<event>
 5    1  0.1087513E-008  0.2957240E+03  0.7957747E-01  0.3927027E+00
         13   -1    0    0    0    0  0.00000000000E+00  0.00000000000E+00  0.14999999963E+04  0.15000000000E+04  0.10566000000E+00 0. -1.
        994   -1    0    0    0    0 -0.00000000000E+00 -0.00000000000E+00  0.11368683772E-12  0.17120000000E+03  0.17120000000E+03 0.  0.
         13    1    1    2    0    0 -0.47400925279E+02 -0.20149364978E+03  0.53114086036E+03  0.57005014107E+03  0.10566000000E+00 0. -1.
        994    1    1    2    0    0  0.80814153298E+02  0.20658320599E+03  0.23294020250E+03  0.36438733006E+03  0.17120000000E+03 0.  0.
        998    1    1    2    0    0 -0.33413228019E+02 -0.50895562051E+01  0.73591893341E+03  0.73676252887E+03  0.10000000000E+02 0. -1.
</event>
<event>
 5    1  0.1087513E-008  0.3839489E+03  0.7957747E-01  0.3434142E+00
         13   -1    0    0    0    0  0.00000000000E+00  0.00000000000E+00  0.14999999963E+04  0.15000000000E+04  0.10566000000E+00 0. -1.
        994   -1    0    0    0    0 -0.00000000000E+00 -0.00000000000E+00  0.11368683772E-12  0.17120000000E+03  0.17120000000E+03 0.  0.
         13    1    1    2    0    0  0.25176452867E+02  0.10589418342E+02  0.15035122254E+03  0.15281194601E+03  0.10566000000E+00 0. -1.
        994    1    1    2    0    0 -0.28085724435E+02 -0.18758309019E+02  0.59261407812E+01  0.17460023259E+03  0.17120000000E+03 0.  0.
        998    1    1    2    0    0  0.29092715683E+01  0.81688906770E+01  0.13437226330E+04  0.13437878214E+04  0.10000000000E+02 0. -1.
</event>
<event>
 5    1  0.1087513E-008  0.3857659E+03  0.7957747E-01  0.3426430E+00
         13   -1    0    0    0    0  0.00000000000E+00  0.00000000000E+00  0.14999999963E+04  0.15000000000E+04  0.10566000000E+00 0. -1.
        994   -1    0    0    0    0 -0.00000000000E+00 -0.00000000000E+00  0.11368683772E-12  0.17120000000E+03  0.17120000000E+03 0.  0.
         13    1    1    2    0    0 -0.12552192319E+01  0.11254728158E+02  0.50595918035E+02  0.51847879099E+02  0.10566000000E+00 0. -1.
        994    1    1    2    0    0  0.75559998983E+00 -0.10995716085E+02  0.16489402054E+01  0.17156233767E+03  0.17120000000E+03 0.  0.
        998    1    1    2    0    0  0.49961924208E+00 -0.25901207288E+00  0.14477551380E+04  0.14477897832E+04  0.10000000000E+02 0.  0.
</event>
<event>
 5    1  0.1087513E-008  0.3685879E+03  0.7957747E-01  0.3502406E+00
         13   -1    0    0    0    0  0.00000000000E+00  0.00000000000E+00  0.14999999963E+04  0.15000000000E+04  0.10566000000E+00 0. -1.
        994   -1    0    0    0    0 -0.00000000000E+00 -0.00000000000E+00  0.11368683772E-12  0.17120000000E+03  0.17120000000E+03 0.  0.
         13    1    1    2    0    0 -0.61566173689E+02 -0.19340188444E+02  0.16690164587E+03  0.17894302777E+03  0.10566000000E+00 0. -1.
        994    1    1    2    0    0  0.65751598259E+02  0.70584035666E+02  0.43076941508E+02  0.20117266627E+03  0.17120000000E+03 0.  0.
        998    1    1    2    0    0 -0.41854245693E+01 -0.51243847223E+02  0.12900214089E+04  0.12910843060E+04  0.10000000000E+02 0. -1.
</event>
<event>
 5    1  0.1087513E-008  0.3770062E+03  0.7957747E-01  0.3464299E+00
         13   -1    0    0    0    0  0.00000000000E+00  0.00000000000E+00  0.14999999963E+04  0.15000000000E+04  0.10566000000E+00 0. -1.
        994   -1    0    0    0    0 -0.00000000000E+00 -0.00000000000E+00  0.11368683772E-12  0.17120000000E+03  0.17120000000E+03 0.  0.
         13    1    1    2    0    0  0.27486964282E+01  0.12997072188E+02  0.13279406598E+02  0.18783850008E+02  0.10566000000E+00 0. -1.
        994    1    1    2    0    0  0.38916001452E+01 -0.52203114040E+01  0.57952714929E+01  0.17142176459E+03  0.17120000000E+03 0.  0.
        998    1    1    2    0    0 -0.66402965735E+01 -0.77767607838E+01  0.14809253182E+04  0.14809943854E+04  0.10000000000E+02 0. -1.
</event>
<event>
 5    1  0.1087513E-008  0.3735423E+03  0.7957747E-01  0.3479768E+00
         13   -1    0    0    0    0  0.00000000000E+00  0.00000000000E+00  0.14999999963E+04  0.15000000000E+04  0.10566000000E+00 0. -1.
        994   -1    0    0    0    0 -0.00000000000E+00 -0.00000000000E+00  0.11368683772E-12  0.17120000000E+03  0.17120000000E+03 0.  0.
         13    1    1    2    0    0  0.10575635355E+02 -0.38622526722E+02  0.10805870145E+03  0.11523991390E+03  0.10566000000E+00 0. -1.
        994    1    1    2    0    0  0.31343414866E+01  0.19964409476E+02  0.88255397413E+01  0.17261440234E+03  0.17120000000E+03 0.  0.
        998    1    1    2    0    0 -0.13709976842E+02  0.18658117246E+02  0.13831157551E+04  0.13833456838E+04  0.10000000000E+02 0. -1.
</event>
<event>
 5    1  0.1087513E-008  0.3779092E+03  0.7957747E-01  0.3460313E+00
         13   -1    0    0    0    0  0.00000000000E+00  0.00000000000E+00  0.14999999963E+04  0.15000000000E+04  0.10566000000E+00 0. -1.
        994   -1    0    0    0    0 -0.00000000000E+00 -0.00000000000E+00  0.11368683772E-12  0.17120000000E+03  0.17120000000E+03 0.  0.
         13    1    1    2    0    0  0.14244572186E+02 -0.58980799942E+02  0.31706394057E+03  0.32281758963E+03  0.10566000000E+00 0. -1.
        994    1    1    2    0    0 -0.95438109331E+02  0.38729465254E+02  0.41776930029E+02  0.20411554589E+03  0.17120000000E+03 0.  0.
        998    1    1    2    0    0  0.81193537146E+02  0.20251334688E+02  0.11411591257E+04  0.11442668645E+04  0.10000000000E+02 0. -1.
</event>
<event>
 5    1  0.1087513E-008  0.2679187E+03  0.7957747E-01  0.4155516E+00
         13   -1    0    0    0    0  0.00000000000E+00  0.00000000000E+00  0.14999999963E+04  0.15000000000E+04  0.10566000000E+00 0.  1.
        994   -1    0    0    0    0 -0.00000000000E+00 -0.00000000000E+00  0.11368683772E-12  0.17120000000E+03  0.17120000000E+03 0.  0.
         13    1    1    2    0    0  0.76300631027E+02 -0.10437063405E+03  0.61476257935E+03  0.62821020023E+03  0.10566000000E+00 0.  1.
        994    1    1    2    0    0 -0.16036851956E+02  0.13440003490E+02  0.23208544128E+02  0.17402841962E+03  0.17120000000E+03 0.  0.
        998    1    1    2    0    0 -0.60263779071E+02  0.90930630559E+02  0.86202887280E+03  0.86896138015E+03  0.10000000000E+02 0.  1.
</event>
<event>
 5    1  0.1087513E-008  0.3738936E+03  0.7957747E-01  0.3478186E+00
         13   -1    0    0    0    0  0.00000000000E+00  0.00000000000E+00  0.14999999963E+04  0.15000000000E+04  0.10566000000E+00 0.  1.
        994   -1    0    0    0    0 -0.00000000000E+00 -0.00000000000E+00  0.11368683772E-12  0.17120000000E+03  0.17120000000E+03 0.  0.
         13    1    1    2    0    0 -0.46981131855E+02  0.40186853572E+02  0.22750270570E+03  0.23575347764E+03  0.10566000000E+00 0.  1.
        994    1    1    2    0    0  0.38329362799E+02 -0.45144970088E+02  0.19310291478E+02  0.18217995426E+03  0.17120000000E+03 0.  0.
        998    1    1    2    0    0  0.86517690560E+01  0.49581165159E+01  0.12531869991E+04  0.12532665681E+04  0.10000000000E+02 0.  1.
</event>
<event>
 5    1  0.1289572E-008  0.3807784E+03  0.7957747E-01  0.3447776E+00
         13   -1    0    0    0    0  0.00000000000E+00  0.00000000000E+00  0.14999999963E+04  0.15000000000E+04  0.10566000000E+00 0. -1.
        994   -1    0    0    0    0 -0.00000000000E+00 -0.00000000000E+00  0.11368683772E-12  0.17120000000E+03  0.17120000000E+03 0.  0.
         13    1    1    2    0    0 -0.26969743238E+01 -0.13209997762E+02  0.22538602622E+02  0.26263615204E+02  0.10566000000E+00 0. -1.
        994    1    1    2    0    0  0.39003076021E+01  0.12626375622E+02  0.43232557022E+01  0.17176369902E+03  0.17120000000E+03 0.  0.
        998    1    1    2    0    0 -0.12033332784E+01  0.58362214022E+00  0.14731381380E+04  0.14731726858E+04  0.10000000000E+02 0. -1.
</event>
<event>
 5    1  0.1087513E-008  0.3857279E+03  0.7957747E-01  0.3426591E+00
         13   -1    0    0    0    0  0.00000000000E+00  0.00000000000E+00  0.14999999963E+04  0.15000000000E+04  0.10566000000E+00 0. -1.
        994   -1    0    0    0    0 -0.00000000000E+00 -0.00000000000E+00  0.11368683772E-12  0.17120000000E+03  0.17120000000E+03 0.  0.
         13    1    1    2    0    0  0.12306790336E+02 -0.49328969737E+01  0.64995612472E+02  0.66334239768E+02  0.10566000000E+00 0. -1.
        994    1    1    2    0    0 -0.18043714209E+02  0.57985323785E+01  0.24485436136E+01  0.17226326935E+03  0.17120000000E+03 0.  0.
        998    1    1    2    0    0  0.57369238726E+01 -0.86563540471E+00  0.14325558402E+04  0.14326024909E+04  0.10000000000E+02 0. -1.
</event>
<event>
 5    1  0.1087513E-008  0.3791001E+03  0.7957747E-01  0.3455086E+00
         13   -1    0    0    0    0  0.00000000000E+00  0.00000000000E+00  0.14999999963E+04  0.15000000000E+04  0.10566000000E+00 0.  1.
        994   -1    0    0    0    0 -0.00000000000E+00 -0.00000000000E+00  0.11368683772E-12  0.17120000000E+03  0.17120000000E+03 0.  0.
         13    1    1    2    0    0 -0.14038990647E+02 -0.20371262272E+02  0.93006945299E+02  0.96241283360E+02  0.10566000000E+00 0.  1.
        994    1    1    2    0    0 -0.45408787270E+01 -0.63885453264E+02  0.18466722858E+02  0.18371834577E+03  0.17120000000E+03 0.  0.
        998    1    1    2    0    0  0.18579869374E+02  0.84256715536E+02  0.13885263281E+04  0.13912403709E+04  0.10000000000E+02 0.  1.
</event>
<event>
 5    1  0.1087513E-008  0.3961334E+03  0.7957747E-01  0.3383784E+00
         13   -1    0    0    0    0  0.00000000000E+00  0.00000000000E+00  0.14999999963E+04  0.15000000000E+04  0.10566000000E+00 0. -1.
        994   -1    0    0    0    0 -0.00000000000E+00 -0.00000000000E+00  0.11368683772E-12  0.17120000000E+03  0.17120000000E+03 0.  0.
         13    1    1    2    0    0  0.34751114120E+02  0.57823828573E+02  0.75983452748E+02  0.10161068516E+03  0.10566000000E+00 0. -1.
        994    1    1    2    0    0 -0.56961990163E+02 -0.49095697141E+02  0.47629009945E+02  0.19295859242E+03  0.17120000000E+03 0.  0.
        998    1    1    2    0    0  0.22210876044E+02 -0.87281314319E+01  0.13763875336E+04  0.13766307224E+04  0.10000000000E+02 0. -1.
</event>
<event>
 5    1  0.1087513E-008  0.3766417E+03  0.7957747E-01  0.3465913E+00
         13   -1    0    0    0    0  0.00000000000E+00  0.00000000000E+00  0.14999999963E+04  0.15000000000E+04  0.10566000000E+00 0. -1.
        994   -1    0    0    0    0 -0.00000000000E+00 -0.00000000000E+00  0.11368683772E-12  0.17120000000E+03  0.17120000000E+03 0.  0.
         13    1    1    2    0    0  0.24187529193E+02 -0.18903353833E+02  0.74007392574E+02  0.80121649223E+02  0.10566000000E+00 0. -1.
        994    1    1    2    0    0 -0.30471120054E+02  0.17262299722E+02  0.99953779370E+01  0.17503092221E+03  0.17120000000E+03 0.  0.
        998    1    1    2    0    0  0.62835908611E+01  0.16410541115E+01  0.14159972258E+04  0.14160474286E+04  0.10000000000E+02 0. -1.
</event>
<event>
 5    1  0.1087513E-008  0.3850250E+03  0.7957747E-01  0.3429566E+00
         13   -1    0    0    0    0  0.00000000000E+00  0.00000000000E+00  0.14999999963E+04  0.15000000000E+04  0.10566000000E+00 0. -1.
        994   -1    0    0    0    0 -0.00000000000E+00 -0.00000000000E+00  0.11368683772E-12  0.17120000000E+03  0.17120000000E+03 0.  0.
         13    1    1    2    0    0  0.18780572143E+01 -0.12133086479E+02  0.43563688622E+02  0.45260855237E+02  0.10566000000E+00 0. -1.
        994    1    1    2    0    0 -0.59375776642E+01  0.20209154851E+02  0.30780166551E+01  0.17251834382E+03  0.17120000000E+03 0.  0.
        998    1    1    2    0    0  0.40595204499E+01 -0.80760683718E+01  0.14533582910E+04  0.14534208009E+04  0.10000000000E+02 0. -1.
</event>
<event>
 5    1  0.1087513E-008  0.3834873E+03  0.7957747E-01  0.3436113E+00
         13   -1    0    0    0    0  0.00000000000E+00  0.00000000000E+00  0.14999999963E+04  0.15000000000E+04  0.10566000000E+00 0. -1.
        994   -1    0    0    0    0 -0.00000000000E+00 -0.00000000000E+00  0.11368683772E-12  0.17120000000E+03  0.17120000000E+03 0.  0.
         13    1    1    2    0    0  0.16384160601E+02 -0.18881624482E+01  0.57225538773E+02  0.59554843027E+02  0.10566000000E+00 0. -1.
        994    1    1    2    0    0 -0.83914158489E+01 -0.21506212274E+01  0.26310733992E+01  0.17143921249E+03  0.17120000000E+03 0.  0.
        998    1    1    2    0    0 -0.79927447524E+01  0.40387836757E+01  0.14401433841E+04  0.14402059445E+04  0.10000000000E+02 0. -1.
</event>
<event>
 5    1  0.1087513E-008  0.3851645E+03  0.7957747E-01  0.3428975E+00
         13   -1    0    0    0    0  0.00000000000E+00  0.00000000000E+00  0.14999999963E+04  0.15000000000E+04  0.10566000000E+00 0.  1.
        994   -1    0    0    0    0 -0.00000000000E+00 -0.00000000000E+00  0.11368683772E-12  0.17120000000E+03  0.17120000000E+03 0.  0.
         13    1    1    2    0    0  0.52160567058E+01  0.86048648400E+01  0.32231048425E+02  0.33765405270E+02  0.10566000000E+00 0.  1.
        994    1    1    2    0    0 -0.13663379851E+02 -0.23347862485E+01  0.21802990097E+01  0.17177407511E+03  0.17120000000E+03 0.  0.
        998    1    1    2    0    0  0.84473231452E+01 -0.62700785915E+01  0.14655886488E+04  0.14656605196E+04  0.10000000000E+02 0.  1.
</event>
<event>
 5    1  0.1087513E-008  0.3696110E+03  0.7957747E-01  0.3497680E+00
         13   -1    0    0    0    0  0.00000000000E+00  0.00000000000E+00  0.14999999963E+04  0.15000000000E+04  0.10566000000E+00 0.  1.
        994   -1    0    0    0    0 -0.00000000000E+00 -0.00000000000E+00  0.11368683772E-12  0.17120000000E+03  0.17120000000E+03 0.  0.
         13    1    1    2    0    0  0.26727494186E+02  0.35960130393E+02  0.10815057542E+03  0.11706429024E+03  0.10566000000E+00 0.  1.
        994    1    1    2    0    0 -0.50429272025E+02  0.18732591331E+02  0.19560177696E+02  0.18051609902E+03  0.17120000000E+03 0.  0.
        998    1    1    2    0    0  0.23701777839E+02 -0.54692721724E+02  0.13722892432E+04  0.13736196107E+04  0.10000000000E+02 0.  1.
</event>
<event>
 5    1  0.1087513E-008  0.3823632E+03  0.7957747E-01  0.3440933E+00
         13   -1    0    0    0    0  0.00000000000E+00  0.00000000000E+00  0.14999999963E+04  0.15000000000E+04  0.10566000000E+00 0.  1.
        994   -1    0    0    0    0 -0.00000000000E+00 -0.00000000000E+00  0.11368683772E-12  0.17120000000E+03  0.17120000000E+03 0.  0.
         13    1    1    2    0    0  0.96528995158E+01 -0.75744853341E+01  0.24554220306E+02  0.27449448009E+02  0.10566000000E+00 0.  1.
        994    1    1    2    0    0 -0.85211630618E+01  0.93726041523E+00  0.31887308901E+01  0.17144415033E+03  0.17120000000E+03 0.  0.
        998    1    1    2    0    0 -0.11317364540E+01  0.66372249189E+01  0.14722570451E+04  0.14723064017E+04  0.10000000000E+02 0.  1.
</event>
<event>
 5    1  0.1087513E-008  0.3731776E+03  0.7957747E-01  0.3481413E+00
         13   -1    0    0    0    0  0.00000000000E+00  0.00000000000E+00  0.14999999963E+04  0.15000000000E+04  0.10566000000E+00 0. -1.
        994   -1    0    0    0    0 -0.00000000000E+00 -0.00000000000E+00  0.11368683772E-12  0.17120000000E+03  0.17120000000E+03 0.  0.
         13    1    1    2    0    0  0.23482729636E+02 -0.18848656669E+02  0.55412285840E+02  0.63065386984E+02  0.10566000000E+00 0. -1.
        994    1    1    2    0    0 -0.56657831348E+01  0.34995908018E+02  0.11928281752E+02  0.17523851912E+03  0.17120000000E+03 0.  0.
        998    1    1    2    0    0 -0.17816946501E+02 -0.16147251349E+02  0.14326594287E+04  0.14328960939E+04  0.10000000000E+02 0. -1.
</event>
<event>
 5    1  0.1087513E-008  0.3835647E+03  0.7957747E-01  0.3435782E+00
         13   -1    0    0    0    0  0.00000000000E+00  0.00000000000E+00  0.14999999963E+04  0.15000000000E+04  0.10566000000E+00 0. -1.
        994   -1    0    0    0    0 -0.00000000000E+00 -0.00000000000E+00  0.11368683772E-12  0.17120000000E+03  0.17120000000E+03 0.  0.
         13    1    1    2    0    0  0.85744571645E+00  0.11164088832E+02  0.25505619308E+02  0.27855338320E+02  0.10566000000E+00 0. -1.
        994    1    1    2    0    0  0.45411949095E+01 -0.13289642395E+02  0.29963401001E+01  0.17180120809E+03  0.17120000000E+03 0.  0.
        998    1    1    2    0    0 -0.53986406260E+01  0.21255535630E+01  0.14714980369E+04  0.14715434536E+04  0.10000000000E+02 0. -1.
</event>
<event>
 5    1  0.1087513E-008  0.3767888E+03  0.7957747E-01  0.3465261E+00
         13   -1    0    0    0    0  0.00000000000E+00  0.00000000000E+00  0.14999999963E+04  0.15000000000E+04  0.10566000000E+00 0. -1.
        994   -1    0    0    0    0 -0.00000000000E+00 -0.00000000000E+00  0.11368683772E-12  0.17120000000E+03  0.17120000000E+03 0.  0.
         13    1    1    2    0    0  0.37052565798E+02  0.55593187615E+01  0.11692686291E+03  0.12278314661E+03  0.10566000000E+00 0. -1.
        994    1    1    2    0    0 -0.30711437654E+02  0.17232070277E+02  0.99646543285E+01  0.17506818953E+03  0.17120000000E+03 0.  0.
        998    1    1    2    0    0 -0.63411281434E+01 -0.22791389039E+02  0.13731084790E+04  0.13733486639E+04  0.10000000000E+02 0. -1.
</event>
<event>
 5    1  0.1087513E-008  0.3692191E+03  0.7957747E-01  0.3499488E+00
         13   -1    0    0    0    0  0.00000000000E+00  0.00000000000E+00  0.14999999963E+04  0.15000000000E+04  0.10566000000E+00 0. -1.
        994   -1    0    0    0    0 -0.00000000000E+00 -0.00000000000E+00  0.11368683772E-12  0.17120000000E+03  0.17120000000E+03 0.  0.
         13    1    1    2    0    0 -0.35509395060E+02 -0.91947469740E+01  0.62278809578E+02  0.72278086554E+02  0.10566000000E+00 0. -1.
        994    1    1    2    0    0  0.41843702426E+02  0.75799600101E+01  0.15973565809E+02  0.17712409783E+03  0.17120000000E+03 0.  0.
        998    1    1    2    0    0 -0.63343073652E+01  0.16147869639E+01  0.14217476209E+04  0.14217978156E+04  0.10000000000E+02 0. -1.
</event>
<event>
 5    1  0.1087513E-008  0.3753021E+03  0.7957747E-01  0.3471873E+00
         13   -1    0    0    0    0  0.00000000000E+00  0.00000000000E+00  0.14999999963E+04  0.15000000000E+04  0.10566000000E+00 0. -1.
        994   -1    0    0    0    0 -0.00000000000E+00 -0.00000000000E+00  0.11368683772E-12  0.17120000000E+03  0.17120000000E+03 0.  0.
         13    1    1    2    0    0 -0.26940190589E+02  0.83082671400E+00  0.52119537626E+02  0.58676413562E+02  0.10566000000E+00 0. -1.
        994    1    1    2    0    0  0.23775344583E+02  0.17357833189E+01  0.84558064566E+01  0.17305843122E+03  0.17120000000E+03 0.  0.
        998    1    1    2    0    0  0.31648460057E+01 -0.25666100329E+01  0.14394246522E+04  0.14394651552E+04  0.10000000000E+02 0. -1.
</event>
<event>
 5    1  0.1087513E-008  0.3858607E+03  0.7957747E-01  0.3426030E+00
         13   -1    0    0    0    0  0.00000000000E+00  0.00000000000E+00  0.14999999963E+04  0.15000000000E+04  0.10566000000E+00 0. -1.
        994   -1    0    0    0    0 -0.00000000000E+00 -0.00000000000E+00  0.11368683772E-12  0.17120000000E+03  0.17120000000E+03 0.  0.
         13    1    1    2    0    0 -0.10144198126E+02  0.71878326617E+01  0.65615676374E+02  0.66783215287E+02  0.10566000000E+00 0. -1.
        994    1    1    2    0    0  0.15595054465E+01 -0.94284284267E+01  0.15030034689E+01  0.17147310675E+03  0.17120000000E+03 0.  0.
        998    1    1    2    0    0  0.85846926794E+01  0.22405957651E+01  0.14328813164E+04  0.14329436780E+04  0.10000000000E+02 0. -1.
</event>
<event>
 5    1  0.1087513E-008  0.3778424E+03  0.7957747E-01  0.3460607E+00
         13   -1    0    0    0    0  0.00000000000E+00  0.00000000000E+00  0.14999999963E+04  0.15000000000E+04  0.10566000000E+00 0.  1.
        994   -1    0    0    0    0 -0.00000000000E+00 -0.00000000000E+00  0.11368683772E-12  0.17120000000E+03  0.17120000000E+03 0.  0.
         13    1    1    2    0    0  0.18805112318E+02 -0.45543554402E+02  0.22005955459E+03  0.22550846177E+03  0.10566000000E+00 0.  1.
        994    1    1    2    0    0  0.22782376548E+01  0.39170446248E+02  0.10427288902E+02  0.17594795418E+03  0.17120000000E+03 0.  0.
        998    1    1    2    0    0 -0.21083349973E+02  0.63731081536E+01  0.12695131528E+04  0.12697435841E+04  0.10000000000E+02 0.  1.
</event>
<event>
 5    1  0.1087513E-008  0.3850595E+03  0.7957747E-01  0.3429420E+00
         13   -1    0    0    0    0  0.00000000000E+00  0.00000000000E+00  0.14999999963E+04  0.15000000000E+04  0.10566000000E+00 0.  1.
        994   -1    0    0    0    0 -0.00000000000E+00 -0.00000000000E+00  0.11368683772E-12  0.17120000000E+03  0.17120000000E+03 0.  0.
         13    1    1    2    0    0 -0.67082054969E+01 -0.14632360368E+02  0.83970892006E+02  0.85499870522E+02  0.10566000000E+00 0.  1.
        994    1    1    2    0    0  0.13072478391E+01  0.55226717245E+01  0.17065180851E+01  0.17130254232E+03  0.17120000000E+03 0.  0.
        998    1    1    2    0    0  0.54009576577E+01  0.91096886430E+01  0.14143225862E+04  0.14143975872E+04  0.10000000000E+02 0.  1.
</event>
<event>
 5    1  0.1087513E-008  0.3692251E+03  0.7957747E-01  0.3499460E+00
         13   -1    0    0    0    0  0.00000000000E+00  0.00000000000E+00  0.14999999963E+04  0.15000000000E+04  0.10566000000E+00 0.  1.
        994   -1    0    0    0    0 -0.00000000000E+00 -0.00000000000E+00  0.11368683772E-12  0.17120000000E+03  0.17120000000E+03 0.  0.
         13    1    1    2    0    0 -0.10934038258E+03  0.49118355320E+02  0.51088248125E+03  0.52475599368E+03  0.10566000000E+00 0.  1.
        994    1    1    2    0    0  0.10173487578E+03 -0.45936395942E+02  0.54205578806E+02  0.21144224317E+03  0.17120000000E+03 0.  0.
        998    1    1    2    0    0  0.76055067974E+01 -0.31819593780E+01  0.93491193622E+03  0.93500176315E+03  0.10000000000E+02 0.  1.
</event>
<event>
 5    1  0.1087513E-008  0.3732208E+03  0.7957747E-01  0.3481219E+00
         13   -1    0    0    0    0  0.00000000000E+00  0.00000000000E+00  0.14999999963E+04  0.15000000000E+04  0.10566000000E+00 0.  1.
        994   -1    0    0    0    0 -0.00000000000E+00 -0.00000000000E+00  0.11368683772E-12  0.17120000000E+03  0.17120000000E+03 0.  0.
         13    1    1    2    0    0  0.15859924847E+01  0.58692778864E+02  0.22822342024E+03  0.23565504105E+03  0.10566000000E+00 0.  1.
        994    1    1    2    0    0  0.50206451230E+01 -0.31447282767E+02  0.11071196061E+02  0.17448825133E+03  0.17120000000E+03 0.  0.
        998    1    1    2    0    0 -0.66066376076E+01 -0.27245496097E+02  0.12607053800E+04  0.12610567076E+04  0.10000000000E+02 0.  1.
</event>
<event>
 5    1  0.1087513E-008  0.3822428E+03  0.7957747E-01  0.3441451E+00
         13   -1    0    0    0    0  0.00000000000E+00  0.00000000000E+00  0.14999999963E+04  0.15000000000E+04  0.10566000000E+00 0. -1.
        994   -1    0    0    0    0 -0.00000000000E+00 -0.00000000000E+00  0.11368683772E-12  0.17120000000E+03  0.17120000000E+03 0.  0.
         13    1    1    2    0    0  0.12389270302E+02  0.36150838825E+01  0.27808029010E+02  0.30657144217E+02  0.10566000000E+00 0. -1.
        994    1    1    2    0    0  0.59072274663E+01 -0.43876832125E+01  0.31849482162E+01  0.17138766290E+03  0.17120000000E+03 0.  0.
        998    1    1    2    0    0 -0.18296497768E+02  0.77259932997E+00  0.14690070191E+04  0.14691551929E+04  0.10000000000E+02 0. -1.
</event>
<event>
 5    1  0.1087513E-008  0.3771517E+03  0.7957747E-01  0.3463655E+00
         13   -1    0    0    0    0  0.00000000000E+00  0.00000000000E+00  0.14999999963E+04  0.15000000000E+04  0.10566000000E+00 0.  1.
        994   -1    0    0    0    0 -0.00000000000E+00 -0.00000000000E+00  0.11368683772E-12  0.17120000000E+03  0.17120000000E+03 0.  0.
         13    1    1    2    0    0 -0.21328722319E+03 -0.65230890946E+02  0.10586328939E+04  0.10818734324E+04  0.10566000000E+00 0.  1.
        994    1    1    2    0    0  0.20403130989E+03  0.97466150227E+02  0.20392276617E+03  0.34931699131E+03  0.17120000000E+03 0.  0.
        998    1    1    2    0    0  0.92559132942E+01 -0.32235259281E+02  0.23744433625E+03  0.24000957624E+03  0.10000000000E+02 0. -1.
</event>
<event>
 5    1  0.1087513E-008  0.3860633E+03  0.7957747E-01  0.3425175E+00
         13   -1    0    0    0    0  0.00000000000E+00  0.00000000000E+00  0.14999999963E+04  0.15000000000E+04  0.10566000000E+00 0. -1.
        994   -1    0    0    0    0 -0.00000000000E+00 -0.00000000000E+00  0.11368683772E-12  0.17120000000E+03  0.17120000000E+03 0.  0.
         13    1    1    2    0    0  0.56199627684E+01 -0.83096641590E+01  0.43890336772E+02  0.45022298098E+02  0.10566000000E+00 0. -1.
        994    1    1    2    0    0  0.24479540002E+01  0.19949789433E+02  0.24282732705E+01  0.17239293225E+03  0.17120000000E+03 0.  0.
        998    1    1    2    0    0 -0.80679167686E+01 -0.11640125274E+02  0.14536813862E+04  0.14537847697E+04  0.10000000000E+02 0. -1.
</event>
<event>
 5    1  0.1087513E-008  0.3842441E+03  0.7957747E-01  0.3432885E+00
         13   -1    0    0    0    0  0.00000000000E+00  0.00000000000E+00  0.14999999963E+04  0.15000000000E+04  0.10566000000E+00 0. -1.
        994   -1    0    0    0    0 -0.00000000000E+00 -0.00000000000E+00  0.11368683772E-12  0.17120000000E+03  0.17120000000E+03 0.  0.
         13    1    1    2    0    0  0.54985512693E+01  0.12994273637E+02  0.48281100872E+02  0.50300706544E+02  0.10566000000E+00 0. -1.
        994    1    1    2    0    0 -0.30975175372E+02 -0.20067056338E+01  0.51887410130E+01  0.17406852498E+03  0.17120000000E+03 0.  0.
        998    1    1    2    0    0  0.25476624102E+02 -0.10987568003E+02  0.14465301544E+04  0.14468307685E+04  0.10000000000E+02 0. -1.
</event>
<event>
 5    1  0.1087513E-008  0.3841130E+03  0.7957747E-01  0.3433443E+00
         13   -1    0    0    0    0  0.00000000000E+00  0.00000000000E+00  0.14999999963E+04  0.15000000000E+04  0.10566000000E+00 0.  1.
        994   -1    0    0    0    0 -0.00000000000E+00 -0.00000000000E+00  0.11368683772E-12  0.17120000000E+03  0.17120000000E+03 0.  0.
         13    1    1    2    0    0  0.90889660156E+01 -0.71334784141E+01  0.31137671754E+02  0.33212370945E+02  0.10566000000E+00 0.  1.
        994    1    1    2    0    0 -0.70458519415E+01  0.10791483681E+02  0.26191800616E+01  0.17170439789E+03  0.17120000000E+03 0.  0.
        998    1    1    2    0    0 -0.20431140741E+01 -0.36580052672E+01  0.14662431445E+04  0.14662832312E+04  0.10000000000E+02 0.  1.
</event>
<event>
 5    1  0.1087513E-008  0.3818367E+03  0.7957747E-01  0.3443200E+00
         13   -1    0    0    0    0  0.00000000000E+00  0.00000000000E+00  0.14999999963E+04  0.15000000000E+04  0.10566000000E+00 0. -1.
        994   -1    0    0    0    0 -0.00000000000E+00 -0.00000000000E+00  0.11368683772E-12  0.17120000000E+03  0.17120000000E+03 0.  0.
         13    1    1    2    0    0 -0.38821611219E+02  0.57615937782E+02  0.36975024384E+03  0.37622063708E+03  0.10566000000E+00 0. -1.
        994    1    1    2    0    0  0.38784005367E+02 -0.10457191945E+03  0.45708102195E+02  0.20937563377E+03  0.17120000000E+03 0.  0.
        998    1    1    2    0    0  0.37605851967E-01  0.46955981665E+02  0.10845416502E+04  0.10856037292E+04  0.10000000000E+02 0. -1.
</event>
<event>
 5    1  0.1092294E-008  0.3861524E+03  0.7957747E-01  0.3424799E+00
         13   -1    0    0    0    0  0.00000000000E+00  0.00000000000E+00  0.14999999963E+04  0.15000000000E+04  0.10566000000E+00 0.  1.
        994   -1    0    0    0    0 -0.00000000000E+00 -0.00000000000E+00  0.11368683772E-12  0.17120000000E+03  0.17120000000E+03 0.  0.
         13    1    1    2    0    0 -0.82152391587E+01 -0.81639403038E+01  0.62954946879E+02  0.64011534713E+02  0.10566000000E+00 0.  1.
        994    1    1    2    0    0  0.12520211490E+02  0.22363115164E+01  0.15892359585E+01  0.17167912644E+03  0.17120000000E+03 0.  0.
        998    1    1    2    0    0 -0.43049723312E+01  0.59276287875E+01  0.14354558134E+04  0.14355093388E+04  0.10000000000E+02 0.  1.
</event>
<event>
 5    1  0.1087513E-008  0.3710495E+03  0.7957747E-01  0.3491081E+00
         13   -1    0    0    0    0  0.00000000000E+00  0.00000000000E+00  0.14999999963E+04  0.15000000000E+04  0.10566000000E+00 0.  1.
        994   -1    0    0    0    0 -0.00000000000E+00 -0.00000000000E+00  0.11368683772E-12  0.17120000000E+03  0.17120000000E+03 0.  0.
         13    1    1    2    0    0 -0.22228487269E+02  0.83644869143E+01  0.28548458407E+02  0.37136180863E+02  0.10566000000E+00 0.  1.
        994    1    1    2    0    0  0.15937001152E+02 -0.11978517629E+02  0.10092089482E+02  0.17265214496E+03  0.17120000000E+03 0.  0.
        998    1    1    2    0    0  0.62914861168E+01  0.36140307150E+01  0.14613594484E+04  0.14614116742E+04  0.10000000000E+02 0.  1.
</event>
<event>
 5    1  0.1087513E-008  0.3794455E+03  0.7957747E-01  0.3453577E+00
         13   -1    0    0    0    0  0.00000000000E+00  0.00000000000E+00  0.14999999963E+04  0.15000000000E+04  0.10566000000E+00 0.  1.
        994   -1    0    0    0    0 -0.00000000000E+00 -0.00000000000E+00  0.11368683772E-12  0.17120000000E+03  0.17120000000E+03 0.  0.
         13    1    1    2    0    0 -0.17021765466E+02  0.77400924985E+02  0.47603484114E+03  0.48258659827E+03  0.10566000000E+00 0.  1.
        994    1    1    2    0    0  0.15605161469E+02 -0.78827821149E+02  0.26352111383E+02  0.19094821347E+03  0.17120000000E+03 0.  0.
        998    1    1    2    0    0  0.14166039969E+01  0.14268961634E+01  0.99761304375E+03  0.99766518826E+03  0.10000000000E+02 0.  0.
</event>
<event>
 5    1  0.1087513E-008  0.3818327E+03  0.7957747E-01  0.3443217E+00
         13   -1    0    0    0    0  0.00000000000E+00  0.00000000000E+00  0.14999999963E+04  0.15000000000E+04  0.10566000000E+00 0. -1.
        994   -1    0    0    0    0 -0.00000000000E+00 -0.00000000000E+00  0.11368683772E-12  0.17120000000E+03  0.17120000000E+03 0.  0.
         13    1    1    2    0    0  0.13848991351E+02  0.56732456374E+01  0.32685581583E+02  0.35949112436E+02  0.10566000000E+00 0. -1.
        994    1    1    2    0    0 -0.16232544784E+02 -0.10376476282E+02  0.44451499809E+01  0.17233794164E+03  0.17120000000E+03 0.  0.
        998    1    1    2    0    0  0.23835534330E+01  0.47032306447E+01  0.14628692647E+04  0.14629129459E+04  0.10000000000E+02 0. -1.
</event>
<event>
 5    1  0.1087513E-008  0.3705669E+03  0.7957747E-01  0.3493290E+00
         13   -1    0    0    0    0  0.00000000000E+00  0.00000000000E+00  0.14999999963E+04  0.15000000000E+04  0.10566000000E+00 0. -1.
        994   -1    0    0    0    0 -0.00000000000E+00 -0.00000000000E+00  0.11368683772E-12  0.17120000000E+03  0.17120000000E+03 0.  0.
         13    1    1    2    0    0 -0.70664432237E+02  0.96301406228E+02  0.63229213419E+03  0.64347554495E+03  0.10566000000E+00 0. -1.
        994    1    1    2    0    0  0.61251947102E+02 -0.68253746631E+02  0.38582500125E+02  0.19801117208E+03  0.17120000000E+03 0.  0.
        998    1    1    2    0    0  0.94124851344E+01 -0.28047659597E+02  0.82912536196E+03  0.82971328297E+03  0.10000000000E+02 0. -1.
</event>
<event>
 5    1  0.1087513E-008  0.3701347E+03  0.7957747E-01  0.3495272E+00
         13   -1    0    0    0    0  0.00000000000E+00  0.00000000000E+00  0.14999999963E+04  0.15000000000E+04  0.10566000000E+00 0. -1.
        994   -1    0    0    0    0 -0.00000000000E+00 -0.00000000000E+00  0.11368683772E-12  0.17120000000E+03  0.17120000000E+03 0.  0.
         13    1    1    2    0    0 -0.92332028100E+01  0.65015278284E+02  0.29742428258E+03  0.30458734950E+03  0.10566000000E+00 0. -1.
        994    1    1    2    0    0  0.33717678912E+02  0.22495586293E+01  0.13155516247E+02  0.17499842854E+03  0.17120000000E+03 0.  0.
        998    1    1    2    0    0 -0.24484476102E+02 -0.67264836913E+02  0.11894201975E+04  0.11916142220E+04  0.10000000000E+02 0. -1.
</event>
<event>
 5    1  0.1087513E-008  0.3725413E+03  0.7957747E-01  0.3484292E+00
         13   -1    0    0    0    0  0.00000000000E+00  0.00000000000E+00  0.14999999963E+04  0.15000000000E+04  0.10566000000E+00 0.  1.
        994   -1    0    0    0    0 -0.00000000000E+00 -0.00000000000E+00  0.11368683772E-12  0.17120000000E+03  0.17120000000E+03 0.  0.
         13    1    1    2    0    0 -0.46566908335E+02  0.18335363578E+02  0.16555440586E+03  0.17295356305E+03  0.10566000000E+00 0.  1.
        994    1    1    2    0    0  0.23740749091E+02  0.14080743430E+02  0.10562685037E+02  0.17373226764E+03  0.17120000000E+03 0.  0.
        998    1    1    2    0    0  0.22826159244E+02 -0.32416107007E+02  0.13238829054E+04  0.13245141693E+04  0.10000000000E+02 0.  1.
</event>
<event>
 5    1  0.1519366E-008  0.3860275E+03  0.7957747E-01  0.3425326E+00
         13   -1    0    0    0    0  0.00000000000E+00  0.00000000000E+00  0.14999999963E+04  0.15000000000E+04  0.10566000000E+00 0. -1.
        994   -1    0    0    0    0 -0.00000000000E+00 -0.00000000000E+00  0.11368683772E-12  0.17120000000E+03  0.17120000000E+03 0.  0.
         13    1    1    2    0    0 -0.44352659151E+00 -0.12212395611E+02  0.65425761042E+02  0.66557348914E+02  0.10566000000E+00 0. -1.
        994    1    1    2    0    0  0.26327804048E+01  0.12032669243E+02  0.16183149108E+01  0.17165015469E+03  0.17120000000E+03 0.  0.
        998    1    1    2    0    0 -0.21892538133E+01  0.17972636805E+00  0.14329559203E+04  0.14329924964E+04  0.10000000000E+02 0. -1.
</event>
<event>
 5    1  0.1087513E-008  0.3786366E+03  0.7957747E-01  0.3457117E+00
         13   -1    0    0    0    0  0.00000000000E+00  0.00000000000E+00  0.14999999963E+04  0.15000000000E+04  0.10566000000E+00 0.  1.
        994   -1    0    0    0    0 -0.00000000000E+00 -0.00000000000E+00  0.11368683772E-12  0.17120000000E+03  0.17120000000E+03 0.  0.
         13    1    1    2    0    0  0.30208437986E+02  0.12621263773E+01  0.94656079688E+02  0.99367636958E+02  0.10566000000E+00 0.  1.
        994    1    1    2    0    0 -0.14753515155E+02 -0.37331785026E+01  0.56010905353E+01  0.17196631951E+03  0.17120000000E+03 0.  0.
        998    1    1    2    0    0 -0.15454922831E+02  0.24710521253E+01  0.13997428261E+04  0.13998660435E+04  0.10000000000E+02 0.  1.
</event>
<event>
 5    1  0.1918739E-008  0.3861699E+03  0.7957747E-01  0.3424726E+00
         13   -1    0    0    0    0  0.00000000000E+00  0.00000000000E+00  0.14999999963E+04  0.15000000000E+04  0.10566000000E+00 0.  1.
        994   -1    0    0    0    0 -0.00000000000E+00 -0.00000000000E+00  0.11368683772E-12  0.17120000000E+03  0.17120000000E+03 0.  0.
         13    1    1    2    0    0 -0.10114253956E+02  0.36056995035E+01  0.55446261568E+02  0.56476528646E+02  0.10566000000E+00 0.  1.
        994    1    1    2    0    0  0.74794430301E+01 -0.23698536550E+01  0.12521040157E+01  0.17138426427E+03  0.17120000000E+03 0.  0.
        998    1    1    2    0    0  0.26348109261E+01 -0.12358458485E+01  0.14433016307E+04  0.14433392071E+04  0.10000000000E+02 0.  1.
</event>
<event>
 5    1  0.1087513E-008  0.3787003E+03  0.7957747E-01  0.3456837E+00
         13   -1    0    0    0    0  0.00000000000E+00  0.00000000000E+00  0.14999999963E+04  0.15000000000E+04  0.10566000000E+00 0.  1.
        994   -1    0    0    0    0 -0.00000000000E+00 -0.00000000000E+00  0.11368683772E-12  0.17120000000E+03  0.17120000000E+03 0.  0.
         13    1    1    2    0    0  0.11912884950E+02 -0.18546821707E+02  0.48423097889E+02  0.53204407679E+02  0.10566000000E+00 0.  1.
        994    1    1    2    0    0 -0.24810923824E+01  0.18742278040E+02  0.59915846462E+01  0.17234490968E+03  0.17120000000E+03 0.  0.
        998    1    1    2    0    0 -0.94317925674E+01 -0.19545633286E+00  0.14455853137E+04  0.14456506826E+04  0.10000000000E+02 0.  1.
</event>
<event>
 5    1  0.1087513E-008  0.3853450E+03  0.7957747E-01  0.3428210E+00
         13   -1    0    0    0    0  0.00000000000E+00  0.00000000000E+00  0.14999999963E+04  0.15000000000E+04  0.10566000000E+00 0.  1.
        994   -1    0    0    0    0 -0.00000000000E+00 -0.00000000000E+00  0.11368683772E-12  0.17120000000E+03  0.17120000000E+03 0.  0.
         13    1    1    2    0    0 -0.97385497969E+01  0.97085231298E+01  0.60467159172E+02  0.62011154448E+02  0.10566000000E+00 0.  1.
        994    1    1    2    0    0  0.12879962790E+02 -0.16185318416E+02  0.28656945042E+01  0.17246886727E+03  0.17120000000E+03 0.  0.
        998    1    1    2    0    0 -0.31414129933E+01  0.64767952861E+01  0.14366671426E+04  0.14367199783E+04  0.10000000000E+02 0.  1.
</event>
<event>
 5    1  0.1087513E-008  0.3706481E+03  0.7957747E-01  0.3492918E+00
         13   -1    0    0    0    0  0.00000000000E+00  0.00000000000E+00  0.14999999963E+04  0.15000000000E+04  0.10566000000E+00 0. -1.
        994   -1    0    0    0    0 -0.00000000000E+00 -0.00000000000E+00  0.11368683772E-12  0.17120000000E+03  0.17120000000E+03 0.  0.
         13    1    1    2    0    0 -0.80731702271E+02 -0.16009485729E+02  0.34878698621E+03  0.35836613163E+03  0.10566000000E+00 0. -1.
        994    1    1    2    0    0  0.22008928327E+02  0.12670240300E+02  0.13544976494E+02  0.17360251814E+03  0.17120000000E+03 0.  0.
        998    1    1    2    0    0  0.58722773945E+02  0.33392454292E+01  0.11376680336E+04  0.11392313502E+04  0.10000000000E+02 0. -1.
</event>
<event>
 5    1  0.1087513E-008  0.3829858E+03  0.7957747E-01  0.3438260E+00
         13   -1    0    0    0    0  0.00000000000E+00  0.00000000000E+00  0.14999999963E+04  0.15000000000E+04  0.10566000000E+00 0.  1.
        994   -1    0    0    0    0 -0.00000000000E+00 -0.00000000000E+00  0.11368683772E-12  0.17120000000E+03  0.17120000000E+03 0.  0.
         13    1    1    2    0    0  0.76332597810E+01  0.16859743797E+02  0.56168169773E+02  0.59138752738E+02  0.10566000000E+00 0.  1.
        994    1    1    2    0    0  0.27501624286E+01 -0.46218465195E+02  0.97623508630E+01  0.17761884307E+03  0.17120000000E+03 0.  0.
        998    1    1    2    0    0 -0.10383422210E+02  0.29358721398E+02  0.14340694756E+04  0.14344424042E+04  0.10000000000E+02 0.  1.
</event>
<event>
 5    1  0.1087513E-008  0.3815709E+03  0.7957747E-01  0.3444347E+00
         13   -1    0    0    0    0  0.00000000000E+00  0.00000000000E+00  0.14999999963E+04  0.15000000000E+04  0.10566000000E+00 0.  1.
        994   -1    0    0    0    0 -0.00000000000E+00 -0.00000000000E+00  0.11368683772E-12  0.17120000000E+03  0.17120000000E+03 0.  0.
         13    1    1    2    0    0  0.36447351557E+02 -0.13913083129E+03  0.79152239120E+03  0.80448337744E+03  0.10566000000E+00 0.  1.
        994    1    1    2    0    0 -0.36379780179E+02  0.16358608510E+03  0.10318175695E+03  0.26084441840E+03  0.17120000000E+03 0.  0.
        998    1    1    2    0    0 -0.67571377736E-01 -0.24455253810E+02  0.60529584813E+03  0.60587220415E+03  0.10000000000E+02 0.  1.
</event>
<event>
 5    1  0.1087513E-008  0.3831227E+03  0.7957747E-01  0.3437673E+00
         13   -1    0    0    0    0  0.00000000000E+00  0.00000000000E+00  0.14999999963E+04  0.15000000000E+04  0.10566000000E+00 0.  1.
        994   -1    0    0    0    0 -0.00000000000E+00 -0.00000000000E+00  0.11368683772E-12  0.17120000000E+03  0.17120000000E+03 0.  0.
         13    1    1    2    0    0  0.92467774210E+01 -0.11555627609E+02  0.39455007483E+02  0.42139579988E+02  0.10566000000E+00 0.  1.
        994    1    1    2    0    0 -0.22422039427E+02  0.13690162381E+02  0.48519992111E+01  0.17327189701E+03  0.17120000000E+03 0.  0.
        998    1    1    2    0    0  0.13175262006E+02 -0.21345347721E+01  0.14556929896E+04  0.14557885230E+04  0.10000000000E+02 0.  1.
</event>
<event>
 5    1  0.1087513E-008  0.3888871E+03  0.7957747E-01  0.3413352E+00
         13   -1    0    0    0    0  0.00000000000E+00  0.00000000000E+00  0.14999999963E+04  0.15000000000E+04  0.10566000000E+00 0.  1.
        994   -1    0    0    0    0 -0.00000000000E+00 -0.00000000000E+00  0.11368683772E-12  0.17120000000E+03  0.17120000000E+03 0.  0.
         13    1    1    2    0    0 -0.24720325562E+01  0.36543563944E+02  0.25067611173E+02  0.44383998295E+02  0.10566000000E+00 0.  1.
        994    1    1    2    0    0  0.12800836106E+02  0.78124760751E+01  0.22140334281E+02  0.17327588000E+03  0.17120000000E+03 0.  0.
        998    1    1    2    0    0 -0.10328803550E+02 -0.44356040019E+02  0.14527920508E+04  0.14535401217E+04  0.10000000000E+02 0.  1.
</event>
<event>
 5    1  0.1402786E-008  0.3859551E+03  0.7957747E-01  0.3425631E+00
         13   -1    0    0    0    0  0.00000000000E+00  0.00000000000E+00  0.14999999963E+04  0.15000000000E+04  0.10566000000E+00 0.  1.
        994   -1    0    0    0    0 -0.00000000000E+00 -0.00000000000E+00  0.11368683772E-12  0.17120000000E+03  0.17120000000E+03 0.  0.
         13    1    1    2    0    0  0.41357746090E+00  0.10279447106E+02  0.45770511312E+02  0.46912567068E+02  0.10566000000E+00 0.  1.
        994    1    1    2    0    0  0.71941634815E-01 -0.85875882184E+01  0.13984995868E+01  0.17142096619E+03  0.17120000000E+03 0.  0.
        998    1    1    2    0    0 -0.48551909571E+00 -0.16918588877E+01  0.14528309854E+04  0.14528664667E+04  0.10000000000E+02 0.  1.
</event>
<event>
 5    1  0.1087513E-008  0.3759124E+03  0.7957747E-01  0.3469152E+00
         13   -1    0    0    0    0  0.00000000000E+00  0.00000000000E+00  0.14999999963E+04  0.15000000000E+04  0.10566000000E+00 0. -1.
        994   -1    0    0    0    0 -0.00000000000E+00 -0.00000000000E+00  0.11368683772E-12  0.17120000000E+03  0.17120000000E+03 0.  0.
         13    1    1    2    0    0  0.18976355471E+02 -0.20185511136E+02  0.60905115300E+02  0.66910396505E+02  0.10566000000E+00 0. -1.
        994    1    1    2    0    0  0.26967652835E+01  0.17465799537E+02  0.72700253893E+01  0.17226322871E+03  0.17120000000E+03 0.  0.
        998    1    1    2    0    0 -0.21673120755E+02  0.27197115988E+01  0.14318248556E+04  0.14320263748E+04  0.10000000000E+02 0. -1.
</event>
<event>
 5    1  0.1087513E-008  0.3851991E+03  0.7957747E-01  0.3428828E+00
         13   -1    0    0    0    0  0.00000000000E+00  0.00000000000E+00  0.14999999963E+04  0.15000000000E+04  0.10566000000E+00 0.  1.
        994   -1    0    0    0    0 -0.00000000000E+00 -0.00000000000E+00  0.11368683772E-12  0.17120000000E+03  0.17120000000E+03 0.  0.
         13    1    1    2    0    0 -0.16843896809E+03  0.19589863919E+03  0.10968901604E+04  0.11269054964E+04  0.10566000000E+00 0.  1.
        994    1    1    2    0    0  0.16727935254E+03 -0.21042529720E+03  0.29346624746E+03  0.43323557781E+03  0.17120000000E+03 0.  0.
        998    1    1    2    0    0  0.11596155560E+01  0.14526658014E+02  0.10964358846E+03  0.11105892577E+03  0.10000000000E+02 0. -1.
</event>
<event>
 5    1  0.1087513E-008  0.3748203E+03  0.7957747E-01  0.3474027E+00
         13   -1    0    0    0    0  0.00000000000E+00  0.00000000000E+00  0.14999999963E+04  0.15000000000E+04  0.10566000000E+00 0.  1.
        994   -1    0    0    0    0 -0.00000000000E+00 -0.00000000000E+00  0.11368683772E-12  0.17120000000E+03  0.17120000000E+03 0.  0.
         13    1    1    2    0    0  0.17654260120E+02 -0.20719291601E+02  0.54855008093E+02  0.61237611169E+02  0.10566000000E+00 0.  1.
        994    1    1    2    0    0 -0.69930838354E+01 -0.33429652161E+01  0.69754236357E+01  0.17151727369E+03  0.17120000000E+03 0.  0.
        998    1    1    2    0    0 -0.10661176285E+02  0.24062256818E+02  0.14381695646E+04  0.14384451151E+04  0.10000000000E+02 0.  1.
</event>
<event>
 5    1  0.1087513E-008  0.3946958E+03  0.7957747E-01  0.3389564E+00
         13   -1    0    0    0    0  0.00000000000E+00  0.00000000000E+00  0.14999999963E+04  0.15000000000E+04  0.10566000000E+00 0. -1.
        994   -1    0    0    0    0 -0.00000000000E+00 -0.00000000000E+00  0.11368683772E-12  0.17120000000E+03  0.17120000000E+03 0.  0.
         13    1    1    2    0    0  0.44502954109E+02 -0.34730742207E+02  0.54019444296E+02  0.78133532524E+02  0.10566000000E+00 0. -1.
        994    1    1    2    0    0 -0.42308092883E+02  0.37731587078E+02  0.37065738389E+02  0.18411126079E+03  0.17120000000E+03 0.  0.
        998    1    1    2    0    0 -0.21948612255E+01 -0.30008448705E+01  0.14089148136E+04  0.14089552067E+04  0.10000000000E+02 0. -1.
</event>
<event>
 5    1  0.1087513E-008  0.3768012E+03  0.7957747E-01  0.3465206E+00
         13   -1    0    0    0    0  0.00000000000E+00  0.00000000000E+00  0.14999999963E+04  0.15000000000E+04  0.10566000000E+00 0.  1.
        994   -1    0    0    0    0 -0.00000000000E+00 -0.00000000000E+00  0.11368683772E-12  0.17120000000E+03  0.17120000000E+03 0.  0.
         13    1    1    2    0    0 -0.56776225941E+02  0.47096206290E+02  0.17661977058E+03  0.19140571309E+03  0.10566000000E+00 0.  1.
        994    1    1    2    0    0  0.29982203846E+02 -0.46731423929E+02  0.25705920954E+02  0.18180482090E+03  0.17120000000E+03 0.  0.
        998    1    1    2    0    0  0.26794022096E+02 -0.36478236090E+00  0.12976743047E+04  0.12979894660E+04  0.10000000000E+02 0.  1.
</event>
<event>
 5    1  0.1087513E-008  0.3814422E+03  0.7957747E-01  0.3444903E+00
         13   -1    0    0    0    0  0.00000000000E+00  0.00000000000E+00  0.14999999963E+04  0.15000000000E+04  0.10566000000E+00 0.  1.
        994   -1    0    0    0    0 -0.00000000000E+00 -0.00000000000E+00  0.11368683772E-12  0.17120000000E+03  0.17120000000E+03 0.  0.
         13    1    1    2    0    0  0.38718346867E+01 -0.35664777812E+02  0.16719282243E+03  0.17099829975E+03  0.10566000000E+00 0.  1.
        994    1    1    2    0    0 -0.31108250901E+01  0.36992043138E+02  0.80054856508E+01  0.17536138768E+03  0.17120000000E+03 0.  0.
        998    1    1    2    0    0 -0.76100959655E+00 -0.13272653266E+01  0.13248016882E+04  0.13248403126E+04  0.10000000000E+02 0.  1.
</event>
<event>
 5    1  0.1087513E-008  0.3832951E+03  0.7957747E-01  0.3436935E+00
         13   -1    0    0    0    0  0.00000000000E+00  0.00000000000E+00  0.14999999963E+04  0.15000000000E+04  0.10566000000E+00 0.  1.
        994   -1    0    0    0    0 -0.00000000000E+00 -0.00000000000E+00  0.11368683772E-12  0.17120000000E+03  0.17120000000E+03 0.  0.
         13    1    1    2    0    0 -0.14825955435E+02 -0.19343091362E+02  0.13964342679E+03  0.14175423079E+03  0.10566000000E+00 0.  1.
        994    1    1    2    0    0 -0.21353029012E+02  0.10938512856E+02  0.43847695446E+01  0.17292850868E+03  0.17120000000E+03 0.  0.
        998    1    1    2    0    0  0.36178984447E+02  0.84045785055E+01  0.13559717999E+04  0.13565172605E+04  0.10000000000E+02 0.  1.
</event>
<event>
 5    1  0.1087513E-008  0.3722449E+03  0.7957747E-01  0.3485637E+00
         13   -1    0    0    0    0  0.00000000000E+00  0.00000000000E+00  0.14999999963E+04  0.15000000000E+04  0.10566000000E+00 0.  1.
        994   -1    0    0    0    0 -0.00000000000E+00 -0.00000000000E+00  0.11368683772E-12  0.17120000000E+03  0.17120000000E+03 0.  0.
         13    1    1    2    0    0  0.50593039494E+02 -0.37376837938E+02  0.28474634264E+03  0.29161134146E+03  0.10566000000E+00 0.  1.
        994    1    1    2    0    0 -0.14453423389E+02  0.14205799612E+01  0.88243956451E+01  0.17204135972E+03  0.17120000000E+03 0.  0.
        998    1    1    2    0    0 -0.36139616106E+02  0.35956257977E+02  0.12064292580E+04  0.12075472988E+04  0.10000000000E+02 0.  1.
</event>
<event>
 5    1  0.1087513E-008  0.2680756E+03  0.7957747E-01  0.4154078E+00
         13   -1    0    0    0    0  0.00000000000E+00  0.00000000000E+00  0.14999999963E+04  0.15000000000E+04  0.10566000000E+00 0.  1.
        994   -1    0    0    0    0 -0.00000000000E+00 -0.00000000000E+00  0.11368683772E-12  0.17120000000E+03  0.17120000000E+03 0.  0.
         13    1    1    2    0    0 -0.14885099790E+03  0.19017806582E+03  0.58984127059E+03  0.63736728183E+03  0.10566000000E+00 0.  1.
        994    1    1    2    0    0  0.45977277910E+02 -0.81555458230E+02  0.11891351155E+03  0.22850616202E+03  0.17120000000E+03 0.  0.
        998    1    1    2    0    0  0.10287371999E+03 -0.10862260759E+03  0.79124521414E+03  0.80532655615E+03  0.10000000000E+02 0. -1.
</event>
<event>
 5    1  0.1087513E-008  0.3757233E+03  0.7957747E-01  0.3469994E+00
         13   -1    0    0    0    0  0.00000000000E+00  0.00000000000E+00  0.14999999963E+04  0.15000000000E+04  0.10566000000E+00 0.  1.
        994   -1    0    0    0    0 -0.00000000000E+00 -0.00000000000E+00  0.11368683772E-12  0.17120000000E+03  0.17120000000E+03 0.  0.
         13    1    1    2    0    0 -0.50676981967E+00 -0.12745774386E+02  0.10155002616E+02  0.16304809797E+02  0.10566000000E+00 0.  1.
        994    1    1    2    0    0  0.12961039665E+02  0.46966623586E+01  0.69524670504E+01  0.17189480500E+03  0.17120000000E+03 0.  0.
        998    1    1    2    0    0 -0.12454269845E+02  0.80491120277E+01  0.14828925266E+04  0.14830003852E+04  0.10000000000E+02 0.  1.
</event>
<event>
 5    1  0.1087513E-008  0.3795124E+03  0.7957747E-01  0.3453284E+00
         13   -1    0    0    0    0  0.00000000000E+00  0.00000000000E+00  0.14999999963E+04  0.15000000000E+04  0.10566000000E+00 0.  1.
        994   -1    0    0    0    0 -0.00000000000E+00 -0.00000000000E+00  0.11368683772E-12  0.17120000000E+03  0.17120000000E+03 0.  0.
         13    1    1    2    0    0  0.11455695584E+02 -0.37277673344E+02  0.18879379478E+03  0.19277957881E+03  0.10566000000E+00 0.  1.
        994    1    1    2    0    0  0.23837953140E+02  0.18517951208E+02  0.74363593300E+01  0.17399971830E+03  0.17120000000E+03 0.  0.
        998    1    1    2    0    0 -0.35293648724E+02  0.18759722136E+02  0.13037698422E+04  0.13044207029E+04  0.10000000000E+02 0.  1.
</event>
<event>
 5    1  0.1087513E-008  0.3846893E+03  0.7957747E-01  0.3430991E+00
         13   -1    0    0    0    0  0.00000000000E+00  0.00000000000E+00  0.14999999963E+04  0.15000000000E+04  0.10566000000E+00 0. -1.
        994   -1    0    0    0    0 -0.00000000000E+00 -0.00000000000E+00  0.11368683772E-12  0.17120000000E+03  0.17120000000E+03 0.  0.
         13    1    1    2    0    0  0.15112817950E+02 -0.15118957926E+02  0.11585363212E+03  0.11780940282E+03  0.10566000000E+00 0. -1.
        994    1    1    2    0    0 -0.21561534582E+02  0.14894191154E+02  0.40484333168E+01  0.17324135337E+03  0.17120000000E+03 0.  0.
        998    1    1    2    0    0  0.64487166326E+01  0.22476677180E+00  0.13800979308E+04  0.13801492438E+04  0.10000000000E+02 0. -1.
</event>
<event>
 5    1  0.1087513E-008  0.3703109E+03  0.7957747E-01  0.3494463E+00
         13   -1    0    0    0    0  0.00000000000E+00  0.00000000000E+00  0.14999999963E+04  0.15000000000E+04  0.10566000000E+00 0. -1.
        994   -1    0    0    0    0 -0.00000000000E+00 -0.00000000000E+00  0.11368683772E-12  0.17120000000E+03  0.17120000000E+03 0.  0.
         13    1    1    2    0    0 -0.19375654376E+02 -0.48458011867E+01  0.13366242300E+02  0.24032589725E+02  0.10566000000E+00 0. -1.
        994    1    1    2    0    0  0.64280404181E+01  0.19716961117E+01  0.11261530058E+02  0.17170168709E+03  0.17120000000E+03 0.  0.
        998    1    1    2    0    0  0.12947613957E+02  0.28741050751E+01  0.14753722239E+04  0.14754657232E+04  0.10000000000E+02 0. -1.
</event>
<event>
 5    1  0.1087513E-008  0.3795936E+03  0.7957747E-01  0.3452930E+00
         13   -1    0    0    0    0  0.00000000000E+00  0.00000000000E+00  0.14999999963E+04  0.15000000000E+04  0.10566000000E+00 0.  1.
        994   -1    0    0    0    0 -0.00000000000E+00 -0.00000000000E+00  0.11368683772E-12  0.17120000000E+03  0.17120000000E+03 0.  0.
         13    1    1    2    0    0 -0.48698984098E+02 -0.16242751593E+02  0.24405884928E+03  0.24939958121E+03  0.10566000000E+00 0.  1.
        994    1    1    2    0    0  0.46290251810E+02  0.43987034753E+02  0.18111051555E+02  0.18361671173E+03  0.17120000000E+03 0.  0.
        998    1    1    2    0    0  0.24087322879E+01 -0.27744283160E+02  0.12378300954E+04  0.12381837071E+04  0.10000000000E+02 0.  1.
</event>
<event>
 5    1  0.1087513E-008  0.3827434E+03  0.7957747E-01  0.3439299E+00
         13   -1    0    0    0    0  0.00000000000E+00  0.00000000000E+00  0.14999999963E+04  0.15000000000E+04  0.10566000000E+00 0. -1.
        994   -1    0    0    0    0 -0.00000000000E+00 -0.00000000000E+00  0.11368683772E-12  0.17120000000E+03  0.17120000000E+03 0.  0.
         13    1    1    2    0    0  0.94625352758E+01 -0.17494377312E+02  0.69050060099E+02  0.71857600677E+02  0.10566000000E+00 0. -1.
        994    1    1    2    0    0 -0.15919490412E+02  0.12024120941E+02  0.40743130608E+01  0.17240664049E+03  0.17120000000E+03 0.  0.
        998    1    1    2    0    0  0.64569551357E+01  0.54702563706E+01  0.14268756231E+04  0.14269357588E+04  0.10000000000E+02 0. -1.
</event>
<event>
 5    1  0.1141078E-008  0.3851242E+03  0.7957747E-01  0.3429146E+00
         13   -1    0    0    0    0  0.00000000000E+00  0.00000000000E+00  0.14999999963E+04  0.15000000000E+04  0.10566000000E+00 0.  1.
        994   -1    0    0    0    0 -0.00000000000E+00 -0.00000000000E+00  0.11368683772E-12  0.17120000000E+03  0.17120000000E+03 0.  0.
         13    1    1    2    0    0 -0.54615584250E+01  0.91224880024E+01  0.35773322375E+02  0.37320104040E+02  0.10566000000E+00 0.  1.
        994    1    1    2    0    0  0.35492073656E+01 -0.72787891650E+01  0.17840812085E+01  0.17140070184E+03  0.17120000000E+03 0.  0.
        998    1    1    2    0    0  0.19123510595E+01 -0.18436988374E+01  0.14624425927E+04  0.14624791941E+04  0.10000000000E+02 0.  1.
</event>
<event>
 5    1  0.1087513E-008  0.3732208E+03  0.7957747E-01  0.3481219E+00
         13   -1    0    0    0    0  0.00000000000E+00  0.00000000000E+00  0.14999999963E+04  0.15000000000E+04  0.10566000000E+00 0.  1.
        994   -1    0    0    0    0 -0.00000000000E+00 -0.00000000000E+00  0.11368683772E-12  0.17120000000E+03  0.17120000000E+03 0.  0.
         13    1    1    2    0    0 -0.20555424185E+02  0.49391651598E+00  0.24436596253E+02  0.31936308763E+02  0.10566000000E+00 0.  1.
        994    1    1    2    0    0  0.17625013375E+02 -0.28573584726E+01  0.86862280426E+01  0.17234760269E+03  0.17120000000E+03 0.  0.
        998    1    1    2    0    0  0.29304108098E+01  0.23634419566E+01  0.14668771720E+04  0.14669160886E+04  0.10000000000E+02 0.  1.
</event>
<event>
 5    1  0.1087513E-008  0.3798482E+03  0.7957747E-01  0.3451820E+00
         13   -1    0    0    0    0  0.00000000000E+00  0.00000000000E+00  0.14999999963E+04  0.15000000000E+04  0.10566000000E+00 0.  1.
        994   -1    0    0    0    0 -0.00000000000E+00 -0.00000000000E+00  0.11368683772E-12  0.17120000000E+03  0.17120000000E+03 0.  0.
         13    1    1    2    0    0 -0.17867893752E+02 -0.20642975974E+02  0.15077010071E+03  0.15322215413E+03  0.10566000000E+00 0.  1.
        994    1    1    2    0    0 -0.71315947984E+02 -0.17325755027E+02  0.22439891270E+02  0.18761432500E+03  0.17120000000E+03 0.  0.
        998    1    1    2    0    0  0.89183841736E+02  0.37968731001E+02  0.13267900043E+04  0.13303635209E+04  0.10000000000E+02 0.  1.
</event>
<event>
 5    1  0.1087513E-008  0.3800049E+03  0.7957747E-01  0.3451137E+00
         13   -1    0    0    0    0  0.00000000000E+00  0.00000000000E+00  0.14999999963E+04  0.15000000000E+04  0.10566000000E+00 0. -1.
        994   -1    0    0    0    0 -0.00000000000E+00 -0.00000000000E+00  0.11368683772E-12  0.17120000000E+03  0.17120000000E+03 0.  0.
         13    1    1    2    0    0  0.12219641915E+02 -0.14899462601E+02  0.46078069528E+02  0.49945102760E+02  0.10566000000E+00 0. -1.
        994    1    1    2    0    0  0.70855201400E+01  0.83333828959E+00  0.43008504299E+01  0.17140255647E+03  0.17120000000E+03 0.  0.
        998    1    1    2    0    0 -0.19305162055E+02  0.14066124311E+02  0.14496210763E+04  0.14498523408E+04  0.10000000000E+02 0. -1.
</event>
<event>
 5    1  0.1087513E-008  0.3849787E+03  0.7957747E-01  0.3429762E+00
         13   -1    0    0    0    0  0.00000000000E+00  0.00000000000E+00  0.14999999963E+04  0.15000000000E+04  0.10566000000E+00 0.  1.
        994   -1    0    0    0    0 -0.00000000000E+00 -0.00000000000E+00  0.11368683772E-12  0.17120000000E+03  0.17120000000E+03 0.  0.
         13    1    1    2    0    0  0.98315020130E+00  0.14386210616E+02  0.65886558259E+02  0.67446121930E+02  0.10566000000E+00 0.  1.
        994    1    1    2    0    0  0.15640421338E+02 -0.48011680587E+01  0.25215461762E+01  0.17199846566E+03  0.17120000000E+03 0.  0.
        998    1    1    2    0    0 -0.16623571539E+02 -0.95850425571E+01  0.14315918918E+04  0.14317554124E+04  0.10000000000E+02 0.  1.
</event>
<event>
 5    1  0.1087513E-008  0.3819792E+03  0.7957747E-01  0.3442586E+00
         13   -1    0    0    0    0  0.00000000000E+00  0.00000000000E+00  0.14999999963E+04  0.15000000000E+04  0.10566000000E+00 0. -1.
        994   -1    0    0    0    0 -0.00000000000E+00 -0.00000000000E+00  0.11368683772E-12  0.17120000000E+03  0.17120000000E+03 0.  0.
         13    1    1    2    0    0  0.31880580209E+02 -0.21672676257E+02  0.20139848921E+03  0.20505472175E+03  0.10566000000E+00 0. -1.
        994    1    1    2    0    0 -0.85857514967E+02 -0.33897579308E+02  0.31972189872E+02  0.19710966411E+03  0.17120000000E+03 0.  0.
        998    1    1    2    0    0  0.53976934758E+02  0.55570255565E+02  0.12666293172E+04  0.12690356141E+04  0.10000000000E+02 0. -1.
</event>
<event>
 5    1  0.1087513E-008  0.4229167E+03  0.7957747E-01  0.3283232E+00
         13   -1    0    0    0    0  0.00000000000E+00  0.00000000000E+00  0.14999999963E+04  0.15000000000E+04  0.10566000000E+00 0.  1.
        994   -1    0    0    0    0 -0.00000000000E+00 -0.00000000000E+00  0.11368683772E-12  0.17120000000E+03  0.17120000000E+03 0.  0.
         13    1    1    2    0    0 -0.25349334185E+01  0.75737713306E+02  0.50081026657E+02  0.90833625378E+02  0.10566000000E+00 0.  1.
        994    1    1    2    0    0  0.58016915440E+01 -0.90449713233E+02  0.78796617834E+02  0.20912474084E+03  0.17120000000E+03 0.  0.
        998    1    1    2    0    0 -0.32667581255E+01  0.14711999927E+02  0.13711223518E+04  0.13712416338E+04  0.10000000000E+02 0.  1.
</event>
<event>
 5    1  0.1087513E-008  0.3840617E+03  0.7957747E-01  0.3433661E+00
         13   -1    0    0    0    0  0.00000000000E+00  0.00000000000E+00  0.14999999963E+04  0.15000000000E+04  0.10566000000E+00 0. -1.
        994   -1    0    0    0    0 -0.00000000000E+00 -0.00000000000E+00  0.11368683772E-12  0.17120000000E+03  0.17120000000E+03 0.  0.
         13    1    1    2    0    0  0.91719792244E+01 -0.12463503658E+02  0.56233846835E+02  0.58324272994E+02  0.10566000000E+00 0. -1.
        994    1    1    2    0    0 -0.13631702192E+02  0.45576845107E+01  0.27784901502E+01  0.17182478226E+03  0.17120000000E+03 0.  0.
        998    1    1    2    0    0  0.44597229675E+01  0.79058191478E+01  0.14409876593E+04  0.14410509447E+04  0.10000000000E+02 0. -1.
</event>
<event>
 5    1  0.1087513E-008  0.3824770E+03  0.7957747E-01  0.3440444E+00
         13   -1    0    0    0    0  0.00000000000E+00  0.00000000000E+00  0.14999999963E+04  0.15000000000E+04  0.10566000000E+00 0. -1.
        994   -1    0    0    0    0 -0.00000000000E+00 -0.00000000000E+00  0.11368683772E-12  0.17120000000E+03  0.17120000000E+03 0.  0.
         13    1    1    2    0    0  0.23452869686E+02  0.36136974652E+01  0.93194198869E+02  0.96167904067E+02  0.10566000000E+00 0. -1.
        994    1    1    2    0    0 -0.20912531399E+02 -0.15712811107E+01  0.43476143081E+01  0.17253447378E+03  0.17120000000E+03 0.  0.
        998    1    1    2    0    0 -0.25403382867E+01 -0.20424163545E+01  0.14024581831E+04  0.14024976221E+04  0.10000000000E+02 0. -1.
</event>
<event>
 5    1  0.1087513E-008  0.3842032E+03  0.7957747E-01  0.3433059E+00
         13   -1    0    0    0    0  0.00000000000E+00  0.00000000000E+00  0.14999999963E+04  0.15000000000E+04  0.10566000000E+00 0. -1.
        994   -1    0    0    0    0 -0.00000000000E+00 -0.00000000000E+00  0.11368683772E-12  0.17120000000E+03  0.17120000000E+03 0.  0.
         13    1    1    2    0    0 -0.62909027888E+01  0.12707278218E+02  0.47933371364E+02  0.49986694550E+02  0.10566000000E+00 0. -1.
        994    1    1    2    0    0  0.12634889826E+02 -0.10256609000E+02  0.28999660897E+01  0.17199618680E+03  0.17120000000E+03 0.  0.
        998    1    1    2    0    0 -0.63439870375E+01 -0.24506692179E+01  0.14491666588E+04  0.14492171187E+04  0.10000000000E+02 0. -1.
</event>
<event>
 5    1  0.1087513E-008  0.4007030E+03  0.7957747E-01  0.3365687E+00
         13   -1    0    0    0    0  0.00000000000E+00  0.00000000000E+00  0.14999999963E+04  0.15000000000E+04  0.10566000000E+00 0. -1.
        994   -1    0    0    0    0 -0.00000000000E+00 -0.00000000000E+00  0.11368683772E-12  0.17120000000E+03  0.17120000000E+03 0.  0.
         13    1    1    2    0    0  0.35700103142E+02  0.14514170044E+03  0.31582943500E+03  0.34941215455E+03  0.10566000000E+00 0. -1.
        994    1    1    2    0    0 -0.41791791181E+02 -0.12922098219E+03  0.10501338627E+03  0.24244972127E+03  0.17120000000E+03 0.  0.
        998    1    1    2    0    0  0.60916880391E+01 -0.15920718247E+02  0.10791571750E+04  0.10793381242E+04  0.10000000000E+02 0. -1.
</event>
<event>
 5    1  0.1087513E-008  0.3695092E+03  0.7957747E-01  0.3498150E+00
         13   -1    0    0    0    0  0.00000000000E+00  0.00000000000E+00  0.14999999963E+04  0.15000000000E+04  0.10566000000E+00 0. -1.
        994   -1    0    0    0    0 -0.00000000000E+00 -0.00000000000E+00  0.11368683772E-12  0.17120000000E+03  0.17120000000E+03 0.  0.
         13    1    1    2    0    0 -0.25668850159E+00  0.34615631974E+02  0.50736898067E+02  0.61421102688E+02  0.10566000000E+00 0. -1.
        994    1    1    2    0    0  0.56722677886E+01 -0.32256111056E+02  0.14432208142E+02  0.17490100044E+03  0.17120000000E+03 0.  0.
        998    1    1    2    0    0 -0.54155792870E+01 -0.23595209177E+01  0.14348308901E+04  0.14348778969E+04  0.10000000000E+02 0. -1.
</event>
<event>
 5    1  0.1087513E-008  0.3772259E+03  0.7957747E-01  0.3463327E+00
         13   -1    0    0    0    0  0.00000000000E+00  0.00000000000E+00  0.14999999963E+04  0.15000000000E+04  0.10566000000E+00 0. -1.
        994   -1    0    0    0    0 -0.00000000000E+00 -0.00000000000E+00  0.11368683772E-12  0.17120000000E+03  0.17120000000E+03 0.  0.
         13    1    1    2    0    0  0.24799673425E+02 -0.14470473740E+02  0.73195940829E+02  0.78626174586E+02  0.10566000000E+00 0. -1.
        994    1    1    2    0    0 -0.26225416224E+02 -0.14442842088E+02  0.85702487557E+01  0.17400935983E+03  0.17120000000E+03 0.  0.
        998    1    1    2    0    0  0.14257427995E+01  0.28913315828E+02  0.14182338067E+04  0.14185644656E+04  0.10000000000E+02 0. -1.
</event>
<event>
 5    1  0.1087513E-008  0.3711541E+03  0.7957747E-01  0.3490604E+00
         13   -1    0    0    0    0  0.00000000000E+00  0.00000000000E+00  0.14999999963E+04  0.15000000000E+04  0.10566000000E+00 0.  1.
        994   -1    0    0    0    0 -0.00000000000E+00 -0.00000000000E+00  0.11368683772E-12  0.17120000000E+03  0.17120000000E+03 0.  0.
         13    1    1    2    0    0 -0.20737575518E+02  0.18282936429E+02  0.27559760565E+02  0.39036705410E+02  0.10566000000E+00 0.  1.
        994    1    1    2    0    0  0.33135307301E+02 -0.95669059574E+01  0.15737093932E+02  0.17534699999E+03  0.17120000000E+03 0.  0.
        998    1    1    2    0    0 -0.12397731783E+02 -0.87160304721E+01  0.14567031418E+04  0.14568162946E+04  0.10000000000E+02 0.  1.
</event>
<event>
 5    1  0.1087513E-008  0.3837994E+03  0.7957747E-01  0.3434780E+00
         13   -1    0    0    0    0  0.00000000000E+00  0.00000000000E+00  0.14999999963E+04  0.15000000000E+04  0.10566000000E+00 0.  1.
        994   -1    0    0    0    0 -0.00000000000E+00 -0.00000000000E+00  0.11368683772E-12  0.17120000000E+03  0.17120000000E+03 0.  0.
         13    1    1    2    0    0 -0.35160070575E+01  0.11606905640E+02  0.31202860798E+02  0.33477040643E+02  0.10566000000E+00 0.  1.
        994    1    1    2    0    0  0.39472792242E+01 -0.17291682677E+02  0.32666866011E+01  0.17214730478E+03  0.17120000000E+03 0.  0.
        998    1    1    2    0    0 -0.43127216668E+00  0.56847770371E+01  0.14655304489E+04  0.14655756546E+04  0.10000000000E+02 0.  1.
</event>
<event>
 5    1  0.1087513E-008  0.3694834E+03  0.7957747E-01  0.3498268E+00
         13   -1    0    0    0    0  0.00000000000E+00  0.00000000000E+00  0.14999999963E+04  0.15000000000E+04  0.10566000000E+00 0. -1.
        994   -1    0    0    0    0 -0.00000000000E+00 -0.00000000000E+00  0.11368683772E-12  0.17120000000E+03  0.17120000000E+03 0.  0.
         13    1    1    2    0    0 -0.50877899424E+02  0.53768271580E+02  0.25727677285E+03  0.26771428182E+03  0.10566000000E+00 0. -1.
        994    1    1    2    0    0  0.47220220960E+02 -0.37930469187E+02  0.22355822173E+02  0.18296910271E+03  0.17120000000E+03 0.  0.
        998    1    1    2    0    0  0.36576784641E+01 -0.15837802392E+02  0.12203674013E+04  0.12205166155E+04  0.10000000000E+02 0. -1.
</event>
<event>
 5    1  0.1087513E-008  0.3831977E+03  0.7957747E-01  0.3437352E+00
         13   -1    0    0    0    0  0.00000000000E+00  0.00000000000E+00  0.14999999963E+04  0.15000000000E+04  0.10566000000E+00 0. -1.
        994   -1    0    0    0    0 -0.00000000000E+00 -0.00000000000E+00  0.11368683772E-12  0.17120000000E+03  0.17120000000E+03 0.  0.
         13    1    1    2    0    0  0.20899127186E+01 -0.27517146943E+02  0.14654290667E+03  0.14911873045E+03  0.10566000000E+00 0. -1.
        994    1    1    2    0    0 -0.21604757730E+02  0.18537401077E+02  0.52129855677E+01  0.17362896076E+03  0.17120000000E+03 0.  0.
        998    1    1    2    0    0  0.19514845011E+02  0.89797458661E+01  0.13482441040E+04  0.13484523088E+04  0.10000000000E+02 0. -1.
</event>
<event>
 5    1  0.1087513E-008  0.3837083E+03  0.7957747E-01  0.3435169E+00
         13   -1    0    0    0    0  0.00000000000E+00  0.00000000000E+00  0.14999999963E+04  0.15000000000E+04  0.10566000000E+00 0.  1.
        994   -1    0    0    0    0 -0.00000000000E+00 -0.00000000000E+00  0.11368683772E-12  0.17120000000E+03  0.17120000000E+03 0.  0.
         13    1    1    2    0    0 -0.17115569952E+02 -0.61654315368E+01  0.68634051099E+02  0.71004221108E+02  0.10566000000E+00 0.  1.
        994    1    1    2    0    0  0.20278726217E+02  0.58939910642E+01  0.37469630804E+01  0.17253824388E+03  0.17120000000E+03 0.  0.
        998    1    1    2    0    0 -0.31631562649E+01  0.27144047262E+00  0.14276189821E+04  0.14276575350E+04  0.10000000000E+02 0.  1.
</event>
<event>
 5    1  0.1087513E-008  0.3837158E+03  0.7957747E-01  0.3435137E+00
         13   -1    0    0    0    0  0.00000000000E+00  0.00000000000E+00  0.14999999963E+04  0.15000000000E+04  0.10566000000E+00 0.  1.
        994   -1    0    0    0    0 -0.00000000000E+00 -0.00000000000E+00  0.11368683772E-12  0.17120000000E+03  0.17120000000E+03 0.  0.
         13    1    1    2    0    0  0.14160191935E+02  0.94308049761E+01  0.68582812423E+02  0.70661619299E+02  0.10566000000E+00 0.  1.
        994    1    1    2    0    0 -0.56640552368E+01  0.13999391305E+02  0.30225799529E+01  0.17189136240E+03  0.17120000000E+03 0.  0.
        998    1    1    2    0    0 -0.84961366984E+01 -0.23430196281E+02  0.14283946039E+04  0.14286470183E+04  0.10000000000E+02 0.  1.
</event>
<event>
 5    1  0.1087513E-008  0.3842747E+03  0.7957747E-01  0.3432754E+00
         13   -1    0    0    0    0  0.00000000000E+00  0.00000000000E+00  0.14999999963E+04  0.15000000000E+04  0.10566000000E+00 0.  1.
        994   -1    0    0    0    0 -0.00000000000E+00 -0.00000000000E+00  0.11368683772E-12  0.17120000000E+03  0.17120000000E+03 0.  0.
         13    1    1    2    0    0  0.16847860816E+02  0.14607258342E+02  0.12206081463E+03  0.12408092538E+03  0.10566000000E+00 0.  1.
        994    1    1    2    0    0 -0.10249226662E+02 -0.13154222559E+02  0.29078800174E+01  0.17203481039E+03  0.17120000000E+03 0.  0.
        998    1    1    2    0    0 -0.65986341545E+01 -0.14530357822E+01  0.13750313016E+04  0.13750842642E+04  0.10000000000E+02 0.  1.
</event>
<event>
 5    1  0.1087513E-008  0.3799377E+03  0.7957747E-01  0.3451430E+00
         13   -1    0    0    0    0  0.00000000000E+00  0.00000000000E+00  0.14999999963E+04  0.15000000000E+04  0.10566000000E+00 0.  1.
        994   -1    0    0    0    0 -0.00000000000E+00 -0.00000000000E+00  0.11368683772E-12  0.17120000000E+03  0.17120000000E+03 0.  0.
         13    1    1    2    0    0  0.29644626950E+02  0.23522281218E+02  0.15363719411E+03  0.15822926467E+03  0.10566000000E+00 0.  1.
        994    1    1    2    0    0 -0.28112007070E+02 -0.26923496576E+02  0.92473879131E+01  0.17581272364E+03  0.17120000000E+03 0.  0.
        998    1    1    2    0    0 -0.15326198800E+01  0.34012153579E+01  0.13371154143E+04  0.13371580117E+04  0.10000000000E+02 0.  1.
</event>
<event>
 5    1  0.1087513E-008  0.3722826E+03  0.7957747E-01  0.3485466E+00
         13   -1    0    0    0    0  0.00000000000E+00  0.00000000000E+00  0.14999999963E+04  0.15000000000E+04  0.10566000000E+00 0. -1.
        994   -1    0    0    0    0 -0.00000000000E+00 -0.00000000000E+00  0.11368683772E-12  0.17120000000E+03  0.17120000000E+03 0.  0.
         13    1    1    2    0    0  0.50322518436E+02 -0.38925789517E+02  0.20027070625E+03  0.21013314802E+03  0.10566000000E+00 0. -1.
        994    1    1    2    0    0 -0.79675034890E+00 -0.91631034542E+01  0.12449105965E+02  0.17189827665E+03  0.17120000000E+03 0.  0.
        998    1    1    2    0    0 -0.49525768087E+02  0.48088892971E+02  0.12872801841E+04  0.12891685753E+04  0.10000000000E+02 0. -1.
</event>
<event>
 5    1  0.1087513E-008  0.3711439E+03  0.7957747E-01  0.3490650E+00
         13   -1    0    0    0    0  0.00000000000E+00  0.00000000000E+00  0.14999999963E+04  0.15000000000E+04  0.10566000000E+00 0.  1.
        994   -1    0    0    0    0 -0.00000000000E+00 -0.00000000000E+00  0.11368683772E-12  0.17120000000E+03  0.17120000000E+03 0.  0.
         13    1    1    2    0    0 -0.62164184794E+02 -0.14321972828E+03  0.50869658495E+03  0.53211700137E+03  0.10566000000E+00 0.  1.
        994    1    1    2    0    0  0.13701135709E+03  0.16797210082E+03  0.19330909769E+03  0.33714178897E+03  0.17120000000E+03 0.  0.
        998    1    1    2    0    0 -0.74847172291E+02 -0.24752372536E+02  0.79799431364E+03  0.80194120966E+03  0.10000000000E+02 0.  1.
</event>
<event>
 5    1  0.1087513E-008  0.3838970E+03  0.7957747E-01  0.3434364E+00
         13   -1    0    0    0    0  0.00000000000E+00  0.00000000000E+00  0.14999999963E+04  0.15000000000E+04  0.10566000000E+00 0. -1.
        994   -1    0    0    0    0 -0.00000000000E+00 -0.00000000000E+00  0.11368683772E-12  0.17120000000E+03  0.17120000000E+03 0.  0.
         13    1    1    2    0    0 -0.15965927955E+02 -0.83264916053E+01  0.82521625220E+02  0.84463430613E+02  0.10566000000E+00 0. -1.
        994    1    1    2    0    0 -0.58299678248E+01 -0.11711903407E+01  0.22954476816E+01  0.17131861922E+03  0.17120000000E+03 0.  0.
        998    1    1    2    0    0  0.21795895779E+02  0.94976819459E+01  0.14151829234E+04  0.14154179502E+04  0.10000000000E+02 0. -1.
</event>
<event>
 5    1  0.1087513E-008  0.3839358E+03  0.7957747E-01  0.3434198E+00
         13   -1    0    0    0    0  0.00000000000E+00  0.00000000000E+00  0.14999999963E+04  0.15000000000E+04  0.10566000000E+00 0. -1.
        994   -1    0    0    0    0 -0.00000000000E+00 -0.00000000000E+00  0.11368683772E-12  0.17120000000E+03  0.17120000000E+03 0.  0.
         13    1    1    2    0    0 -0.10266323729E+02  0.12902126402E+02  0.75675530877E+02  0.77451012944E+02  0.10566000000E+00 0. -1.
        994    1    1    2    0    0 -0.40628820606E+02 -0.86433772670E+01  0.78742229484E+01  0.17634299652E+03  0.17120000000E+03 0.  0.
        998    1    1    2    0    0  0.50895144335E+02 -0.42587491355E+01  0.14164502425E+04  0.14174059905E+04  0.10000000000E+02 0. -1.
</event>
<event>
 5    1  0.1087513E-008  0.3800480E+03  0.7957747E-01  0.3450950E+00
         13   -1    0    0    0    0  0.00000000000E+00  0.00000000000E+00  0.14999999963E+04  0.15000000000E+04  0.10566000000E+00 0. -1.
        994   -1    0    0    0    0 -0.00000000000E+00 -0.00000000000E+00  0.11368683772E-12  0.17120000000E+03  0.17120000000E+03 0.  0.
         13    1    1    2    0    0  0.17345998760E+02  0.19927117694E+02  0.93062663986E+02  0.96740086235E+02  0.10566000000E+00 0. -1.
        994    1    1    2    0    0 -0.42695350762E+01  0.10471085501E+02  0.45364398377E+01  0.17163301503E+03  0.17120000000E+03 0.  0.
        998    1    1    2    0    0 -0.13076463684E+02 -0.30398203195E+02  0.14024008925E+04  0.14028268987E+04  0.10000000000E+02 0. -1.
</event>
<event>
 5    1  0.1087513E-008  0.3840636E+03  0.7957747E-01  0.3433653E+00
         13   -1    0    0    0    0  0.00000000000E+00  0.00000000000E+00  0.14999999963E+04  0.15000000000E+04  0.10566000000E+00 0.  1.
        994   -1    0    0    0    0 -0.00000000000E+00 -0.00000000000E+00  0.11368683772E-12  0.17120000000E+03  0.17120000000E+03 0.  0.
         13    1    1    2    0    0 -0.58247016227E-01 -0.19149006084E+02  0.82782656365E+02  0.84968624713E+02  0.10566000000E+00 0.  1.
        994    1    1    2    0    0 -0.14691802664E+00  0.20261552187E+02  0.34511974365E+01  0.17242941410E+03  0.17120000000E+03 0.  0.
        998    1    1    2    0    0  0.20516504286E+00 -0.11125461032E+01  0.14137661425E+04  0.14138019612E+04  0.10000000000E+02 0.  1.
</event>
<event>
 5    1  0.1087513E-008  0.3792453E+03  0.7957747E-01  0.3454451E+00
         13   -1    0    0    0    0  0.00000000000E+00  0.00000000000E+00  0.14999999963E+04  0.15000000000E+04  0.10566000000E+00 0.  1.
        994   -1    0    0    0    0 -0.00000000000E+00 -0.00000000000E+00  0.11368683772E-12  0.17120000000E+03  0.17120000000E+03 0.  0.
         13    1    1    2    0    0 -0.22582059203E+02 -0.81483112210E+01  0.66802687271E+02  0.70985594061E+02  0.10566000000E+00 0.  1.
        994    1    1    2    0    0 -0.40074696074E+01  0.49306613688E+01  0.46499124029E+01  0.17138095845E+03  0.17120000000E+03 0.  0.
        998    1    1    2    0    0  0.26589528810E+02  0.32176498522E+01  0.14285473966E+04  0.14288334475E+04  0.10000000000E+02 0.  1.
</event>
<event>
 5    1  0.1087513E-008  0.3795392E+03  0.7957747E-01  0.3453168E+00
         13   -1    0    0    0    0  0.00000000000E+00  0.00000000000E+00  0.14999999963E+04  0.15000000000E+04  0.10566000000E+00 0.  1.
        994   -1    0    0    0    0 -0.00000000000E+00 -0.00000000000E+00  0.11368683772E-12  0.17120000000E+03  0.17120000000E+03 0.  0.
         13    1    1    2    0    0  0.11065372961E+03 -0.28119149388E+02  0.32076023807E+03  0.34047331162E+03  0.10566000000E+00 0.  1.
        994    1    1    2    0    0 -0.10827060494E+03  0.12732751290E+02  0.60436336389E+02  0.21177024722E+03  0.17120000000E+03 0.  0.
        998    1    1    2    0    0 -0.23831246684E+01  0.15386398098E+02  0.11188034218E+04  0.11189564412E+04  0.10000000000E+02 0.  1.
</event>
<event>
 5    1  0.1087513E-008  0.3842437E+03  0.7957747E-01  0.3432886E+00
         13   -1    0    0    0    0  0.00000000000E+00  0.00000000000E+00  0.14999999963E+04  0.15000000000E+04  0.10566000000E+00 0. -1.
        994   -1    0    0    0    0 -0.00000000000E+00 -0.00000000000E+00  0.11368683772E-12  0.17120000000E+03  0.17120000000E+03 0.  0.
         13    1    1    2    0    0 -0.82692431664E+01  0.86738070518E+01  0.34696977746E+02  0.36708401491E+02  0.10566000000E+00 0. -1.
        994    1    1    2    0    0  0.99637654268E+01 -0.75316390450E+01  0.25205422261E+01  0.17167351380E+03  0.17120000000E+03 0.  0.
        998    1    1    2    0    0 -0.16945222604E+01 -0.11421680068E+01  0.14627824763E+04  0.14628180847E+04  0.10000000000E+02 0. -1.
</event>
<event>
 5    1  0.1087513E-008  0.3799006E+03  0.7957747E-01  0.3451591E+00
         13   -1    0    0    0    0  0.00000000000E+00  0.00000000000E+00  0.14999999963E+04  0.15000000000E+04  0.10566000000E+00 0.  1.
        994   -1    0    0    0    0 -0.00000000000E+00 -0.00000000000E+00  0.11368683772E-12  0.17120000000E+03  0.17120000000E+03 0.  0.
         13    1    1    2    0    0 -0.10824014372E+02  0.10944749941E+03  0.64454956408E+03  0.65386548015E+03  0.10566000000E+00 0.  1.
        994    1    1    2    0    0  0.13976748957E+02 -0.12205583059E+03  0.56427392001E+02  0.21814322328E+03  0.17120000000E+03 0.  0.
        998    1    1    2    0    0 -0.31527345851E+01  0.12608331186E+02  0.79902304020E+03  0.79919129657E+03  0.10000000000E+02 0.  1.
</event>
<event>
 5    1  0.1087513E-008  0.3851868E+03  0.7957747E-01  0.3428880E+00
         13   -1    0    0    0    0  0.00000000000E+00  0.00000000000E+00  0.14999999963E+04  0.15000000000E+04  0.10566000000E+00 0. -1.
        994   -1    0    0    0    0 -0.00000000000E+00 -0.00000000000E+00  0.11368683772E-12  0.17120000000E+03  0.17120000000E+03 0.  0.
         13    1    1    2    0    0  0.93221904185E+01  0.88505800203E+01  0.56617959637E+02  0.58058940038E+02  0.10566000000E+00 0. -1.
        994    1    1    2    0    0  0.37662876870E+01 -0.44211338914E+01  0.16482845052E+01  0.17130641608E+03  0.17120000000E+03 0.  0.
        998    1    1    2    0    0 -0.13088478105E+02 -0.44294461288E+01  0.14417337521E+04  0.14418346439E+04  0.10000000000E+02 0. -1.
</event>
<event>
 5    1  0.1087513E-008  0.3798730E+03  0.7957747E-01  0.3451712E+00
         13   -1    0    0    0    0  0.00000000000E+00  0.00000000000E+00  0.14999999963E+04  0.15000000000E+04  0.10566000000E+00 0.  1.
        994   -1    0    0    0    0 -0.00000000000E+00 -0.00000000000E+00  0.11368683772E-12  0.17120000000E+03  0.17120000000E+03 0.  0.
         13    1    1    2    0    0 -0.26061625115E+02  0.14523105072E+02  0.90486935467E+02  0.95278673053E+02  0.10566000000E+00 0.  1.
        994    1    1    2    0    0  0.40799149043E+02 -0.26053817951E+02  0.12074417305E+02  0.17832162949E+03  0.17120000000E+03 0.  0.
        998    1    1    2    0    0 -0.14737523928E+02  0.11530712880E+02  0.13974386435E+04  0.13975996975E+04  0.10000000000E+02 0.  1.
</event>
<event>
 5    1  0.1087513E-008  0.3716676E+03  0.7957747E-01  0.3488262E+00
         13   -1    0    0    0    0  0.00000000000E+00  0.00000000000E+00  0.14999999963E+04  0.15000000000E+04  0.10566000000E+00 0. -1.
        994   -1    0    0    0    0 -0.00000000000E+00 -0.00000000000E+00  0.11368683772E-12  0.17120000000E+03  0.17120000000E+03 0.  0.
         13    1    1    2    0    0  0.28355205267E+02  0.24961628355E+01  0.46602259142E+02  0.54607968428E+02  0.10566000000E+00 0. -1.
        994    1    1    2    0    0 -0.66270684485E+01  0.21764796355E+01  0.85673289898E+01  0.17155609644E+03  0.17120000000E+03 0.  0.
        998    1    1    2    0    0 -0.21728136818E+02 -0.46726424710E+01  0.14448304081E+04  0.14450359351E+04  0.10000000000E+02 0. -1.
</event>
<event>
 5    1  0.1087513E-008  0.3730547E+03  0.7957747E-01  0.3481969E+00
         13   -1    0    0    0    0  0.00000000000E+00  0.00000000000E+00  0.14999999963E+04  0.15000000000E+04  0.10566000000E+00 0. -1.
        994   -1    0    0    0    0 -0.00000000000E+00 -0.00000000000E+00  0.11368683772E-12  0.17120000000E+03  0.17120000000E+03 0.  0.
         13    1    1    2    0    0  0.92228238241E+01 -0.28644862057E+02  0.60628533851E+02  0.67686179406E+02  0.10566000000E+00 0. -1.
        994    1    1    2    0    0 -0.65551971938E+01 -0.71155084264E+01  0.80014160978E+01  0.17165973241E+03  0.17120000000E+03 0.  0.
        998    1    1    2    0    0 -0.26676266302E+01  0.35760370484E+02  0.14313700463E+04  0.14318540882E+04  0.10000000000E+02 0. -1.
</event>
<event>
 5    1  0.1087513E-008  0.3855826E+03  0.7957747E-01  0.3427205E+00
         13   -1    0    0    0    0  0.00000000000E+00  0.00000000000E+00  0.14999999963E+04  0.15000000000E+04  0.10566000000E+00 0. -1.
        994   -1    0    0    0    0 -0.00000000000E+00 -0.00000000000E+00  0.11368683772E-12  0.17120000000E+03  0.17120000000E+03 0.  0.
         13    1    1    2    0    0  0.12996154449E+02 -0.32099809188E+00  0.64172664615E+02  0.65476294321E+02  0.10566000000E+00 0. -1.
        994    1    1    2    0    0 -0.67804069991E+01  0.33264162467E+01  0.15284231771E+01  0.17137332068E+03  0.17120000000E+03 0.  0.
        998    1    1    2    0    0 -0.62157474495E+01 -0.30054181548E+01  0.14342989085E+04  0.14343503850E+04  0.10000000000E+02 0. -1.
</event>
<event>
 5    1  0.1087513E-008  0.3742110E+03  0.7957747E-01  0.3476759E+00
         13   -1    0    0    0    0  0.00000000000E+00  0.00000000000E+00  0.14999999963E+04  0.15000000000E+04  0.10566000000E+00 0. -1.
        994   -1    0    0    0    0 -0.00000000000E+00 -0.00000000000E+00  0.11368683772E-12  0.17120000000E+03  0.17120000000E+03 0.  0.
         13    1    1    2    0    0  0.22313842799E+02  0.24933644973E+02  0.71766747919E+02  0.79183783081E+02  0.10566000000E+00 0. -1.
        994    1    1    2    0    0 -0.21736734758E+02 -0.32450830950E+02  0.12301714169E+02  0.17602929938E+03  0.17120000000E+03 0.  0.
        998    1    1    2    0    0 -0.57710804110E+00  0.75171859774E+01  0.14159315342E+04  0.14159869175E+04  0.10000000000E+02 0. -1.
</event>
<event>
 5    1  0.1087513E-008  0.3775284E+03  0.7957747E-01  0.3461991E+00
         13   -1    0    0    0    0  0.00000000000E+00  0.00000000000E+00  0.14999999963E+04  0.15000000000E+04  0.10566000000E+00 0.  1.
        994   -1    0    0    0    0 -0.00000000000E+00 -0.00000000000E+00  0.11368683772E-12  0.17120000000E+03  0.17120000000E+03 0.  0.
         13    1    1    2    0    0 -0.24553534423E+02 -0.49259259978E+01  0.55197474674E+02  0.60612813613E+02  0.10566000000E+00 0.  1.
        994    1    1    2    0    0  0.18755554002E+02  0.13934811611E+02  0.72282829996E+01  0.17293824868E+03  0.17120000000E+03 0.  0.
        998    1    1    2    0    0  0.57979804211E+01 -0.90088856131E+01  0.14375742386E+04  0.14376489377E+04  0.10000000000E+02 0.  1.
</event>
<event>
 5    1  0.1087513E-008  0.3795836E+03  0.7957747E-01  0.3452974E+00
         13   -1    0    0    0    0  0.00000000000E+00  0.00000000000E+00  0.14999999963E+04  0.15000000000E+04  0.10566000000E+00 0.  1.
        994   -1    0    0    0    0 -0.00000000000E+00 -0.00000000000E+00  0.11368683772E-12  0.17120000000E+03  0.17120000000E+03 0.  0.
         13    1    1    2    0    0  0.31159226287E+02  0.29158895196E+01  0.12505224146E+03  0.12890878191E+03  0.10566000000E+00 0.  1.
        994    1    1    2    0    0  0.24104751514E+01 -0.86892758698E+01  0.46157389180E+01  0.17149944301E+03  0.17120000000E+03 0.  0.
        998    1    1    2    0    0 -0.33569701438E+02  0.57733863502E+01  0.13703320159E+04  0.13707917751E+04  0.10000000000E+02 0.  1.
</event>
<event>
 5    1  0.1087513E-008  0.3850356E+03  0.7957747E-01  0.3429521E+00
         13   -1    0    0    0    0  0.00000000000E+00  0.00000000000E+00  0.14999999963E+04  0.15000000000E+04  0.10566000000E+00 0. -1.
        994   -1    0    0    0    0 -0.00000000000E+00 -0.00000000000E+00  0.11368683772E-12  0.17120000000E+03  0.17120000000E+03 0.  0.
         13    1    1    2    0    0  0.65695083289E+01 -0.10398116077E+02  0.46957791929E+02  0.48541988469E+02  0.10566000000E+00 0. -1.
        994    1    1    2    0    0 -0.19877234463E+01  0.80114903458E+01  0.18365577726E+01  0.17140871613E+03  0.17120000000E+03 0.  0.
        998    1    1    2    0    0 -0.45817848827E+01  0.23866257313E+01  0.14512056466E+04  0.14512492954E+04  0.10000000000E+02 0. -1.
</event>
<event>
 5    1  0.1087513E-008  0.3862040E+03  0.7957747E-01  0.3424582E+00
         13   -1    0    0    0    0  0.00000000000E+00  0.00000000000E+00  0.14999999963E+04  0.15000000000E+04  0.10566000000E+00 0. -1.
        994   -1    0    0    0    0 -0.00000000000E+00 -0.00000000000E+00  0.11368683772E-12  0.17120000000E+03  0.17120000000E+03 0.  0.
         13    1    1    2    0    0 -0.10637438512E+02  0.25769650317E+01  0.61586246210E+02  0.62551360761E+02  0.10566000000E+00 0. -1.
        994    1    1    2    0    0  0.46718624650E+01  0.11935886621E+02  0.15719318007E+01  0.17168634966E+03  0.17120000000E+03 0.  0.
        998    1    1    2    0    0  0.59655760468E+01 -0.14512851652E+02  0.14368418183E+04  0.14369622896E+04  0.10000000000E+02 0. -1.
</event>
<event>
 5    1  0.1087513E-008  0.3701579E+03  0.7957747E-01  0.3495165E+00
         13   -1    0    0    0    0  0.00000000000E+00  0.00000000000E+00  0.14999999963E+04  0.15000000000E+04  0.10566000000E+00 0.  1.
        994   -1    0    0    0    0 -0.00000000000E+00 -0.00000000000E+00  0.11368683772E-12  0.17120000000E+03  0.17120000000E+03 0.  0.
         13    1    1    2    0    0 -0.20813177940E+02 -0.29468617804E+00  0.14629575512E+02  0.25442304527E+02  0.10566000000E+00 0.  1.
        994    1    1    2    0    0  0.22264495389E+02  0.54668721949E+01  0.12862976204E+02  0.17320649700E+03  0.17120000000E+03 0.  0.
        998    1    1    2    0    0 -0.14513174483E+01 -0.51721860169E+01  0.14725074446E+04  0.14725511985E+04  0.10000000000E+02 0.  1.
</event>
<event>
 5    1  0.1087513E-008  0.3832119E+03  0.7957747E-01  0.3437291E+00
         13   -1    0    0    0    0  0.00000000000E+00  0.00000000000E+00  0.14999999963E+04  0.15000000000E+04  0.10566000000E+00 0. -1.
        994   -1    0    0    0    0 -0.00000000000E+00 -0.00000000000E+00  0.11368683772E-12  0.17120000000E+03  0.17120000000E+03 0.  0.
         13    1    1    2    0    0  0.54506753432E+01  0.10467514731E+02  0.23561260910E+02  0.26351905169E+02  0.10566000000E+00 0. -1.
        994    1    1    2    0    0 -0.25953705328E+02 -0.38497929400E+02  0.96840666076E+01  0.17764826634E+03  0.17120000000E+03 0.  0.
        998    1    1    2    0    0  0.20503029985E+02  0.28030414669E+02  0.14667546688E+04  0.14671998285E+04  0.10000000000E+02 0. -1.
</event>
<event>
 5    1  0.1087513E-008  0.3800728E+03  0.7957747E-01  0.3450841E+00
         13   -1    0    0    0    0  0.00000000000E+00  0.00000000000E+00  0.14999999963E+04  0.15000000000E+04  0.10566000000E+00 0.  1.
        994   -1    0    0    0    0 -0.00000000000E+00 -0.00000000000E+00  0.11368683772E-12  0.17120000000E+03  0.17120000000E+03 0.  0.
         13    1    1    2    0    0 -0.19810491884E+02 -0.17540578964E+02  0.95298211687E+02  0.98903426705E+02  0.10566000000E+00 0.  1.
        994    1    1    2    0    0 -0.26514440450E+01 -0.93918819388E+01  0.44147377156E+01  0.17153474141E+03  0.17120000000E+03 0.  0.
        998    1    1    2    0    0  0.22461935929E+02  0.26932460903E+02  0.14002870469E+04  0.14007618319E+04  0.10000000000E+02 0.  1.
</event>
<event>
 5    1  0.2066960E-008  0.3864492E+03  0.7957747E-01  0.3423549E+00
         13   -1    0    0    0    0  0.00000000000E+00  0.00000000000E+00  0.14999999963E+04  0.15000000000E+04  0.10566000000E+00 0. -1.
        994   -1    0    0    0    0 -0.00000000000E+00 -0.00000000000E+00  0.11368683772E-12  0.17120000000E+03  0.17120000000E+03 0.  0.
         13    1    1    2    0    0  0.49571882013E+01  0.88712561673E+01  0.54761302452E+02  0.55696358150E+02  0.10566000000E+00 0. -1.
        994    1    1    2    0    0 -0.11563802271E+02 -0.94822348499E+01  0.16447002790E+01  0.17185976649E+03  0.17120000000E+03 0.  0.
        998    1    1    2    0    0  0.66066140695E+01  0.61097868256E+00  0.14435939935E+04  0.14436438754E+04  0.10000000000E+02 0. -1.
</event>
<event>
 5    1  0.1087513E-008  0.3828071E+03  0.7957747E-01  0.3439026E+00
         13   -1    0    0    0    0  0.00000000000E+00  0.00000000000E+00  0.14999999963E+04  0.15000000000E+04  0.10566000000E+00 0. -1.
        994   -1    0    0    0    0 -0.00000000000E+00 -0.00000000000E+00  0.11368683772E-12  0.17120000000E+03  0.17120000000E+03 0.  0.
         13    1    1    2    0    0  0.44953383188E+00 -0.12434479802E+02  0.26792889092E+02  0.29541300556E+02  0.10566000000E+00 0. -1.
        994    1    1    2    0    0  0.46883091972E+01  0.16026585142E+02  0.36468743032E+01  0.17205107197E+03  0.17120000000E+03 0.  0.
        998    1    1    2    0    0 -0.51378430291E+01 -0.35921053403E+01  0.14695602329E+04  0.14696076275E+04  0.10000000000E+02 0. -1.
</event>
<event>
 5    1  0.1087513E-008  0.3749542E+03  0.7957747E-01  0.3473428E+00
         13   -1    0    0    0    0  0.00000000000E+00  0.00000000000E+00  0.14999999963E+04  0.15000000000E+04  0.10566000000E+00 0. -1.
        994   -1    0    0    0    0 -0.00000000000E+00 -0.00000000000E+00  0.11368683772E-12  0.17120000000E+03  0.17120000000E+03 0.  0.
         13    1    1    2    0    0  0.37124876941E+02  0.14065853141E+02  0.13299621298E+03  0.13879520361E+03  0.10566000000E+00 0. -1.
        994    1    1    2    0    0  0.70946532984E+01 -0.37416180280E+01  0.69210173305E+01  0.17152747387E+03  0.17120000000E+03 0.  0.
        998    1    1    2    0    0 -0.44219530240E+02 -0.10324235113E+02  0.13600827660E+04  0.13608773225E+04  0.10000000000E+02 0. -1.
</event>
<event>
 5    1  0.1087513E-008  0.3795124E+03  0.7957747E-01  0.3453285E+00
         13   -1    0    0    0    0  0.00000000000E+00  0.00000000000E+00  0.14999999963E+04  0.15000000000E+04  0.10566000000E+00 0.  1.
        994   -1    0    0    0    0 -0.00000000000E+00 -0.00000000000E+00  0.11368683772E-12  0.17120000000E+03  0.17120000000E+03 0.  0.
         13    1    1    2    0    0  0.33848208600E+02 -0.19271905044E+01  0.12276215548E+03  0.12735765886E+03  0.10566000000E+00 0.  1.
        994    1    1    2    0    0 -0.29764263661E+02  0.94931401429E+01  0.76544631514E+01  0.17419547040E+03  0.17120000000E+03 0.  0.
        998    1    1    2    0    0 -0.40839449392E+01 -0.75659496385E+01  0.13695833776E+04  0.13696468707E+04  0.10000000000E+02 0.  1.
</event>
<event>
 5    1  0.1087513E-008  0.3804358E+03  0.7957747E-01  0.3449263E+00
         13   -1    0    0    0    0  0.00000000000E+00  0.00000000000E+00  0.14999999963E+04  0.15000000000E+04  0.10566000000E+00 0. -1.
        994   -1    0    0    0    0 -0.00000000000E+00 -0.00000000000E+00  0.11368683772E-12  0.17120000000E+03  0.17120000000E+03 0.  0.
         13    1    1    2    0    0  0.21079630903E+02 -0.20169415536E+02  0.10419603165E+03  0.10820342110E+03  0.10566000000E+00 0. -1.
        994    1    1    2    0    0 -0.15250312250E+02  0.17862804808E+02  0.57569845849E+01  0.17289949303E+03  0.17120000000E+03 0.  0.
        998    1    1    2    0    0 -0.58293186533E+01  0.23066107280E+01  0.13900469800E+04  0.13900970859E+04  0.10000000000E+02 0. -1.
</event>
<event>
 5    1  0.1087513E-008  0.3696843E+03  0.7957747E-01  0.3497343E+00
         13   -1    0    0    0    0  0.00000000000E+00  0.00000000000E+00  0.14999999963E+04  0.15000000000E+04  0.10566000000E+00 0. -1.
        994   -1    0    0    0    0 -0.00000000000E+00 -0.00000000000E+00  0.11368683772E-12  0.17120000000E+03  0.17120000000E+03 0.  0.
         13    1    1    2    0    0  0.75167956062E+02  0.41116337894E+01  0.25738721454E+03  0.26817031254E+03  0.10566000000E+00 0. -1.
        994    1    1    2    0    0 -0.67915225363E+02 -0.83831444375E+01  0.25822575315E+02  0.18616927873E+03  0.17120000000E+03 0.  0.
        998    1    1    2    0    0 -0.72527306993E+01  0.42715106481E+01  0.12167902064E+04  0.12168604087E+04  0.10000000000E+02 0.  1.
</event>
<event>
 5    1  0.1087513E-008  0.3841573E+03  0.7957747E-01  0.3433254E+00
         13   -1    0    0    0    0  0.00000000000E+00  0.00000000000E+00  0.14999999963E+04  0.15000000000E+04  0.10566000000E+00 0. -1.
        994   -1    0    0    0    0 -0.00000000000E+00 -0.00000000000E+00  0.11368683772E-12  0.17120000000E+03  0.17120000000E+03 0.  0.
         13    1    1    2    0    0  0.45122241406E+02  0.30393332198E+02  0.72994628963E+02  0.91038444259E+02  0.10566000000E+00 0. -1.
        994    1    1    2    0    0 -0.32327218688E+02 -0.20450329479E+02  0.24033178300E+02  0.17706015561E+03  0.17120000000E+03 0.  0.
        998    1    1    2    0    0 -0.12795022719E+02 -0.99430027187E+01  0.14029721890E+04  0.14031014001E+04  0.10000000000E+02 0. -1.
</event>
<event>
 5    1  0.1087513E-008  0.3842381E+03  0.7957747E-01  0.3432910E+00
         13   -1    0    0    0    0  0.00000000000E+00  0.00000000000E+00  0.14999999963E+04  0.15000000000E+04  0.10566000000E+00 0.  1.
        994   -1    0    0    0    0 -0.00000000000E+00 -0.00000000000E+00  0.11368683772E-12  0.17120000000E+03  0.17120000000E+03 0.  0.
         13    1    1    2    0    0  0.78835950304E+01  0.13743404683E+02  0.60348180288E+02  0.62393479395E+02  0.10566000000E+00 0.  1.
        994    1    1    2    0    0 -0.51379110494E+01 -0.15131906746E+02  0.28512413405E+01  0.17196785254E+03  0.17120000000E+03 0.  0.
        998    1    1    2    0    0 -0.27456839810E+01  0.13885020631E+01  0.14368005747E+04  0.14368386681E+04  0.10000000000E+02 0.  1.
</event>
<event>
 5    1  0.1087513E-008  0.3823026E+03  0.7957747E-01  0.3441194E+00
         13   -1    0    0    0    0  0.00000000000E+00  0.00000000000E+00  0.14999999963E+04  0.15000000000E+04  0.10566000000E+00 0.  1.
        994   -1    0    0    0    0 -0.00000000000E+00 -0.00000000000E+00  0.11368683772E-12  0.17120000000E+03  0.17120000000E+03 0.  0.
         13    1    1    2    0    0  0.20847074787E+02  0.15908598740E+02  0.13655417682E+03  0.13904940996E+03  0.10566000000E+00 0.  1.
        994    1    1    2    0    0  0.10028311427E+02  0.70676068209E+00  0.33106986680E+01  0.17152687039E+03  0.17120000000E+03 0.  0.
        998    1    1    2    0    0 -0.30875386214E+02 -0.16615359423E+02  0.13601351208E+04  0.13606237196E+04  0.10000000000E+02 0.  1.
</event>
<event>
 5    1  0.1087513E-008  0.3781072E+03  0.7957747E-01  0.3459442E+00
         13   -1    0    0    0    0  0.00000000000E+00  0.00000000000E+00  0.14999999963E+04  0.15000000000E+04  0.10566000000E+00 0. -1.
        994   -1    0    0    0    0 -0.00000000000E+00 -0.00000000000E+00  0.11368683772E-12  0.17120000000E+03  0.17120000000E+03 0.  0.
         13    1    1    2    0    0  0.22730899713E+00 -0.10459943792E+02  0.84498637411E+01  0.13448920209E+02  0.10566000000E+00 0. -1.
        994    1    1    2    0    0  0.23393752173E+01  0.75847667181E+01  0.53036352398E+01  0.17146594388E+03  0.17120000000E+03 0.  0.
        998    1    1    2    0    0 -0.25666842144E+01  0.28751770741E+01  0.14862464973E+04  0.14862851359E+04  0.10000000000E+02 0. -1.
</event>
<event>
 5    1  0.1087513E-008  0.3791136E+03  0.7957747E-01  0.3455027E+00
         13   -1    0    0    0    0  0.00000000000E+00  0.00000000000E+00  0.14999999963E+04  0.15000000000E+04  0.10566000000E+00 0.  1.
        994   -1    0    0    0    0 -0.00000000000E+00 -0.00000000000E+00  0.11368683772E-12  0.17120000000E+03  0.17120000000E+03 0.  0.
         13    1    1    2    0    0  0.26882705617E+02  0.19689658402E+02  0.11222872912E+03  0.11707118054E+03  0.10566000000E+00 0.  1.
        994    1    1    2    0    0 -0.25990056261E+02 -0.19175053924E+02  0.80866391884E+01  0.17440756707E+03  0.17120000000E+03 0.  0.
        998    1    1    2    0    0 -0.89264935618E+00 -0.51460447817E+00  0.13796846280E+04  0.13797212524E+04  0.10000000000E+02 0.  1.
</event>
<event>
 5    1  0.1087513E-008  0.3843990E+03  0.7957747E-01  0.3432225E+00
         13   -1    0    0    0    0  0.00000000000E+00  0.00000000000E+00  0.14999999963E+04  0.15000000000E+04  0.10566000000E+00 0. -1.
        994   -1    0    0    0    0 -0.00000000000E+00 -0.00000000000E+00  0.11368683772E-12  0.17120000000E+03  0.17120000000E+03 0.  0.
         13    1    1    2    0    0 -0.55735964697E+01  0.17207955269E+02  0.77622843163E+02  0.79702544796E+02  0.10566000000E+00 0. -1.
        994    1    1    2    0    0  0.15589846461E+02 -0.21537691973E+02  0.42616303557E+01  0.17330469405E+03  0.17120000000E+03 0.  0.
        998    1    1    2    0    0 -0.10016249991E+02  0.43297367036E+01  0.14181155228E+04  0.14181927611E+04  0.10000000000E+02 0. -1.
</event>
<event>
 5    1  0.1087513E-008  0.3767165E+03  0.7957747E-01  0.3465582E+00
         13   -1    0    0    0    0  0.00000000000E+00  0.00000000000E+00  0.14999999963E+04  0.15000000000E+04  0.10566000000E+00 0. -1.
        994   -1    0    0    0    0 -0.00000000000E+00 -0.00000000000E+00  0.11368683772E-12  0.17120000000E+03  0.17120000000E+03 0.  0.
         13    1    1    2    0    0 -0.38501724290E+02  0.57944486895E+02  0.40215976544E+03  0.40813286370E+03  0.10566000000E+00 0. -1.
        994    1    1    2    0    0  0.33701325959E+02 -0.29567312593E+02  0.12623360348E+02  0.17742264391E+03  0.17120000000E+03 0.  0.
        998    1    1    2    0    0  0.48003983308E+01 -0.28377174301E+02  0.10852168705E+04  0.10856444924E+04  0.10000000000E+02 0. -1.
</event>
<event>
 5    1  0.1087513E-008  0.3706966E+03  0.7957747E-01  0.3492695E+00
         13   -1    0    0    0    0  0.00000000000E+00  0.00000000000E+00  0.14999999963E+04  0.15000000000E+04  0.10566000000E+00 0. -1.
        994   -1    0    0    0    0 -0.00000000000E+00 -0.00000000000E+00  0.11368683772E-12  0.17120000000E+03  0.17120000000E+03 0.  0.
         13    1    1    2    0    0  0.13271351151E+02  0.34960714330E+02  0.72902144182E+02  0.81933595662E+02  0.10566000000E+00 0. -1.
        994    1    1    2    0    0 -0.14286687557E+02 -0.30434863628E+02  0.12814517121E+02  0.17494011036E+03  0.17120000000E+03 0.  0.
        998    1    1    2    0    0  0.10153364062E+01 -0.45258507017E+01  0.14142833350E+04  0.14143262940E+04  0.10000000000E+02 0. -1.
</event>
<event>
 5    1  0.1087513E-008  0.3818662E+03  0.7957747E-01  0.3443073E+00
         13   -1    0    0    0    0  0.00000000000E+00  0.00000000000E+00  0.14999999963E+04  0.15000000000E+04  0.10566000000E+00 0.  1.
        994   -1    0    0    0    0 -0.00000000000E+00 -0.00000000000E+00  0.11368683772E-12  0.17120000000E+03  0.17120000000E+03 0.  0.
         13    1    1    2    0    0  0.42863472837E+00  0.23215540587E+02  0.78010805437E+02  0.81393132275E+02  0.10566000000E+00 0.  1.
        994    1    1    2    0    0  0.54482809105E+00 -0.27642360847E+02  0.57378771909E+01  0.17351299717E+03  0.17120000000E+03 0.  0.
        998    1    1    2    0    0 -0.97346281942E+00  0.44268202601E+01  0.14162513137E+04  0.14162938706E+04  0.10000000000E+02 0.  1.
</event>
<event>
 5    1  0.1087513E-008  0.3761708E+03  0.7957747E-01  0.3468003E+00
         13   -1    0    0    0    0  0.00000000000E+00  0.00000000000E+00  0.14999999963E+04  0.15000000000E+04  0.10566000000E+00 0. -1.
        994   -1    0    0    0    0 -0.00000000000E+00 -0.00000000000E+00  0.11368683772E-12  0.17120000000E+03  0.17120000000E+03 0.  0.
         13    1    1    2    0    0  0.14260552061E+02  0.75573986452E+01  0.18616592990E+02  0.24638715834E+02  0.10566000000E+00 0. -1.
        994    1    1    2    0    0 -0.12801826062E+02 -0.93106719075E+01  0.69275657668E+01  0.17206977227E+03  0.17120000000E+03 0.  0.
        998    1    1    2    0    0 -0.14587259984E+01  0.17532732623E+01  0.14744558375E+04  0.14744915119E+04  0.10000000000E+02 0. -1.
</event>
<event>
 5    1  0.1087513E-008  0.3810166E+03  0.7957747E-01  0.3446744E+00
         13   -1    0    0    0    0  0.00000000000E+00  0.00000000000E+00  0.14999999963E+04  0.15000000000E+04  0.10566000000E+00 0.  1.
        994   -1    0    0    0    0 -0.00000000000E+00 -0.00000000000E+00  0.11368683772E-12  0.17120000000E+03  0.17120000000E+03 0.  0.
         13    1    1    2    0    0 -0.43268764279E+02  0.33079114419E+02  0.32621228902E+03  0.33072780719E+03  0.10566000000E+00 0.  1.
        994    1    1    2    0    0  0.33290620692E+02 -0.45169377774E+02  0.14182965429E+02  0.18071838485E+03  0.17120000000E+03 0.  0.
        998    1    1    2    0    0  0.99781435867E+01  0.12090263354E+02  0.11596047418E+04  0.11597538080E+04  0.10000000000E+02 0.  1.
</event>
<event>
 5    1  0.1087513E-008  0.3742794E+03  0.7957747E-01  0.3476452E+00
         13   -1    0    0    0    0  0.00000000000E+00  0.00000000000E+00  0.14999999963E+04  0.15000000000E+04  0.10566000000E+00 0. -1.
        994   -1    0    0    0    0 -0.00000000000E+00 -0.00000000000E+00  0.11368683772E-12  0.17120000000E+03  0.17120000000E+03 0.  0.
         13    1    1    2    0    0 -0.21217260974E+01 -0.16708239577E+02  0.16824889153E+02  0.23806617787E+02  0.10566000000E+00 0. -1.
        994    1    1    2    0    0  0.56726277016E+01  0.17305483548E+02  0.81801445389E+01  0.17236012657E+03  0.17120000000E+03 0.  0.
        998    1    1    2    0    0 -0.35509016041E+01 -0.59724397078E+00  0.14749949626E+04  0.14750332556E+04  0.10000000000E+02 0. -1.
</event>
<event>
 5    1  0.1087513E-008  0.3843522E+03  0.7957747E-01  0.3432424E+00
         13   -1    0    0    0    0  0.00000000000E+00  0.00000000000E+00  0.14999999963E+04  0.15000000000E+04  0.10566000000E+00 0. -1.
        994   -1    0    0    0    0 -0.00000000000E+00 -0.00000000000E+00  0.11368683772E-12  0.17120000000E+03  0.17120000000E+03 0.  0.
         13    1    1    2    0    0  0.17946995127E+02  0.74805583246E+01  0.10796925064E+03  0.10970607838E+03  0.10566000000E+00 0. -1.
        994    1    1    2    0    0 -0.71705932722E+00  0.74736564233E+01  0.21379121445E+01  0.17137788767E+03  0.17120000000E+03 0.  0.
        998    1    1    2    0    0 -0.17229935800E+02 -0.14954214748E+02  0.13898928335E+04  0.13901160339E+04  0.10000000000E+02 0. -1.
</event>
<event>
 5    1  0.1087513E-008  0.3762803E+03  0.7957747E-01  0.3467516E+00
         13   -1    0    0    0    0  0.00000000000E+00  0.00000000000E+00  0.14999999963E+04  0.15000000000E+04  0.10566000000E+00 0. -1.
        994   -1    0    0    0    0 -0.00000000000E+00 -0.00000000000E+00  0.11368683772E-12  0.17120000000E+03  0.17120000000E+03 0.  0.
         13    1    1    2    0    0  0.38143044925E+02 -0.35946456056E+02  0.30827875168E+03  0.31270247757E+03  0.10566000000E+00 0. -1.
        994    1    1    2    0    0  0.54707245324E+01 -0.37601468653E+01  0.61718788665E+01  0.17143978424E+03  0.17120000000E+03 0.  0.
        998    1    1    2    0    0 -0.43613769458E+02  0.39706602921E+02  0.11855493657E+04  0.11870577382E+04  0.10000000000E+02 0. -1.
</event>
<event>
 5    1  0.1087513E-008  0.3840005E+03  0.7957747E-01  0.3433922E+00
         13   -1    0    0    0    0  0.00000000000E+00  0.00000000000E+00  0.14999999963E+04  0.15000000000E+04  0.10566000000E+00 0.  1.
        994   -1    0    0    0    0 -0.00000000000E+00 -0.00000000000E+00  0.11368683772E-12  0.17120000000E+03  0.17120000000E+03 0.  0.
         13    1    1    2    0    0 -0.19925232941E+02 -0.12666995698E+02  0.11999916936E+03  0.12229995706E+03  0.10566000000E+00 0.  1.
        994    1    1    2    0    0  0.23969088504E+02  0.10385945545E+02  0.43818723441E+01  0.17323690679E+03  0.17120000000E+03 0.  0.
        998    1    1    2    0    0 -0.40438555630E+01  0.22810501526E+01  0.13756189546E+04  0.13756631361E+04  0.10000000000E+02 0.  1.
</event>
<event>
 5    1  0.1087513E-008  0.3784137E+03  0.7957747E-01  0.3458095E+00
         13   -1    0    0    0    0  0.00000000000E+00  0.00000000000E+00  0.14999999963E+04  0.15000000000E+04  0.10566000000E+00 0.  1.
        994   -1    0    0    0    0 -0.00000000000E+00 -0.00000000000E+00  0.11368683772E-12  0.17120000000E+03  0.17120000000E+03 0.  0.
         13    1    1    2    0    0  0.61730077927E+02 -0.19237962194E+02  0.36189162869E+03  0.36762244734E+03  0.10566000000E+00 0.  1.
        994    1    1    2    0    0 -0.39703847190E+02  0.89829241928E+02  0.38066844493E+02  0.20100799197E+03  0.17120000000E+03 0.  0.
        998    1    1    2    0    0 -0.22026230737E+02 -0.70591279734E+02  0.11000415231E+04  0.11025695607E+04  0.10000000000E+02 0.  1.
</event>
<event>
 5    1  0.1087513E-008  0.3034383E+03  0.7957747E-01  0.3871774E+00
         13   -1    0    0    0    0  0.00000000000E+00  0.00000000000E+00  0.14999999963E+04  0.15000000000E+04  0.10566000000E+00 0.  1.
        994   -1    0    0    0    0 -0.00000000000E+00 -0.00000000000E+00  0.11368683772E-12  0.17120000000E+03  0.17120000000E+03 0.  0.
         13    1    1    2    0    0  0.14259309448E+03  0.11450265569E+02  0.79006571920E+03  0.80291204437E+03  0.10566000000E+00 0.  1.
        994    1    1    2    0    0 -0.90257603966E+02 -0.43966402497E+02  0.49017436487E+02  0.20443000930E+03  0.17120000000E+03 0.  0.
        998    1    1    2    0    0 -0.52335490518E+02  0.32516136927E+02  0.66091684059E+03  0.66385794633E+03  0.10000000000E+02 0.  1.
</event>
<event>
 5    1  0.1087513E-008  0.3757561E+03  0.7957747E-01  0.3469848E+00
         13   -1    0    0    0    0  0.00000000000E+00  0.00000000000E+00  0.14999999963E+04  0.15000000000E+04  0.10566000000E+00 0.  1.
        994   -1    0    0    0    0 -0.00000000000E+00 -0.00000000000E+00  0.11368683772E-12  0.17120000000E+03  0.17120000000E+03 0.  0.
         13    1    1    2    0    0  0.62239086108E+01 -0.58326923892E+02  0.25208396501E+03  0.25881866948E+03  0.10566000000E+00 0.  1.
        994    1    1    2    0    0 -0.22192525794E+02  0.42548418343E+02  0.14139284562E+02  0.17835984826E+03  0.17120000000E+03 0.  0.
        998    1    1    2    0    0  0.15968617184E+02  0.15778505549E+02  0.12337767467E+04  0.12340214823E+04  0.10000000000E+02 0.  1.
</event>
<event>
 5    1  0.1087513E-008  0.3795285E+03  0.7957747E-01  0.3453214E+00
         13   -1    0    0    0    0  0.00000000000E+00  0.00000000000E+00  0.14999999963E+04  0.15000000000E+04  0.10566000000E+00 0.  1.
        994   -1    0    0    0    0 -0.00000000000E+00 -0.00000000000E+00  0.11368683772E-12  0.17120000000E+03  0.17120000000E+03 0.  0.
         13    1    1    2    0    0  0.32094318173E+02  0.22354955465E+02  0.23225533919E+03  0.23552567384E+03  0.10566000000E+00 0.  1.
        994    1    1    2    0    0  0.16076918748E+02 -0.12520526446E+01  0.52424550923E+01  0.17203766532E+03  0.17120000000E+03 0.  0.
        998    1    1    2    0    0 -0.48171236922E+02 -0.21102902820E+02  0.12625022020E+04  0.12636366608E+04  0.10000000000E+02 0.  1.
</event>
<event>
 5    1  0.1087513E-008  0.3684177E+03  0.7957747E-01  0.3503195E+00
         13   -1    0    0    0    0  0.00000000000E+00  0.00000000000E+00  0.14999999963E+04  0.15000000000E+04  0.10566000000E+00 0.  1.
        994   -1    0    0    0    0 -0.00000000000E+00 -0.00000000000E+00  0.11368683772E-12  0.17120000000E+03  0.17120000000E+03 0.  0.
         13    1    1    2    0    0 -0.35564743754E+02  0.98024669512E+01  0.63662967306E+02  0.73579371612E+02  0.10566000000E+00 0.  1.
        994    1    1    2    0    0  0.20972500877E+02 -0.13864028909E+02  0.12305156831E+02  0.17347309294E+03  0.17120000000E+03 0.  0.
        998    1    1    2    0    0  0.14592242877E+02  0.40615619576E+01  0.14240318721E+04  0.14241475354E+04  0.10000000000E+02 0.  1.
</event>
<event>
 5    1  0.1087513E-008  0.3933306E+03  0.7957747E-01  0.3395092E+00
         13   -1    0    0    0    0  0.00000000000E+00  0.00000000000E+00  0.14999999963E+04  0.15000000000E+04  0.10566000000E+00 0. -1.
        994   -1    0    0    0    0 -0.00000000000E+00 -0.00000000000E+00  0.11368683772E-12  0.17120000000E+03  0.17120000000E+03 0.  0.
         13    1    1    2    0    0  0.79214032233E+02 -0.13277400792E+03  0.38576785474E+03  0.41559673843E+03  0.10566000000E+00 0. -1.
        994    1    1    2    0    0 -0.65518989636E+02  0.12108947331E+03  0.10037449527E+03  0.24153649383E+03  0.17120000000E+03 0.  0.
        998    1    1    2    0    0 -0.13695042598E+02  0.11684534615E+02  0.10138576463E+04  0.10140667677E+04  0.10000000000E+02 0. -1.
</event>
<event>
 5    1  0.1087513E-008  0.3830077E+03  0.7957747E-01  0.3438166E+00
         13   -1    0    0    0    0  0.00000000000E+00  0.00000000000E+00  0.14999999963E+04  0.15000000000E+04  0.10566000000E+00 0.  1.
        994   -1    0    0    0    0 -0.00000000000E+00 -0.00000000000E+00  0.11368683772E-12  0.17120000000E+03  0.17120000000E+03 0.  0.
         13    1    1    2    0    0  0.35382597120E+02  0.47737583423E+01  0.20679600640E+03  0.20985546544E+03  0.10566000000E+00 0.  1.
        994    1    1    2    0    0 -0.39402088087E+02  0.43625739204E+01  0.78418882083E+01  0.17590478051E+03  0.17120000000E+03 0.  0.
        998    1    1    2    0    0  0.40194909671E+01 -0.91363322627E+01  0.12853621017E+04  0.12854397540E+04  0.10000000000E+02 0.  1.
</event>
<event>
 5    1  0.1087513E-008  0.3735243E+03  0.7957747E-01  0.3479849E+00
         13   -1    0    0    0    0  0.00000000000E+00  0.00000000000E+00  0.14999999963E+04  0.15000000000E+04  0.10566000000E+00 0. -1.
        994   -1    0    0    0    0 -0.00000000000E+00 -0.00000000000E+00  0.11368683772E-12  0.17120000000E+03  0.17120000000E+03 0.  0.
         13    1    1    2    0    0 -0.10136928582E+03 -0.53833274833E+02  0.63277030871E+03  0.64309566033E+03  0.10566000000E+00 0. -1.
        994    1    1    2    0    0  0.89660293569E+02  0.36943695246E+02  0.40278343643E+02  0.20083722222E+03  0.17120000000E+03 0.  0.
        998    1    1    2    0    0  0.11708992248E+02  0.16889579587E+02  0.82695134393E+03  0.82726711746E+03  0.10000000000E+02 0.  1.
</event>
<event>
 5    1  0.1087513E-008  0.3788276E+03  0.7957747E-01  0.3456280E+00
         13   -1    0    0    0    0  0.00000000000E+00  0.00000000000E+00  0.14999999963E+04  0.15000000000E+04  0.10566000000E+00 0. -1.
        994   -1    0    0    0    0 -0.00000000000E+00 -0.00000000000E+00  0.11368683772E-12  0.17120000000E+03  0.17120000000E+03 0.  0.
         13    1    1    2    0    0 -0.24790530221E+02  0.31016251183E+02  0.18845339894E+03  0.19259094725E+03  0.10566000000E+00 0. -1.
        994    1    1    2    0    0  0.50969034655E+01 -0.94190953561E+00  0.48163284527E+01  0.17134614859E+03  0.17120000000E+03 0.  0.
        998    1    1    2    0    0  0.19693626756E+02 -0.30074341648E+02  0.13067302689E+04  0.13072629042E+04  0.10000000000E+02 0. -1.
</event>
<event>
 5    1  0.1087513E-008  0.3841037E+03  0.7957747E-01  0.3433482E+00
         13   -1    0    0    0    0  0.00000000000E+00  0.00000000000E+00  0.14999999963E+04  0.15000000000E+04  0.10566000000E+00 0.  1.
        994   -1    0    0    0    0 -0.00000000000E+00 -0.00000000000E+00  0.11368683772E-12  0.17120000000E+03  0.17120000000E+03 0.  0.
         13    1    1    2    0    0 -0.40821959166E+01 -0.11074083667E+02  0.32820279116E+02  0.34878095387E+02  0.10566000000E+00 0.  1.
        994    1    1    2    0    0  0.60142366379E+01  0.79215189334E+01  0.24020992248E+01  0.17150548558E+03  0.17120000000E+03 0.  0.
        998    1    1    2    0    0 -0.19320407213E+01  0.31525647332E+01  0.14647776179E+04  0.14648164190E+04  0.10000000000E+02 0.  1.
</event>
<event>
 5    1  0.1087513E-008  0.3780801E+03  0.7957747E-01  0.3459561E+00
         13   -1    0    0    0    0  0.00000000000E+00  0.00000000000E+00  0.14999999963E+04  0.15000000000E+04  0.10566000000E+00 0.  1.
        994   -1    0    0    0    0 -0.00000000000E+00 -0.00000000000E+00  0.11368683772E-12  0.17120000000E+03  0.17120000000E+03 0.  0.
         13    1    1    2    0    0 -0.30298559700E+02  0.28507479973E+02  0.17052103494E+03  0.17552240214E+03  0.10566000000E+00 0.  1.
        994    1    1    2    0    0  0.10385313367E+02 -0.20585333985E+02  0.68960016688E+01  0.17288321361E+03  0.17120000000E+03 0.  0.
        998    1    1    2    0    0  0.19913246334E+02 -0.79221459880E+01  0.13225829597E+04  0.13227943842E+04  0.10000000000E+02 0.  1.
</event>
<event>
 5    1  0.1087513E-008  0.3850775E+03  0.7957747E-01  0.3429343E+00
         13   -1    0    0    0    0  0.00000000000E+00  0.00000000000E+00  0.14999999963E+04  0.15000000000E+04  0.10566000000E+00 0. -1.
        994   -1    0    0    0    0 -0.00000000000E+00 -0.00000000000E+00  0.11368683772E-12  0.17120000000E+03  0.17120000000E+03 0.  0.
         13    1    1    2    0    0 -0.10607283839E+02  0.13842543292E+02  0.79115629364E+02  0.81014964352E+02  0.10566000000E+00 0. -1.
        994    1    1    2    0    0  0.22638945200E+02 -0.31882531217E+02  0.66350295816E+01  0.17573412092E+03  0.17120000000E+03 0.  0.
        998    1    1    2    0    0 -0.12031661361E+02  0.18039987925E+02  0.14142493373E+04  0.14144509147E+04  0.10000000000E+02 0. -1.
</event>
<event>
 5    1  0.1087513E-008  0.3800312E+03  0.7957747E-01  0.3451023E+00
         13   -1    0    0    0    0  0.00000000000E+00  0.00000000000E+00  0.14999999963E+04  0.15000000000E+04  0.10566000000E+00 0.  1.
        994   -1    0    0    0    0 -0.00000000000E+00 -0.00000000000E+00  0.11368683772E-12  0.17120000000E+03  0.17120000000E+03 0.  0.
         13    1    1    2    0    0  0.10265893865E+03 -0.21375075116E+03  0.98096905940E+03  0.10092217536E+04  0.10566000000E+00 0.  1.
        994    1    1    2    0    0 -0.10274054732E+03  0.22350861551E+03  0.24365974093E+03  0.38625280662E+03  0.17120000000E+03 0.  0.
        998    1    1    2    0    0  0.81608669988E-01 -0.97578643485E+01  0.27537119595E+03  0.27572543977E+03  0.10000000000E+02 0.  0.
</event>
<event>
 5    1  0.1087513E-008  0.3827459E+03  0.7957747E-01  0.3439289E+00
         13   -1    0    0    0    0  0.00000000000E+00  0.00000000000E+00  0.14999999963E+04  0.15000000000E+04  0.10566000000E+00 0. -1.
        994   -1    0    0    0    0 -0.00000000000E+00 -0.00000000000E+00  0.11368683772E-12  0.17120000000E+03  0.17120000000E+03 0.  0.
         13    1    1    2    0    0  0.18590448641E+02 -0.35243377984E+01  0.65109606503E+02  0.67803375731E+02  0.10566000000E+00 0. -1.
        994    1    1    2    0    0 -0.93703433381E+01  0.66632159770E+00  0.30458109215E+01  0.17148458905E+03  0.17120000000E+03 0.  0.
        998    1    1    2    0    0 -0.92201053033E+01  0.28580162007E+01  0.14318445789E+04  0.14319120352E+04  0.10000000000E+02 0. -1.
</event>
<event>
 5    1  0.1087513E-008  0.3757929E+03  0.7957747E-01  0.3469684E+00
         13   -1    0    0    0    0  0.00000000000E+00  0.00000000000E+00  0.14999999963E+04  0.15000000000E+04  0.10566000000E+00 0.  1.
        994   -1    0    0    0    0 -0.00000000000E+00 -0.00000000000E+00  0.11368683772E-12  0.17120000000E+03  0.17120000000E+03 0.  0.
         13    1    1    2    0    0  0.10316948976E+02  0.14379635756E+00  0.56475491174E+01  0.11762911571E+02  0.10566000000E+00 0.  1.
        994    1    1    2    0    0 -0.35782067606E+01 -0.11181359623E+02  0.67395291448E+01  0.17173435189E+03  0.17120000000E+03 0.  0.
        998    1    1    2    0    0 -0.67387422155E+01  0.11037563265E+02  0.14876129180E+04  0.14877027365E+04  0.10000000000E+02 0.  1.
</event>
<event>
 5    1  0.1087513E-008  0.3788398E+03  0.7957747E-01  0.3456226E+00
         13   -1    0    0    0    0  0.00000000000E+00  0.00000000000E+00  0.14999999963E+04  0.15000000000E+04  0.10566000000E+00 0. -1.
        994   -1    0    0    0    0 -0.00000000000E+00 -0.00000000000E+00  0.11368683772E-12  0.17120000000E+03  0.17120000000E+03 0.  0.
         13    1    1    2    0    0  0.12645940187E+02  0.11780714500E+01  0.14494353502E+02  0.19271873366E+02  0.10566000000E+00 0. -1.
        994    1    1    2    0    0 -0.25528617757E+02  0.16342892395E+02  0.78093723152E+01  0.17403800376E+03  0.17120000000E+03 0.  0.
        998    1    1    2    0    0  0.12882677569E+02 -0.17520963845E+02  0.14776962705E+04  0.14778901229E+04  0.10000000000E+02 0. -1.
</event>
<event>
 5    1  0.1087513E-008  0.3854705E+03  0.7957747E-01  0.3427679E+00
         13   -1    0    0    0    0  0.00000000000E+00  0.00000000000E+00  0.14999999963E+04  0.15000000000E+04  0.10566000000E+00 0.  1.
        994   -1    0    0    0    0 -0.00000000000E+00 -0.00000000000E+00  0.11368683772E-12  0.17120000000E+03  0.17120000000E+03 0.  0.
         13    1    1    2    0    0  0.15659602572E+02  0.34890960801E+01 -0.21986008376E+01  0.16193886311E+02  0.10566000000E+00 0.  1.
        994    1    1    2    0    0 -0.21032630823E+02  0.62188002924E+00  0.21004084164E+02  0.17376239480E+03  0.17120000000E+03 0.  0.
        998    1    1    2    0    0  0.53730282511E+01 -0.41109761093E+01  0.14811945130E+04  0.14812437189E+04  0.10000000000E+02 0.  1.
</event>
<event>
 5    1  0.1087513E-008  0.3743807E+03  0.7957747E-01  0.3475997E+00
         13   -1    0    0    0    0  0.00000000000E+00  0.00000000000E+00  0.14999999963E+04  0.15000000000E+04  0.10566000000E+00 0. -1.
        994   -1    0    0    0    0 -0.00000000000E+00 -0.00000000000E+00  0.11368683772E-12  0.17120000000E+03  0.17120000000E+03 0.  0.
         13    1    1    2    0    0 -0.82918357727E+01 -0.65559224588E+01  0.47126114079E+01  0.11573872735E+02  0.10566000000E+00 0. -1.
        994    1    1    2    0    0  0.99586121401E+01  0.47964946122E+01  0.74134014572E+01  0.17171656541E+03  0.17120000000E+03 0.  0.
        998    1    1    2    0    0 -0.16667763674E+01  0.17594278465E+01  0.14878739834E+04  0.14879095619E+04  0.10000000000E+02 0. -1.
</event>
<event>
 5    1  0.1087513E-008  0.3689708E+03  0.7957747E-01  0.3500634E+00
         13   -1    0    0    0    0  0.00000000000E+00  0.00000000000E+00  0.14999999963E+04  0.15000000000E+04  0.10566000000E+00 0.  1.
        994   -1    0    0    0    0 -0.00000000000E+00 -0.00000000000E+00  0.11368683772E-12  0.17120000000E+03  0.17120000000E+03 0.  0.
         13    1    1    2    0    0  0.47989312823E+02 -0.14918697333E+03  0.64487259416E+03  0.66364177161E+03  0.10566000000E+00 0.  1.
        994    1    1    2    0    0 -0.51310765077E+02  0.14337491200E+03  0.96144787392E+02  0.24848022084E+03  0.17120000000E+03 0.  0.
        998    1    1    2    0    0  0.33214522540E+01  0.58120613327E+01  0.75898261473E+03  0.75907800756E+03  0.10000000000E+02 0.  0.
</event>
<event>
 5    1  0.1087513E-008  0.3684990E+03  0.7957747E-01  0.3502818E+00
         13   -1    0    0    0    0  0.00000000000E+00  0.00000000000E+00  0.14999999963E+04  0.15000000000E+04  0.10566000000E+00 0.  1.
        994   -1    0    0    0    0 -0.00000000000E+00 -0.00000000000E+00  0.11368683772E-12  0.17120000000E+03  0.17120000000E+03 0.  0.
         13    1    1    2    0    0 -0.76683063361E+02  0.26739355576E+01  0.31280156782E+03  0.32207495111E+03  0.10566000000E+00 0.  1.
        994    1    1    2    0    0  0.31807311535E+02  0.10426912751E+02  0.14053840558E+02  0.17500678847E+03  0.17120000000E+03 0.  0.
        998    1    1    2    0    0  0.44875751826E+02 -0.13100848308E+02  0.11731445879E+04  0.11741182604E+04  0.10000000000E+02 0.  1.
</event>
<event>
 5    1  0.1087513E-008  0.3831402E+03  0.7957747E-01  0.3437598E+00
         13   -1    0    0    0    0  0.00000000000E+00  0.00000000000E+00  0.14999999963E+04  0.15000000000E+04  0.10566000000E+00 0.  1.
        994   -1    0    0    0    0 -0.00000000000E+00 -0.00000000000E+00  0.11368683772E-12  0.17120000000E+03  0.17120000000E+03 0.  0.
         13    1    1    2    0    0 -0.12976282474E+02 -0.17031887600E+02  0.92058195916E+02  0.94515563276E+02  0.10566000000E+00 0.  1.
        994    1    1    2    0    0  0.28299778443E+01  0.77449845963E+01  0.27812930612E+01  0.17142102891E+03  0.17120000000E+03 0.  0.
        998    1    1    2    0    0  0.10146304630E+02  0.92869030035E+01  0.14051605073E+04  0.14052634078E+04  0.10000000000E+02 0.  1.
</event>
<event>
 5    1  0.1087513E-008  0.3856969E+03  0.7957747E-01  0.3426722E+00
         13   -1    0    0    0    0  0.00000000000E+00  0.00000000000E+00  0.14999999963E+04  0.15000000000E+04  0.10566000000E+00 0.  1.
        994   -1    0    0    0    0 -0.00000000000E+00 -0.00000000000E+00  0.11368683772E-12  0.17120000000E+03  0.17120000000E+03 0.  0.
         13    1    1    2    0    0 -0.16042461232E+02  0.34091076601E+01  0.92673176661E+02  0.94113290315E+02  0.10566000000E+00 0.  1.
        994    1    1    2    0    0  0.25703987822E+02 -0.47124544263E+01  0.35284931424E+01  0.17321891490E+03  0.17120000000E+03 0.  0.
        998    1    1    2    0    0 -0.96615265894E+01  0.13033467662E+01  0.14037983265E+04  0.14038677948E+04  0.10000000000E+02 0.  1.
</event>
<event>
 5    1  0.1087513E-008  0.2949180E+03  0.7957747E-01  0.3932981E+00
         13   -1    0    0    0    0  0.00000000000E+00  0.00000000000E+00  0.14999999963E+04  0.15000000000E+04  0.10566000000E+00 0. -1.
        994   -1    0    0    0    0 -0.00000000000E+00 -0.00000000000E+00  0.11368683772E-12  0.17120000000E+03  0.17120000000E+03 0.  0.
         13    1    1    2    0    0 -0.14659202607E+03  0.62705891428E+02  0.75588257104E+03  0.77251519293E+03  0.10566000000E+00 0. -1.
        994    1    1    2    0    0  0.55840710922E+02 -0.75479122479E+02  0.54204519193E+02  0.20263971187E+03  0.17120000000E+03 0.  0.
        998    1    1    2    0    0  0.90751315152E+02  0.12773231050E+02  0.68991290604E+03  0.69604509520E+03  0.10000000000E+02 0. -1.
</event>
<event>
 5    1  0.1087513E-008  0.3846248E+03  0.7957747E-01  0.3431265E+00
         13   -1    0    0    0    0  0.00000000000E+00  0.00000000000E+00  0.14999999963E+04  0.15000000000E+04  0.10566000000E+00 0.  1.
        994   -1    0    0    0    0 -0.00000000000E+00 -0.00000000000E+00  0.11368683772E-12  0.17120000000E+03  0.17120000000E+03 0.  0.
         13    1    1    2    0    0  0.20804961019E+00 -0.16512505600E+02  0.74458102759E+02  0.76267465910E+02  0.10566000000E+00 0.  1.
        994    1    1    2    0    0 -0.14627375537E+02  0.11735350055E+02  0.29753366069E+01  0.17224973493E+03  0.17120000000E+03 0.  0.
        998    1    1    2    0    0  0.14419325927E+02  0.47771555445E+01  0.14225665569E+04  0.14226827992E+04  0.10000000000E+02 0.  1.
</event>
<event>
 5    1  0.1087513E-008  0.3720458E+03  0.7957747E-01  0.3486541E+00
         13   -1    0    0    0    0  0.00000000000E+00  0.00000000000E+00  0.14999999963E+04  0.15000000000E+04  0.10566000000E+00 0.  1.
        994   -1    0    0    0    0 -0.00000000000E+00 -0.00000000000E+00  0.11368683772E-12  0.17120000000E+03  0.17120000000E+03 0.  0.
         13    1    1    2    0    0  0.53052570732E+02  0.55165843552E+02  0.40788438215E+03  0.41500304327E+03  0.10566000000E+00 0.  1.
        994    1    1    2    0    0 -0.12698058401E+02 -0.26191918610E+02  0.11118173582E+02  0.17401238770E+03  0.17120000000E+03 0.  0.
        998    1    1    2    0    0 -0.40354512331E+02 -0.28973924942E+02  0.10809974405E+04  0.10821845690E+04  0.10000000000E+02 0.  1.
</event>
<event>
 5    1  0.1087513E-008  0.3812111E+03  0.7957747E-01  0.3445902E+00
         13   -1    0    0    0    0  0.00000000000E+00  0.00000000000E+00  0.14999999963E+04  0.15000000000E+04  0.10566000000E+00 0. -1.
        994   -1    0    0    0    0 -0.00000000000E+00 -0.00000000000E+00  0.11368683772E-12  0.17120000000E+03  0.17120000000E+03 0.  0.
         13    1    1    2    0    0  0.48683560952E+02 -0.36083851069E+02  0.36394186178E+03  0.36895233206E+03  0.10566000000E+00 0. -1.
        994    1    1    2    0    0 -0.89883520545E+02  0.37151470339E+01  0.30955447109E+02  0.19585844196E+03  0.17120000000E+03 0.  0.
        998    1    1    2    0    0  0.41199959592E+02  0.32368704035E+02  0.11051026874E+04  0.11063892260E+04  0.10000000000E+02 0. -1.
</event>
<event>
 5    1  0.1282897E-008  0.3855948E+03  0.7957747E-01  0.3427153E+00
         13   -1    0    0    0    0  0.00000000000E+00  0.00000000000E+00  0.14999999963E+04  0.15000000000E+04  0.10566000000E+00 0.  1.
        994   -1    0    0    0    0 -0.00000000000E+00 -0.00000000000E+00  0.11368683772E-12  0.17120000000E+03  0.17120000000E+03 0.  0.
         13    1    1    2    0    0  0.14010232826E+02  0.75780724743E+01  0.89866107839E+02  0.91266874103E+02  0.10566000000E+00 0.  1.
        994    1    1    2    0    0 -0.16257615690E+02 -0.75600571768E+01  0.23909748363E+01  0.17215290091E+03  0.17120000000E+03 0.  0.
        998    1    1    2    0    0  0.22473828645E+01 -0.18015297507E-01  0.14077429136E+04  0.14077802250E+04  0.10000000000E+02 0.  1.
</event>
<event>
 5    1  0.1087513E-008  0.3261984E+03  0.7957747E-01  0.3725090E+00
         13   -1    0    0    0    0  0.00000000000E+00  0.00000000000E+00  0.14999999963E+04  0.15000000000E+04  0.10566000000E+00 0. -1.
        994   -1    0    0    0    0 -0.00000000000E+00 -0.00000000000E+00  0.11368683772E-12  0.17120000000E+03  0.17120000000E+03 0.  0.
         13    1    1    2    0    0 -0.22618362122E+03  0.48459325374E+02  0.75466715195E+03  0.78932240442E+03  0.10566000000E+00 0. -1.
        994    1    1    2    0    0  0.22438553154E+03 -0.31584737588E+02  0.22807426214E+03  0.36424410972E+03  0.17120000000E+03 0.  0.
        998    1    1    2    0    0  0.17980896744E+01 -0.16874587786E+02  0.51725858219E+03  0.51763348586E+03  0.10000000000E+02 0. -1.
</event>
<event>
 5    1  0.1087513E-008  0.3754456E+03  0.7957747E-01  0.3471232E+00
         13   -1    0    0    0    0  0.00000000000E+00  0.00000000000E+00  0.14999999963E+04  0.15000000000E+04  0.10566000000E+00 0. -1.
        994   -1    0    0    0    0 -0.00000000000E+00 -0.00000000000E+00  0.11368683772E-12  0.17120000000E+03  0.17120000000E+03 0.  0.
         13    1    1    2    0    0 -0.19362483537E+02 -0.16116457035E+02  0.16773113430E+02  0.30265400282E+02  0.10566000000E+00 0. -1.
        994    1    1    2    0    0  0.22545815156E+02  0.12726676563E+02  0.16240225550E+02  0.17390648925E+03  0.17120000000E+03 0.  0.
        998    1    1    2    0    0 -0.31833316195E+01  0.33897804718E+01  0.14669866573E+04  0.14670281105E+04  0.10000000000E+02 0. -1.
</event>
<event>
 5    1  0.1087513E-008  0.3800567E+03  0.7957747E-01  0.3450912E+00
         13   -1    0    0    0    0  0.00000000000E+00  0.00000000000E+00  0.14999999963E+04  0.15000000000E+04  0.10566000000E+00 0. -1.
        994   -1    0    0    0    0 -0.00000000000E+00 -0.00000000000E+00  0.11368683772E-12  0.17120000000E+03  0.17120000000E+03 0.  0.
         13    1    1    2    0    0  0.16383027848E+02 -0.37561823470E+02  0.24286548889E+03  0.24629849988E+03  0.10566000000E+00 0. -1.
        994    1    1    2    0    0  0.20682105283E+02  0.13104586258E+02  0.61107263781E+01  0.17304987904E+03  0.17120000000E+03 0.  0.
        998    1    1    2    0    0 -0.37065133132E+02  0.24457237212E+02  0.12510237810E+04  0.12518516211E+04  0.10000000000E+02 0. -1.
</event>
<event>
 5    1  0.1087513E-008  0.3835137E+03  0.7957747E-01  0.3436001E+00
         13   -1    0    0    0    0  0.00000000000E+00  0.00000000000E+00  0.14999999963E+04  0.15000000000E+04  0.10566000000E+00 0.  1.
        994   -1    0    0    0    0 -0.00000000000E+00 -0.00000000000E+00  0.11368683772E-12  0.17120000000E+03  0.17120000000E+03 0.  0.
         13    1    1    2    0    0 -0.99595959527E+01 -0.19659484936E+02  0.12544018919E+03  0.12736145857E+03  0.10566000000E+00 0.  1.
        994    1    1    2    0    0 -0.87901127790E+01 -0.10473927316E+02  0.29879794527E+01  0.17177117703E+03  0.17120000000E+03 0.  0.
        998    1    1    2    0    0  0.18749708732E+02  0.30133412252E+02  0.13715718276E+04  0.13720673644E+04  0.10000000000E+02 0.  1.
</event>
<event>
 5    1  0.1087513E-008  0.3807517E+03  0.7957747E-01  0.3447892E+00
         13   -1    0    0    0    0  0.00000000000E+00  0.00000000000E+00  0.14999999963E+04  0.15000000000E+04  0.10566000000E+00 0.  1.
        994   -1    0    0    0    0 -0.00000000000E+00 -0.00000000000E+00  0.11368683772E-12  0.17120000000E+03  0.17120000000E+03 0.  0.
         13    1    1    2    0    0 -0.15280903623E+02  0.96564552958E+01  0.39700956252E+02  0.43622588595E+02  0.10566000000E+00 0.  1.
        994    1    1    2    0    0  0.35668039424E+02  0.26434364729E+01  0.80316167338E+01  0.17508039199E+03  0.17120000000E+03 0.  0.
        998    1    1    2    0    0 -0.20387135801E+02 -0.12299891769E+02  0.14522674233E+04  0.14524970194E+04  0.10000000000E+02 0.  1.
</event>
<event>
 5    1  0.1087513E-008  0.3801265E+03  0.7957747E-01  0.3450608E+00
         13   -1    0    0    0    0  0.00000000000E+00  0.00000000000E+00  0.14999999963E+04  0.15000000000E+04  0.10566000000E+00 0.  1.
        994   -1    0    0    0    0 -0.00000000000E+00 -0.00000000000E+00  0.11368683772E-12  0.17120000000E+03  0.17120000000E+03 0.  0.
         13    1    1    2    0    0  0.77240477696E+01 -0.21394573585E+02  0.61046780654E+02  0.65146828665E+02  0.10566000000E+00 0.  1.
        994    1    1    2    0    0 -0.45637423095E+01  0.18226495600E+02  0.52498643565E+01  0.17230796256E+03  0.17120000000E+03 0.  0.
        998    1    1    2    0    0 -0.31603054600E+01  0.31680779850E+01  0.14337033513E+04  0.14337452088E+04  0.10000000000E+02 0.  1.
</event>
<event>
 5    1  0.1087513E-008  0.3842102E+03  0.7957747E-01  0.3433029E+00
         13   -1    0    0    0    0  0.00000000000E+00  0.00000000000E+00  0.14999999963E+04  0.15000000000E+04  0.10566000000E+00 0.  1.
        994   -1    0    0    0    0 -0.00000000000E+00 -0.00000000000E+00  0.11368683772E-12  0.17120000000E+03  0.17120000000E+03 0.  0.
         13    1    1    2    0    0 -0.22085951044E+02 -0.52993350590E+01  0.11679833371E+03  0.11898627697E+03  0.10566000000E+00 0.  1.
        994    1    1    2    0    0  0.24647819630E+02  0.55224837955E+01  0.41291719911E+01  0.17310257913E+03  0.17120000000E+03 0.  0.
        998    1    1    2    0    0 -0.25618685861E+01 -0.22314873652E+00  0.13790724906E+04  0.13791111439E+04  0.10000000000E+02 0.  1.
</event>
<event>
 5    1  0.1087513E-008  0.3834440E+03  0.7957747E-01  0.3436298E+00
         13   -1    0    0    0    0  0.00000000000E+00  0.00000000000E+00  0.14999999963E+04  0.15000000000E+04  0.10566000000E+00 0. -1.
        994   -1    0    0    0    0 -0.00000000000E+00 -0.00000000000E+00  0.11368683772E-12  0.17120000000E+03  0.17120000000E+03 0.  0.
         13    1    1    2    0    0  0.18971092453E+02  0.56860006766E+01  0.76580246938E+02  0.79099799859E+02  0.10566000000E+00 0. -1.
        994    1    1    2    0    0 -0.20951989485E+02 -0.79497870234E+01  0.40662712651E+01  0.17270830767E+03  0.17120000000E+03 0.  0.
        998    1    1    2    0    0  0.19808970322E+01  0.22637863468E+01  0.14193534781E+04  0.14193918925E+04  0.10000000000E+02 0. -1.
</event>
<event>
 5    1  0.1087513E-008  0.3841720E+03  0.7957747E-01  0.3433191E+00
         13   -1    0    0    0    0  0.00000000000E+00  0.00000000000E+00  0.14999999963E+04  0.15000000000E+04  0.10566000000E+00 0. -1.
        994   -1    0    0    0    0 -0.00000000000E+00 -0.00000000000E+00  0.11368683772E-12  0.17120000000E+03  0.17120000000E+03 0.  0.
         13    1    1    2    0    0 -0.17220287398E+02 -0.86126379957E+00  0.73557690708E+02  0.75551473180E+02  0.10566000000E+00 0. -1.
        994    1    1    2    0    0  0.88416088574E+01 -0.33975532754E+01  0.23376626263E+01  0.17147775973E+03  0.17120000000E+03 0.  0.
        998    1    1    2    0    0  0.83786785405E+01  0.42588170749E+01  0.14241046429E+04  0.14241707671E+04  0.10000000000E+02 0. -1.
</event>
<event>
 5    1  0.1087513E-008  0.3711007E+03  0.7957747E-01  0.3490848E+00
         13   -1    0    0    0    0  0.00000000000E+00  0.00000000000E+00  0.14999999963E+04  0.15000000000E+04  0.10566000000E+00 0.  1.
        994   -1    0    0    0    0 -0.00000000000E+00 -0.00000000000E+00  0.11368683772E-12  0.17120000000E+03  0.17120000000E+03 0.  0.
         13    1    1    2    0    0 -0.75240687993E+02 -0.28009006963E+02  0.41613286765E+03  0.42380684316E+03  0.10566000000E+00 0.  1.
        994    1    1    2    0    0  0.23985848282E+02  0.27573389036E+02  0.13309476020E+02  0.17556250982E+03  0.17120000000E+03 0.  0.
        998    1    1    2    0    0  0.51254839711E+02  0.43561792760E+00  0.10705576526E+04  0.10718306470E+04  0.10000000000E+02 0.  1.
</event>
<event>
 5    1  0.1087513E-008  0.3728806E+03  0.7957747E-01  0.3482756E+00
         13   -1    0    0    0    0  0.00000000000E+00  0.00000000000E+00  0.14999999963E+04  0.15000000000E+04  0.10566000000E+00 0. -1.
        994   -1    0    0    0    0 -0.00000000000E+00 -0.00000000000E+00  0.11368683772E-12  0.17120000000E+03  0.17120000000E+03 0.  0.
         13    1    1    2    0    0 -0.15666813491E+02 -0.13849658138E+02  0.12661347112E+02  0.24445509817E+02  0.10566000000E+00 0. -1.
        994    1    1    2    0    0  0.19557042481E+02 -0.30617942049E+02  0.17146026868E+02  0.17585039813E+03  0.17120000000E+03 0.  0.
        998    1    1    2    0    0 -0.38902289893E+01  0.44467600187E+02  0.14701926223E+04  0.14709040921E+04  0.10000000000E+02 0. -1.
</event>
<event>
 5    1  0.1087513E-008  0.3826125E+03  0.7957747E-01  0.3439861E+00
         13   -1    0    0    0    0  0.00000000000E+00  0.00000000000E+00  0.14999999963E+04  0.15000000000E+04  0.10566000000E+00 0. -1.
        994   -1    0    0    0    0 -0.00000000000E+00 -0.00000000000E+00  0.11368683772E-12  0.17120000000E+03  0.17120000000E+03 0.  0.
         13    1    1    2    0    0  0.27064394021E+02 -0.15649349857E+00  0.13585259124E+03  0.13852235786E+03  0.10566000000E+00 0. -1.
        994    1    1    2    0    0 -0.91244929132E+01 -0.25517951831E+01  0.31177347388E+01  0.17149031547E+03  0.17120000000E+03 0.  0.
        998    1    1    2    0    0 -0.17939901108E+02  0.27082886816E+01  0.13610296703E+04  0.13611873267E+04  0.10000000000E+02 0. -1.
</event>
<event>
 5    1  0.1087513E-008  0.3725396E+03  0.7957747E-01  0.3484300E+00
         13   -1    0    0    0    0  0.00000000000E+00  0.00000000000E+00  0.14999999963E+04  0.15000000000E+04  0.10566000000E+00 0. -1.
        994   -1    0    0    0    0 -0.00000000000E+00 -0.00000000000E+00  0.11368683772E-12  0.17120000000E+03  0.17120000000E+03 0.  0.
         13    1    1    2    0    0 -0.10620020338E+02  0.32648987677E+00  0.33617874246E+01  0.11144694089E+02  0.10566000000E+00 0. -1.
        994    1    1    2    0    0  0.12325480677E+02 -0.31684785909E+01  0.85029946753E+01  0.17188280207E+03  0.17120000000E+03 0.  0.
        998    1    1    2    0    0 -0.17054603391E+01  0.28419887141E+01  0.14881352142E+04  0.14881725038E+04  0.10000000000E+02 0. -1.
</event>
<event>
 5    1  0.1087513E-008  0.3843146E+03  0.7957747E-01  0.3432584E+00
         13   -1    0    0    0    0  0.00000000000E+00  0.00000000000E+00  0.14999999963E+04  0.15000000000E+04  0.10566000000E+00 0. -1.
        994   -1    0    0    0    0 -0.00000000000E+00 -0.00000000000E+00  0.11368683772E-12  0.17120000000E+03  0.17120000000E+03 0.  0.
         13    1    1    2    0    0 -0.16797408142E+02 -0.18290258779E+02  0.14202290457E+03  0.14417767883E+03  0.10566000000E+00 0. -1.
        994    1    1    2    0    0  0.22864715498E+02  0.14758201879E+02  0.44156174483E+01  0.17340570179E+03  0.17120000000E+03 0.  0.
        998    1    1    2    0    0 -0.60673073559E+01  0.35320568996E+01  0.13535614743E+04  0.13536166194E+04  0.10000000000E+02 0. -1.
</event>
<event>
 5    1  0.1087513E-008  0.3860298E+03  0.7957747E-01  0.3425317E+00
         13   -1    0    0    0    0  0.00000000000E+00  0.00000000000E+00  0.14999999963E+04  0.15000000000E+04  0.10566000000E+00 0. -1.
        994   -1    0    0    0    0 -0.00000000000E+00 -0.00000000000E+00  0.11368683772E-12  0.17120000000E+03  0.17120000000E+03 0.  0.
         13    1    1    2    0    0  0.11685279281E+02  0.50392958475E+01  0.73021344192E+02  0.74121981396E+02  0.10566000000E+00 0. -1.
        994    1    1    2    0    0 -0.95849041071E+01  0.21614689027E+00  0.14210692818E+01  0.17147412791E+03  0.17120000000E+03 0.  0.
        998    1    1    2    0    0 -0.21003751737E+01 -0.52554427378E+01  0.14255575828E+04  0.14256038907E+04  0.10000000000E+02 0. -1.
</event>
<event>
 5    1  0.1087513E-008  0.3843744E+03  0.7957747E-01  0.3432330E+00
         13   -1    0    0    0    0  0.00000000000E+00  0.00000000000E+00  0.14999999963E+04  0.15000000000E+04  0.10566000000E+00 0.  1.
        994   -1    0    0    0    0 -0.00000000000E+00 -0.00000000000E+00  0.11368683772E-12  0.17120000000E+03  0.17120000000E+03 0.  0.
         13    1    1    2    0    0 -0.66788283052E+01 -0.17424493070E+02  0.91914429696E+02  0.93789622329E+02  0.10566000000E+00 0.  1.
        994    1    1    2    0    0  0.33235986859E+01  0.72551700706E+01  0.21509201805E+01  0.17139938815E+03  0.17120000000E+03 0.  0.
        998    1    1    2    0    0  0.33552296193E+01  0.10169322999E+02  0.14059346464E+04  0.14060109895E+04  0.10000000000E+02 0.  1.
</event>
<event>
 5    1  0.1087513E-008  0.3822238E+03  0.7957747E-01  0.3441532E+00
         13   -1    0    0    0    0  0.00000000000E+00  0.00000000000E+00  0.14999999963E+04  0.15000000000E+04  0.10566000000E+00 0. -1.
        994   -1    0    0    0    0 -0.00000000000E+00 -0.00000000000E+00  0.11368683772E-12  0.17120000000E+03  0.17120000000E+03 0.  0.
         13    1    1    2    0    0 -0.67525369176E+01  0.13487150276E+02  0.35892128840E+02  0.38932711877E+02  0.10566000000E+00 0. -1.
        994    1    1    2    0    0  0.85785250825E+01 -0.13577212165E+02  0.38711907535E+01  0.17199522639E+03  0.17120000000E+03 0.  0.
        998    1    1    2    0    0 -0.18259881649E+01  0.90061889101E-01  0.14602366767E+04  0.14602720617E+04  0.10000000000E+02 0. -1.
</event>
<event>
 5    1  0.1087513E-008  0.3819385E+03  0.7957747E-01  0.3442761E+00
         13   -1    0    0    0    0  0.00000000000E+00  0.00000000000E+00  0.14999999963E+04  0.15000000000E+04  0.10566000000E+00 0.  1.
        994   -1    0    0    0    0 -0.00000000000E+00 -0.00000000000E+00  0.11368683772E-12  0.17120000000E+03  0.17120000000E+03 0.  0.
         13    1    1    2    0    0 -0.44762776848E+01  0.52494757941E+02  0.31781757424E+03  0.32215486701E+03  0.10566000000E+00 0.  1.
        994    1    1    2    0    0  0.11595929713E+02 -0.60464613795E+02  0.15852128961E+02  0.18262301361E+03  0.17120000000E+03 0.  0.
        998    1    1    2    0    0 -0.71196520286E+01  0.79698558545E+01  0.11663302931E+04  0.11664221194E+04  0.10000000000E+02 0.  1.
</event>
<event>
 5    1  0.1087513E-008  0.3747863E+03  0.7957747E-01  0.3474179E+00
         13   -1    0    0    0    0  0.00000000000E+00  0.00000000000E+00  0.14999999963E+04  0.15000000000E+04  0.10566000000E+00 0.  1.
        994   -1    0    0    0    0 -0.00000000000E+00 -0.00000000000E+00  0.11368683772E-12  0.17120000000E+03  0.17120000000E+03 0.  0.
         13    1    1    2    0    0  0.38534588728E+02 -0.30644360287E+02  0.17897039696E+03  0.18561897935E+03  0.10566000000E+00 0.  1.
        994    1    1    2    0    0 -0.16425648120E+02  0.21289731473E+02  0.92519925813E+01  0.17354565379E+03  0.17120000000E+03 0.  0.
        998    1    1    2    0    0 -0.22108940608E+02  0.93546288142E+01  0.13117776067E+04  0.13120353669E+04  0.10000000000E+02 0.  1.
</event>
<event>
 5    1  0.1087513E-008  0.3826405E+03  0.7957747E-01  0.3439741E+00
         13   -1    0    0    0    0  0.00000000000E+00  0.00000000000E+00  0.14999999963E+04  0.15000000000E+04  0.10566000000E+00 0.  1.
        994   -1    0    0    0    0 -0.00000000000E+00 -0.00000000000E+00  0.11368683772E-12  0.17120000000E+03  0.17120000000E+03 0.  0.
         13    1    1    2    0    0 -0.25731996265E+02 -0.17666557789E+02  0.14439047351E+03  0.14772563386E+03  0.10566000000E+00 0.  1.
        994    1    1    2    0    0  0.35228113561E+02  0.25565073242E+02  0.91103429741E+01  0.17688140463E+03  0.17120000000E+03 0.  0.
        998    1    1    2    0    0 -0.94961172966E+01 -0.78985154533E+01  0.13464991798E+04  0.13465929615E+04  0.10000000000E+02 0.  1.
</event>
<event>
 5    1  0.1087513E-008  0.3771738E+03  0.7957747E-01  0.3463557E+00
         13   -1    0    0    0    0  0.00000000000E+00  0.00000000000E+00  0.14999999963E+04  0.15000000000E+04  0.10566000000E+00 0.  1.
        994   -1    0    0    0    0 -0.00000000000E+00 -0.00000000000E+00  0.11368683772E-12  0.17120000000E+03  0.17120000000E+03 0.  0.
         13    1    1    2    0    0  0.47367641787E+02  0.24697457139E+02  0.20088817472E+03  0.20786949701E+03  0.10566000000E+00 0.  1.
        994    1    1    2    0    0 -0.63560186414E+02 -0.26002247789E+02  0.21649798027E+02  0.18572605617E+03  0.17120000000E+03 0.  0.
        998    1    1    2    0    0  0.16192544628E+02  0.13047906500E+01  0.12774620235E+04  0.12776044468E+04  0.10000000000E+02 0.  1.
</event>
<event>
 5    1  0.1087513E-008  0.3816698E+03  0.7957747E-01  0.3443920E+00
         13   -1    0    0    0    0  0.00000000000E+00  0.00000000000E+00  0.14999999963E+04  0.15000000000E+04  0.10566000000E+00 0. -1.
        994   -1    0    0    0    0 -0.00000000000E+00 -0.00000000000E+00  0.11368683772E-12  0.17120000000E+03  0.17120000000E+03 0.  0.
         13    1    1    2    0    0  0.47628604661E+01  0.17353553664E+02  0.46653140431E+02  0.50003573279E+02  0.10566000000E+00 0. -1.
        994    1    1    2    0    0  0.23245908215E+01 -0.20471187905E+02  0.47050582078E+01  0.17249942269E+03  0.17120000000E+03 0.  0.
        998    1    1    2    0    0 -0.70874512876E+01  0.31176342402E+01  0.14486417976E+04  0.14486970040E+04  0.10000000000E+02 0. -1.
</event>
<event>
 5    1  0.1087513E-008  0.3850730E+03  0.7957747E-01  0.3429363E+00
         13   -1    0    0    0    0  0.00000000000E+00  0.00000000000E+00  0.14999999963E+04  0.15000000000E+04  0.10566000000E+00 0.  1.
        994   -1    0    0    0    0 -0.00000000000E+00 -0.00000000000E+00  0.11368683772E-12  0.17120000000E+03  0.17120000000E+03 0.  0.
         13    1    1    2    0    0 -0.24975342570E+00 -0.17832614470E+02  0.90304483058E+02  0.92048766097E+02  0.10566000000E+00 0.  1.
        994    1    1    2    0    0  0.77009205530E+01  0.25046915546E+02  0.38547924839E+01  0.17323669236E+03  0.17120000000E+03 0.  0.
        998    1    1    2    0    0 -0.74511671273E+01 -0.72143010765E+01  0.14058407207E+04  0.14059145415E+04  0.10000000000E+02 0.  1.
</event>
<event>
 5    1  0.1087513E-008  0.3853152E+03  0.7957747E-01  0.3428337E+00
         13   -1    0    0    0    0  0.00000000000E+00  0.00000000000E+00  0.14999999963E+04  0.15000000000E+04  0.10566000000E+00 0.  1.
        994   -1    0    0    0    0 -0.00000000000E+00 -0.00000000000E+00  0.11368683772E-12  0.17120000000E+03  0.17120000000E+03 0.  0.
         13    1    1    2    0    0  0.10277375276E+01 -0.10335318890E+02  0.37296452001E+02  0.38715779171E+02  0.10566000000E+00 0.  1.
        994    1    1    2    0    0 -0.16764974360E+02  0.18221029410E+01  0.24085869073E+01  0.17204541759E+03  0.17120000000E+03 0.  0.
        998    1    1    2    0    0  0.15737236832E+02  0.85132159491E+01  0.14602949574E+04  0.14604388032E+04  0.10000000000E+02 0.  1.
</event>
<event>
 5    1  0.1087513E-008  0.3722869E+03  0.7957747E-01  0.3485446E+00
         13   -1    0    0    0    0  0.00000000000E+00  0.00000000000E+00  0.14999999963E+04  0.15000000000E+04  0.10566000000E+00 0.  1.
        994   -1    0    0    0    0 -0.00000000000E+00 -0.00000000000E+00  0.11368683772E-12  0.17120000000E+03  0.17120000000E+03 0.  0.
         13    1    1    2    0    0 -0.83765604856E+01  0.55591955024E+02  0.11758315866E+03  0.13033204746E+03  0.10566000000E+00 0.  1.
        994    1    1    2    0    0  0.72614869281E+01 -0.53636605916E+02  0.22550430845E+02  0.18096291503E+03  0.17120000000E+03 0.  0.
        998    1    1    2    0    0  0.11150735575E+01 -0.19553491079E+01  0.13598664068E+04  0.13599050375E+04  0.10000000000E+02 0.  1.
</event>
<event>
 5    1  0.1087513E-008  0.3766272E+03  0.7957747E-01  0.3465977E+00
         13   -1    0    0    0    0  0.00000000000E+00  0.00000000000E+00  0.14999999963E+04  0.15000000000E+04  0.10566000000E+00 0.  1.
        994   -1    0    0    0    0 -0.00000000000E+00 -0.00000000000E+00  0.11368683772E-12  0.17120000000E+03  0.17120000000E+03 0.  0.
         13    1    1    2    0    0  0.11314874041E+02 -0.85277962145E+01  0.14499649603E+02  0.20273151839E+02  0.10566000000E+00 0.  1.
        994    1    1    2    0    0 -0.10153388087E+02  0.87192408530E+01  0.64512323697E+01  0.17184346031E+03  0.17120000000E+03 0.  0.
        998    1    1    2    0    0 -0.11614859546E+01 -0.19144463847E+00  0.14790491143E+04  0.14790833879E+04  0.10000000000E+02 0.  1.
</event>
<event>
 5    1  0.1087513E-008  0.3703401E+03  0.7957747E-01  0.3494329E+00
         13   -1    0    0    0    0  0.00000000000E+00  0.00000000000E+00  0.14999999963E+04  0.15000000000E+04  0.10566000000E+00 0.  1.
        994   -1    0    0    0    0 -0.00000000000E+00 -0.00000000000E+00  0.11368683772E-12  0.17120000000E+03  0.17120000000E+03 0.  0.
         13    1    1    2    0    0  0.14810879467E+02 -0.43297445204E+02  0.90449149711E+02  0.10136612235E+03  0.10566000000E+00 0.  1.
        994    1    1    2    0    0 -0.26887287943E+02  0.21219622499E+02  0.15236223910E+02  0.17525632985E+03  0.17120000000E+03 0.  0.
        998    1    1    2    0    0  0.12076408476E+02  0.22077822705E+02  0.13943146227E+04  0.13945775478E+04  0.10000000000E+02 0.  1.
</event>
<event>
 5    1  0.1087513E-008  0.3716399E+03  0.7957747E-01  0.3488388E+00
         13   -1    0    0    0    0  0.00000000000E+00  0.00000000000E+00  0.14999999963E+04  0.15000000000E+04  0.10566000000E+00 0.  1.
        994   -1    0    0    0    0 -0.00000000000E+00 -0.00000000000E+00  0.11368683772E-12  0.17120000000E+03  0.17120000000E+03 0.  0.
         13    1    1    2    0    0  0.29855033383E+02  0.63609263840E+01  0.54751921764E+02  0.62686270455E+02  0.10566000000E+00 0.  1.
        994    1    1    2    0    0 -0.23783503332E+01 -0.81159699302E+01  0.86603637469E+01  0.17162740870E+03  0.17120000000E+03 0.  0.
        998    1    1    2    0    0 -0.27476683049E+02  0.17550435462E+01  0.14365877108E+04  0.14368863208E+04  0.10000000000E+02 0.  1.
</event>
<event>
 5    1  0.1087513E-008  0.3814854E+03  0.7957747E-01  0.3444716E+00
         13   -1    0    0    0    0  0.00000000000E+00  0.00000000000E+00  0.14999999963E+04  0.15000000000E+04  0.10566000000E+00 0.  1.
        994   -1    0    0    0    0 -0.00000000000E+00 -0.00000000000E+00  0.11368683772E-12  0.17120000000E+03  0.17120000000E+03 0.  0.
         13    1    1    2    0    0  0.10673264216E+02 -0.14329724335E+02  0.46757744324E+02  0.50055543018E+02  0.10566000000E+00 0.  1.
        994    1    1    2    0    0 -0.12598172879E+01  0.82632153117E+01  0.36176471278E+01  0.17144210462E+03  0.17120000000E+03 0.  0.
        998    1    1    2    0    0 -0.94134469283E+01  0.60665090230E+01  0.14496246048E+04  0.14497023524E+04  0.10000000000E+02 0.  1.
</event>
<event>
 5    1  0.1087513E-008  0.3834893E+03  0.7957747E-01  0.3436105E+00
         13   -1    0    0    0    0  0.00000000000E+00  0.00000000000E+00  0.14999999963E+04  0.15000000000E+04  0.10566000000E+00 0.  1.
        994   -1    0    0    0    0 -0.00000000000E+00 -0.00000000000E+00  0.11368683772E-12  0.17120000000E+03  0.17120000000E+03 0.  0.
         13    1    1    2    0    0  0.13301002832E+02 -0.13180810147E+02  0.66793691098E+02  0.69369004368E+02  0.10566000000E+00 0.  1.
        994    1    1    2    0    0 -0.25472463525E+02  0.15169124286E+02  0.52922224450E+01  0.17382864076E+03  0.17120000000E+03 0.  0.
        998    1    1    2    0    0  0.12171460693E+02 -0.19883141392E+01  0.14279140827E+04  0.14280023549E+04  0.10000000000E+02 0.  1.
</event>
<event>
 5    1  0.1087513E-008  0.3709584E+03  0.7957747E-01  0.3491498E+00
         13   -1    0    0    0    0  0.00000000000E+00  0.00000000000E+00  0.14999999963E+04  0.15000000000E+04  0.10566000000E+00 0.  1.
        994   -1    0    0    0    0 -0.00000000000E+00 -0.00000000000E+00  0.11368683772E-12  0.17120000000E+03  0.17120000000E+03 0.  0.
         13    1    1    2    0    0 -0.71270677456E+02 -0.44234499815E+01  0.27020749235E+03  0.27948376780E+03  0.10566000000E+00 0.  1.
        994    1    1    2    0    0  0.52157532518E+02 -0.84136092181E+01  0.18450323978E+02  0.18011399577E+03  0.17120000000E+03 0.  0.
        998    1    1    2    0    0  0.19113144938E+02  0.12837059200E+02  0.12113421799E+04  0.12116022364E+04  0.10000000000E+02 0.  1.
</event>
<event>
 5    1  0.1087513E-008  0.3770953E+03  0.7957747E-01  0.3463904E+00
         13   -1    0    0    0    0  0.00000000000E+00  0.00000000000E+00  0.14999999963E+04  0.15000000000E+04  0.10566000000E+00 0.  1.
        994   -1    0    0    0    0 -0.00000000000E+00 -0.00000000000E+00  0.11368683772E-12  0.17120000000E+03  0.17120000000E+03 0.  0.
         13    1    1    2    0    0  0.49119476776E+02  0.80304744470E+01  0.19484672404E+03  0.20110312915E+03  0.10566000000E+00 0.  1.
        994    1    1    2    0    0 -0.44135764431E+02 -0.26560746453E+02  0.14615890429E+02  0.17937810125E+03  0.17120000000E+03 0.  0.
        998    1    1    2    0    0 -0.49837123444E+01  0.18530272007E+02  0.12905373818E+04  0.12907187696E+04  0.10000000000E+02 0.  1.
</event>
<event>
 5    1  0.1087513E-008  0.3816280E+03  0.7957747E-01  0.3444101E+00
         13   -1    0    0    0    0  0.00000000000E+00  0.00000000000E+00  0.14999999963E+04  0.15000000000E+04  0.10566000000E+00 0. -1.
        994   -1    0    0    0    0 -0.00000000000E+00 -0.00000000000E+00  0.11368683772E-12  0.17120000000E+03  0.17120000000E+03 0.  0.
         13    1    1    2    0    0 -0.13391869997E+02  0.78551565682E+01  0.41232410757E+02  0.44058694120E+02  0.10566000000E+00 0. -1.
        994    1    1    2    0    0 -0.21297539686E+02  0.25559811622E+02  0.70027931766E+01  0.17454331348E+03  0.17120000000E+03 0.  0.
        998    1    1    2    0    0  0.34689409682E+02 -0.33414968190E+02  0.14517647923E+04  0.14525979924E+04  0.10000000000E+02 0. -1.
</event>
<event>
 5    1  0.1087513E-008  0.3847022E+03  0.7957747E-01  0.3430936E+00
         13   -1    0    0    0    0  0.00000000000E+00  0.00000000000E+00  0.14999999963E+04  0.15000000000E+04  0.10566000000E+00 0.  1.
        994   -1    0    0    0    0 -0.00000000000E+00 -0.00000000000E+00  0.11368683772E-12  0.17120000000E+03  0.17120000000E+03 0.  0.
         13    1    1    2    0    0  0.97691391105E+01 -0.70574745092E+01  0.40807317518E+02  0.42549880757E+02  0.10566000000E+00 0.  1.
        994    1    1    2    0    0 -0.41358736046E+01  0.62915654024E+01  0.19647069098E+01  0.17137674673E+03  0.17120000000E+03 0.  0.
        998    1    1    2    0    0 -0.56332655059E+01  0.76590910684E+00  0.14572279719E+04  0.14572733725E+04  0.10000000000E+02 0.  1.
</event>
<event>
 5    1  0.1087513E-008  0.3849133E+03  0.7957747E-01  0.3430040E+00
         13   -1    0    0    0    0  0.00000000000E+00  0.00000000000E+00  0.14999999963E+04  0.15000000000E+04  0.10566000000E+00 0. -1.
        994   -1    0    0    0    0 -0.00000000000E+00 -0.00000000000E+00  0.11368683772E-12  0.17120000000E+03  0.17120000000E+03 0.  0.
         13    1    1    2    0    0 -0.15511038499E+02  0.46285920173E+00  0.74013504301E+02  0.75622857239E+02  0.10566000000E+00 0. -1.
        994    1    1    2    0    0  0.58920988392E+01 -0.91776910548E+00  0.17901855597E+01  0.17131317490E+03  0.17120000000E+03 0.  0.
        998    1    1    2    0    0  0.96189396603E+01  0.45490990375E+00  0.14241963064E+04  0.14242639679E+04  0.10000000000E+02 0. -1.
</event>
<event>
 5    1  0.1087513E-008  0.3840862E+03  0.7957747E-01  0.3433557E+00
         13   -1    0    0    0    0  0.00000000000E+00  0.00000000000E+00  0.14999999963E+04  0.15000000000E+04  0.10566000000E+00 0.  1.
        994   -1    0    0    0    0 -0.00000000000E+00 -0.00000000000E+00  0.11368683772E-12  0.17120000000E+03  0.17120000000E+03 0.  0.
         13    1    1    2    0    0  0.78314035762E+01  0.80205808535E+01  0.29074050544E+02  0.31160426477E+02  0.10566000000E+00 0.  1.
        994    1    1    2    0    0 -0.10108245761E+02 -0.69319277067E+01  0.25801748031E+01  0.17165758229E+03  0.17120000000E+03 0.  0.
        998    1    1    2    0    0  0.22768421845E+01 -0.10886531468E+01  0.14683457709E+04  0.14683819912E+04  0.10000000000E+02 0.  1.
</event>
<event>
 5    1  0.1087513E-008  0.3711355E+03  0.7957747E-01  0.3490689E+00
         13   -1    0    0    0    0  0.00000000000E+00  0.00000000000E+00  0.14999999963E+04  0.15000000000E+04  0.10566000000E+00 0.  1.
        994   -1    0    0    0    0 -0.00000000000E+00 -0.00000000000E+00  0.11368683772E-12  0.17120000000E+03  0.17120000000E+03 0.  0.
         13    1    1    2    0    0 -0.15739131318E+02 -0.46224080707E+02  0.93096874365E+02  0.10512575837E+03  0.10566000000E+00 0.  1.
        994    1    1    2    0    0 -0.72829169713E+01  0.55512734739E+02  0.22625631442E+02  0.18153805055E+03  0.17120000000E+03 0.  0.
        998    1    1    2    0    0  0.23022048289E+02 -0.92886540317E+01  0.13842774905E+04  0.13845361911E+04  0.10000000000E+02 0.  1.
</event>
<event>
 5    1  0.1087513E-008  0.3801438E+03  0.7957747E-01  0.3450533E+00
         13   -1    0    0    0    0  0.00000000000E+00  0.00000000000E+00  0.14999999963E+04  0.15000000000E+04  0.10566000000E+00 0. -1.
        994   -1    0    0    0    0 -0.00000000000E+00 -0.00000000000E+00  0.11368683772E-12  0.17120000000E+03  0.17120000000E+03 0.  0.
         13    1    1    2    0    0  0.80968854533E+01 -0.20788429484E+02  0.57567160471E+02  0.61739027229E+02  0.10566000000E+00 0. -1.
        994    1    1    2    0    0 -0.78663016977E+01  0.22540702060E+02  0.59673218031E+01  0.17295956430E+03  0.17120000000E+03 0.  0.
        998    1    1    2    0    0 -0.23058375559E+00 -0.17522725758E+01  0.14364655140E+04  0.14365014085E+04  0.10000000000E+02 0. -1.
</event>
<event>
 5    1  0.1087513E-008  0.3830675E+03  0.7957747E-01  0.3437910E+00
         13   -1    0    0    0    0  0.00000000000E+00  0.00000000000E+00  0.14999999963E+04  0.15000000000E+04  0.10566000000E+00 0.  1.
        994   -1    0    0    0    0 -0.00000000000E+00 -0.00000000000E+00  0.11368683772E-12  0.17120000000E+03  0.17120000000E+03 0.  0.
         13    1    1    2    0    0 -0.19792844240E+02  0.11524588649E+02  0.95535720519E+02  0.98242851576E+02  0.10566000000E+00 0.  1.
        994    1    1    2    0    0  0.17497507308E+02 -0.14451908026E+02  0.42988729788E+01  0.17275109469E+03  0.17120000000E+03 0.  0.
        998    1    1    2    0    0  0.22953369319E+01  0.29273193768E+01  0.14001654028E+04  0.14002060537E+04  0.10000000000E+02 0.  1.
</event>
<event>
 5    1  0.1087513E-008  0.3839525E+03  0.7957747E-01  0.3434127E+00
         13   -1    0    0    0    0  0.00000000000E+00  0.00000000000E+00  0.14999999963E+04  0.15000000000E+04  0.10566000000E+00 0.  1.
        994   -1    0    0    0    0 -0.00000000000E+00 -0.00000000000E+00  0.11368683772E-12  0.17120000000E+03  0.17120000000E+03 0.  0.
         13    1    1    2    0    0 -0.93621238247E+01  0.61285716589E+01  0.28600501164E+02  0.30711701091E+02  0.10566000000E+00 0.  1.
        994    1    1    2    0    0  0.79339040470E+01  0.35874494619E-01  0.23588365984E+01  0.17139997734E+03  0.17120000000E+03 0.  0.
        998    1    1    2    0    0  0.14282197777E+01 -0.61644461536E+01  0.14690406585E+04  0.14690883216E+04  0.10000000000E+02 0.  1.
</event>
<event>
 5    1  0.1087513E-008  0.3829419E+03  0.7957747E-01  0.3438448E+00
         13   -1    0    0    0    0  0.00000000000E+00  0.00000000000E+00  0.14999999963E+04  0.15000000000E+04  0.10566000000E+00 0. -1.
        994   -1    0    0    0    0 -0.00000000000E+00 -0.00000000000E+00  0.11368683772E-12  0.17120000000E+03  0.17120000000E+03 0.  0.
         13    1    1    2    0    0 -0.28132001009E+01  0.12225856700E+02  0.28495112503E+02  0.31134679498E+02  0.10566000000E+00 0. -1.
        994    1    1    2    0    0  0.81347683965E-02 -0.11112242410E+02  0.30643363421E+01  0.17158762238E+03  0.17120000000E+03 0.  0.
        998    1    1    2    0    0  0.28050653325E+01 -0.11136142895E+01  0.14684405474E+04  0.14684776981E+04  0.10000000000E+02 0. -1.
</event>
<event>
 5    1  0.1087513E-008  0.3782694E+03  0.7957747E-01  0.3458729E+00
         13   -1    0    0    0    0  0.00000000000E+00  0.00000000000E+00  0.14999999963E+04  0.15000000000E+04  0.10566000000E+00 0. -1.
        994   -1    0    0    0    0 -0.00000000000E+00 -0.00000000000E+00  0.11368683772E-12  0.17120000000E+03  0.17120000000E+03 0.  0.
         13    1    1    2    0    0  0.10977125590E+02  0.64699676533E+01  0.13938746784E+02  0.18885380419E+02  0.10566000000E+00 0. -1.
        994    1    1    2    0    0 -0.90194567867E+01 -0.71934659105E+01  0.54568956385E+01  0.17167502516E+03  0.17120000000E+03 0.  0.
        998    1    1    2    0    0 -0.19576688034E+01  0.72349825726E+00  0.14806043539E+04  0.14806395944E+04  0.10000000000E+02 0. -1.
</event>
<event>
 5    1  0.1087513E-008  0.3839390E+03  0.7957747E-01  0.3434184E+00
         13   -1    0    0    0    0  0.00000000000E+00  0.00000000000E+00  0.14999999963E+04  0.15000000000E+04  0.10566000000E+00 0.  1.
        994   -1    0    0    0    0 -0.00000000000E+00 -0.00000000000E+00  0.11368683772E-12  0.17120000000E+03  0.17120000000E+03 0.  0.
         13    1    1    2    0    0 -0.15169608772E+02  0.13025375207E+02  0.91968859009E+02  0.94117265266E+02  0.10566000000E+00 0.  1.
        994    1    1    2    0    0  0.11882944046E+02 -0.61385096352E+01  0.27483434791E+01  0.17174364341E+03  0.17120000000E+03 0.  0.
        998    1    1    2    0    0  0.32866647262E+01 -0.68868655720E+01  0.14052827938E+04  0.14053390913E+04  0.10000000000E+02 0.  1.
</event>
<event>
 5    1  0.1087513E-008  0.3806003E+03  0.7957747E-01  0.3448549E+00
         13   -1    0    0    0    0  0.00000000000E+00  0.00000000000E+00  0.14999999963E+04  0.15000000000E+04  0.10566000000E+00 0. -1.
        994   -1    0    0    0    0 -0.00000000000E+00 -0.00000000000E+00  0.11368683772E-12  0.17120000000E+03  0.17120000000E+03 0.  0.
         13    1    1    2    0    0 -0.61236390777E+01 -0.30538538117E+02  0.18012654255E+03  0.18279957265E+03  0.10566000000E+00 0. -1.
        994    1    1    2    0    0  0.12288019148E+02 -0.31035879214E+02  0.75567139475E+01  0.17458741403E+03  0.17120000000E+03 0.  0.
        998    1    1    2    0    0 -0.61643800707E+01  0.61574417330E+02  0.13123167398E+04  0.13138130133E+04  0.10000000000E+02 0. -1.
</event>
<event>
 5    1  0.1087513E-008  0.3878437E+03  0.7957747E-01  0.3417700E+00
         13   -1    0    0    0    0  0.00000000000E+00  0.00000000000E+00  0.14999999963E+04  0.15000000000E+04  0.10566000000E+00 0.  1.
        994   -1    0    0    0    0 -0.00000000000E+00 -0.00000000000E+00  0.11368683772E-12  0.17120000000E+03  0.17120000000E+03 0.  0.
         13    1    1    2    0    0 -0.97510986870E+02  0.13809618120E+03  0.41808520374E+03  0.45097028347E+03  0.10566000000E+00 0.  1.
        994    1    1    2    0    0  0.10136055180E+03 -0.14753801525E+03  0.15285319757E+03  0.29105835740E+03  0.17120000000E+03 0.  0.
        998    1    1    2    0    0 -0.38495649312E+01  0.94418340519E+01  0.92906159497E+03  0.92917135913E+03  0.10000000000E+02 0.  1.
</event>
<event>
 5    1  0.1087513E-008  0.3844131E+03  0.7957747E-01  0.3432165E+00
         13   -1    0    0    0    0  0.00000000000E+00  0.00000000000E+00  0.14999999963E+04  0.15000000000E+04  0.10566000000E+00 0. -1.
        994   -1    0    0    0    0 -0.00000000000E+00 -0.00000000000E+00  0.11368683772E-12  0.17120000000E+03  0.17120000000E+03 0.  0.
         13    1    1    2    0    0 -0.71115561762E+01  0.15978748293E+02  0.82759461868E+02  0.84587435953E+02  0.10566000000E+00 0. -1.
        994    1    1    2    0    0  0.58553765363E+01 -0.27987349856E+01  0.20605869831E+01  0.17133535645E+03  0.17120000000E+03 0.  0.
        998    1    1    2    0    0  0.12561796399E+01 -0.13180013308E+02  0.14151799474E+04  0.14152772076E+04  0.10000000000E+02 0. -1.
</event>
<event>
 5    1  0.1087513E-008  0.3773953E+03  0.7957747E-01  0.3462579E+00
         13   -1    0    0    0    0  0.00000000000E+00  0.00000000000E+00  0.14999999963E+04  0.15000000000E+04  0.10566000000E+00 0. -1.
        994   -1    0    0    0    0 -0.00000000000E+00 -0.00000000000E+00  0.11368683772E-12  0.17120000000E+03  0.17120000000E+03 0.  0.
         13    1    1    2    0    0  0.10477864661E+02  0.60392072905E+01  0.10932077595E+02  0.16302734652E+02  0.10566000000E+00 0. -1.
        994    1    1    2    0    0 -0.71070964335E+01 -0.87107300400E+01  0.58800579724E+01  0.17166945774E+03  0.17120000000E+03 0.  0.
        998    1    1    2    0    0 -0.33707682278E+01  0.26715227495E+01  0.14831878607E+04  0.14832278076E+04  0.10000000000E+02 0. -1.
</event>
<event>
 5    1  0.1087513E-008  0.3781378E+03  0.7957747E-01  0.3459307E+00
         13   -1    0    0    0    0  0.00000000000E+00  0.00000000000E+00  0.14999999963E+04  0.15000000000E+04  0.10566000000E+00 0. -1.
        994   -1    0    0    0    0 -0.00000000000E+00 -0.00000000000E+00  0.11368683772E-12  0.17120000000E+03  0.17120000000E+03 0.  0.
         13    1    1    2    0    0  0.16816308842E+02 -0.43733067877E+01  0.27280760442E+02  0.32344475721E+02  0.10566000000E+00 0. -1.
        994    1    1    2    0    0 -0.14224929327E+02  0.11873703092E+02  0.62318082039E+01  0.17231253255E+03  0.17120000000E+03 0.  0.
        998    1    1    2    0    0 -0.25913795143E+01 -0.75003963047E+01  0.14664874276E+04  0.14665429917E+04  0.10000000000E+02 0. -1.
</event>
<event>
 5    1  0.1087513E-008  0.2938399E+03  0.7957747E-01  0.3941002E+00
         13   -1    0    0    0    0  0.00000000000E+00  0.00000000000E+00  0.14999999963E+04  0.15000000000E+04  0.10566000000E+00 0.  1.
        994   -1    0    0    0    0 -0.00000000000E+00 -0.00000000000E+00  0.11368683772E-12  0.17120000000E+03  0.17120000000E+03 0.  0.
         13    1    1    2    0    0 -0.11360345129E+03 -0.12947147783E+03  0.65640534542E+03  0.67862846712E+03  0.10566000000E+00 0.  1.
        994    1    1    2    0    0  0.10469317142E+03  0.97769805914E+02  0.94035007108E+02  0.24222224847E+03  0.17120000000E+03 0.  0.
        998    1    1    2    0    0  0.89102798772E+01  0.31701671919E+02  0.74955964375E+03  0.75034928442E+03  0.10000000000E+02 0.  1.
</event>
<event>
 5    1  0.1087513E-008  0.3705331E+03  0.7957747E-01  0.3493444E+00
         13   -1    0    0    0    0  0.00000000000E+00  0.00000000000E+00  0.14999999963E+04  0.15000000000E+04  0.10566000000E+00 0. -1.
        994   -1    0    0    0    0 -0.00000000000E+00 -0.00000000000E+00  0.11368683772E-12  0.17120000000E+03  0.17120000000E+03 0.  0.
         13    1    1    2    0    0 -0.49301683235E+02  0.24793485416E+02  0.11469481781E+03  0.12728034131E+03  0.10566000000E+00 0. -1.
        994    1    1    2    0    0  0.52504215392E+02 -0.55324313042E+02  0.31885204692E+02  0.19011464574E+03  0.17120000000E+03 0.  0.
        998    1    1    2    0    0 -0.32025321570E+01  0.30530827626E+02  0.13534199738E+04  0.13538050129E+04  0.10000000000E+02 0. -1.
</event>
<event>
 5    1  0.1087513E-008  0.3755513E+03  0.7957747E-01  0.3470761E+00
         13   -1    0    0    0    0  0.00000000000E+00  0.00000000000E+00  0.14999999963E+04  0.15000000000E+04  0.10566000000E+00 0.  1.
        994   -1    0    0    0    0 -0.00000000000E+00 -0.00000000000E+00  0.11368683772E-12  0.17120000000E+03  0.17120000000E+03 0.  0.
         13    1    1    2    0    0 -0.20217254794E+02 -0.29743325501E+01  0.29366782263E+02  0.35777131104E+02  0.10566000000E+00 0.  1.
        994    1    1    2    0    0  0.21985368723E+02  0.19499723786E+01  0.80504991747E+01  0.17280454093E+03  0.17120000000E+03 0.  0.
        998    1    1    2    0    0 -0.17681139285E+01  0.10243601715E+01  0.14625827148E+04  0.14626183280E+04  0.10000000000E+02 0.  1.
</event>
<event>
 5    1  0.1087513E-008  0.3723602E+03  0.7957747E-01  0.3485114E+00
         13   -1    0    0    0    0  0.00000000000E+00  0.00000000000E+00  0.14999999963E+04  0.15000000000E+04  0.10566000000E+00 0. -1.
        994   -1    0    0    0    0 -0.00000000000E+00 -0.00000000000E+00  0.11368683772E-12  0.17120000000E+03  0.17120000000E+03 0.  0.
         13    1    1    2    0    0  0.62285625299E+02  0.25420483826E+02  0.38947742254E+03  0.39524470136E+03  0.10566000000E+00 0. -1.
        994    1    1    2    0    0  0.51689726807E+01 -0.14226562501E+02  0.88268064662E+01  0.17209435166E+03  0.17120000000E+03 0.  0.
        998    1    1    2    0    0 -0.67454597980E+02 -0.11193921325E+02  0.11016957673E+04  0.11038609470E+04  0.10000000000E+02 0. -1.
</event>
<event>
 5    1  0.1087513E-008  0.3813769E+03  0.7957747E-01  0.3445185E+00
         13   -1    0    0    0    0  0.00000000000E+00  0.00000000000E+00  0.14999999963E+04  0.15000000000E+04  0.10566000000E+00 0. -1.
        994   -1    0    0    0    0 -0.00000000000E+00 -0.00000000000E+00  0.11368683772E-12  0.17120000000E+03  0.17120000000E+03 0.  0.
         13    1    1    2    0    0 -0.57516758204E+02 -0.47718743856E+02  0.15349025642E+03  0.17071767913E+03  0.10566000000E+00 0. -1.
        994    1    1    2    0    0  0.48463712564E+02  0.28844397093E+02  0.28762265941E+02  0.18253065118E+03  0.17120000000E+03 0.  0.
        998    1    1    2    0    0  0.90530456396E+01  0.18874346763E+02  0.13177474739E+04  0.13179516697E+04  0.10000000000E+02 0. -1.
</event>
<event>
 5    1  0.1087513E-008  0.3753936E+03  0.7957747E-01  0.3471464E+00
         13   -1    0    0    0    0  0.00000000000E+00  0.00000000000E+00  0.14999999963E+04  0.15000000000E+04  0.10566000000E+00 0. -1.
        994   -1    0    0    0    0 -0.00000000000E+00 -0.00000000000E+00  0.11368683772E-12  0.17120000000E+03  0.17120000000E+03 0.  0.
         13    1    1    2    0    0 -0.17568083060E+02 -0.51847613961E+01  0.22720694128E+02  0.29184934450E+02  0.10566000000E+00 0. -1.
        994    1    1    2    0    0  0.19240924920E+02  0.70431962001E+01  0.79031724977E+01  0.17260278080E+03  0.17120000000E+03 0.  0.
        998    1    1    2    0    0 -0.16728418596E+01 -0.18584348039E+01  0.14693761297E+04  0.14694122847E+04  0.10000000000E+02 0. -1.
</event>
<event>
 5    1  0.1087513E-008  0.3823972E+03  0.7957747E-01  0.3440786E+00
         13   -1    0    0    0    0  0.00000000000E+00  0.00000000000E+00  0.14999999963E+04  0.15000000000E+04  0.10566000000E+00 0.  1.
        994   -1    0    0    0    0 -0.00000000000E+00 -0.00000000000E+00  0.11368683772E-12  0.17120000000E+03  0.17120000000E+03 0.  0.
         13    1    1    2    0    0 -0.58475004480E+01  0.18800108712E+02  0.64516274787E+02  0.67453674663E+02  0.10566000000E+00 0.  1.
        994    1    1    2    0    0  0.54291144661E+01 -0.14070661592E+02  0.36826634316E+01  0.17190247471E+03  0.17120000000E+03 0.  0.
        998    1    1    2    0    0  0.41838598187E+00 -0.47294471205E+01  0.14318010581E+04  0.14318438506E+04  0.10000000000E+02 0.  1.
</event>
<event>
 5    1  0.1087513E-008  0.3805503E+03  0.7957747E-01  0.3448766E+00
         13   -1    0    0    0    0  0.00000000000E+00  0.00000000000E+00  0.14999999963E+04  0.15000000000E+04  0.10566000000E+00 0.  1.
        994   -1    0    0    0    0 -0.00000000000E+00 -0.00000000000E+00  0.11368683772E-12  0.17120000000E+03  0.17120000000E+03 0.  0.
         13    1    1    2    0    0  0.13270189616E+01  0.27201068052E+02  0.83648530634E+02  0.87970147913E+02  0.10566000000E+00 0.  1.
        994    1    1    2    0    0 -0.24859480625E+02 -0.42087153351E+02  0.11869918019E+02  0.17843670365E+03  0.17120000000E+03 0.  0.
        998    1    1    2    0    0  0.23532461664E+02  0.14886085299E+02  0.14044815476E+04  0.14047931484E+04  0.10000000000E+02 0.  1.
</event>
<event>
 5    1  0.1087513E-008  0.3815576E+03  0.7957747E-01  0.3444404E+00
         13   -1    0    0    0    0  0.00000000000E+00  0.00000000000E+00  0.14999999963E+04  0.15000000000E+04  0.10566000000E+00 0. -1.
        994   -1    0    0    0    0 -0.00000000000E+00 -0.00000000000E+00  0.11368683772E-12  0.17120000000E+03  0.17120000000E+03 0.  0.
         13    1    1    2    0    0  0.10364596534E+02 -0.14360781000E+02  0.45525333990E+02  0.48848992735E+02  0.10566000000E+00 0. -1.
        994    1    1    2    0    0 -0.15095792370E+02  0.43564710598E+01  0.41703887257E+01  0.17197003788E+03  0.17120000000E+03 0.  0.
        998    1    1    2    0    0  0.47311958352E+01  0.10004309940E+02  0.14503042736E+04  0.14503809694E+04  0.10000000000E+02 0. -1.
</event>
<event>
 5    1  0.1087513E-008  0.3797652E+03  0.7957747E-01  0.3452181E+00
         13   -1    0    0    0    0  0.00000000000E+00  0.00000000000E+00  0.14999999963E+04  0.15000000000E+04  0.10566000000E+00 0. -1.
        994   -1    0    0    0    0 -0.00000000000E+00 -0.00000000000E+00  0.11368683772E-12  0.17120000000E+03  0.17120000000E+03 0.  0.
         13    1    1    2    0    0  0.36635361767E+02  0.29416007014E+02  0.24558405265E+03  0.25003797567E+03  0.10566000000E+00 0. -1.
        994    1    1    2    0    0 -0.58757865519E+01 -0.48517154305E+02  0.12284021316E+02  0.17846225458E+03  0.17120000000E+03 0.  0.
        998    1    1    2    0    0 -0.30759575215E+02  0.19101147291E+02  0.12421319223E+04  0.12426997697E+04  0.10000000000E+02 0. -1.
</event>
<event>
 5    1  0.1087513E-008  0.3797789E+03  0.7957747E-01  0.3452122E+00
         13   -1    0    0    0    0  0.00000000000E+00  0.00000000000E+00  0.14999999963E+04  0.15000000000E+04  0.10566000000E+00 0. -1.
        994   -1    0    0    0    0 -0.00000000000E+00 -0.00000000000E+00  0.11368683772E-12  0.17120000000E+03  0.17120000000E+03 0.  0.
         13    1    1    2    0    0  0.35646732914E+02  0.18593748398E+02  0.18664725559E+03  0.19092832747E+03  0.10566000000E+00 0. -1.
        994    1    1    2    0    0 -0.12003697030E+02 -0.32753074823E+02  0.83263622716E+01  0.17491603975E+03  0.17120000000E+03 0.  0.
        998    1    1    2    0    0 -0.23643035883E+02  0.14159326425E+02  0.13050263784E+04  0.13053556328E+04  0.10000000000E+02 0. -1.
</event>
<event>
 5    1  0.1087513E-008  0.3778706E+03  0.7957747E-01  0.3460483E+00
         13   -1    0    0    0    0  0.00000000000E+00  0.00000000000E+00  0.14999999963E+04  0.15000000000E+04  0.10566000000E+00 0. -1.
        994   -1    0    0    0    0 -0.00000000000E+00 -0.00000000000E+00  0.11368683772E-12  0.17120000000E+03  0.17120000000E+03 0.  0.
         13    1    1    2    0    0  0.11887633040E+02 -0.13142529587E+02  0.28688473131E+02  0.33720639939E+02  0.10566000000E+00 0. -1.
        994    1    1    2    0    0 -0.40236153050E+01  0.89772914029E+00  0.52691653914E+01  0.17133067297E+03  0.17120000000E+03 0.  0.
        998    1    1    2    0    0 -0.78640177353E+01  0.12244800447E+02  0.14660423578E+04  0.14661486871E+04  0.10000000000E+02 0. -1.
</event>
<event>
 5    1  0.1087513E-008  0.3806246E+03  0.7957747E-01  0.3448443E+00
         13   -1    0    0    0    0  0.00000000000E+00  0.00000000000E+00  0.14999999963E+04  0.15000000000E+04  0.10566000000E+00 0.  1.
        994   -1    0    0    0    0 -0.00000000000E+00 -0.00000000000E+00  0.11368683772E-12  0.17120000000E+03  0.17120000000E+03 0.  0.
         13    1    1    2    0    0 -0.22613341441E+02 -0.39824946787E+02  0.20594272998E+03  0.21097347889E+03  0.10566000000E+00 0.  1.
        994    1    1    2    0    0  0.37623717037E+02  0.52753578458E+02  0.17953727828E+02  0.18393004232E+03  0.17120000000E+03 0.  0.
        998    1    1    2    0    0 -0.15010375595E+02 -0.12928631671E+02  0.12761035385E+04  0.12762964788E+04  0.10000000000E+02 0.  1.
</event>
<event>
 5    1  0.1087513E-008  0.3841909E+03  0.7957747E-01  0.3433111E+00
         13   -1    0    0    0    0  0.00000000000E+00  0.00000000000E+00  0.14999999963E+04  0.15000000000E+04  0.10566000000E+00 0. -1.
        994   -1    0    0    0    0 -0.00000000000E+00 -0.00000000000E+00  0.11368683772E-12  0.17120000000E+03  0.17120000000E+03 0.  0.
         13    1    1    2    0    0 -0.90631292848E+01  0.10381913562E+02  0.46430595258E+02  0.48432796550E+02  0.10566000000E+00 0. -1.
        994    1    1    2    0    0  0.18471326130E+01 -0.99137009595E+01  0.23677556825E+01  0.17151308881E+03  0.17120000000E+03 0.  0.
        998    1    1    2    0    0  0.72159966719E+01 -0.46821260259E+00  0.14512016453E+04  0.14512541146E+04  0.10000000000E+02 0. -1.
</event>
<event>
 5    1  0.1171670E-008  0.3853797E+03  0.7957747E-01  0.3428064E+00
         13   -1    0    0    0    0  0.00000000000E+00  0.00000000000E+00  0.14999999963E+04  0.15000000000E+04  0.10566000000E+00 0. -1.
        994   -1    0    0    0    0 -0.00000000000E+00 -0.00000000000E+00  0.11368683772E-12  0.17120000000E+03  0.17120000000E+03 0.  0.
         13    1    1    2    0    0  0.13475882045E+02  0.49666982417E+01  0.74127065943E+02  0.75505632622E+02  0.10566000000E+00 0. -1.
        994    1    1    2    0    0 -0.57748519606E+01  0.10736328068E+01  0.15550858206E+01  0.17130779286E+03  0.17120000000E+03 0.  0.
        998    1    1    2    0    0 -0.77010300841E+01 -0.60403310485E+01  0.14243178445E+04  0.14243865745E+04  0.10000000000E+02 0. -1.
</event>
<event>
 5    1  0.1087513E-008  0.3762642E+03  0.7957747E-01  0.3467588E+00
         13   -1    0    0    0    0  0.00000000000E+00  0.00000000000E+00  0.14999999963E+04  0.15000000000E+04  0.10566000000E+00 0.  1.
        994   -1    0    0    0    0 -0.00000000000E+00 -0.00000000000E+00  0.11368683772E-12  0.17120000000E+03  0.17120000000E+03 0.  0.
         13    1    1    2    0    0 -0.52942157286E+02  0.33600144450E+02  0.26086993557E+03  0.26830016059E+03  0.10566000000E+00 0.  1.
        994    1    1    2    0    0  0.62281757362E+02 -0.26421094597E+02  0.21683950155E+02  0.18535567225E+03  0.17120000000E+03 0.  0.
        998    1    1    2    0    0 -0.93396000766E+01 -0.71790498530E+01  0.12174461106E+04  0.12175441672E+04  0.10000000000E+02 0.  1.
</event>
<event>
 5    1  0.1087513E-008  0.3830606E+03  0.7957747E-01  0.3437939E+00
         13   -1    0    0    0    0  0.00000000000E+00  0.00000000000E+00  0.14999999963E+04  0.15000000000E+04  0.10566000000E+00 0.  1.
        994   -1    0    0    0    0 -0.00000000000E+00 -0.00000000000E+00  0.11368683772E-12  0.17120000000E+03  0.17120000000E+03 0.  0.
         13    1    1    2    0    0  0.16070938708E+02  0.65565783367E+01  0.55264980366E+02  0.57926617451E+02  0.10566000000E+00 0.  1.
        994    1    1    2    0    0 -0.17255810884E+02 -0.76364377713E+01  0.37754054607E+01  0.17227818166E+03  0.17120000000E+03 0.  0.
        998    1    1    2    0    0  0.11848721760E+01  0.10798594346E+01  0.14409596105E+04  0.14409952009E+04  0.10000000000E+02 0.  1.
</event>
<event>
 5    1  0.1087513E-008  0.3742462E+03  0.7957747E-01  0.3476601E+00
         13   -1    0    0    0    0  0.00000000000E+00  0.00000000000E+00  0.14999999963E+04  0.15000000000E+04  0.10566000000E+00 0. -1.
        994   -1    0    0    0    0 -0.00000000000E+00 -0.00000000000E+00  0.11368683772E-12  0.17120000000E+03  0.17120000000E+03 0.  0.
         13    1    1    2    0    0 -0.89630415537E+02  0.21404068357E+02  0.40775303571E+03  0.41803623626E+03  0.10566000000E+00 0. -1.
        994    1    1    2    0    0  0.20191020545E+02  0.32464640904E+01  0.14687440127E+02  0.17304154916E+03  0.17120000000E+03 0.  0.
        998    1    1    2    0    0  0.69439394992E+02 -0.24650532448E+02  0.10775595204E+04  0.10801222146E+04  0.10000000000E+02 0. -1.
</event>
<event>
 5    1  0.1087513E-008  0.3712712E+03  0.7957747E-01  0.3490069E+00
         13   -1    0    0    0    0  0.00000000000E+00  0.00000000000E+00  0.14999999963E+04  0.15000000000E+04  0.10566000000E+00 0. -1.
        994   -1    0    0    0    0 -0.00000000000E+00 -0.00000000000E+00  0.11368683772E-12  0.17120000000E+03  0.17120000000E+03 0.  0.
         13    1    1    2    0    0 -0.32608556937E+02  0.42786307540E+02  0.22009795827E+03  0.22657693726E+03  0.10566000000E+00 0. -1.
        994    1    1    2    0    0 -0.54729693619E+02 -0.24775174233E+02  0.21135093940E+02  0.18266165667E+03  0.17120000000E+03 0.  0.
        998    1    1    2    0    0  0.87338250556E+02 -0.18011133307E+02  0.12587669441E+04  0.12619614061E+04  0.10000000000E+02 0. -1.
</event>
<event>
 5    1  0.1087513E-008  0.3684330E+03  0.7957747E-01  0.3503124E+00
         13   -1    0    0    0    0  0.00000000000E+00  0.00000000000E+00  0.14999999963E+04  0.15000000000E+04  0.10566000000E+00 0.  1.
        994   -1    0    0    0    0 -0.00000000000E+00 -0.00000000000E+00  0.11368683772E-12  0.17120000000E+03  0.17120000000E+03 0.  0.
         13    1    1    2    0    0 -0.69131412356E+02 -0.43168829654E+02  0.29556885720E+03  0.30660016396E+03  0.10566000000E+00 0.  1.
        994    1    1    2    0    0  0.92553715528E+02 -0.21332771471E+02  0.42170867941E+02  0.20027256302E+03  0.17120000000E+03 0.  0.
        998    1    1    2    0    0 -0.23422303172E+02  0.64501601125E+02  0.11622602711E+04  0.11643272730E+04  0.10000000000E+02 0.  1.
</event>
<event>
 5    1  0.1087513E-008  0.2453194E+03  0.7957747E-01  0.4385013E+00
         13   -1    0    0    0    0  0.00000000000E+00  0.00000000000E+00  0.14999999963E+04  0.15000000000E+04  0.10566000000E+00 0.  1.
        994   -1    0    0    0    0 -0.00000000000E+00 -0.00000000000E+00  0.11368683772E-12  0.17120000000E+03  0.17120000000E+03 0.  0.
         13    1    1    2    0    0 -0.11869728606E+03  0.11310682744E+03  0.20905345178E+03  0.26567942524E+03  0.10566000000E+00 0.  1.
        994    1    1    2    0    0  0.22659414636E+03 -0.41749705021E+01  0.34359812538E+03  0.44579305659E+03  0.17120000000E+03 0.  0.
        998    1    1    2    0    0 -0.10789686030E+03 -0.10893185693E+03  0.94734841912E+03  0.95972751816E+03  0.10000000000E+02 0.  1.
</event>
<event>
 5    1  0.1087513E-008  0.3780223E+03  0.7957747E-01  0.3459815E+00
         13   -1    0    0    0    0  0.00000000000E+00  0.00000000000E+00  0.14999999963E+04  0.15000000000E+04  0.10566000000E+00 0.  1.
        994   -1    0    0    0    0 -0.00000000000E+00 -0.00000000000E+00  0.11368683772E-12  0.17120000000E+03  0.17120000000E+03 0.  0.
         13    1    1    2    0    0 -0.50488506703E+02  0.39174542319E+01  0.20883584419E+03  0.21488800976E+03  0.10566000000E+00 0.  1.
        994    1    1    2    0    0  0.54744156107E+02 -0.22538927208E+01  0.15303645821E+02  0.18040411369E+03  0.17120000000E+03 0.  0.
        998    1    1    2    0    0 -0.42556494039E+01 -0.16635615111E+01  0.12758605063E+04  0.12759078765E+04  0.10000000000E+02 0.  0.
</event>
<event>
 5    1  0.1087513E-008  0.3814293E+03  0.7957747E-01  0.3444959E+00
         13   -1    0    0    0    0  0.00000000000E+00  0.00000000000E+00  0.14999999963E+04  0.15000000000E+04  0.10566000000E+00 0. -1.
        994   -1    0    0    0    0 -0.00000000000E+00 -0.00000000000E+00  0.11368683772E-12  0.17120000000E+03  0.17120000000E+03 0.  0.
         13    1    1    2    0    0 -0.55441164587E+02  0.31571119882E+02  0.10857224240E+03  0.12593014463E+03  0.10566000000E+00 0. -1.
        994    1    1    2    0    0  0.42836286453E+02 -0.36875203014E+02  0.28845305363E+02  0.18258209024E+03  0.17120000000E+03 0.  0.
        998    1    1    2    0    0  0.12604878134E+02  0.53040831318E+01  0.13625824485E+04  0.13626877651E+04  0.10000000000E+02 0. -1.
</event>
<event>
 5    1  0.1087513E-008  0.3711142E+03  0.7957747E-01  0.3490786E+00
         13   -1    0    0    0    0  0.00000000000E+00  0.00000000000E+00  0.14999999963E+04  0.15000000000E+04  0.10566000000E+00 0. -1.
        994   -1    0    0    0    0 -0.00000000000E+00 -0.00000000000E+00  0.11368683772E-12  0.17120000000E+03  0.17120000000E+03 0.  0.
         13    1    1    2    0    0  0.77057260778E+02  0.32459076821E+02  0.47928089519E+03  0.48651988733E+03  0.10566000000E+00 0. -1.
        994    1    1    2    0    0 -0.25537493500E+02 -0.14142260222E+02  0.11628661901E+02  0.17405985429E+03  0.17120000000E+03 0.  0.
        998    1    1    2    0    0 -0.51519767277E+02 -0.18316816599E+02  0.10090904392E+04  0.10106202584E+04  0.10000000000E+02 0.  1.
</event>
<event>
 5    1  0.1087513E-008  0.3704568E+03  0.7957747E-01  0.3493794E+00
         13   -1    0    0    0    0  0.00000000000E+00  0.00000000000E+00  0.14999999963E+04  0.15000000000E+04  0.10566000000E+00 0. -1.
        994   -1    0    0    0    0 -0.00000000000E+00 -0.00000000000E+00  0.11368683772E-12  0.17120000000E+03  0.17120000000E+03 0.  0.
         13    1    1    2    0    0  0.23604560752E+01 -0.22330331223E+02  0.23936217618E+02  0.32820254772E+02  0.10566000000E+00 0. -1.
        994    1    1    2    0    0 -0.15521915439E+01  0.19064397688E+02  0.10294535796E+02  0.17257252975E+03  0.17120000000E+03 0.  0.
        998    1    1    2    0    0 -0.80826453133E+00  0.32659335346E+01  0.14657692429E+04  0.14658072155E+04  0.10000000000E+02 0. -1.
</event>
<event>
 5    1  0.1087513E-008  0.3851842E+03  0.7957747E-01  0.3428891E+00
         13   -1    0    0    0    0  0.00000000000E+00  0.00000000000E+00  0.14999999963E+04  0.15000000000E+04  0.10566000000E+00 0.  1.
        994   -1    0    0    0    0 -0.00000000000E+00 -0.00000000000E+00  0.11368683772E-12  0.17120000000E+03  0.17120000000E+03 0.  0.
         13    1    1    2    0    0 -0.10359956794E+02  0.13291151337E+02  0.95619312472E+02  0.97092983733E+02  0.10566000000E+00 0.  1.
        994    1    1    2    0    0 -0.34922630930E+01 -0.11325795346E+02  0.20005276643E+01  0.17162141956E+03  0.17120000000E+03 0.  0.
        998    1    1    2    0    0  0.13852219887E+02 -0.19653559915E+01  0.14023801561E+04  0.14024855967E+04  0.10000000000E+02 0.  1.
</event>
<event>
 5    1  0.1087513E-008  0.3777373E+03  0.7957747E-01  0.3461070E+00
         13   -1    0    0    0    0  0.00000000000E+00  0.00000000000E+00  0.14999999963E+04  0.15000000000E+04  0.10566000000E+00 0. -1.
        994   -1    0    0    0    0 -0.00000000000E+00 -0.00000000000E+00  0.11368683772E-12  0.17120000000E+03  0.17120000000E+03 0.  0.
         13    1    1    2    0    0 -0.14445490749E+02 -0.48492878656E+01  0.19550176648E+02  0.24787262188E+02  0.10566000000E+00 0. -1.
        994    1    1    2    0    0  0.15094518103E+02  0.64808945101E+00  0.60489034935E+01  0.17197178178E+03  0.17120000000E+03 0.  0.
        998    1    1    2    0    0 -0.64902735424E+00  0.42011984146E+01  0.14744009161E+04  0.14744409560E+04  0.10000000000E+02 0. -1.
</event>
<event>
 5    1  0.1087513E-008  0.3694423E+03  0.7957747E-01  0.3498458E+00
         13   -1    0    0    0    0  0.00000000000E+00  0.00000000000E+00  0.14999999963E+04  0.15000000000E+04  0.10566000000E+00 0. -1.
        994   -1    0    0    0    0 -0.00000000000E+00 -0.00000000000E+00  0.11368683772E-12  0.17120000000E+03  0.17120000000E+03 0.  0.
         13    1    1    2    0    0  0.53440481862E+02  0.92541469098E+02  0.48730448740E+03  0.49888423829E+03  0.10566000000E+00 0. -1.
        994    1    1    2    0    0 -0.32396920685E+02 -0.79339425099E+02  0.35453233582E+02  0.19470664246E+03  0.17120000000E+03 0.  0.
        998    1    1    2    0    0 -0.21043561177E+02 -0.13202044000E+02  0.97724227530E+03  0.97760911926E+03  0.10000000000E+02 0. -1.
</event>
<event>
 5    1  0.1087513E-008  0.3808040E+03  0.7957747E-01  0.3447665E+00
         13   -1    0    0    0    0  0.00000000000E+00  0.00000000000E+00  0.14999999963E+04  0.15000000000E+04  0.10566000000E+00 0. -1.
        994   -1    0    0    0    0 -0.00000000000E+00 -0.00000000000E+00  0.11368683772E-12  0.17120000000E+03  0.17120000000E+03 0.  0.
         13    1    1    2    0    0  0.37996177024E+02  0.13217281579E+02  0.19907925151E+03  0.20310333711E+03  0.10566000000E+00 0. -1.
        994    1    1    2    0    0 -0.29646271717E+02 -0.17927155598E+02  0.77400126555E+01  0.17484173452E+03  0.17120000000E+03 0.  0.
        998    1    1    2    0    0 -0.83499053067E+01  0.47098740200E+01  0.12931807321E+04  0.12932549284E+04  0.10000000000E+02 0. -1.
</event>
<event>
 5    1  0.1087513E-008  0.3771053E+03  0.7957747E-01  0.3463860E+00
         13   -1    0    0    0    0  0.00000000000E+00  0.00000000000E+00  0.14999999963E+04  0.15000000000E+04  0.10566000000E+00 0.  1.
        994   -1    0    0    0    0 -0.00000000000E+00 -0.00000000000E+00  0.11368683772E-12  0.17120000000E+03  0.17120000000E+03 0.  0.
         13    1    1    2    0    0 -0.62294684590E+01 -0.58260359459E+02  0.32678641359E+03  0.33199766119E+03  0.10566000000E+00 0.  1.
        994    1    1    2    0    0  0.12217726256E+02  0.24260398373E+02  0.80959724462E+01  0.17353047149E+03  0.17120000000E+03 0.  0.
        998    1    1    2    0    0 -0.59882577975E+01  0.33999961086E+02  0.11651176102E+04  0.11656718673E+04  0.10000000000E+02 0.  1.
</event>
<event>
 5    1  0.1087513E-008  0.3811657E+03  0.7957747E-01  0.3446098E+00
         13   -1    0    0    0    0  0.00000000000E+00  0.00000000000E+00  0.14999999963E+04  0.15000000000E+04  0.10566000000E+00 0.  1.
        994   -1    0    0    0    0 -0.00000000000E+00 -0.00000000000E+00  0.11368683772E-12  0.17120000000E+03  0.17120000000E+03 0.  0.
         13    1    1    2    0    0  0.15085007540E+02 -0.21747458209E+02  0.95958551231E+02  0.99541770676E+02  0.10566000000E+00 0.  1.
        994    1    1    2    0    0  0.11867254154E+01  0.24613372691E+02  0.55705950650E+01  0.17305403191E+03  0.17120000000E+03 0.  0.
        998    1    1    2    0    0 -0.16271732955E+02 -0.28659144829E+01  0.13984708500E+04  0.13986041974E+04  0.10000000000E+02 0.  1.
</event>
<event>
 5    1  0.1087513E-008  0.3845776E+03  0.7957747E-01  0.3431465E+00
         13   -1    0    0    0    0  0.00000000000E+00  0.00000000000E+00  0.14999999963E+04  0.15000000000E+04  0.10566000000E+00 0. -1.
        994   -1    0    0    0    0 -0.00000000000E+00 -0.00000000000E+00  0.11368683772E-12  0.17120000000E+03  0.17120000000E+03 0.  0.
         13    1    1    2    0    0  0.16010500818E+02 -0.11915930484E+02  0.10396607437E+03  0.10586444786E+03  0.10566000000E+00 0. -1.
        994    1    1    2    0    0 -0.15333536261E+02  0.90815369631E+01  0.28865557464E+01  0.17214924877E+03  0.17120000000E+03 0.  0.
        998    1    1    2    0    0 -0.67696455722E+00  0.28343935213E+01  0.13931473662E+04  0.13931863034E+04  0.10000000000E+02 0. -1.
</event>
<event>
 5    1  0.1087513E-008  0.3833977E+03  0.7957747E-01  0.3436496E+00
         13   -1    0    0    0    0  0.00000000000E+00  0.00000000000E+00  0.14999999963E+04  0.15000000000E+04  0.10566000000E+00 0. -1.
        994   -1    0    0    0    0 -0.00000000000E+00 -0.00000000000E+00  0.11368683772E-12  0.17120000000E+03  0.17120000000E+03 0.  0.
         13    1    1    2    0    0  0.10418584823E+02 -0.71788705412E+01  0.34335178761E+02  0.36592331937E+02  0.10566000000E+00 0. -1.
        994    1    1    2    0    0  0.10918960816E+02  0.27783592202E+01  0.28475295575E+01  0.17159397253E+03  0.17120000000E+03 0.  0.
        998    1    1    2    0    0 -0.21337545638E+02  0.44005113210E+01  0.14628172880E+04  0.14630136955E+04  0.10000000000E+02 0. -1.
</event>
<event>
 5    1  0.1087513E-008  0.4081003E+03  0.7957747E-01  0.3337244E+00
         13   -1    0    0    0    0  0.00000000000E+00  0.00000000000E+00  0.14999999963E+04  0.15000000000E+04  0.10566000000E+00 0.  1.
        994   -1    0    0    0    0 -0.00000000000E+00 -0.00000000000E+00  0.11368683772E-12  0.17120000000E+03  0.17120000000E+03 0.  0.
         13    1    1    2    0    0  0.13652886990E+03  0.98128714292E+01  0.22160582416E+03  0.26047183577E+03  0.10566000000E+00 0.  1.
        994    1    1    2    0    0 -0.14624910595E+03  0.25015055703E+02  0.12895854329E+03  0.26068045552E+03  0.17120000000E+03 0.  0.
        998    1    1    2    0    0  0.97202360450E+01 -0.34827927133E+02  0.11494356288E+04  0.11500477087E+04  0.10000000000E+02 0.  1.
</event>
<event>
 5    1  0.1344472E-008  0.3854134E+03  0.7957747E-01  0.3427921E+00
         13   -1    0    0    0    0  0.00000000000E+00  0.00000000000E+00  0.14999999963E+04  0.15000000000E+04  0.10566000000E+00 0. -1.
        994   -1    0    0    0    0 -0.00000000000E+00 -0.00000000000E+00  0.11368683772E-12  0.17120000000E+03  0.17120000000E+03 0.  0.
         13    1    1    2    0    0 -0.37830662647E+01 -0.12843849215E+02  0.60699836372E+02  0.62159129278E+02  0.10566000000E+00 0. -1.
        994    1    1    2    0    0  0.49859498590E+01  0.14186633643E+02  0.21680143948E+01  0.17187280342E+03  0.17120000000E+03 0.  0.
        998    1    1    2    0    0 -0.12028835942E+01 -0.13427844284E+01  0.14371321455E+04  0.14371680673E+04  0.10000000000E+02 0. -1.
</event>
<event>
 5    1  0.1087513E-008  0.3793829E+03  0.7957747E-01  0.3453850E+00
         13   -1    0    0    0    0  0.00000000000E+00  0.00000000000E+00  0.14999999963E+04  0.15000000000E+04  0.10566000000E+00 0. -1.
        994   -1    0    0    0    0 -0.00000000000E+00 -0.00000000000E+00  0.11368683772E-12  0.17120000000E+03  0.17120000000E+03 0.  0.
         13    1    1    2    0    0 -0.22569772652E+02 -0.30566032512E+02  0.14467172586E+03  0.14957806125E+03  0.10566000000E+00 0. -1.
        994    1    1    2    0    0  0.35941455806E+01  0.48215509500E+02  0.12315649454E+02  0.17832209190E+03  0.17120000000E+03 0.  0.
        998    1    1    2    0    0  0.18975627071E+02 -0.17649476988E+02  0.13430126210E+04  0.13432998468E+04  0.10000000000E+02 0. -1.
</event>
<event>
 5    1  0.1087513E-008  0.3854354E+03  0.7957747E-01  0.3427828E+00
         13   -1    0    0    0    0  0.00000000000E+00  0.00000000000E+00  0.14999999963E+04  0.15000000000E+04  0.10566000000E+00 0. -1.
        994   -1    0    0    0    0 -0.00000000000E+00 -0.00000000000E+00  0.11368683772E-12  0.17120000000E+03  0.17120000000E+03 0.  0.
         13    1    1    2    0    0  0.95335367695E+01 -0.54116484731E+01  0.41389356963E+02  0.42816635744E+02  0.10566000000E+00 0. -1.
        994    1    1    2    0    0 -0.81061045630E+01  0.11536943762E+02  0.20672753204E+01  0.17179209420E+03  0.17120000000E+03 0.  0.
        998    1    1    2    0    0 -0.14274322065E+01 -0.61252952893E+01  0.14565433640E+04  0.14565912701E+04  0.10000000000E+02 0. -1.
</event>
<event>
 5    1  0.1087513E-008  0.3805336E+03  0.7957747E-01  0.3448839E+00
         13   -1    0    0    0    0  0.00000000000E+00  0.00000000000E+00  0.14999999963E+04  0.15000000000E+04  0.10566000000E+00 0.  1.
        994   -1    0    0    0    0 -0.00000000000E+00 -0.00000000000E+00  0.11368683772E-12  0.17120000000E+03  0.17120000000E+03 0.  0.
         13    1    1    2    0    0 -0.84971320441E+01  0.10517770436E+02  0.21384638886E+02  0.25300962279E+02  0.10566000000E+00 0.  1.
        994    1    1    2    0    0  0.15751578054E+02 -0.13974139967E+02  0.53450501314E+01  0.17257287840E+03  0.17120000000E+03 0.  0.
        998    1    1    2    0    0 -0.72544460095E+01  0.34563695313E+01  0.14732703073E+04  0.14733261593E+04  0.10000000000E+02 0.  1.
</event>
<event>
 5    1  0.1087513E-008  0.3826891E+03  0.7957747E-01  0.3439533E+00
         13   -1    0    0    0    0  0.00000000000E+00  0.00000000000E+00  0.14999999963E+04  0.15000000000E+04  0.10566000000E+00 0.  1.
        994   -1    0    0    0    0 -0.00000000000E+00 -0.00000000000E+00  0.11368683772E-12  0.17120000000E+03  0.17120000000E+03 0.  0.
         13    1    1    2    0    0  0.20632712488E+02 -0.15531350663E+02  0.10509939704E+03  0.10822581069E+03  0.10566000000E+00 0.  1.
        994    1    1    2    0    0 -0.27107661375E+02  0.23800730616E+02  0.71056635048E+01  0.17510348522E+03  0.17120000000E+03 0.  0.
        998    1    1    2    0    0  0.64749488868E+01 -0.82693799539E+01  0.13877949357E+04  0.13878707041E+04  0.10000000000E+02 0.  1.
</event>
<event>
 5    1  0.1087513E-008  0.3933767E+03  0.7957747E-01  0.3394904E+00
         13   -1    0    0    0    0  0.00000000000E+00  0.00000000000E+00  0.14999999963E+04  0.15000000000E+04  0.10566000000E+00 0. -1.
        994   -1    0    0    0    0 -0.00000000000E+00 -0.00000000000E+00  0.11368683772E-12  0.17120000000E+03  0.17120000000E+03 0.  0.
         13    1    1    2    0    0 -0.69421175659E+02 -0.13492000632E+03  0.32078724548E+03  0.35486219264E+03  0.10566000000E+00 0. -1.
        994    1    1    2    0    0  0.70469541673E+02  0.15239368857E+03  0.14149502329E+03  0.27842427020E+03  0.17120000000E+03 0.  0.
        998    1    1    2    0    0 -0.10483660146E+01 -0.17473682254E+02  0.10377177275E+04  0.10379135372E+04  0.10000000000E+02 0. -1.
</event>
<event>
 5    1  0.1087513E-008  0.3754808E+03  0.7957747E-01  0.3471075E+00
         13   -1    0    0    0    0  0.00000000000E+00  0.00000000000E+00  0.14999999963E+04  0.15000000000E+04  0.10566000000E+00 0. -1.
        994   -1    0    0    0    0 -0.00000000000E+00 -0.00000000000E+00  0.11368683772E-12  0.17120000000E+03  0.17120000000E+03 0.  0.
         13    1    1    2    0    0 -0.18250200543E+02 -0.54060537240E+02  0.10249224981E+03  0.11730423668E+03  0.10566000000E+00 0. -1.
        994    1    1    2    0    0  0.34850708928E+02  0.56959788035E+02  0.29936791433E+02  0.18618442697E+03  0.17120000000E+03 0.  0.
        998    1    1    2    0    0 -0.16600508385E+02 -0.28992507954E+01  0.13675709550E+04  0.13677113364E+04  0.10000000000E+02 0. -1.
</event>
<event>
 5    1  0.1087513E-008  0.3754733E+03  0.7957747E-01  0.3471109E+00
         13   -1    0    0    0    0  0.00000000000E+00  0.00000000000E+00  0.14999999963E+04  0.15000000000E+04  0.10566000000E+00 0. -1.
        994   -1    0    0    0    0 -0.00000000000E+00 -0.00000000000E+00  0.11368683772E-12  0.17120000000E+03  0.17120000000E+03 0.  0.
         13    1    1    2    0    0 -0.44070495350E+02 -0.41446536991E+02  0.21185576932E+03  0.22032453824E+03  0.10566000000E+00 0. -1.
        994    1    1    2    0    0  0.70862514878E+02  0.44807964077E+02  0.30678296947E+02  0.19307989943E+03  0.17120000000E+03 0.  0.
        998    1    1    2    0    0 -0.26792019528E+02 -0.33614270863E+01  0.12574659300E+04  0.12577955623E+04  0.10000000000E+02 0. -1.
</event>
<event>
 5    1  0.1087513E-008  0.3731813E+03  0.7957747E-01  0.3481397E+00
         13   -1    0    0    0    0  0.00000000000E+00  0.00000000000E+00  0.14999999963E+04  0.15000000000E+04  0.10566000000E+00 0. -1.
        994   -1    0    0    0    0 -0.00000000000E+00 -0.00000000000E+00  0.11368683772E-12  0.17120000000E+03  0.17120000000E+03 0.  0.
         13    1    1    2    0    0  0.17143962700E+02  0.27692648171E+00  0.15171148539E+02  0.22894694961E+02  0.10566000000E+00 0. -1.
        994    1    1    2    0    0 -0.31909464932E+02 -0.39908793440E+02  0.16598704715E+02  0.17943211180E+03  0.17120000000E+03 0.  0.
        998    1    1    2    0    0  0.14765502232E+02  0.39631866958E+02  0.14682301430E+04  0.14688731932E+04  0.10000000000E+02 0. -1.
</event>
<event>
 5    1  0.1087513E-008  0.3771600E+03  0.7957747E-01  0.3463618E+00
         13   -1    0    0    0    0  0.00000000000E+00  0.00000000000E+00  0.14999999963E+04  0.15000000000E+04  0.10566000000E+00 0.  1.
        994   -1    0    0    0    0 -0.00000000000E+00 -0.00000000000E+00  0.11368683772E-12  0.17120000000E+03  0.17120000000E+03 0.  0.
         13    1    1    2    0    0 -0.31947794633E+02  0.69074736529E+01  0.97548179933E+02  0.10287873126E+03  0.10566000000E+00 0.  1.
        994    1    1    2    0    0  0.11562833562E+02 -0.61252415147E+00  0.60262295284E+01  0.17169691246E+03  0.17120000000E+03 0.  0.
        998    1    1    2    0    0  0.20384961071E+02 -0.62949495014E+01  0.13964255868E+04  0.13966243563E+04  0.10000000000E+02 0.  1.
</event>
<event>
 5    1  0.1087513E-008  0.3793725E+03  0.7957747E-01  0.3453895E+00
         13   -1    0    0    0    0  0.00000000000E+00  0.00000000000E+00  0.14999999963E+04  0.15000000000E+04  0.10566000000E+00 0. -1.
        994   -1    0    0    0    0 -0.00000000000E+00 -0.00000000000E+00  0.11368683772E-12  0.17120000000E+03  0.17120000000E+03 0.  0.
         13    1    1    2    0    0 -0.18363003465E+00  0.42208266203E+02  0.22523404681E+03  0.22915487877E+03  0.10566000000E+00 0. -1.
        994    1    1    2    0    0 -0.54552862061E+01 -0.82703557721E+01  0.47790992285E+01  0.17155302015E+03  0.17120000000E+03 0.  0.
        998    1    1    2    0    0  0.56389162408E+01 -0.33937910431E+02  0.12699868502E+04  0.12704921011E+04  0.10000000000E+02 0. -1.
</event>
<event>
 5    1  0.1087513E-008  0.3845355E+03  0.7957747E-01  0.3431645E+00
         13   -1    0    0    0    0  0.00000000000E+00  0.00000000000E+00  0.14999999963E+04  0.15000000000E+04  0.10566000000E+00 0. -1.
        994   -1    0    0    0    0 -0.00000000000E+00 -0.00000000000E+00  0.11368683772E-12  0.17120000000E+03  0.17120000000E+03 0.  0.
         13    1    1    2    0    0 -0.12606715714E+02 -0.18984192372E+02  0.13308547398E+03  0.13502252919E+03  0.10566000000E+00 0. -1.
        994    1    1    2    0    0  0.13245000149E+02  0.14513973700E+02  0.31335745880E+01  0.17235238539E+03  0.17120000000E+03 0.  0.
        998    1    1    2    0    0 -0.63828443512E+00  0.44702186720E+01  0.13637809477E+04  0.13638250854E+04  0.10000000000E+02 0. -1.
</event>
<event>
 5    1  0.1087513E-008  0.3849301E+03  0.7957747E-01  0.3429969E+00
         13   -1    0    0    0    0  0.00000000000E+00  0.00000000000E+00  0.14999999963E+04  0.15000000000E+04  0.10566000000E+00 0. -1.
        994   -1    0    0    0    0 -0.00000000000E+00 -0.00000000000E+00  0.11368683772E-12  0.17120000000E+03  0.17120000000E+03 0.  0.
         13    1    1    2    0    0 -0.12653766555E+02 -0.10091015966E+02  0.75907247492E+02  0.77613579979E+02  0.10566000000E+00 0. -1.
        994    1    1    2    0    0  0.27039779146E+01  0.22583077630E+02  0.33683391305E+01  0.17273706203E+03  0.17120000000E+03 0.  0.
        998    1    1    2    0    0  0.99497886405E+01 -0.12492061664E+02  0.14207244097E+04  0.14208493580E+04  0.10000000000E+02 0. -1.
</event>
<event>
 5    1  0.1087513E-008  0.3857933E+03  0.7957747E-01  0.3426315E+00
         13   -1    0    0    0    0  0.00000000000E+00  0.00000000000E+00  0.14999999963E+04  0.15000000000E+04  0.10566000000E+00 0. -1.
        994   -1    0    0    0    0 -0.00000000000E+00 -0.00000000000E+00  0.11368683772E-12  0.17120000000E+03  0.17120000000E+03 0.  0.
         13    1    1    2    0    0  0.10854688569E+01 -0.10148232314E+02  0.42996229832E+02  0.44191082873E+02  0.10566000000E+00 0. -1.
        994    1    1    2    0    0 -0.48552920281E+01  0.42067847296E+01  0.13721919055E+01  0.17132598696E+03  0.17120000000E+03 0.  0.
        998    1    1    2    0    0  0.37698231712E+01  0.59414475843E+01  0.14556315745E+04  0.14556829302E+04  0.10000000000E+02 0. -1.
</event>
<event>
 5    1  0.1087513E-008  0.3854851E+03  0.7957747E-01  0.3427617E+00
         13   -1    0    0    0    0  0.00000000000E+00  0.00000000000E+00  0.14999999963E+04  0.15000000000E+04  0.10566000000E+00 0. -1.
        994   -1    0    0    0    0 -0.00000000000E+00 -0.00000000000E+00  0.11368683772E-12  0.17120000000E+03  0.17120000000E+03 0.  0.
         13    1    1    2    0    0 -0.11240212667E+02 -0.31404424348E+01  0.46959417793E+02  0.48388044422E+02  0.10566000000E+00 0. -1.
        994    1    1    2    0    0  0.19100221374E+02 -0.84476248911E+01  0.28229845718E+01  0.17249228987E+03  0.17120000000E+03 0.  0.
        998    1    1    2    0    0 -0.78600087067E+01  0.11588067326E+02  0.14502175939E+04  0.14503196657E+04  0.10000000000E+02 0. -1.
</event>
<event>
 5    1  0.1087513E-008  0.3856373E+03  0.7957747E-01  0.3426974E+00
         13   -1    0    0    0    0  0.00000000000E+00  0.00000000000E+00  0.14999999963E+04  0.15000000000E+04  0.10566000000E+00 0.  1.
        994   -1    0    0    0    0 -0.00000000000E+00 -0.00000000000E+00  0.11368683772E-12  0.17120000000E+03  0.17120000000E+03 0.  0.
         13    1    1    2    0    0  0.98880286256E+01 -0.79000837209E+01  0.60858311436E+02  0.62160515344E+02  0.10566000000E+00 0.  1.
        994    1    1    2    0    0 -0.81584003376E+01  0.52133557826E+01  0.16217526425E+01  0.17148121954E+03  0.17120000000E+03 0.  0.
        998    1    1    2    0    0 -0.17296282880E+01  0.26867279384E+01  0.14375199322E+04  0.14375582651E+04  0.10000000000E+02 0.  1.
</event>
<event>
 5    1  0.1087513E-008  0.3695179E+03  0.7957747E-01  0.3498110E+00
         13   -1    0    0    0    0  0.00000000000E+00  0.00000000000E+00  0.14999999963E+04  0.15000000000E+04  0.10566000000E+00 0. -1.
        994   -1    0    0    0    0 -0.00000000000E+00 -0.00000000000E+00  0.11368683772E-12  0.17120000000E+03  0.17120000000E+03 0.  0.
         13    1    1    2    0    0 -0.19925416879E+02 -0.27440841064E+02  0.51820135914E+02  0.61930280528E+02  0.10566000000E+00 0. -1.
        994    1    1    2    0    0  0.13001075081E+02  0.63256636617E+00  0.11275635809E+02  0.17206396501E+03  0.17120000000E+03 0.  0.
        998    1    1    2    0    0  0.69243417973E+01  0.26808274697E+02  0.14369042246E+04  0.14372057545E+04  0.10000000000E+02 0. -1.
</event>
<event>
 5    1  0.1087513E-008  0.3829247E+03  0.7957747E-01  0.3438522E+00
         13   -1    0    0    0    0  0.00000000000E+00  0.00000000000E+00  0.14999999963E+04  0.15000000000E+04  0.10566000000E+00 0. -1.
        994   -1    0    0    0    0 -0.00000000000E+00 -0.00000000000E+00  0.11368683772E-12  0.17120000000E+03  0.17120000000E+03 0.  0.
         13    1    1    2    0    0  0.13568542038E+02 -0.22223952474E+02  0.13480883596E+03  0.13730055650E+03  0.10566000000E+00 0. -1.
        994    1    1    2    0    0 -0.35421168770E+01  0.61336259795E+01  0.28301482103E+01  0.17136982727E+03  0.17120000000E+03 0.  0.
        998    1    1    2    0    0 -0.10026425161E+02  0.16090326494E+02  0.13623610121E+04  0.13625296162E+04  0.10000000000E+02 0. -1.
</event>
<event>
 5    1  0.1087513E-008  0.3849709E+03  0.7957747E-01  0.3429795E+00
         13   -1    0    0    0    0  0.00000000000E+00  0.00000000000E+00  0.14999999963E+04  0.15000000000E+04  0.10566000000E+00 0.  1.
        994   -1    0    0    0    0 -0.00000000000E+00 -0.00000000000E+00  0.11368683772E-12  0.17120000000E+03  0.17120000000E+03 0.  0.
         13    1    1    2    0    0  0.83189957034E+01 -0.17152671089E+02  0.10007986409E+03  0.10187939034E+03  0.10566000000E+00 0.  1.
        994    1    1    2    0    0 -0.91417629554E+01  0.23396282999E+02  0.37225117950E+01  0.17307297589E+03  0.17120000000E+03 0.  0.
        998    1    1    2    0    0  0.82276725197E+00 -0.62436119103E+01  0.13961976204E+04  0.13962476338E+04  0.10000000000E+02 0.  1.
</event>
<event>
 5    1  0.1087513E-008  0.3785392E+03  0.7957747E-01  0.3457544E+00
         13   -1    0    0    0    0  0.00000000000E+00  0.00000000000E+00  0.14999999963E+04  0.15000000000E+04  0.10566000000E+00 0. -1.
        994   -1    0    0    0    0 -0.00000000000E+00 -0.00000000000E+00  0.11368683772E-12  0.17120000000E+03  0.17120000000E+03 0.  0.
         13    1    1    2    0    0 -0.79561270278E+01 -0.55031090754E+02  0.24870809103E+03  0.25484788917E+03  0.10566000000E+00 0. -1.
        994    1    1    2    0    0  0.44755469436E+02  0.59651787311E+02  0.23786915922E+02  0.18824623540E+03  0.17120000000E+03 0.  0.
        998    1    1    2    0    0 -0.36799342408E+02 -0.46206965569E+01  0.12275049893E+04  0.12281058754E+04  0.10000000000E+02 0. -1.
</event>
<event>
 5    1  0.1087513E-008  0.3839613E+03  0.7957747E-01  0.3434089E+00
         13   -1    0    0    0    0  0.00000000000E+00  0.00000000000E+00  0.14999999963E+04  0.15000000000E+04  0.10566000000E+00 0. -1.
        994   -1    0    0    0    0 -0.00000000000E+00 -0.00000000000E+00  0.11368683772E-12  0.17120000000E+03  0.17120000000E+03 0.  0.
         13    1    1    2    0    0  0.11752179357E+02  0.27724594208E+01  0.33620284481E+02  0.35723030995E+02  0.10566000000E+00 0. -1.
        994    1    1    2    0    0 -0.51254570405E+01 -0.66191455704E+01  0.23780016742E+01  0.17142105556E+03  0.17120000000E+03 0.  0.
        998    1    1    2    0    0 -0.66267223160E+01  0.38466861496E+01  0.14640017101E+04  0.14640559134E+04  0.10000000000E+02 0. -1.
</event>
<event>
 5    1  0.1087513E-008  0.3789658E+03  0.7957747E-01  0.3455674E+00
         13   -1    0    0    0    0  0.00000000000E+00  0.00000000000E+00  0.14999999963E+04  0.15000000000E+04  0.10566000000E+00 0.  1.
        994   -1    0    0    0    0 -0.00000000000E+00 -0.00000000000E+00  0.11368683772E-12  0.17120000000E+03  0.17120000000E+03 0.  0.
         13    1    1    2    0    0 -0.10885083086E+02  0.37370280283E+01  0.12506188283E+02  0.16996067830E+02  0.10566000000E+00 0.  1.
        994    1    1    2    0    0 -0.22988753456E+01  0.30912072493E+01  0.47059114102E+01  0.17130798578E+03  0.17120000000E+03 0.  0.
        998    1    1    2    0    0  0.13183958432E+02 -0.68282352776E+01  0.14827878966E+04  0.14828959464E+04  0.10000000000E+02 0.  1.
</event>
<event>
 5    1  0.1270829E-008  0.3857534E+03  0.7957747E-01  0.3426483E+00
         13   -1    0    0    0    0  0.00000000000E+00  0.00000000000E+00  0.14999999963E+04  0.15000000000E+04  0.10566000000E+00 0.  1.
        994   -1    0    0    0    0 -0.00000000000E+00 -0.00000000000E+00  0.11368683772E-12  0.17120000000E+03  0.17120000000E+03 0.  0.
         13    1    1    2    0    0 -0.82984714678E+01  0.56006529351E+01  0.39419970708E+02  0.40671577258E+02  0.10566000000E+00 0.  1.
        994    1    1    2    0    0  0.71973154176E+01 -0.73099753119E+01  0.16018460407E+01  0.17151455623E+03  0.17120000000E+03 0.  0.
        998    1    1    2    0    0  0.11011560502E+01  0.17093223768E+01  0.14589781795E+04  0.14590138665E+04  0.10000000000E+02 0.  1.
</event>
<event>
 5    1  0.1087513E-008  0.3822914E+03  0.7957747E-01  0.3441241E+00
         13   -1    0    0    0    0  0.00000000000E+00  0.00000000000E+00  0.14999999963E+04  0.15000000000E+04  0.10566000000E+00 0. -1.
        994   -1    0    0    0    0 -0.00000000000E+00 -0.00000000000E+00  0.11368683772E-12  0.17120000000E+03  0.17120000000E+03 0.  0.
         13    1    1    2    0    0 -0.26283676207E+02 -0.32569316552E+01  0.12532172115E+03  0.12808975055E+03  0.10566000000E+00 0. -1.
        994    1    1    2    0    0  0.75158967986E+01 -0.13757342653E+02  0.37966814555E+01  0.17195815762E+03  0.17120000000E+03 0.  0.
        998    1    1    2    0    0  0.18767779409E+02  0.17014274308E+02  0.13708815937E+04  0.13711520918E+04  0.10000000000E+02 0. -1.
</event>
<event>
 5    1  0.1087513E-008  0.3810643E+03  0.7957747E-01  0.3446537E+00
         13   -1    0    0    0    0  0.00000000000E+00  0.00000000000E+00  0.14999999963E+04  0.15000000000E+04  0.10566000000E+00 0.  1.
        994   -1    0    0    0    0 -0.00000000000E+00 -0.00000000000E+00  0.11368683772E-12  0.17120000000E+03  0.17120000000E+03 0.  0.
         13    1    1    2    0    0  0.26383607711E+02  0.16094824339E+02  0.14396635044E+03  0.14724625411E+03  0.10566000000E+00 0.  1.
        994    1    1    2    0    0 -0.87882895303E+01  0.48438058523E+01  0.39323745387E+01  0.17153891703E+03  0.17120000000E+03 0.  0.
        998    1    1    2    0    0 -0.17595318181E+02 -0.20938630191E+02  0.13521012713E+04  0.13524148289E+04  0.10000000000E+02 0.  1.
</event>
<event>
 5    1  0.1087513E-008  0.3799878E+03  0.7957747E-01  0.3451211E+00
         13   -1    0    0    0    0  0.00000000000E+00  0.00000000000E+00  0.14999999963E+04  0.15000000000E+04  0.10566000000E+00 0. -1.
        994   -1    0    0    0    0 -0.00000000000E+00 -0.00000000000E+00  0.11368683772E-12  0.17120000000E+03  0.17120000000E+03 0.  0.
         13    1    1    2    0    0 -0.90804782107E+01  0.11692690903E+02  0.24451710248E+02  0.28584460869E+02  0.10566000000E+00 0. -1.
        994    1    1    2    0    0  0.10575920007E+02 -0.10829431134E+02  0.49056310671E+01  0.17193787215E+03  0.17120000000E+03 0.  0.
        998    1    1    2    0    0 -0.14954417965E+01 -0.86325976858E+00  0.14706426550E+04  0.14706776670E+04  0.10000000000E+02 0. -1.
</event>
<event>
 5    1  0.1087513E-008  0.3837552E+03  0.7957747E-01  0.3434969E+00
         13   -1    0    0    0    0  0.00000000000E+00  0.00000000000E+00  0.14999999963E+04  0.15000000000E+04  0.10566000000E+00 0. -1.
        994   -1    0    0    0    0 -0.00000000000E+00 -0.00000000000E+00  0.11368683772E-12  0.17120000000E+03  0.17120000000E+03 0.  0.
         13    1    1    2    0    0 -0.11860593349E+02 -0.48845271792E+01  0.36222911030E+02  0.38427109284E+02  0.10566000000E+00 0. -1.
        994    1    1    2    0    0  0.66302415809E+01  0.19196735047E+01  0.24067730195E+01  0.17135599729E+03  0.17120000000E+03 0.  0.
        998    1    1    2    0    0  0.52303517685E+01  0.29648536745E+01  0.14613703122E+04  0.14614168934E+04  0.10000000000E+02 0. -1.
</event>
<event>
 5    1  0.1087513E-008  0.3749396E+03  0.7957747E-01  0.3473493E+00
         13   -1    0    0    0    0  0.00000000000E+00  0.00000000000E+00  0.14999999963E+04  0.15000000000E+04  0.10566000000E+00 0.  1.
        994   -1    0    0    0    0 -0.00000000000E+00 -0.00000000000E+00  0.11368683772E-12  0.17120000000E+03  0.17120000000E+03 0.  0.
         13    1    1    2    0    0 -0.36400478526E+02  0.12255535718E+02  0.12582842291E+03  0.13155985774E+03  0.10566000000E+00 0.  1.
        994    1    1    2    0    0 -0.10358784165E+02 -0.73591744923E+00  0.70765197421E+01  0.17166060444E+03  0.17120000000E+03 0.  0.
        998    1    1    2    0    0  0.46759262691E+02 -0.11519618268E+02  0.13670950536E+04  0.13679795378E+04  0.10000000000E+02 0.  1.
</event>
<event>
 5    1  0.1087513E-008  0.3836376E+03  0.7957747E-01  0.3435471E+00
         13   -1    0    0    0    0  0.00000000000E+00  0.00000000000E+00  0.14999999963E+04  0.15000000000E+04  0.10566000000E+00 0. -1.
        994   -1    0    0    0    0 -0.00000000000E+00 -0.00000000000E+00  0.11368683772E-12  0.17120000000E+03  0.17120000000E+03 0.  0.
         13    1    1    2    0    0  0.10713943501E+02 -0.39494004486E+01  0.28914012656E+02  0.31087258502E+02  0.10566000000E+00 0. -1.
        994    1    1    2    0    0  0.37280435606E+01 -0.50329443727E+01  0.24376306619E+01  0.17133187351E+03  0.17120000000E+03 0.  0.
        998    1    1    2    0    0 -0.14441987061E+02  0.89823448213E+01  0.14686483530E+04  0.14687808680E+04  0.10000000000E+02 0. -1.
</event>
<event>
 5    1  0.1087513E-008  0.3717660E+03  0.7957747E-01  0.3487814E+00
         13   -1    0    0    0    0  0.00000000000E+00  0.00000000000E+00  0.14999999963E+04  0.15000000000E+04  0.10566000000E+00 0.  1.
        994   -1    0    0    0    0 -0.00000000000E+00 -0.00000000000E+00  0.11368683772E-12  0.17120000000E+03  0.17120000000E+03 0.  0.
         13    1    1    2    0    0 -0.15841635962E+01  0.33669802711E+02  0.70605732255E+02  0.78239029776E+02  0.10566000000E+00 0.  1.
        994    1    1    2    0    0  0.79938869103E+01  0.36365122949E+01  0.86140225533E+01  0.17164139313E+03  0.17120000000E+03 0.  0.
        998    1    1    2    0    0 -0.64097233140E+01 -0.37306315006E+02  0.14207802415E+04  0.14213195771E+04  0.10000000000E+02 0.  1.
</event>
<event>
 5    1  0.1087513E-008  0.3857017E+03  0.7957747E-01  0.3426702E+00
         13   -1    0    0    0    0  0.00000000000E+00  0.00000000000E+00  0.14999999963E+04  0.15000000000E+04  0.10566000000E+00 0.  1.
        994   -1    0    0    0    0 -0.00000000000E+00 -0.00000000000E+00  0.11368683772E-12  0.17120000000E+03  0.17120000000E+03 0.  0.
         13    1    1    2    0    0  0.56631526398E+01  0.11023435597E+02  0.64396095440E+02  0.65577859847E+02  0.10566000000E+00 0.  1.
        994    1    1    2    0    0 -0.57416967493E+01  0.38093820767E+01  0.14379676060E+01  0.17134464166E+03  0.17120000000E+03 0.  0.
        998    1    1    2    0    0  0.78544109418E-01 -0.14832817674E+02  0.14341659332E+04  0.14342774985E+04  0.10000000000E+02 0.  1.
</event>
<event>
 5    1  0.1087513E-008  0.3711102E+03  0.7957747E-01  0.3490804E+00
         13   -1    0    0    0    0  0.00000000000E+00  0.00000000000E+00  0.14999999963E+04  0.15000000000E+04  0.10566000000E+00 0.  1.
        994   -1    0    0    0    0 -0.00000000000E+00 -0.00000000000E+00  0.11368683772E-12  0.17120000000E+03  0.17120000000E+03 0.  0.
         13    1    1    2    0    0  0.28504373084E+02  0.14228139712E+02  0.54802682458E+02  0.63389939369E+02  0.10566000000E+00 0.  1.
        994    1    1    2    0    0 -0.89032712352E+01 -0.32647704618E+02  0.12644540766E+02  0.17496989817E+03  0.17120000000E+03 0.  0.
        998    1    1    2    0    0 -0.19601101849E+02  0.18419564906E+02  0.14325527731E+04  0.14328401625E+04  0.10000000000E+02 0.  1.
</event>
<event>
 5    1  0.1087513E-008  0.3847788E+03  0.7957747E-01  0.3430611E+00
         13   -1    0    0    0    0  0.00000000000E+00  0.00000000000E+00  0.14999999963E+04  0.15000000000E+04  0.10566000000E+00 0.  1.
        994   -1    0    0    0    0 -0.00000000000E+00 -0.00000000000E+00  0.11368683772E-12  0.17120000000E+03  0.17120000000E+03 0.  0.
         13    1    1    2    0    0  0.82091498061E+02  0.27563407263E+02  0.36994007992E+03  0.37994003392E+03  0.10566000000E+00 0.  1.
        994    1    1    2    0    0  0.68840584434E+02 -0.51112436109E+02  0.46627962811E+02  0.19706626831E+03  0.17120000000E+03 0.  0.
        998    1    1    2    0    0 -0.15093208250E+03  0.23549028846E+02  0.10834319535E+04  0.10941936978E+04  0.10000000000E+02 0.  1.
</event>
<event>
 5    1  0.1087513E-008  0.3802316E+03  0.7957747E-01  0.3450151E+00
         13   -1    0    0    0    0  0.00000000000E+00  0.00000000000E+00  0.14999999963E+04  0.15000000000E+04  0.10566000000E+00 0.  1.
        994   -1    0    0    0    0 -0.00000000000E+00 -0.00000000000E+00  0.11368683772E-12  0.17120000000E+03  0.17120000000E+03 0.  0.
         13    1    1    2    0    0 -0.73577927693E+01 -0.72738173424E+01  0.11442731726E+02  0.15427015478E+02  0.10566000000E+00 0.  1.
        994    1    1    2    0    0  0.75941225862E+01  0.94647724066E+01  0.45083304863E+01  0.17168872315E+03  0.17120000000E+03 0.  0.
        998    1    1    2    0    0 -0.23632981692E+00 -0.21909550641E+01  0.14840489341E+04  0.14840842614E+04  0.10000000000E+02 0.  1.
</event>
<event>
 5    1  0.1087513E-008  0.3855034E+03  0.7957747E-01  0.3427540E+00
         13   -1    0    0    0    0  0.00000000000E+00  0.00000000000E+00  0.14999999963E+04  0.15000000000E+04  0.10566000000E+00 0.  1.
        994   -1    0    0    0    0 -0.00000000000E+00 -0.00000000000E+00  0.11368683772E-12  0.17120000000E+03  0.17120000000E+03 0.  0.
         13    1    1    2    0    0 -0.34769415768E+02 -0.26419860245E+03  0.10813721348E+04  0.11137214728E+04  0.10566000000E+00 0.  1.
        994    1    1    2    0    0  0.30769238459E+02  0.27430865706E+03  0.31385920280E+03  0.45167358187E+03  0.17120000000E+03 0.  0.
        998    1    1    2    0    0  0.40001773091E+01 -0.10110054610E+02  0.10476865864E+03  0.10580494533E+03  0.10000000000E+02 0.  1.
</event>
<event>
 5    1  0.1087513E-008  0.3847640E+03  0.7957747E-01  0.3430674E+00
         13   -1    0    0    0    0  0.00000000000E+00  0.00000000000E+00  0.14999999963E+04  0.15000000000E+04  0.10566000000E+00 0.  1.
        994   -1    0    0    0    0 -0.00000000000E+00 -0.00000000000E+00  0.11368683772E-12  0.17120000000E+03  0.17120000000E+03 0.  0.
         13    1    1    2    0    0  0.52524207070E+01  0.13611606020E+02  0.58317379232E+02  0.60114820354E+02  0.10566000000E+00 0.  1.
        994    1    1    2    0    0 -0.90526285996E+01 -0.14548750108E+02  0.27143029613E+01  0.17207679581E+03  0.17120000000E+03 0.  0.
        998    1    1    2    0    0  0.38002078926E+01  0.93714408770E+00  0.14389683141E+04  0.14390083838E+04  0.10000000000E+02 0.  1.
</event>
<event>
 5    1  0.1087513E-008  0.3740869E+03  0.7957747E-01  0.3477316E+00
         13   -1    0    0    0    0  0.00000000000E+00  0.00000000000E+00  0.14999999963E+04  0.15000000000E+04  0.10566000000E+00 0.  1.
        994   -1    0    0    0    0 -0.00000000000E+00 -0.00000000000E+00  0.11368683772E-12  0.17120000000E+03  0.17120000000E+03 0.  0.
         13    1    1    2    0    0  0.23812462413E+01 -0.91480264121E+02  0.52150078354E+03  0.52946896741E+03  0.10566000000E+00 0.  1.
        994    1    1    2    0    0 -0.34944394711E+01  0.63564707410E+02  0.21095054080E+02  0.18386713802E+03  0.17120000000E+03 0.  0.
        998    1    1    2    0    0  0.11131932298E+01  0.27915556711E+02  0.95740415866E+03  0.95786389457E+03  0.10000000000E+02 0.  1.
</event>
<event>
 5    1  0.1087513E-008  0.3856629E+03  0.7957747E-01  0.3426866E+00
         13   -1    0    0    0    0  0.00000000000E+00  0.00000000000E+00  0.14999999963E+04  0.15000000000E+04  0.10566000000E+00 0. -1.
        994   -1    0    0    0    0 -0.00000000000E+00 -0.00000000000E+00  0.11368683772E-12  0.17120000000E+03  0.17120000000E+03 0.  0.
         13    1    1    2    0    0 -0.42773885631E+01 -0.14239017169E+02  0.79640578008E+02  0.81016532216E+02  0.10566000000E+00 0. -1.
        994    1    1    2    0    0  0.10550642779E+02  0.16646663700E+02  0.25770994259E+01  0.17234996059E+03  0.17120000000E+03 0.  0.
        998    1    1    2    0    0 -0.62732542162E+01 -0.24076465302E+01  0.14177823188E+04  0.14178335072E+04  0.10000000000E+02 0. -1.
</event>
<event>
 5    1  0.1087513E-008  0.3806556E+03  0.7957747E-01  0.3448309E+00
         13   -1    0    0    0    0  0.00000000000E+00  0.00000000000E+00  0.14999999963E+04  0.15000000000E+04  0.10566000000E+00 0. -1.
        994   -1    0    0    0    0 -0.00000000000E+00 -0.00000000000E+00  0.11368683772E-12  0.17120000000E+03  0.17120000000E+03 0.  0.
         13    1    1    2    0    0 -0.16876986281E+02 -0.17797344068E+02  0.87473712039E+02  0.90847342194E+02  0.10566000000E+00 0. -1.
        994    1    1    2    0    0 -0.68138759329E+01 -0.43702844759E+01  0.40211843222E+01  0.17143843856E+03  0.17120000000E+03 0.  0.
        998    1    1    2    0    0  0.23690862214E+02  0.22167628543E+02  0.14085050999E+04  0.14089142192E+04  0.10000000000E+02 0. -1.
</event>
<event>
 5    1  0.1087513E-008  0.3782653E+03  0.7957747E-01  0.3458747E+00
         13   -1    0    0    0    0  0.00000000000E+00  0.00000000000E+00  0.14999999963E+04  0.15000000000E+04  0.10566000000E+00 0. -1.
        994   -1    0    0    0    0 -0.00000000000E+00 -0.00000000000E+00  0.11368683772E-12  0.17120000000E+03  0.17120000000E+03 0.  0.
         13    1    1    2    0    0 -0.24112187308E+02 -0.13186241684E+02  0.77927939247E+02  0.82632012113E+02  0.10566000000E+00 0. -1.
        994    1    1    2    0    0  0.10338277217E+01  0.54208726106E+01  0.51137950035E+01  0.17136524023E+03  0.17120000000E+03 0.  0.
        998    1    1    2    0    0  0.23078359586E+02  0.77653690734E+01  0.14169582620E+04  0.14172027477E+04  0.10000000000E+02 0. -1.
</event>
<event>
 5    1  0.1087513E-008  0.3815419E+03  0.7957747E-01  0.3444472E+00
         13   -1    0    0    0    0  0.00000000000E+00  0.00000000000E+00  0.14999999963E+04  0.15000000000E+04  0.10566000000E+00 0.  1.
        994   -1    0    0    0    0 -0.00000000000E+00 -0.00000000000E+00  0.11368683772E-12  0.17120000000E+03  0.17120000000E+03 0.  0.
         13    1    1    2    0    0  0.27069640179E+02 -0.82018075133E+01  0.12705484874E+03  0.13016520586E+03  0.10566000000E+00 0.  1.
        994    1    1    2    0    0 -0.83285481155E+01 -0.77520250855E+01  0.37875363575E+01  0.17161947453E+03  0.17120000000E+03 0.  0.
        998    1    1    2    0    0 -0.18741092063E+02  0.15953832599E+02  0.13691576112E+04  0.13694153196E+04  0.10000000000E+02 0.  1.
</event>
<event>
 5    1  0.1087513E-008  0.3779457E+03  0.7957747E-01  0.3460153E+00
         13   -1    0    0    0    0  0.00000000000E+00  0.00000000000E+00  0.14999999963E+04  0.15000000000E+04  0.10566000000E+00 0.  1.
        994   -1    0    0    0    0 -0.00000000000E+00 -0.00000000000E+00  0.11368683772E-12  0.17120000000E+03  0.17120000000E+03 0.  0.
         13    1    1    2    0    0  0.11004059509E+02  0.49250885398E+00  0.94473441890E+01  0.14511904317E+02  0.10566000000E+00 0.  1.
        994    1    1    2    0    0 -0.59039404069E+01  0.17994109085E+01  0.53019931457E+01  0.17139324818E+03  0.17120000000E+03 0.  0.
        998    1    1    2    0    0 -0.51001191022E+01 -0.22919197625E+01  0.14852506589E+04  0.14852948475E+04  0.10000000000E+02 0.  1.
</event>
<event>
 5    1  0.1087513E-008  0.3852885E+03  0.7957747E-01  0.3428449E+00
         13   -1    0    0    0    0  0.00000000000E+00  0.00000000000E+00  0.14999999963E+04  0.15000000000E+04  0.10566000000E+00 0.  1.
        994   -1    0    0    0    0 -0.00000000000E+00 -0.00000000000E+00  0.11368683772E-12  0.17120000000E+03  0.17120000000E+03 0.  0.
         13    1    1    2    0    0  0.87596364121E+02  0.13925292484E+03  0.98694219141E+03  0.10005595437E+04  0.10566000000E+00 0.  1.
        994    1    1    2    0    0 -0.95048265247E+02 -0.16342353350E+03  0.12936121426E+03  0.28598109690E+03  0.17120000000E+03 0.  0.
        998    1    1    2    0    0  0.74519011259E+01  0.24170608662E+02  0.38369659060E+03  0.38465935943E+03  0.10000000000E+02 0. -1.
</event>
<event>
 5    1  0.1087513E-008  0.3859840E+03  0.7957747E-01  0.3425510E+00
         13   -1    0    0    0    0  0.00000000000E+00  0.00000000000E+00  0.14999999963E+04  0.15000000000E+04  0.10566000000E+00 0. -1.
        994   -1    0    0    0    0 -0.00000000000E+00 -0.00000000000E+00  0.11368683772E-12  0.17120000000E+03  0.17120000000E+03 0.  0.
         13    1    1    2    0    0 -0.10148058505E+02 -0.24252424283E+01  0.50405563955E+02  0.51474235632E+02  0.10566000000E+00 0. -1.
        994    1    1    2    0    0  0.17960511256E+01 -0.59849317928E+01  0.12703943551E+01  0.17131870625E+03  0.17120000000E+03 0.  0.
        998    1    1    2    0    0  0.83520073795E+01  0.84101742211E+01  0.14483240380E+04  0.14484070581E+04  0.10000000000E+02 0. -1.
</event>
<event>
 5    1  0.1087513E-008  0.3853521E+03  0.7957747E-01  0.3428180E+00
         13   -1    0    0    0    0  0.00000000000E+00  0.00000000000E+00  0.14999999963E+04  0.15000000000E+04  0.10566000000E+00 0.  1.
        994   -1    0    0    0    0 -0.00000000000E+00 -0.00000000000E+00  0.11368683772E-12  0.17120000000E+03  0.17120000000E+03 0.  0.
         13    1    1    2    0    0  0.41094057951E+01 -0.14003371079E+02  0.81568996041E+02  0.82864310151E+02  0.10566000000E+00 0.  1.
        994    1    1    2    0    0 -0.11538185772E+02 -0.74695539687E+01  0.20762769162E+01  0.17176342711E+03  0.17120000000E+03 0.  0.
        998    1    1    2    0    0  0.74287799766E+01  0.21472925048E+02  0.14163547233E+04  0.14165722627E+04  0.10000000000E+02 0.  1.
</event>
<event>
 5    1  0.1087513E-008  0.3805516E+03  0.7957747E-01  0.3448760E+00
         13   -1    0    0    0    0  0.00000000000E+00  0.00000000000E+00  0.14999999963E+04  0.15000000000E+04  0.10566000000E+00 0. -1.
        994   -1    0    0    0    0 -0.00000000000E+00 -0.00000000000E+00  0.11368683772E-12  0.17120000000E+03  0.17120000000E+03 0.  0.
         13    1    1    2    0    0 -0.31603888811E+02 -0.23865624778E+02  0.21287734824E+03  0.21652979101E+03  0.10566000000E+00 0. -1.
        994    1    1    2    0    0  0.38029674598E+01  0.22738787763E+02  0.56305507371E+01  0.17283708552E+03  0.17120000000E+03 0.  0.
        998    1    1    2    0    0  0.27800921351E+02  0.11268370146E+01  0.12814920973E+04  0.12818331235E+04  0.10000000000E+02 0. -1.
</event>
<event>
 5    1  0.1087513E-008  0.3807462E+03  0.7957747E-01  0.3447916E+00
         13   -1    0    0    0    0  0.00000000000E+00  0.00000000000E+00  0.14999999963E+04  0.15000000000E+04  0.10566000000E+00 0.  1.
        994   -1    0    0    0    0 -0.00000000000E+00 -0.00000000000E+00  0.11368683772E-12  0.17120000000E+03  0.17120000000E+03 0.  0.
         13    1    1    2    0    0  0.32774678250E+02  0.27662071843E+02  0.21102540677E+03  0.21533950687E+03  0.10566000000E+00 0.  1.
        994    1    1    2    0    0 -0.35215271928E+02 -0.25147643912E+02  0.10026561331E+02  0.17686857071E+03  0.17120000000E+03 0.  0.
        998    1    1    2    0    0  0.24405936780E+01 -0.25144279310E+01  0.12789480282E+04  0.12789919224E+04  0.10000000000E+02 0.  1.
</event>
<event>
 5    1  0.1087513E-008  0.3802410E+03  0.7957747E-01  0.3450110E+00
         13   -1    0    0    0    0  0.00000000000E+00  0.00000000000E+00  0.14999999963E+04  0.15000000000E+04  0.10566000000E+00 0.  1.
        994   -1    0    0    0    0 -0.00000000000E+00 -0.00000000000E+00  0.11368683772E-12  0.17120000000E+03  0.17120000000E+03 0.  0.
         13    1    1    2    0    0 -0.28377775335E+02 -0.16467136389E+02  0.14609240672E+03  0.14973131663E+03  0.10566000000E+00 0.  1.
        994    1    1    2    0    0  0.28385635802E+01  0.41929319762E+01  0.40971819386E+01  0.17132386005E+03  0.17120000000E+03 0.  0.
        998    1    1    2    0    0  0.25539211755E+02  0.12274204413E+02  0.13498104076E+04  0.13501448233E+04  0.10000000000E+02 0.  1.
</event>
<event>
 5    1  0.1087513E-008  0.3834235E+03  0.7957747E-01  0.3436386E+00
         13   -1    0    0    0    0  0.00000000000E+00  0.00000000000E+00  0.14999999963E+04  0.15000000000E+04  0.10566000000E+00 0. -1.
        994   -1    0    0    0    0 -0.00000000000E+00 -0.00000000000E+00  0.11368683772E-12  0.17120000000E+03  0.17120000000E+03 0.  0.
         13    1    1    2    0    0 -0.11521884447E+02  0.47090645677E+01  0.31160430799E+02  0.33554622959E+02  0.10566000000E+00 0. -1.
        994    1    1    2    0    0  0.94992246339E+01 -0.27603073848E+01  0.27383973978E+01  0.17150741496E+03  0.17120000000E+03 0.  0.
        998    1    1    2    0    0  0.20226598133E+01 -0.19487571829E+01  0.14661011681E+04  0.14661379621E+04  0.10000000000E+02 0. -1.
</event>
<event>
 5    1  0.1087513E-008  0.3857409E+03  0.7957747E-01  0.3426536E+00
         13   -1    0    0    0    0  0.00000000000E+00  0.00000000000E+00  0.14999999963E+04  0.15000000000E+04  0.10566000000E+00 0.  1.
        994   -1    0    0    0    0 -0.00000000000E+00 -0.00000000000E+00  0.11368683772E-12  0.17120000000E+03  0.17120000000E+03 0.  0.
         13    1    1    2    0    0  0.50880070266E+01 -0.11266123338E+02  0.62555035061E+02  0.63764856512E+02  0.10566000000E+00 0.  1.
        994    1    1    2    0    0 -0.99967120256E+01  0.71094347633E+00  0.15923063521E+01  0.17150048143E+03  0.17120000000E+03 0.  0.
        998    1    1    2    0    0  0.49087049990E+01  0.10555179862E+02  0.14358526549E+04  0.14359346621E+04  0.10000000000E+02 0.  1.
</event>
<event>
 5    1  0.1087513E-008  0.3843296E+03  0.7957747E-01  0.3432520E+00
         13   -1    0    0    0    0  0.00000000000E+00  0.00000000000E+00  0.14999999963E+04  0.15000000000E+04  0.10566000000E+00 0. -1.
        994   -1    0    0    0    0 -0.00000000000E+00 -0.00000000000E+00  0.11368683772E-12  0.17120000000E+03  0.17120000000E+03 0.  0.
         13    1    1    2    0    0  0.17220842887E+02 -0.12469555245E+02  0.11347241278E+03  0.11544716049E+03  0.10566000000E+00 0. -1.
        994    1    1    2    0    0 -0.12598690263E+02  0.78255188144E+01  0.26886406064E+01  0.17186225452E+03  0.17120000000E+03 0.  0.
        998    1    1    2    0    0 -0.46221526244E+01  0.46440364302E+01  0.13838389429E+04  0.13838905850E+04  0.10000000000E+02 0. -1.
</event>
<event>
 5    1  0.1087513E-008  0.3719425E+03  0.7957747E-01  0.3487011E+00
         13   -1    0    0    0    0  0.00000000000E+00  0.00000000000E+00  0.14999999963E+04  0.15000000000E+04  0.10566000000E+00 0. -1.
        994   -1    0    0    0    0 -0.00000000000E+00 -0.00000000000E+00  0.11368683772E-12  0.17120000000E+03  0.17120000000E+03 0.  0.
         13    1    1    2    0    0 -0.46123984943E+02  0.27171223029E+01  0.12346199999E+03  0.13182443380E+03  0.10566000000E+00 0. -1.
        994    1    1    2    0    0  0.34377347351E+02  0.10723791637E+02  0.12724435072E+02  0.17540853162E+03  0.17120000000E+03 0.  0.
        998    1    1    2    0    0  0.11746637592E+02 -0.13440913940E+02  0.13638135612E+04  0.13639670346E+04  0.10000000000E+02 0. -1.
</event>
<event>
 5    1  0.1087513E-008  0.3780658E+03  0.7957747E-01  0.3459624E+00
         13   -1    0    0    0    0  0.00000000000E+00  0.00000000000E+00  0.14999999963E+04  0.15000000000E+04  0.10566000000E+00 0.  1.
        994   -1    0    0    0    0 -0.00000000000E+00 -0.00000000000E+00  0.11368683772E-12  0.17120000000E+03  0.17120000000E+03 0.  0.
         13    1    1    2    0    0 -0.12270303356E+02  0.90032254365E+00  0.12396137539E+02  0.17465575143E+02  0.10566000000E+00 0.  1.
        994    1    1    2    0    0  0.13933064716E+02 -0.17132469591E+01  0.57759916807E+01  0.17187166022E+03  0.17120000000E+03 0.  0.
        998    1    1    2    0    0 -0.16627613595E+01  0.81292441548E+00  0.14818278671E+04  0.14818627646E+04  0.10000000000E+02 0.  1.
</event>
<event>
 5    1  0.1087513E-008  0.3833229E+03  0.7957747E-01  0.3436816E+00
         13   -1    0    0    0    0  0.00000000000E+00  0.00000000000E+00  0.14999999963E+04  0.15000000000E+04  0.10566000000E+00 0. -1.
        994   -1    0    0    0    0 -0.00000000000E+00 -0.00000000000E+00  0.11368683772E-12  0.17120000000E+03  0.17120000000E+03 0.  0.
         13    1    1    2    0    0  0.60944464861E+01  0.11115574130E+02  0.31369429078E+02  0.33834161892E+02  0.10566000000E+00 0. -1.
        994    1    1    2    0    0 -0.12153618390E+02 -0.74205126645E+01  0.31358431594E+01  0.17181981248E+03  0.17120000000E+03 0.  0.
        998    1    1    2    0    0  0.60591719040E+01 -0.36950614650E+01  0.14654947240E+04  0.14655460256E+04  0.10000000000E+02 0. -1.
</event>
<event>
 5    1  0.1087513E-008  0.3810474E+03  0.7957747E-01  0.3446610E+00
         13   -1    0    0    0    0  0.00000000000E+00  0.00000000000E+00  0.14999999963E+04  0.15000000000E+04  0.10566000000E+00 0. -1.
        994   -1    0    0    0    0 -0.00000000000E+00 -0.00000000000E+00  0.11368683772E-12  0.17120000000E+03  0.17120000000E+03 0.  0.
         13    1    1    2    0    0 -0.13705141047E+02  0.13419679372E+02  0.47426365890E+02  0.51158479562E+02  0.10566000000E+00 0. -1.
        994    1    1    2    0    0  0.16779990286E+02 -0.18313402386E+02  0.56633384312E+01  0.17308512987E+03  0.17120000000E+03 0.  0.
        998    1    1    2    0    0 -0.30748492388E+01  0.48937230140E+01  0.14469102920E+04  0.14469563906E+04  0.10000000000E+02 0. -1.
</event>
<event>
 5    1  0.1087513E-008  0.3826013E+03  0.7957747E-01  0.3439909E+00
         13   -1    0    0    0    0  0.00000000000E+00  0.00000000000E+00  0.14999999963E+04  0.15000000000E+04  0.10566000000E+00 0. -1.
        994   -1    0    0    0    0 -0.00000000000E+00 -0.00000000000E+00  0.11368683772E-12  0.17120000000E+03  0.17120000000E+03 0.  0.
         13    1    1    2    0    0 -0.85987057561E+00  0.25423355825E+02  0.12937018958E+03  0.13184742513E+03  0.10566000000E+00 0. -1.
        994    1    1    2    0    0  0.13828252166E+02  0.29842607800E+01  0.34893156707E+01  0.17181892123E+03  0.17120000000E+03 0.  0.
        998    1    1    2    0    0 -0.12968381591E+02 -0.28407616605E+02  0.13671404910E+04  0.13675336536E+04  0.10000000000E+02 0. -1.
</event>
<event>
 5    1  0.1335793E-008  0.3844370E+03  0.7957747E-01  0.3432063E+00
         13   -1    0    0    0    0  0.00000000000E+00  0.00000000000E+00  0.14999999963E+04  0.15000000000E+04  0.10566000000E+00 0.  1.
        994   -1    0    0    0    0 -0.00000000000E+00 -0.00000000000E+00  0.11368683772E-12  0.17120000000E+03  0.17120000000E+03 0.  0.
         13    1    1    2    0    0  0.10955136237E+02 -0.13304180579E+01  0.31079453417E+02  0.32980730903E+02  0.10566000000E+00 0.  1.
        994    1    1    2    0    0 -0.10488539184E+02 -0.39522928758E+00  0.22729575021E+01  0.17153650339E+03  0.17120000000E+03 0.  0.
        998    1    1    2    0    0 -0.46659705283E+00  0.17256473455E+01  0.14666475854E+04  0.14666827657E+04  0.10000000000E+02 0.  1.
</event>
<event>
 5    1  0.1087513E-008  0.3853186E+03  0.7957747E-01  0.3428322E+00
         13   -1    0    0    0    0  0.00000000000E+00  0.00000000000E+00  0.14999999963E+04  0.15000000000E+04  0.10566000000E+00 0.  1.
        994   -1    0    0    0    0 -0.00000000000E+00 -0.00000000000E+00  0.11368683772E-12  0.17120000000E+03  0.17120000000E+03 0.  0.
         13    1    1    2    0    0  0.88410255024E+00 -0.13286287257E+02  0.65404004702E+02  0.66745801827E+02  0.10566000000E+00 0.  1.
        994    1    1    2    0    0 -0.17347438573E+02 -0.36593389396E+01  0.25053661510E+01  0.17213378880E+03  0.17120000000E+03 0.  0.
        998    1    1    2    0    0  0.16463336023E+02  0.16945626196E+02  0.14320906254E+04  0.14323204094E+04  0.10000000000E+02 0.  1.
</event>
<event>
 5    1  0.1087513E-008  0.3850591E+03  0.7957747E-01  0.3429422E+00
         13   -1    0    0    0    0  0.00000000000E+00  0.00000000000E+00  0.14999999963E+04  0.15000000000E+04  0.10566000000E+00 0.  1.
        994   -1    0    0    0    0 -0.00000000000E+00 -0.00000000000E+00  0.11368683772E-12  0.17120000000E+03  0.17120000000E+03 0.  0.
         13    1    1    2    0    0 -0.15050631377E+02  0.48943084157E+01  0.77312411933E+02  0.78915752310E+02  0.10566000000E+00 0.  1.
        994    1    1    2    0    0  0.12802614773E+02 -0.54583724000E-01  0.21399346028E+01  0.17169137790E+03  0.17120000000E+03 0.  0.
        998    1    1    2    0    0  0.22480166045E+01 -0.48397246917E+01  0.14205476497E+04  0.14205928698E+04  0.10000000000E+02 0.  1.
</event>
<event>
 5    1  0.1087513E-008  0.3806606E+03  0.7957747E-01  0.3448287E+00
         13   -1    0    0    0    0  0.00000000000E+00  0.00000000000E+00  0.14999999963E+04  0.15000000000E+04  0.10566000000E+00 0. -1.
        994   -1    0    0    0    0 -0.00000000000E+00 -0.00000000000E+00  0.11368683772E-12  0.17120000000E+03  0.17120000000E+03 0.  0.
         13    1    1    2    0    0  0.13780772169E+02  0.45022257622E+00  0.23283910702E+02  0.27060377742E+02  0.10566000000E+00 0. -1.
        994    1    1    2    0    0 -0.12499966459E+02  0.86442468757E+00  0.43239196764E+01  0.17171235446E+03  0.17120000000E+03 0.  0.
        998    1    1    2    0    0 -0.12808057103E+01 -0.13146472638E+01  0.14723921659E+04  0.14724272678E+04  0.10000000000E+02 0. -1.
</event>
<event>
 5    1  0.1087513E-008  0.3728633E+03  0.7957747E-01  0.3482834E+00
         13   -1    0    0    0    0  0.00000000000E+00  0.00000000000E+00  0.14999999963E+04  0.15000000000E+04  0.10566000000E+00 0. -1.
        994   -1    0    0    0    0 -0.00000000000E+00 -0.00000000000E+00  0.11368683772E-12  0.17120000000E+03  0.17120000000E+03 0.  0.
         13    1    1    2    0    0  0.49690123990E+02  0.96678554247E+02  0.49467945657E+03  0.50648161584E+03  0.10566000000E+00 0. -1.
        994    1    1    2    0    0 -0.40421993718E+02 -0.10151894429E+03  0.49836386778E+02  0.20912469742E+03  0.17120000000E+03 0.  0.
        998    1    1    2    0    0 -0.92681302719E+01  0.48403900428E+01  0.95548415293E+03  0.95559368673E+03  0.10000000000E+02 0. -1.
</event>
<event>
 5    1  0.1087513E-008  0.4211074E+03  0.7957747E-01  0.3289627E+00
         13   -1    0    0    0    0  0.00000000000E+00  0.00000000000E+00  0.14999999963E+04  0.15000000000E+04  0.10566000000E+00 0.  1.
        994   -1    0    0    0    0 -0.00000000000E+00 -0.00000000000E+00  0.11368683772E-12  0.17120000000E+03  0.17120000000E+03 0.  0.
         13    1    1    2    0    0 -0.13221468329E+02  0.80639732875E+02  0.81779859993E+02  0.11560938719E+03  0.10566000000E+00 0.  1.
        994    1    1    2    0    0 -0.57854303020E+02 -0.68346876826E+01  0.55753456233E+02  0.18923985102E+03  0.17120000000E+03 0.  0.
        998    1    1    2    0    0  0.71075771349E+02 -0.73805045192E+02  0.13624666801E+04  0.13663507618E+04  0.10000000000E+02 0.  1.
</event>
<event>
 5    1  0.1087513E-008  0.3835122E+03  0.7957747E-01  0.3436007E+00
         13   -1    0    0    0    0  0.00000000000E+00  0.00000000000E+00  0.14999999963E+04  0.15000000000E+04  0.10566000000E+00 0. -1.
        994   -1    0    0    0    0 -0.00000000000E+00 -0.00000000000E+00  0.11368683772E-12  0.17120000000E+03  0.17120000000E+03 0.  0.
         13    1    1    2    0    0 -0.14878966932E+02 -0.11678893502E+02  0.84627848813E+02  0.86715997193E+02  0.10566000000E+00 0. -1.
        994    1    1    2    0    0 -0.92514640120E+01 -0.64228792588E+00  0.26548653097E+01  0.17147154408E+03  0.17120000000E+03 0.  0.
        998    1    1    2    0    0  0.24130430944E+02  0.12321181428E+02  0.14127172822E+04  0.14130124587E+04  0.10000000000E+02 0. -1.
</event>
<event>
 5    1  0.1087513E-008  0.3818336E+03  0.7957747E-01  0.3443213E+00
         13   -1    0    0    0    0  0.00000000000E+00  0.00000000000E+00  0.14999999963E+04  0.15000000000E+04  0.10566000000E+00 0.  1.
        994   -1    0    0    0    0 -0.00000000000E+00 -0.00000000000E+00  0.11368683772E-12  0.17120000000E+03  0.17120000000E+03 0.  0.
         13    1    1    2    0    0 -0.83259081845E+02 -0.12945608380E+02  0.46196241813E+03  0.46958380553E+03  0.10566000000E+00 0.  1.
        994    1    1    2    0    0 -0.60128906678E+02  0.68440885416E+01  0.30822799872E+02  0.18417875002E+03  0.17120000000E+03 0.  0.
        998    1    1    2    0    0  0.14338798852E+03  0.61015198382E+01  0.10072147783E+04  0.10174374445E+04  0.10000000000E+02 0.  1.
</event>
<event>
 5    1  0.1087513E-008  0.3909578E+03  0.7957747E-01  0.3404791E+00
         13   -1    0    0    0    0  0.00000000000E+00  0.00000000000E+00  0.14999999963E+04  0.15000000000E+04  0.10566000000E+00 0. -1.
        994   -1    0    0    0    0 -0.00000000000E+00 -0.00000000000E+00  0.11368683772E-12  0.17120000000E+03  0.17120000000E+03 0.  0.
         13    1    1    2    0    0 -0.51043627125E+02 -0.65306508572E+02  0.25036298896E+03  0.26372718733E+03  0.10566000000E+00 0. -1.
        994    1    1    2    0    0 -0.29931778474E+02 -0.63464325528E+02  0.41322646302E+02  0.18958014947E+03  0.17120000000E+03 0.  0.
        998    1    1    2    0    0  0.80975405599E+02  0.12877083410E+03  0.12083143610E+04  0.12178926632E+04  0.10000000000E+02 0. -1.
</event>
<event>
 5    1  0.1712870E-008  0.3862498E+03  0.7957747E-01  0.3424389E+00
         13   -1    0    0    0    0  0.00000000000E+00  0.00000000000E+00  0.14999999963E+04  0.15000000000E+04  0.10566000000E+00 0. -1.
        994   -1    0    0    0    0 -0.00000000000E+00 -0.00000000000E+00  0.11368683772E-12  0.17120000000E+03  0.17120000000E+03 0.  0.
         13    1    1    2    0    0  0.39646547747E+00 -0.11345478340E+02  0.63321452973E+02  0.64331132699E+02  0.10566000000E+00 0. -1.
        994    1    1    2    0    0 -0.31343016687E+01  0.10392346147E+02  0.13968960927E+01  0.17154945650E+03  0.17120000000E+03 0.  0.
        998    1    1    2    0    0  0.27378361912E+01  0.95313219307E+00  0.14352816472E+04  0.14353194108E+04  0.10000000000E+02 0. -1.
</event>
<event>
 5    1  0.1087513E-008  0.3866385E+03  0.7957747E-01  0.3422753E+00
         13   -1    0    0    0    0  0.00000000000E+00  0.00000000000E+00  0.14999999963E+04  0.15000000000E+04  0.10566000000E+00 0.  1.
        994   -1    0    0    0    0 -0.00000000000E+00 -0.00000000000E+00  0.11368683772E-12  0.17120000000E+03  0.17120000000E+03 0.  0.
         13    1    1    2    0    0 -0.28941403970E+02 -0.54763270332E+02  0.87955687322E+02  0.10757711066E+03  0.10566000000E+00 0.  1.
        994    1    1    2    0    0  0.11135751711E+02  0.48074470947E+02  0.29122985338E+02  0.18053461717E+03  0.17120000000E+03 0.  0.
        998    1    1    2    0    0  0.17805652258E+02  0.66887993850E+01  0.13829213236E+04  0.13830882722E+04  0.10000000000E+02 0.  1.
</event>
<event>
 5    1  0.1087513E-008  0.4405272E+03  0.7957747E-01  0.3223665E+00
         13   -1    0    0    0    0  0.00000000000E+00  0.00000000000E+00  0.14999999963E+04  0.15000000000E+04  0.10566000000E+00 0.  1.
        994   -1    0    0    0    0 -0.00000000000E+00 -0.00000000000E+00  0.11368683772E-12  0.17120000000E+03  0.17120000000E+03 0.  0.
         13    1    1    2    0    0 -0.12833833221E+03 -0.67355096985E+02  0.37692482794E+03  0.40383136788E+03  0.10566000000E+00 0.  1.
        994    1    1    2    0    0 -0.77847955873E+02  0.30393867596E+01  0.83932297708E+02  0.20596993155E+03  0.17120000000E+03 0.  0.
        998    1    1    2    0    0  0.20618628808E+03  0.64315710225E+02  0.10391428706E+04  0.10613987006E+04  0.10000000000E+02 0.  1.
</event>
<event>
 5    1  0.1087513E-008  0.3834823E+03  0.7957747E-01  0.3436135E+00
         13   -1    0    0    0    0  0.00000000000E+00  0.00000000000E+00  0.14999999963E+04  0.15000000000E+04  0.10566000000E+00 0. -1.
        994   -1    0    0    0    0 -0.00000000000E+00 -0.00000000000E+00  0.11368683772E-12  0.17120000000E+03  0.17120000000E+03 0.  0.
         13    1    1    2    0    0 -0.12726321596E+02  0.37783225774E+01  0.36676339277E+02  0.39005127992E+02  0.10566000000E+00 0. -1.
        994    1    1    2    0    0  0.14872543142E+02  0.27624217208E+02  0.56453378633E+01  0.17414246971E+03  0.17120000000E+03 0.  0.
        998    1    1    2    0    0 -0.21462215464E+01 -0.31402539785E+02  0.14576783191E+04  0.14580524023E+04  0.10000000000E+02 0. -1.
</event>
<event>
 5    1  0.1087513E-008  0.3837749E+03  0.7957747E-01  0.3434885E+00
         13   -1    0    0    0    0  0.00000000000E+00  0.00000000000E+00  0.14999999963E+04  0.15000000000E+04  0.10566000000E+00 0.  1.
        994   -1    0    0    0    0 -0.00000000000E+00 -0.00000000000E+00  0.11368683772E-12  0.17120000000E+03  0.17120000000E+03 0.  0.
         13    1    1    2    0    0 -0.87867025073E+01 -0.24129457455E+02  0.14906339108E+03  0.15125919007E+03  0.10566000000E+00 0.  1.
        994    1    1    2    0    0  0.10210575883E+02  0.10789160191E+02  0.29685341093E+01  0.17186888617E+03  0.17120000000E+03 0.  0.
        998    1    1    2    0    0 -0.14238733754E+01  0.13340297265E+02  0.13479680711E+04  0.13480719238E+04  0.10000000000E+02 0.  1.
</event>
<event>
 5    1  0.1087513E-008  0.3698822E+03  0.7957747E-01  0.3496432E+00
         13   -1    0    0    0    0  0.00000000000E+00  0.00000000000E+00  0.14999999963E+04  0.15000000000E+04  0.10566000000E+00 0.  1.
        994   -1    0    0    0    0 -0.00000000000E+00 -0.00000000000E+00  0.11368683772E-12  0.17120000000E+03  0.17120000000E+03 0.  0.
         13    1    1    2    0    0  0.78268280480E+01  0.86437006455E+01  0.11409200262E+01  0.11716896376E+02  0.10566000000E+00 0.  1.
        994    1    1    2    0    0 -0.12048596507E+02 -0.95143017308E+01  0.11700588478E+02  0.17228474798E+03  0.17120000000E+03 0.  0.
        998    1    1    2    0    0  0.42217684593E+01  0.87060108530E+00  0.14871584878E+04  0.14871983556E+04  0.10000000000E+02 0.  1.
</event>
<event>
 5    1  0.1087513E-008  0.4407872E+03  0.7957747E-01  0.3222820E+00
         13   -1    0    0    0    0  0.00000000000E+00  0.00000000000E+00  0.14999999963E+04  0.15000000000E+04  0.10566000000E+00 0. -1.
        994   -1    0    0    0    0 -0.00000000000E+00 -0.00000000000E+00  0.11368683772E-12  0.17120000000E+03  0.17120000000E+03 0.  0.
         13    1    1    2    0    0 -0.92687057947E+02  0.98027605355E+01  0.58869599930E+02  0.11023894858E+03  0.10566000000E+00 0. -1.
        994    1    1    2    0    0  0.99950636323E+02 -0.13755595529E+02  0.10497199358E+03  0.22473963946E+03  0.17120000000E+03 0.  0.
        998    1    1    2    0    0 -0.72635783755E+01  0.39528349934E+01  0.13361584028E+04  0.13362214120E+04  0.10000000000E+02 0.  1.
</event>
<event>
 5    1  0.1087513E-008  0.3823960E+03  0.7957747E-01  0.3440792E+00
         13   -1    0    0    0    0  0.00000000000E+00  0.00000000000E+00  0.14999999963E+04  0.15000000000E+04  0.10566000000E+00 0.  1.
        994   -1    0    0    0    0 -0.00000000000E+00 -0.00000000000E+00  0.11368683772E-12  0.17120000000E+03  0.17120000000E+03 0.  0.
         13    1    1    2    0    0 -0.78568483426E+01 -0.29016332237E+02  0.14041897203E+03  0.14360075373E+03  0.10566000000E+00 0.  1.
        994    1    1    2    0    0  0.90461802264E+01  0.29080968810E+02  0.60109285582E+01  0.17399168769E+03  0.17120000000E+03 0.  0.
        998    1    1    2    0    0 -0.11893318838E+01 -0.64636573080E-01  0.13535700957E+04  0.13536075586E+04  0.10000000000E+02 0.  0.
</event>
<event>
 5    1  0.1087513E-008  0.3773599E+03  0.7957747E-01  0.3462735E+00
         13   -1    0    0    0    0  0.00000000000E+00  0.00000000000E+00  0.14999999963E+04  0.15000000000E+04  0.10566000000E+00 0.  1.
        994   -1    0    0    0    0 -0.00000000000E+00 -0.00000000000E+00  0.11368683772E-12  0.17120000000E+03  0.17120000000E+03 0.  0.
         13    1    1    2    0    0 -0.31366798159E+02 -0.32033615291E+02  0.16792182483E+03  0.17380385195E+03  0.10566000000E+00 0.  1.
        994    1    1    2    0    0  0.30406993733E+02  0.25764461382E+02  0.10847255757E+02  0.17611216794E+03  0.17120000000E+03 0.  0.
        998    1    1    2    0    0  0.95980442659E+00  0.62691539094E+01  0.13212309157E+04  0.13212839801E+04  0.10000000000E+02 0.  1.
</event>
<event>
 5    1  0.1087513E-008  0.3770234E+03  0.7957747E-01  0.3464223E+00
         13   -1    0    0    0    0  0.00000000000E+00  0.00000000000E+00  0.14999999963E+04  0.15000000000E+04  0.10566000000E+00 0.  1.
        994   -1    0    0    0    0 -0.00000000000E+00 -0.00000000000E+00  0.11368683772E-12  0.17120000000E+03  0.17120000000E+03 0.  0.
         13    1    1    2    0    0  0.59157179549E+01 -0.84036462976E+01  0.67480102859E+01  0.12294868721E+02  0.10566000000E+00 0.  1.
        994    1    1    2    0    0 -0.55058780599E+01  0.75871242465E+01  0.59400826808E+01  0.17155933006E+03  0.17120000000E+03 0.  0.
        998    1    1    2    0    0 -0.40983989500E+00  0.81652205112E+00  0.14873119033E+04  0.14873458012E+04  0.10000000000E+02 0.  1.
</event>
<event>
 5    1  0.1087513E-008  0.3851655E+03  0.7957747E-01  0.3428970E+00
         13   -1    0    0    0    0  0.00000000000E+00  0.00000000000E+00  0.14999999963E+04  0.15000000000E+04  0.10566000000E+00 0.  1.
        994   -1    0    0    0    0 -0.00000000000E+00 -0.00000000000E+00  0.11368683772E-12  0.17120000000E+03  0.17120000000E+03 0.  0.
         13    1    1    2    0    0 -0.43595286440E+01  0.11136047116E+02  0.43412043693E+02  0.45029254236E+02  0.10566000000E+00 0.  1.
        994    1    1    2    0    0  0.13799187772E+02 -0.15860283313E+02  0.30020119656E+01  0.17251208145E+03  0.17120000000E+03 0.  0.
        998    1    1    2    0    0 -0.94396591285E+01  0.47242361972E+01  0.14535859406E+04  0.14536586643E+04  0.10000000000E+02 0.  1.
</event>
<event>
 5    1  0.1087513E-008  0.3856669E+03  0.7957747E-01  0.3426849E+00
         13   -1    0    0    0    0  0.00000000000E+00  0.00000000000E+00  0.14999999963E+04  0.15000000000E+04  0.10566000000E+00 0. -1.
        994   -1    0    0    0    0 -0.00000000000E+00 -0.00000000000E+00  0.11368683772E-12  0.17120000000E+03  0.17120000000E+03 0.  0.
         13    1    1    2    0    0  0.20309103577E+01  0.17434956862E+02  0.10126196502E+03  0.10277207326E+03  0.10566000000E+00 0. -1.
        994    1    1    2    0    0  0.31788959216E+02 -0.36713597815E+02  0.90772559879E+01  0.17818603416E+03  0.17120000000E+03 0.  0.
        998    1    1    2    0    0 -0.33819869574E+02  0.19278640953E+02  0.13896607753E+04  0.13902418926E+04  0.10000000000E+02 0. -1.
</event>
<event>
 5    1  0.1087513E-008  0.3837320E+03  0.7957747E-01  0.3435068E+00
         13   -1    0    0    0    0  0.00000000000E+00  0.00000000000E+00  0.14999999963E+04  0.15000000000E+04  0.10566000000E+00 0. -1.
        994   -1    0    0    0    0 -0.00000000000E+00 -0.00000000000E+00  0.11368683772E-12  0.17120000000E+03  0.17120000000E+03 0.  0.
         13    1    1    2    0    0  0.87607085949E+01 -0.75452059809E+01  0.28267817942E+02  0.30541133633E+02  0.10566000000E+00 0. -1.
        994    1    1    2    0    0 -0.55072911793E+01  0.14490374387E+02  0.30549044684E+01  0.17192752440E+03  0.17120000000E+03 0.  0.
        998    1    1    2    0    0 -0.32534174156E+01 -0.69451684066E+01  0.14686772739E+04  0.14687313420E+04  0.10000000000E+02 0. -1.
</event>
<event>
 5    1  0.1087513E-008  0.3798372E+03  0.7957747E-01  0.3451868E+00
         13   -1    0    0    0    0  0.00000000000E+00  0.00000000000E+00  0.14999999963E+04  0.15000000000E+04  0.10566000000E+00 0.  1.
        994   -1    0    0    0    0 -0.00000000000E+00 -0.00000000000E+00  0.11368683772E-12  0.17120000000E+03  0.17120000000E+03 0.  0.
         13    1    1    2    0    0  0.19994976668E+02 -0.29146458109E+00  0.48049326011E+02  0.52044528413E+02  0.10566000000E+00 0.  1.
        994    1    1    2    0    0 -0.40558299953E+00 -0.57076817870E+01  0.43248877166E+01  0.17135018758E+03  0.17120000000E+03 0.  0.
        998    1    1    2    0    0 -0.19589393668E+02  0.59991463681E+01  0.14476257826E+04  0.14478052840E+04  0.10000000000E+02 0.  1.
</event>
<event>
 5    1  0.1087513E-008  0.3855875E+03  0.7957747E-01  0.3427184E+00
         13   -1    0    0    0    0  0.00000000000E+00  0.00000000000E+00  0.14999999963E+04  0.15000000000E+04  0.10566000000E+00 0.  1.
        994   -1    0    0    0    0 -0.00000000000E+00 -0.00000000000E+00  0.11368683772E-12  0.17120000000E+03  0.17120000000E+03 0.  0.
         13    1    1    2    0    0  0.14589456061E+02  0.19307886722E+01  0.81925545354E+02  0.83236928815E+02  0.10566000000E+00 0.  1.
        994    1    1    2    0    0 -0.85524636006E+01 -0.20715809999E+01  0.15929580070E+01  0.17143340864E+03  0.17120000000E+03 0.  0.
        998    1    1    2    0    0 -0.60369924605E+01  0.14079232773E+00  0.14164814929E+04  0.14165296625E+04  0.10000000000E+02 0.  1.
</event>
<event>
 5    1  0.1087513E-008  0.3834216E+03  0.7957747E-01  0.3436394E+00
         13   -1    0    0    0    0  0.00000000000E+00  0.00000000000E+00  0.14999999963E+04  0.15000000000E+04  0.10566000000E+00 0. -1.
        994   -1    0    0    0    0 -0.00000000000E+00 -0.00000000000E+00  0.11368683772E-12  0.17120000000E+03  0.17120000000E+03 0.  0.
         13    1    1    2    0    0  0.10860749114E+02 -0.40897071075E-01  0.23236239692E+02  0.25649396542E+02  0.10566000000E+00 0. -1.
        994    1    1    2    0    0 -0.12004483342E+02 -0.20172002997E+01  0.29057673711E+01  0.17165680936E+03  0.17120000000E+03 0.  0.
        998    1    1    2    0    0  0.11437342279E+01  0.20580973707E+01  0.14738579892E+04  0.14738937941E+04  0.10000000000E+02 0. -1.
</event>
<event>
 5    1  0.1087513E-008  0.3756288E+03  0.7957747E-01  0.3470415E+00
         13   -1    0    0    0    0  0.00000000000E+00  0.00000000000E+00  0.14999999963E+04  0.15000000000E+04  0.10566000000E+00 0. -1.
        994   -1    0    0    0    0 -0.00000000000E+00 -0.00000000000E+00  0.11368683772E-12  0.17120000000E+03  0.17120000000E+03 0.  0.
         13    1    1    2    0    0  0.13246052650E+02  0.13343104718E+02  0.23513800609E+02  0.30106582959E+02  0.10566000000E+00 0. -1.
        994    1    1    2    0    0 -0.29391826301E+02 -0.25520110418E+02  0.11512898759E+02  0.17594641891E+03  0.17120000000E+03 0.  0.
        998    1    1    2    0    0  0.16145773650E+02  0.12177005700E+02  0.14649732969E+04  0.14651469981E+04  0.10000000000E+02 0. -1.
</event>
<event>
 5    1  0.1087513E-008  0.3756388E+03  0.7957747E-01  0.3470371E+00
         13   -1    0    0    0    0  0.00000000000E+00  0.00000000000E+00  0.14999999963E+04  0.15000000000E+04  0.10566000000E+00 0. -1.
        994   -1    0    0    0    0 -0.00000000000E+00 -0.00000000000E+00  0.11368683772E-12  0.17120000000E+03  0.17120000000E+03 0.  0.
         13    1    1    2    0    0  0.15948404611E+02  0.42967732982E+02  0.19394587606E+03  0.19928771084E+03  0.10566000000E+00 0. -1.
        994    1    1    2    0    0  0.13847155800E+02 -0.40190007791E+01  0.70565487012E+01  0.17195095513E+03  0.17120000000E+03 0.  0.
        998    1    1    2    0    0 -0.29795560411E+02 -0.38948732203E+02  0.12989975715E+04  0.12999613340E+04  0.10000000000E+02 0. -1.
</event>
<event>
 5    1  0.1087513E-008  0.3797694E+03  0.7957747E-01  0.3452163E+00
         13   -1    0    0    0    0  0.00000000000E+00  0.00000000000E+00  0.14999999963E+04  0.15000000000E+04  0.10566000000E+00 0.  1.
        994   -1    0    0    0    0 -0.00000000000E+00 -0.00000000000E+00  0.11368683772E-12  0.17120000000E+03  0.17120000000E+03 0.  0.
         13    1    1    2    0    0  0.22932235406E+02 -0.21317310700E+02  0.11502748157E+03  0.11921261610E+03  0.10566000000E+00 0.  1.
        994    1    1    2    0    0 -0.70248553094E+01  0.17468209519E+02  0.54364184145E+01  0.17231796651E+03  0.17120000000E+03 0.  0.
        998    1    1    2    0    0 -0.15907380097E+02  0.38491011808E+01  0.13795360963E+04  0.13796694174E+04  0.10000000000E+02 0.  1.
</event>
<event>
 5    1  0.1087513E-008  0.3770809E+03  0.7957747E-01  0.3463968E+00
         13   -1    0    0    0    0  0.00000000000E+00  0.00000000000E+00  0.14999999963E+04  0.15000000000E+04  0.10566000000E+00 0.  1.
        994   -1    0    0    0    0 -0.00000000000E+00 -0.00000000000E+00  0.11368683772E-12  0.17120000000E+03  0.17120000000E+03 0.  0.
         13    1    1    2    0    0 -0.22807738634E+02 -0.39114455692E+02  0.18851713297E+03  0.19387845206E+03  0.10566000000E+00 0.  1.
        994    1    1    2    0    0  0.28967041622E+02  0.63318585184E+01  0.85874102728E+01  0.17396081613E+03  0.17120000000E+03 0.  0.
        998    1    1    2    0    0 -0.61593029874E+01  0.32782597174E+02  0.13028954530E+04  0.13033607318E+04  0.10000000000E+02 0.  1.
</event>
<event>
 5    1  0.1087513E-008  0.3719729E+03  0.7957747E-01  0.3486873E+00
         13   -1    0    0    0    0  0.00000000000E+00  0.00000000000E+00  0.14999999963E+04  0.15000000000E+04  0.10566000000E+00 0. -1.
        994   -1    0    0    0    0 -0.00000000000E+00 -0.00000000000E+00  0.11368683772E-12  0.17120000000E+03  0.17120000000E+03 0.  0.
         13    1    1    2    0    0  0.99092967671E+02  0.17668458115E+03  0.82686615476E+03  0.85131927413E+03  0.10566000000E+00 0. -1.
        994    1    1    2    0    0 -0.89314177055E+02 -0.18513200082E+03  0.17102415208E+03  0.31750524491E+03  0.17120000000E+03 0.  0.
        998    1    1    2    0    0 -0.97787906152E+01  0.84474196699E+01  0.50210968943E+03  0.50237548096E+03  0.10000000000E+02 0.  0.
</event>
<event>
 5    1  0.1732784E-008  0.3863689E+03  0.7957747E-01  0.3423887E+00
         13   -1    0    0    0    0  0.00000000000E+00  0.00000000000E+00  0.14999999963E+04  0.15000000000E+04  0.10566000000E+00 0.  1.
        994   -1    0    0    0    0 -0.00000000000E+00 -0.00000000000E+00  0.11368683772E-12  0.17120000000E+03  0.17120000000E+03 0.  0.
         13    1    1    2    0    0  0.36440070315E+01  0.10517095701E+02  0.64307097504E+02  0.65263328468E+02  0.10566000000E+00 0.  1.
        994    1    1    2    0    0 -0.41997195607E+01 -0.10345053176E+02  0.13602810617E+01  0.17156907686E+03  0.17120000000E+03 0.  0.
        998    1    1    2    0    0  0.55571252927E+00 -0.17204252438E+00  0.14343326177E+04  0.14343675947E+04  0.10000000000E+02 0.  1.
</event>
<event>
 5    1  0.1087513E-008  0.3851387E+03  0.7957747E-01  0.3429084E+00
         13   -1    0    0    0    0  0.00000000000E+00  0.00000000000E+00  0.14999999963E+04  0.15000000000E+04  0.10566000000E+00 0. -1.
        994   -1    0    0    0    0 -0.00000000000E+00 -0.00000000000E+00  0.11368683772E-12  0.17120000000E+03  0.17120000000E+03 0.  0.
         13    1    1    2    0    0 -0.90305998080E+01  0.74967441000E+01  0.43658149951E+02  0.45208385574E+02  0.10566000000E+00 0. -1.
        994    1    1    2    0    0  0.11198000892E+02 -0.17803747783E+01  0.19840011982E+01  0.17158654149E+03  0.17120000000E+03 0.  0.
        998    1    1    2    0    0 -0.21674010843E+01 -0.57163693216E+01  0.14543578451E+04  0.14544050729E+04  0.10000000000E+02 0. -1.
</event>
<event>
 5    1  0.1087513E-008  0.3816233E+03  0.7957747E-01  0.3444120E+00
         13   -1    0    0    0    0  0.00000000000E+00  0.00000000000E+00  0.14999999963E+04  0.15000000000E+04  0.10566000000E+00 0. -1.
        994   -1    0    0    0    0 -0.00000000000E+00 -0.00000000000E+00  0.11368683772E-12  0.17120000000E+03  0.17120000000E+03 0.  0.
         13    1    1    2    0    0  0.63848255442E+01 -0.91005666758E+01  0.17381711531E+02  0.20633016523E+02  0.10566000000E+00 0. -1.
        994    1    1    2    0    0 -0.12086893493E+01  0.61316276318E+01  0.34458232944E+01  0.17134868393E+03  0.17120000000E+03 0.  0.
        998    1    1    2    0    0 -0.51761361949E+01  0.29689390440E+01  0.14791724615E+04  0.14792182995E+04  0.10000000000E+02 0. -1.
</event>
<event>
 5    1  0.1087513E-008  0.3717760E+03  0.7957747E-01  0.3487768E+00
         13   -1    0    0    0    0  0.00000000000E+00  0.00000000000E+00  0.14999999963E+04  0.15000000000E+04  0.10566000000E+00 0.  1.
        994   -1    0    0    0    0 -0.00000000000E+00 -0.00000000000E+00  0.11368683772E-12  0.17120000000E+03  0.17120000000E+03 0.  0.
         13    1    1    2    0    0  0.20805163025E+02 -0.36862881685E+02  0.95756586552E+02  0.10469509008E+03  0.10566000000E+00 0.  1.
        994    1    1    2    0    0 -0.26597588262E+02  0.41260340438E+02  0.16671253646E+02  0.17887766236E+03  0.17120000000E+03 0.  0.
        998    1    1    2    0    0  0.57924252372E+01 -0.43974587527E+01  0.13875721561E+04  0.13876272476E+04  0.10000000000E+02 0.  1.
</event>
<event>
 5    1  0.1087513E-008  0.3815477E+03  0.7957747E-01  0.3444447E+00
         13   -1    0    0    0    0  0.00000000000E+00  0.00000000000E+00  0.14999999963E+04  0.15000000000E+04  0.10566000000E+00 0.  1.
        994   -1    0    0    0    0 -0.00000000000E+00 -0.00000000000E+00  0.11368683772E-12  0.17120000000E+03  0.17120000000E+03 0.  0.
         13    1    1    2    0    0 -0.24137318777E+02 -0.23414823454E+02  0.19707939229E+03  0.19992789236E+03  0.10566000000E+00 0.  1.
        994    1    1    2    0    0  0.11647981344E+02 -0.11296587722E+02  0.42300608111E+01  0.17201924828E+03  0.17120000000E+03 0.  0.
        998    1    1    2    0    0  0.12489337433E+02  0.34711411176E+02  0.12986905432E+04  0.12992528594E+04  0.10000000000E+02 0.  1.
</event>
<event>
 5    1  0.1087513E-008  0.3842633E+03  0.7957747E-01  0.3432803E+00
         13   -1    0    0    0    0  0.00000000000E+00  0.00000000000E+00  0.14999999963E+04  0.15000000000E+04  0.10566000000E+00 0. -1.
        994   -1    0    0    0    0 -0.00000000000E+00 -0.00000000000E+00  0.11368683772E-12  0.17120000000E+03  0.17120000000E+03 0.  0.
         13    1    1    2    0    0  0.13565692354E+02  0.15993882855E+02  0.12064199006E+03  0.12245135045E+03  0.10566000000E+00 0. -1.
        994    1    1    2    0    0 -0.52401312628E+01  0.25952424702E+01  0.21090845037E+01  0.17131282058E+03  0.17120000000E+03 0.  0.
        998    1    1    2    0    0 -0.83255610917E+01 -0.18589125325E+02  0.13772489217E+04  0.13774358290E+04  0.10000000000E+02 0. -1.
</event>
<event>
 5    1  0.1087513E-008  0.3786091E+03  0.7957747E-01  0.3457237E+00
         13   -1    0    0    0    0  0.00000000000E+00  0.00000000000E+00  0.14999999963E+04  0.15000000000E+04  0.10566000000E+00 0. -1.
        994   -1    0    0    0    0 -0.00000000000E+00 -0.00000000000E+00  0.11368683772E-12  0.17120000000E+03  0.17120000000E+03 0.  0.
         13    1    1    2    0    0 -0.36643944722E+00  0.27386675372E+02  0.83337674605E+02  0.87723106639E+02  0.10566000000E+00 0. -1.
        994    1    1    2    0    0  0.21937220054E+02  0.42470287568E+01  0.65154895149E+01  0.17277491276E+03  0.17120000000E+03 0.  0.
        998    1    1    2    0    0 -0.21570780607E+02 -0.31633704129E+02  0.14101468322E+04  0.14107019806E+04  0.10000000000E+02 0. -1.
</event>
<event>
 5    1  0.1087513E-008  0.3692541E+03  0.7957747E-01  0.3499326E+00
         13   -1    0    0    0    0  0.00000000000E+00  0.00000000000E+00  0.14999999963E+04  0.15000000000E+04  0.10566000000E+00 0.  1.
        994   -1    0    0    0    0 -0.00000000000E+00 -0.00000000000E+00  0.11368683772E-12  0.17120000000E+03  0.17120000000E+03 0.  0.
         13    1    1    2    0    0 -0.56155677948E+02 -0.91226172800E+02  0.35032934294E+03  0.36634182734E+03  0.10566000000E+00 0.  1.
        994    1    1    2    0    0  0.15079506949E+03  0.78684237458E+02  0.11782324605E+03  0.26855561717E+03  0.17120000000E+03 0.  0.
        998    1    1    2    0    0 -0.94639391542E+02  0.12541935342E+02  0.10318474073E+04  0.10363025555E+04  0.10000000000E+02 0.  1.
</event>
<event>
 5    1  0.1087513E-008  0.3855691E+03  0.7957747E-01  0.3427262E+00
         13   -1    0    0    0    0  0.00000000000E+00  0.00000000000E+00  0.14999999963E+04  0.15000000000E+04  0.10566000000E+00 0.  1.
        994   -1    0    0    0    0 -0.00000000000E+00 -0.00000000000E+00  0.11368683772E-12  0.17120000000E+03  0.17120000000E+03 0.  0.
         13    1    1    2    0    0  0.13452983257E+02 -0.45776929352E+01  0.71058508545E+02  0.72465583775E+02  0.10566000000E+00 0.  1.
        994    1    1    2    0    0 -0.14648091474E+02  0.11549834997E+02  0.24909312534E+01  0.17223126897E+03  0.17120000000E+03 0.  0.
        998    1    1    2    0    0  0.11951082175E+01 -0.69721420619E+01  0.14264505565E+04  0.14265031473E+04  0.10000000000E+02 0.  1.
</event>
<event>
 5    1  0.1087513E-008  0.3776819E+03  0.7957747E-01  0.3461315E+00
         13   -1    0    0    0    0  0.00000000000E+00  0.00000000000E+00  0.14999999963E+04  0.15000000000E+04  0.10566000000E+00 0.  1.
        994   -1    0    0    0    0 -0.00000000000E+00 -0.00000000000E+00  0.11368683772E-12  0.17120000000E+03  0.17120000000E+03 0.  0.
         13    1    1    2    0    0 -0.16005604330E+02 -0.42546085699E+02  0.19379502898E+03  0.19905495020E+03  0.10566000000E+00 0.  1.
        994    1    1    2    0    0  0.11939571472E+02  0.22810086549E+02  0.75441088064E+01  0.17328937357E+03  0.17120000000E+03 0.  0.
        998    1    1    2    0    0  0.40660328583E+01  0.19735999150E+02  0.12986608585E+04  0.12988556762E+04  0.10000000000E+02 0.  1.
</event>
<event>
 5    1  0.1087513E-008  0.3745348E+03  0.7957747E-01  0.3475306E+00
         13   -1    0    0    0    0  0.00000000000E+00  0.00000000000E+00  0.14999999963E+04  0.15000000000E+04  0.10566000000E+00 0. -1.
        994   -1    0    0    0    0 -0.00000000000E+00 -0.00000000000E+00  0.11368683772E-12  0.17120000000E+03  0.17120000000E+03 0.  0.
         13    1    1    2    0    0 -0.36137450995E+02 -0.65175390040E+02  0.33175646376E+03  0.34002368924E+03  0.10566000000E+00 0. -1.
        994    1    1    2    0    0  0.33106876078E+02  0.57743894221E+02  0.22154283465E+02  0.18501533677E+03  0.17120000000E+03 0.  0.
        998    1    1    2    0    0  0.30305749170E+01  0.74314958189E+01  0.11460892491E+04  0.11461609740E+04  0.10000000000E+02 0. -1.
</event>
<event>
 5    1  0.1087513E-008  0.3822377E+03  0.7957747E-01  0.3441473E+00
         13   -1    0    0    0    0  0.00000000000E+00  0.00000000000E+00  0.14999999963E+04  0.15000000000E+04  0.10566000000E+00 0.  1.
        994   -1    0    0    0    0 -0.00000000000E+00 -0.00000000000E+00  0.11368683772E-12  0.17120000000E+03  0.17120000000E+03 0.  0.
         13    1    1    2    0    0  0.10148722392E+02  0.29484330162E+01  0.17154517842E+02  0.20148907411E+02  0.10566000000E+00 0.  1.
        994    1    1    2    0    0 -0.12575600733E+02  0.10460588162E+01  0.35364314903E+01  0.17170086290E+03  0.17120000000E+03 0.  0.
        998    1    1    2    0    0  0.24268783408E+01 -0.39944918323E+01  0.14793090469E+04  0.14793502297E+04  0.10000000000E+02 0.  1.
</event>
<event>
 5    1  0.1087513E-008  0.3832409E+03  0.7957747E-01  0.3437167E+00
         13   -1    0    0    0    0  0.00000000000E+00  0.00000000000E+00  0.14999999963E+04  0.15000000000E+04  0.10566000000E+00 0. -1.
        994   -1    0    0    0    0 -0.00000000000E+00 -0.00000000000E+00  0.11368683772E-12  0.17120000000E+03  0.17120000000E+03 0.  0.
         13    1    1    2    0    0  0.21938770593E+02 -0.53991899939E+01  0.10810162499E+03  0.11043746374E+03  0.10566000000E+00 0. -1.
        994    1    1    2    0    0 -0.51914922220E+01 -0.34267696536E+01  0.26340137160E+01  0.17133322028E+03  0.17120000000E+03 0.  0.
        998    1    1    2    0    0 -0.16747278371E+02  0.88259596474E+01  0.13892643576E+04  0.13894293160E+04  0.10000000000E+02 0. -1.
</event>
<event>
 5    1  0.1087513E-008  0.3848957E+03  0.7957747E-01  0.3430115E+00
         13   -1    0    0    0    0  0.00000000000E+00  0.00000000000E+00  0.14999999963E+04  0.15000000000E+04  0.10566000000E+00 0. -1.
        994   -1    0    0    0    0 -0.00000000000E+00 -0.00000000000E+00  0.11368683772E-12  0.17120000000E+03  0.17120000000E+03 0.  0.
         13    1    1    2    0    0 -0.13578916907E+01 -0.14086201249E+02  0.61109477953E+02  0.62726743859E+02  0.10566000000E+00 0. -1.
        994    1    1    2    0    0  0.54025722931E+01  0.44373915833E+01  0.18427397080E+01  0.17135260115E+03  0.17120000000E+03 0.  0.
        998    1    1    2    0    0 -0.40446806024E+01  0.96488096656E+01  0.14370477786E+04  0.14371206550E+04  0.10000000000E+02 0. -1.
</event>
<event>
 5    1  0.1087513E-008  0.3833512E+03  0.7957747E-01  0.3436695E+00
         13   -1    0    0    0    0  0.00000000000E+00  0.00000000000E+00  0.14999999963E+04  0.15000000000E+04  0.10566000000E+00 0.  1.
        994   -1    0    0    0    0 -0.00000000000E+00 -0.00000000000E+00  0.11368683772E-12  0.17120000000E+03  0.17120000000E+03 0.  0.
         13    1    1    2    0    0 -0.17514370437E+02  0.56384946608E+01  0.70555514964E+02  0.72915277204E+02  0.10566000000E+00 0.  1.
        994    1    1    2    0    0  0.61368948175E+01 -0.13034399798E+01  0.25811026062E+01  0.17133435886E+03  0.17120000000E+03 0.  0.
        998    1    1    2    0    0  0.11377475620E+02 -0.43350546811E+01  0.14268633787E+04  0.14269503639E+04  0.10000000000E+02 0.  1.
</event>
<event>
 5    1  0.1087513E-008  0.3841230E+03  0.7957747E-01  0.3433400E+00
         13   -1    0    0    0    0  0.00000000000E+00  0.00000000000E+00  0.14999999963E+04  0.15000000000E+04  0.10566000000E+00 0.  1.
        994   -1    0    0    0    0 -0.00000000000E+00 -0.00000000000E+00  0.11368683772E-12  0.17120000000E+03  0.17120000000E+03 0.  0.
         13    1    1    2    0    0 -0.23524623546E+02  0.26745186395E+01  0.13557623628E+03  0.13762807842E+03  0.10566000000E+00 0.  1.
        994    1    1    2    0    0  0.13753100001E+02 -0.47124170848E+01  0.27635308674E+01  0.17183838843E+03  0.17120000000E+03 0.  0.
        998    1    1    2    0    0  0.97715235444E+01  0.20378984453E+01  0.13616602291E+04  0.13617335332E+04  0.10000000000E+02 0.  1.
</event>
<event>
 5    1  0.1087513E-008  0.3804983E+03  0.7957747E-01  0.3448992E+00
         13   -1    0    0    0    0  0.00000000000E+00  0.00000000000E+00  0.14999999963E+04  0.15000000000E+04  0.10566000000E+00 0.  1.
        994   -1    0    0    0    0 -0.00000000000E+00 -0.00000000000E+00  0.11368683772E-12  0.17120000000E+03  0.17120000000E+03 0.  0.
         13    1    1    2    0    0  0.24913030673E+01  0.37565381865E+02  0.22086450425E+03  0.22405022854E+03  0.10566000000E+00 0.  1.
        994    1    1    2    0    0  0.16255672093E+02  0.40404340640E+00  0.47647609230E+01  0.17203648762E+03  0.17120000000E+03 0.  0.
        998    1    1    2    0    0 -0.18746975160E+02 -0.37969425271E+02  0.12743707311E+04  0.12751132838E+04  0.10000000000E+02 0.  1.
</event>
<event>
 5    1  0.1087513E-008  0.3853034E+03  0.7957747E-01  0.3428386E+00
         13   -1    0    0    0    0  0.00000000000E+00  0.00000000000E+00  0.14999999963E+04  0.15000000000E+04  0.10566000000E+00 0.  1.
        994   -1    0    0    0    0 -0.00000000000E+00 -0.00000000000E+00  0.11368683772E-12  0.17120000000E+03  0.17120000000E+03 0.  0.
         13    1    1    2    0    0  0.12745353805E+02  0.20665025404E+01  0.53200607423E+02  0.54745139242E+02  0.10566000000E+00 0.  1.
        994    1    1    2    0    0 -0.18338206028E+02 -0.35959628143E+01  0.26277354163E+01  0.17223694651E+03  0.17120000000E+03 0.  0.
        998    1    1    2    0    0  0.55928522231E+01  0.15294602739E+01  0.14441716534E+04  0.14442179143E+04  0.10000000000E+02 0.  1.
</event>
<event>
 5    1  0.1087513E-008  0.3708248E+03  0.7957747E-01  0.3492109E+00
         13   -1    0    0    0    0  0.00000000000E+00  0.00000000000E+00  0.14999999963E+04  0.15000000000E+04  0.10566000000E+00 0. -1.
        994   -1    0    0    0    0 -0.00000000000E+00 -0.00000000000E+00  0.11368683772E-12  0.17120000000E+03  0.17120000000E+03 0.  0.
         13    1    1    2    0    0 -0.91020213677E+02 -0.31470065890E+02  0.39778903009E+03  0.40928128221E+03  0.10566000000E+00 0. -1.
        994    1    1    2    0    0  0.44489428165E+02  0.54313732273E+02  0.28864642938E+02  0.18727492716E+03  0.17120000000E+03 0.  0.
        998    1    1    2    0    0  0.46530785512E+02 -0.22843666384E+02  0.10733463232E+04  0.10746437906E+04  0.10000000000E+02 0. -1.
</event>
<event>
 5    1  0.1087513E-008  0.3789669E+03  0.7957747E-01  0.3455669E+00
         13   -1    0    0    0    0  0.00000000000E+00  0.00000000000E+00  0.14999999963E+04  0.15000000000E+04  0.10566000000E+00 0.  1.
        994   -1    0    0    0    0 -0.00000000000E+00 -0.00000000000E+00  0.11368683772E-12  0.17120000000E+03  0.17120000000E+03 0.  0.
         13    1    1    2    0    0  0.64153176039E+02  0.31932451695E+02  0.36723855554E+03  0.37416504287E+03  0.10566000000E+00 0.  1.
        994    1    1    2    0    0 -0.77469248298E+02 -0.32329655355E+02  0.28668082644E+02  0.19281594854E+03  0.17120000000E+03 0.  0.
        998    1    1    2    0    0  0.13316072259E+02  0.39720365969E+00  0.11040933581E+04  0.11042190086E+04  0.10000000000E+02 0.  1.
</event>
<event>
 5    1  0.1087513E-008  0.3852279E+03  0.7957747E-01  0.3428706E+00
         13   -1    0    0    0    0  0.00000000000E+00  0.00000000000E+00  0.14999999963E+04  0.15000000000E+04  0.10566000000E+00 0. -1.
        994   -1    0    0    0    0 -0.00000000000E+00 -0.00000000000E+00  0.11368683772E-12  0.17120000000E+03  0.17120000000E+03 0.  0.
         13    1    1    2    0    0 -0.56276009422E+01 -0.84728861928E+01  0.35729369263E+02  0.37149141104E+02  0.10566000000E+00 0. -1.
        994    1    1    2    0    0  0.14753038108E+02 -0.13062040361E+02  0.27939924763E+01  0.17235288053E+03  0.17120000000E+03 0.  0.
        998    1    1    2    0    0 -0.91254371656E+01  0.21534926554E+02  0.14614766345E+04  0.14616979784E+04  0.10000000000E+02 0. -1.
</event>
<event>
 5    1  0.1087513E-008  0.3813076E+03  0.7957747E-01  0.3445485E+00
         13   -1    0    0    0    0  0.00000000000E+00  0.00000000000E+00  0.14999999963E+04  0.15000000000E+04  0.10566000000E+00 0. -1.
        994   -1    0    0    0    0 -0.00000000000E+00 -0.00000000000E+00  0.11368683772E-12  0.17120000000E+03  0.17120000000E+03 0.  0.
         13    1    1    2    0    0 -0.12161178556E+02 -0.30299356502E+01  0.21001914530E+02  0.24457439602E+02  0.10566000000E+00 0. -1.
        994    1    1    2    0    0  0.10651261669E+02  0.73970636022E+01  0.40344902275E+01  0.17173783228E+03  0.17120000000E+03 0.  0.
        998    1    1    2    0    0  0.15099168872E+01 -0.43671279520E+01  0.14749635915E+04  0.14750047281E+04  0.10000000000E+02 0. -1.
</event>
<event>
 5    1  0.1087513E-008  0.3833532E+03  0.7957747E-01  0.3436686E+00
         13   -1    0    0    0    0  0.00000000000E+00  0.00000000000E+00  0.14999999963E+04  0.15000000000E+04  0.10566000000E+00 0.  1.
        994   -1    0    0    0    0 -0.00000000000E+00 -0.00000000000E+00  0.11368683772E-12  0.17120000000E+03  0.17120000000E+03 0.  0.
         13    1    1    2    0    0  0.83354965681E+01  0.18702067175E+02  0.11027665477E+03  0.11216148880E+03  0.10566000000E+00 0.  1.
        994    1    1    2    0    0  0.61016059382E+02 -0.69056489190E+01  0.15018239407E+02  0.18249831507E+03  0.17120000000E+03 0.  0.
        998    1    1    2    0    0 -0.69351555950E+02 -0.11796418256E+02  0.13747051021E+04  0.13765401961E+04  0.10000000000E+02 0.  1.
</event>
<event>
 5    1  0.1087513E-008  0.3848303E+03  0.7957747E-01  0.3430392E+00
         13   -1    0    0    0    0  0.00000000000E+00  0.00000000000E+00  0.14999999963E+04  0.15000000000E+04  0.10566000000E+00 0.  1.
        994   -1    0    0    0    0 -0.00000000000E+00 -0.00000000000E+00  0.11368683772E-12  0.17120000000E+03  0.17120000000E+03 0.  0.
         13    1    1    2    0    0 -0.54335924652E+01  0.10794243581E+02  0.45163087287E+02  0.46752061333E+02  0.10566000000E+00 0.  1.
        994    1    1    2    0    0  0.21044738857E+01  0.53641441392E+01  0.18236862940E+01  0.17130665102E+03  0.17120000000E+03 0.  0.
        998    1    1    2    0    0  0.33291185795E+01 -0.16158387720E+02  0.14530132227E+04  0.14531412876E+04  0.10000000000E+02 0.  1.
</event>
<event>
 5    1  0.1087513E-008  0.3843389E+03  0.7957747E-01  0.3432481E+00
         13   -1    0    0    0    0  0.00000000000E+00  0.00000000000E+00  0.14999999963E+04  0.15000000000E+04  0.10566000000E+00 0.  1.
        994   -1    0    0    0    0 -0.00000000000E+00 -0.00000000000E+00  0.11368683772E-12  0.17120000000E+03  0.17120000000E+03 0.  0.
         13    1    1    2    0    0  0.14706997763E+02  0.11099264364E+02  0.80534622123E+02  0.82615531089E+02  0.10566000000E+00 0.  1.
        994    1    1    2    0    0 -0.17134316777E+02 -0.15117407208E+02  0.36813865582E+01  0.17275738311E+03  0.17120000000E+03 0.  0.
        998    1    1    2    0    0  0.24273190139E+01  0.40181428435E+01  0.14157839876E+04  0.14158270858E+04  0.10000000000E+02 0.  1.
</event>
<event>
 5    1  0.1087513E-008  0.3823244E+03  0.7957747E-01  0.3441100E+00
         13   -1    0    0    0    0  0.00000000000E+00  0.00000000000E+00  0.14999999963E+04  0.15000000000E+04  0.10566000000E+00 0.  1.
        994   -1    0    0    0    0 -0.00000000000E+00 -0.00000000000E+00  0.11368683772E-12  0.17120000000E+03  0.17120000000E+03 0.  0.
         13    1    1    2    0    0 -0.10507145183E+02  0.50527042792E+01  0.21857276287E+02  0.24772597990E+02  0.10566000000E+00 0.  1.
        994    1    1    2    0    0  0.94203602530E+01  0.31046992771E+01  0.32908419677E+01  0.17151866367E+03  0.17120000000E+03 0.  0.
        998    1    1    2    0    0  0.10867849300E+01 -0.81574035564E+01  0.14748518780E+04  0.14749087383E+04  0.10000000000E+02 0.  1.
</event>
<event>
 5    1  0.1087513E-008  0.3775635E+03  0.7957747E-01  0.3461836E+00
         13   -1    0    0    0    0  0.00000000000E+00  0.00000000000E+00  0.14999999963E+04  0.15000000000E+04  0.10566000000E+00 0.  1.
        994   -1    0    0    0    0 -0.00000000000E+00 -0.00000000000E+00  0.11368683772E-12  0.17120000000E+03  0.17120000000E+03 0.  0.
         13    1    1    2    0    0 -0.19898641671E+03 -0.91845377064E+02  0.10356606381E+04  0.10585953598E+04  0.10566000000E+00 0.  1.
        994    1    1    2    0    0  0.19132131158E+03  0.97496510793E+02  0.18095113496E+03  0.32888017138E+03  0.17120000000E+03 0.  0.
        998    1    1    2    0    0  0.76651051342E+01 -0.56511337291E+01  0.28338822319E+03  0.28372446879E+03  0.10000000000E+02 0. -1.
</event>
<event>
 5    1  0.1087513E-008  0.3847923E+03  0.7957747E-01  0.3430553E+00
         13   -1    0    0    0    0  0.00000000000E+00  0.00000000000E+00  0.14999999963E+04  0.15000000000E+04  0.10566000000E+00 0. -1.
        994   -1    0    0    0    0 -0.00000000000E+00 -0.00000000000E+00  0.11368683772E-12  0.17120000000E+03  0.17120000000E+03 0.  0.
         13    1    1    2    0    0  0.12061900665E+02 -0.12953166800E+02  0.94674804785E+02  0.96315127592E+02  0.10566000000E+00 0. -1.
        994    1    1    2    0    0 -0.15399291186E+02 -0.69136029960E+01  0.26715207591E+01  0.17205090264E+03  0.17120000000E+03 0.  0.
        998    1    1    2    0    0  0.33373905204E+01  0.19866769796E+02  0.14026536707E+04  0.14028339698E+04  0.10000000000E+02 0. -1.
</event>
<event>
 5    1  0.1087513E-008  0.3855931E+03  0.7957747E-01  0.3427161E+00
         13   -1    0    0    0    0  0.00000000000E+00  0.00000000000E+00  0.14999999963E+04  0.15000000000E+04  0.10566000000E+00 0.  1.
        994   -1    0    0    0    0 -0.00000000000E+00 -0.00000000000E+00  0.11368683772E-12  0.17120000000E+03  0.17120000000E+03 0.  0.
         13    1    1    2    0    0  0.12481109878E+02 -0.78589005578E+01  0.81510000781E+02  0.82833760105E+02  0.10566000000E+00 0.  1.
        994    1    1    2    0    0 -0.83764359075E+01  0.59516011891E+01  0.16826227458E+01  0.17151634748E+03  0.17120000000E+03 0.  0.
        998    1    1    2    0    0 -0.41046739701E+01  0.19072993687E+01  0.14168073728E+04  0.14168498924E+04  0.10000000000E+02 0.  1.
</event>
<event>
 5    1  0.1087513E-008  0.3830953E+03  0.7957747E-01  0.3437791E+00
         13   -1    0    0    0    0  0.00000000000E+00  0.00000000000E+00  0.14999999963E+04  0.15000000000E+04  0.10566000000E+00 0.  1.
        994   -1    0    0    0    0 -0.00000000000E+00 -0.00000000000E+00  0.11368683772E-12  0.17120000000E+03  0.17120000000E+03 0.  0.
         13    1    1    2    0    0  0.11247044727E+02 -0.39120119325E+01  0.26278170653E+02  0.28850533260E+02  0.10566000000E+00 0.  1.
        994    1    1    2    0    0 -0.12679482889E+02 -0.59308171320E+00  0.31120807787E+01  0.17169812486E+03  0.17120000000E+03 0.  0.
        998    1    1    2    0    0  0.14324381615E+01  0.45050936457E+01  0.14706097448E+04  0.14706513419E+04  0.10000000000E+02 0.  1.
</event>
<event>
 5    1  0.1087513E-008  0.3797142E+03  0.7957747E-01  0.3452404E+00
         13   -1    0    0    0    0  0.00000000000E+00  0.00000000000E+00  0.14999999963E+04  0.15000000000E+04  0.10566000000E+00 0.  1.
        994   -1    0    0    0    0 -0.00000000000E+00 -0.00000000000E+00  0.11368683772E-12  0.17120000000E+03  0.17120000000E+03 0.  0.
         13    1    1    2    0    0 -0.96393546965E+01  0.19222114910E+02  0.52553747494E+02  0.56783046768E+02  0.10566000000E+00 0.  1.
        994    1    1    2    0    0  0.19815025474E+02 -0.52025192115E+01  0.56830797334E+01  0.17251503945E+03  0.17120000000E+03 0.  0.
        998    1    1    2    0    0 -0.10175670777E+02 -0.14019595698E+02  0.14417631691E+04  0.14419019138E+04  0.10000000000E+02 0.  1.
</event>
<event>
 5    1  0.1087513E-008  0.3768412E+03  0.7957747E-01  0.3465029E+00
         13   -1    0    0    0    0  0.00000000000E+00  0.00000000000E+00  0.14999999963E+04  0.15000000000E+04  0.10566000000E+00 0.  1.
        994   -1    0    0    0    0 -0.00000000000E+00 -0.00000000000E+00  0.11368683772E-12  0.17120000000E+03  0.17120000000E+03 0.  0.
         13    1    1    2    0    0 -0.37042190889E+02 -0.39574168449E+02  0.32534518313E+03  0.32982986230E+03  0.10566000000E+00 0.  1.
        994    1    1    2    0    0  0.77800074784E+01 -0.28717372189E+01  0.59686438741E+01  0.17150463580E+03  0.17120000000E+03 0.  0.
        998    1    1    2    0    0  0.29262183410E+02  0.42445905667E+02  0.11686861693E+04  0.11698655019E+04  0.10000000000E+02 0.  1.
</event>
<event>
 5    1  0.1087513E-008  0.4236643E+03  0.7957747E-01  0.3280605E+00
         13   -1    0    0    0    0  0.00000000000E+00  0.00000000000E+00  0.14999999963E+04  0.15000000000E+04  0.10566000000E+00 0. -1.
        994   -1    0    0    0    0 -0.00000000000E+00 -0.00000000000E+00  0.11368683772E-12  0.17120000000E+03  0.17120000000E+03 0.  0.
         13    1    1    2    0    0  0.14890429799E+03 -0.30260512829E+02  0.27240494159E+03  0.31191770062E+03  0.10566000000E+00 0. -1.
        994    1    1    2    0    0 -0.10682379146E+03 -0.86191401994E+02  0.13076357738E+03  0.25543851191E+03  0.17120000000E+03 0.  0.
        998    1    1    2    0    0 -0.42080506532E+02  0.11645191482E+03  0.10968314773E+04  0.11038437875E+04  0.10000000000E+02 0. -1.
</event>
<event>
 5    1  0.1087513E-008  0.3780563E+03  0.7957747E-01  0.3459666E+00
         13   -1    0    0    0    0  0.00000000000E+00  0.00000000000E+00  0.14999999963E+04  0.15000000000E+04  0.10566000000E+00 0.  1.
        994   -1    0    0    0    0 -0.00000000000E+00 -0.00000000000E+00  0.11368683772E-12  0.17120000000E+03  0.17120000000E+03 0.  0.
         13    1    1    2    0    0 -0.64911995745E+02  0.15620250209E+02  0.39352954710E+03  0.39915294689E+03  0.10566000000E+00 0.  1.
        994    1    1    2    0    0  0.43979040688E+02 -0.22978112212E+02  0.13446670262E+02  0.17875234992E+03  0.17120000000E+03 0.  0.
        998    1    1    2    0    0  0.20932955057E+02  0.73578620022E+01  0.10930237789E+04  0.10932947032E+04  0.10000000000E+02 0. -1.
</event>
<event>
 5    1  0.1087513E-008  0.3747245E+03  0.7957747E-01  0.3474456E+00
         13   -1    0    0    0    0  0.00000000000E+00  0.00000000000E+00  0.14999999963E+04  0.15000000000E+04  0.10566000000E+00 0. -1.
        994   -1    0    0    0    0 -0.00000000000E+00 -0.00000000000E+00  0.11368683772E-12  0.17120000000E+03  0.17120000000E+03 0.  0.
         13    1    1    2    0    0  0.32134541671E+02  0.36887447786E+02  0.14870962125E+03  0.15654991277E+03  0.10566000000E+00 0. -1.
        994    1    1    2    0    0 -0.41914263572E+02 -0.42079334986E+02  0.18918267599E+02  0.18219444770E+03  0.17120000000E+03 0.  0.
        998    1    1    2    0    0  0.97797219011E+01  0.51918871993E+01  0.13323721074E+04  0.13324556395E+04  0.10000000000E+02 0. -1.
</event>
<event>
 5    1  0.1087513E-008  0.3789625E+03  0.7957747E-01  0.3455689E+00
         13   -1    0    0    0    0  0.00000000000E+00  0.00000000000E+00  0.14999999963E+04  0.15000000000E+04  0.10566000000E+00 0. -1.
        994   -1    0    0    0    0 -0.00000000000E+00 -0.00000000000E+00  0.11368683772E-12  0.17120000000E+03  0.17120000000E+03 0.  0.
         13    1    1    2    0    0 -0.28285849979E+02 -0.22618048559E+02  0.12981252919E+03  0.13477006095E+03  0.10566000000E+00 0. -1.
        994    1    1    2    0    0  0.26022880457E+02  0.22114647365E+02  0.85798056793E+01  0.17478358333E+03  0.17120000000E+03 0.  0.
        998    1    1    2    0    0  0.22629695218E+01  0.50340119340E+00  0.13616076614E+04  0.13616463557E+04  0.10000000000E+02 0. -1.
</event>
<event>
 5    1  0.1087513E-008  0.3782248E+03  0.7957747E-01  0.3458925E+00
         13   -1    0    0    0    0  0.00000000000E+00  0.00000000000E+00  0.14999999963E+04  0.15000000000E+04  0.10566000000E+00 0.  1.
        994   -1    0    0    0    0 -0.00000000000E+00 -0.00000000000E+00  0.11368683772E-12  0.17120000000E+03  0.17120000000E+03 0.  0.
         13    1    1    2    0    0  0.14127543647E+02  0.33396092972E+02  0.15466720862E+03  0.15886108114E+03  0.10566000000E+00 0.  1.
        994    1    1    2    0    0 -0.96226945673E+00  0.97821834176E+01  0.53568853793E+01  0.17156559473E+03  0.17120000000E+03 0.  0.
        998    1    1    2    0    0 -0.13165274191E+02 -0.43178276390E+02  0.13399759023E+04  0.13407733241E+04  0.10000000000E+02 0.  1.
</event>
<event>
 5    1  0.1087513E-008  0.3840285E+03  0.7957747E-01  0.3433803E+00
         13   -1    0    0    0    0  0.00000000000E+00  0.00000000000E+00  0.14999999963E+04  0.15000000000E+04  0.10566000000E+00 0. -1.
        994   -1    0    0    0    0 -0.00000000000E+00 -0.00000000000E+00  0.11368683772E-12  0.17120000000E+03  0.17120000000E+03 0.  0.
         13    1    1    2    0    0  0.16369648360E+02  0.13562647465E+02  0.11367339259E+03  0.11564411848E+03  0.10566000000E+00 0. -1.
        994    1    1    2    0    0  0.20871060174E+01 -0.98989669138E+01  0.24509298520E+01  0.17151615847E+03  0.17120000000E+03 0.  0.
        998    1    1    2    0    0 -0.18456754377E+02 -0.36636805514E+01  0.13838756738E+04  0.13840397231E+04  0.10000000000E+02 0. -1.
</event>
<event>
 5    1  0.1087513E-008  0.3696079E+03  0.7957747E-01  0.3497695E+00
         13   -1    0    0    0    0  0.00000000000E+00  0.00000000000E+00  0.14999999963E+04  0.15000000000E+04  0.10566000000E+00 0.  1.
        994   -1    0    0    0    0 -0.00000000000E+00 -0.00000000000E+00  0.11368683772E-12  0.17120000000E+03  0.17120000000E+03 0.  0.
         13    1    1    2    0    0 -0.19705946715E+02  0.10510837221E+02  0.22706900024E+02  0.31849905930E+02  0.10566000000E+00 0.  1.
        994    1    1    2    0    0  0.16520850520E+02  0.13016308403E+02  0.11007261392E+02  0.17283796629E+03  0.17120000000E+03 0.  0.
        998    1    1    2    0    0  0.31850961952E+01 -0.23527145624E+02  0.14662858349E+04  0.14665121278E+04  0.10000000000E+02 0.  1.
</event>
<event>
 5    1  0.1087513E-008  0.3743262E+03  0.7957747E-01  0.3476242E+00
         13   -1    0    0    0    0  0.00000000000E+00  0.00000000000E+00  0.14999999963E+04  0.15000000000E+04  0.10566000000E+00 0. -1.
        994   -1    0    0    0    0 -0.00000000000E+00 -0.00000000000E+00  0.11368683772E-12  0.17120000000E+03  0.17120000000E+03 0.  0.
         13    1    1    2    0    0 -0.14467016053E+01 -0.28286475721E+02  0.56227591264E+02  0.62958485033E+02  0.10566000000E+00 0. -1.
        994    1    1    2    0    0  0.17222885549E+02  0.74251135122E+01  0.82244995906E+01  0.17242053964E+03  0.17120000000E+03 0.  0.
        998    1    1    2    0    0 -0.15776183944E+02  0.20861362209E+02  0.14355479054E+04  0.14358209753E+04  0.10000000000E+02 0. -1.
</event>
<event>
 5    1  0.1087513E-008  0.3781804E+03  0.7957747E-01  0.3459120E+00
         13   -1    0    0    0    0  0.00000000000E+00  0.00000000000E+00  0.14999999963E+04  0.15000000000E+04  0.10566000000E+00 0.  1.
        994   -1    0    0    0    0 -0.00000000000E+00 -0.00000000000E+00  0.11368683772E-12  0.17120000000E+03  0.17120000000E+03 0.  0.
         13    1    1    2    0    0  0.14776441815E+02 -0.29162121105E+02  0.98552776052E+02  0.10383368130E+03  0.10566000000E+00 0.  1.
        994    1    1    2    0    0 -0.72600023023E+01  0.31416129813E+02  0.85590194499E+01  0.17442011828E+03  0.17120000000E+03 0.  0.
        998    1    1    2    0    0 -0.75164395128E+01 -0.22540087075E+01  0.13928882008E+04  0.13929462004E+04  0.10000000000E+02 0.  0.
</event>
<event>
 5    1  0.1087513E-008  0.3835308E+03  0.7957747E-01  0.3435927E+00
         13   -1    0    0    0    0  0.00000000000E+00  0.00000000000E+00  0.14999999963E+04  0.15000000000E+04  0.10566000000E+00 0.  1.
        994   -1    0    0    0    0 -0.00000000000E+00 -0.00000000000E+00  0.11368683772E-12  0.17120000000E+03  0.17120000000E+03 0.  0.
         13    1    1    2    0    0 -0.16792894309E+02 -0.29899558813E-01  0.58072848023E+02  0.60452204549E+02  0.10566000000E+00 0.  1.
        994    1    1    2    0    0  0.14473623959E+02 -0.45050652072E+00  0.30545183959E+01  0.17183846726E+03  0.17120000000E+03 0.  0.
        998    1    1    2    0    0  0.23192703505E+01  0.48040607953E+00  0.14388726299E+04  0.14389093282E+04  0.10000000000E+02 0.  1.
</event>
<event>
 5    1  0.1087513E-008  0.3701913E+03  0.7957747E-01  0.3495012E+00
         13   -1    0    0    0    0  0.00000000000E+00  0.00000000000E+00  0.14999999963E+04  0.15000000000E+04  0.10566000000E+00 0.  1.
        994   -1    0    0    0    0 -0.00000000000E+00 -0.00000000000E+00  0.11368683772E-12  0.17120000000E+03  0.17120000000E+03 0.  0.
         13    1    1    2    0    0  0.36180576546E+02 -0.89933435411E+02  0.36739448936E+03  0.37996812879E+03  0.10566000000E+00 0.  1.
        994    1    1    2    0    0 -0.18968132726E+02  0.10183729271E+03  0.47216909697E+02  0.20559547857E+03  0.17120000000E+03 0.  0.
        998    1    1    2    0    0 -0.17212443821E+02 -0.11903857299E+02  0.10853885972E+04  0.10856363926E+04  0.10000000000E+02 0.  1.
</event>
<event>
 5    1  0.1087513E-008  0.3827060E+03  0.7957747E-01  0.3439460E+00
         13   -1    0    0    0    0  0.00000000000E+00  0.00000000000E+00  0.14999999963E+04  0.15000000000E+04  0.10566000000E+00 0.  1.
        994   -1    0    0    0    0 -0.00000000000E+00 -0.00000000000E+00  0.11368683772E-12  0.17120000000E+03  0.17120000000E+03 0.  0.
         13    1    1    2    0    0  0.25279543440E+02 -0.86832284664E+01  0.14390324942E+03  0.14636464782E+03  0.10566000000E+00 0.  1.
        994    1    1    2    0    0  0.19997547336E+01  0.79112773381E+01  0.29940246137E+01  0.17142051077E+03  0.17120000000E+03 0.  0.
        998    1    1    2    0    0 -0.27279298173E+02  0.77195112827E+00  0.13531027222E+04  0.13534148414E+04  0.10000000000E+02 0.  1.
</event>
<event>
 5    1  0.1087513E-008  0.3729428E+03  0.7957747E-01  0.3482475E+00
         13   -1    0    0    0    0  0.00000000000E+00  0.00000000000E+00  0.14999999963E+04  0.15000000000E+04  0.10566000000E+00 0. -1.
        994   -1    0    0    0    0 -0.00000000000E+00 -0.00000000000E+00  0.11368683772E-12  0.17120000000E+03  0.17120000000E+03 0.  0.
         13    1    1    2    0    0 -0.34229604305E+02 -0.19489460401E+02  0.55474736795E+02  0.68036478922E+02  0.10566000000E+00 0. -1.
        994    1    1    2    0    0  0.36637869384E+02  0.14230724425E+02  0.17980243820E+02  0.17657173092E+03  0.17120000000E+03 0.  0.
        998    1    1    2    0    0 -0.24082650789E+01  0.52587359758E+01  0.14265450157E+04  0.14265917902E+04  0.10000000000E+02 0. -1.
</event>
<event>
 5    1  0.1135300E-008  0.3865804E+03  0.7957747E-01  0.3422997E+00
         13   -1    0    0    0    0  0.00000000000E+00  0.00000000000E+00  0.14999999963E+04  0.15000000000E+04  0.10566000000E+00 0. -1.
        994   -1    0    0    0    0 -0.00000000000E+00 -0.00000000000E+00  0.11368683772E-12  0.17120000000E+03  0.17120000000E+03 0.  0.
         13    1    1    2    0    0  0.61888245093E+01  0.81228172765E+01  0.60044738200E+02  0.60907006648E+02  0.10566000000E+00 0. -1.
        994    1    1    2    0    0 -0.11331288826E+01 -0.15203559053E+02  0.16083562295E+01  0.17188501680E+03  0.17120000000E+03 0.  0.
        998    1    1    2    0    0 -0.50556956267E+01  0.70807417762E+01  0.14383469018E+04  0.14384079766E+04  0.10000000000E+02 0. -1.
</event>
<event>
 5    1  0.1087513E-008  0.3847668E+03  0.7957747E-01  0.3430662E+00
         13   -1    0    0    0    0  0.00000000000E+00  0.00000000000E+00  0.14999999963E+04  0.15000000000E+04  0.10566000000E+00 0. -1.
        994   -1    0    0    0    0 -0.00000000000E+00 -0.00000000000E+00  0.11368683772E-12  0.17120000000E+03  0.17120000000E+03 0.  0.
         13    1    1    2    0    0 -0.51497305841E+01  0.18533252041E+02  0.10551764937E+03  0.10725663918E+03  0.10566000000E+00 0. -1.
        994    1    1    2    0    0 -0.74282510363E+01 -0.15365903553E+02  0.27052414053E+01  0.17206989346E+03  0.17120000000E+03 0.  0.
        998    1    1    2    0    0  0.12577981620E+02 -0.31673484879E+01  0.13917771055E+04  0.13918734674E+04  0.10000000000E+02 0. -1.
</event>
<event>
 5    1  0.1087513E-008  0.3857192E+03  0.7957747E-01  0.3426628E+00
         13   -1    0    0    0    0  0.00000000000E+00  0.00000000000E+00  0.14999999963E+04  0.15000000000E+04  0.10566000000E+00 0. -1.
        994   -1    0    0    0    0 -0.00000000000E+00 -0.00000000000E+00  0.11368683772E-12  0.17120000000E+03  0.17120000000E+03 0.  0.
         13    1    1    2    0    0 -0.90521378793E+01 -0.11428531945E+02  0.81125174519E+02  0.82424860614E+02  0.10566000000E+00 0. -1.
        994    1    1    2    0    0  0.67642999552E+01  0.12572009932E+02  0.19424709073E+01  0.17180519311E+03  0.17120000000E+03 0.  0.
        998    1    1    2    0    0  0.22878379241E+01 -0.11434779867E+01  0.14169323509E+04  0.14169699463E+04  0.10000000000E+02 0. -1.
</event>
<event>
 5    1  0.1087513E-008  0.3716370E+03  0.7957747E-01  0.3488401E+00
         13   -1    0    0    0    0  0.00000000000E+00  0.00000000000E+00  0.14999999963E+04  0.15000000000E+04  0.10566000000E+00 0.  1.
        994   -1    0    0    0    0 -0.00000000000E+00 -0.00000000000E+00  0.11368683772E-12  0.17120000000E+03  0.17120000000E+03 0.  0.
         13    1    1    2    0    0 -0.90058519770E+01 -0.48296569001E+01  0.22583741063E+01  0.10466249244E+02  0.10566000000E+00 0.  1.
        994    1    1    2    0    0  0.96220197336E+01  0.23190473244E+01  0.87527876611E+01  0.17170909276E+03  0.17120000000E+03 0.  0.
        998    1    1    2    0    0 -0.61616775659E+00  0.25106095757E+01  0.14889888345E+04  0.14890246580E+04  0.10000000000E+02 0.  1.
</event>
<event>
 5    1  0.1087513E-008  0.3792982E+03  0.7957747E-01  0.3454220E+00
         13   -1    0    0    0    0  0.00000000000E+00  0.00000000000E+00  0.14999999963E+04  0.15000000000E+04  0.10566000000E+00 0.  1.
        994   -1    0    0    0    0 -0.00000000000E+00 -0.00000000000E+00  0.11368683772E-12  0.17120000000E+03  0.17120000000E+03 0.  0.
         13    1    1    2    0    0  0.30970751272E+02 -0.25976619188E+02  0.19943767742E+03  0.20349292499E+03  0.10566000000E+00 0.  1.
        994    1    1    2    0    0 -0.64108692171E+01  0.72842404758E+01  0.48033900411E+01  0.17154204138E+03  0.17120000000E+03 0.  0.
        998    1    1    2    0    0 -0.24559882055E+02  0.18692378712E+02  0.12957589288E+04  0.12961650336E+04  0.10000000000E+02 0.  1.
</event>
<event>
 5    1  0.1087513E-008  0.3684902E+03  0.7957747E-01  0.3502858E+00
         13   -1    0    0    0    0  0.00000000000E+00  0.00000000000E+00  0.14999999963E+04  0.15000000000E+04  0.10566000000E+00 0. -1.
        994   -1    0    0    0    0 -0.00000000000E+00 -0.00000000000E+00  0.11368683772E-12  0.17120000000E+03  0.17120000000E+03 0.  0.
         13    1    1    2    0    0  0.71765529284E+02  0.21976770325E+02  0.45308891243E+03  0.45926337037E+03  0.10566000000E+00 0. -1.
        994    1    1    2    0    0  0.45681405653E+01  0.21275249041E+02  0.11707868262E+02  0.17297403941E+03  0.17120000000E+03 0.  0.
        998    1    1    2    0    0 -0.76333669849E+02 -0.43252019365E+02  0.10352032156E+04  0.10389625902E+04  0.10000000000E+02 0. -1.
</event>
<event>
 5    1  0.1087513E-008  0.3695219E+03  0.7957747E-01  0.3498091E+00
         13   -1    0    0    0    0  0.00000000000E+00  0.00000000000E+00  0.14999999963E+04  0.15000000000E+04  0.10566000000E+00 0. -1.
        994   -1    0    0    0    0 -0.00000000000E+00 -0.00000000000E+00  0.11368683772E-12  0.17120000000E+03  0.17120000000E+03 0.  0.
         13    1    1    2    0    0 -0.88600128161E+02 -0.89380716705E+02  0.48628743436E+03  0.50230904352E+03  0.10566000000E+00 0. -1.
        994    1    1    2    0    0  0.95336886038E+02  0.80487761995E+02  0.67178235808E+02  0.22223806388E+03  0.17120000000E+03 0.  0.
        998    1    1    2    0    0 -0.67367578770E+01  0.88929547096E+01  0.94653432611E+03  0.94665289260E+03  0.10000000000E+02 0. -1.
</event>
<event>
 5    1  0.1087513E-008  0.3706130E+03  0.7957747E-01  0.3493079E+00
         13   -1    0    0    0    0  0.00000000000E+00  0.00000000000E+00  0.14999999963E+04  0.15000000000E+04  0.10566000000E+00 0. -1.
        994   -1    0    0    0    0 -0.00000000000E+00 -0.00000000000E+00  0.11368683772E-12  0.17120000000E+03  0.17120000000E+03 0.  0.
         13    1    1    2    0    0  0.36856827037E+02  0.43815481521E+02  0.15782678382E+03  0.16789141424E+03  0.10566000000E+00 0. -1.
        994    1    1    2    0    0 -0.41534526003E+01 -0.99462638432E+01  0.11670434668E+02  0.17193550645E+03  0.17120000000E+03 0.  0.
        998    1    1    2    0    0 -0.32703374437E+02 -0.33869217678E+02  0.13305027778E+04  0.13313730793E+04  0.10000000000E+02 0. -1.
</event>
<event>
 5    1  0.1087513E-008  0.3850561E+03  0.7957747E-01  0.3429434E+00
         13   -1    0    0    0    0  0.00000000000E+00  0.00000000000E+00  0.14999999963E+04  0.15000000000E+04  0.10566000000E+00 0. -1.
        994   -1    0    0    0    0 -0.00000000000E+00 -0.00000000000E+00  0.11368683772E-12  0.17120000000E+03  0.17120000000E+03 0.  0.
         13    1    1    2    0    0 -0.96607792536E+01  0.38620584834E+01  0.36085425745E+02  0.37555495826E+02  0.10566000000E+00 0. -1.
        994    1    1    2    0    0 -0.53294713273E+01  0.67925040809E+01  0.18474437922E+01  0.17142751945E+03  0.17120000000E+03 0.  0.
        998    1    1    2    0    0  0.14990250581E+02 -0.10654562564E+02  0.14620671267E+04  0.14622169847E+04  0.10000000000E+02 0. -1.
</event>
<event>
 5    1  0.1087513E-008  0.3743407E+03  0.7957747E-01  0.3476177E+00
         13   -1    0    0    0    0  0.00000000000E+00  0.00000000000E+00  0.14999999963E+04  0.15000000000E+04  0.10566000000E+00 0.  1.
        994   -1    0    0    0    0 -0.00000000000E+00 -0.00000000000E+00  0.11368683772E-12  0.17120000000E+03  0.17120000000E+03 0.  0.
         13    1    1    2    0    0  0.38726241629E+02  0.62211711128E+01  0.10307119342E+03  0.11028194249E+03  0.10566000000E+00 0.  1.
        994    1    1    2    0    0 -0.31552703200E+02 -0.13128685100E+02  0.11006949907E+02  0.17492435050E+03  0.17120000000E+03 0.  0.
        998    1    1    2    0    0 -0.71735384291E+01  0.69075139868E+01  0.13859218529E+04  0.13859937070E+04  0.10000000000E+02 0.  1.
</event>
<event>
 5    1  0.1087513E-008  0.3830585E+03  0.7957747E-01  0.3437948E+00
         13   -1    0    0    0    0  0.00000000000E+00  0.00000000000E+00  0.14999999963E+04  0.15000000000E+04  0.10566000000E+00 0. -1.
        994   -1    0    0    0    0 -0.00000000000E+00 -0.00000000000E+00  0.11368683772E-12  0.17120000000E+03  0.17120000000E+03 0.  0.
         13    1    1    2    0    0  0.61924068668E+00  0.11749615787E+02  0.25514089512E+02  0.28096563096E+02  0.10566000000E+00 0. -1.
        994    1    1    2    0    0  0.22514266453E+01 -0.10906665149E+02  0.30076906982E+01  0.17158820026E+03  0.17120000000E+03 0.  0.
        998    1    1    2    0    0 -0.28706673320E+01 -0.84295063785E+00  0.14714782161E+04  0.14715152366E+04  0.10000000000E+02 0. -1.
</event>
<event>
 5    1  0.1087513E-008  0.3827976E+03  0.7957747E-01  0.3439067E+00
         13   -1    0    0    0    0  0.00000000000E+00  0.00000000000E+00  0.14999999963E+04  0.15000000000E+04  0.10566000000E+00 0. -1.
        994   -1    0    0    0    0 -0.00000000000E+00 -0.00000000000E+00  0.11368683772E-12  0.17120000000E+03  0.17120000000E+03 0.  0.
         13    1    1    2    0    0  0.11956095227E+02  0.16126019583E+02  0.70485006027E+02  0.73288088796E+02  0.10566000000E+00 0. -1.
        994    1    1    2    0    0 -0.48860752597E+01 -0.21029419741E+02  0.42729606588E+01  0.17260883065E+03  0.17120000000E+03 0.  0.
        998    1    1    2    0    0 -0.70700199669E+01  0.49034001579E+01  0.14252420296E+04  0.14253030806E+04  0.10000000000E+02 0. -1.
</event>
<event>
 5    1  0.1087513E-008  0.3702422E+03  0.7957747E-01  0.3494779E+00
         13   -1    0    0    0    0  0.00000000000E+00  0.00000000000E+00  0.14999999963E+04  0.15000000000E+04  0.10566000000E+00 0.  1.
        994   -1    0    0    0    0 -0.00000000000E+00 -0.00000000000E+00  0.11368683772E-12  0.17120000000E+03  0.17120000000E+03 0.  0.
         13    1    1    2    0    0 -0.82774798546E+01  0.15603392645E+02  0.13779863492E+02  0.22402641288E+02  0.10566000000E+00 0.  1.
        994    1    1    2    0    0  0.22358269043E+02  0.26458198067E+02  0.13299309675E+02  0.17517488427E+03  0.17120000000E+03 0.  0.
        998    1    1    2    0    0 -0.14080789189E+02 -0.42061590712E+02  0.14729208231E+04  0.14736224744E+04  0.10000000000E+02 0.  1.
</event>
<event>
 5    1  0.1087513E-008  0.3804167E+03  0.7957747E-01  0.3449346E+00
         13   -1    0    0    0    0  0.00000000000E+00  0.00000000000E+00  0.14999999963E+04  0.15000000000E+04  0.10566000000E+00 0. -1.
        994   -1    0    0    0    0 -0.00000000000E+00 -0.00000000000E+00  0.11368683772E-12  0.17120000000E+03  0.17120000000E+03 0.  0.
         13    1    1    2    0    0 -0.14540611325E+02 -0.11350787237E+02  0.42974455087E+02  0.46766277409E+02  0.10566000000E+00 0. -1.
        994    1    1    2    0    0  0.96349461767E+01 -0.39513789450E+01  0.42850537396E+01  0.17156994862E+03  0.17120000000E+03 0.  0.
        998    1    1    2    0    0  0.49056651482E+01  0.15302166182E+02  0.14527404875E+04  0.14528637740E+04  0.10000000000E+02 0. -1.
</event>
<event>
 5    1  0.1087513E-008  0.3844507E+03  0.7957747E-01  0.3432005E+00
         13   -1    0    0    0    0  0.00000000000E+00  0.00000000000E+00  0.14999999963E+04  0.15000000000E+04  0.10566000000E+00 0.  1.
        994   -1    0    0    0    0 -0.00000000000E+00 -0.00000000000E+00  0.11368683772E-12  0.17120000000E+03  0.17120000000E+03 0.  0.
         13    1    1    2    0    0 -0.12237833502E+02  0.10918395346E+02  0.74848173035E+02  0.76623991650E+02  0.10566000000E+00 0.  1.
        994    1    1    2    0    0  0.94757979306E+01  0.86385605955E+01  0.24449707107E+01  0.17169692297E+03  0.17120000000E+03 0.  0.
        998    1    1    2    0    0  0.27620355715E+01 -0.19556955941E+02  0.14227068525E+04  0.14228790854E+04  0.10000000000E+02 0.  1.
</event>
<event>
 5    1  0.1087513E-008  0.3722020E+03  0.7957747E-01  0.3485832E+00
         13   -1    0    0    0    0  0.00000000000E+00  0.00000000000E+00  0.14999999963E+04  0.15000000000E+04  0.10566000000E+00 0. -1.
        994   -1    0    0    0    0 -0.00000000000E+00 -0.00000000000E+00  0.11368683772E-12  0.17120000000E+03  0.17120000000E+03 0.  0.
         13    1    1    2    0    0  0.21760702520E+02 -0.22846802601E+02  0.52929600859E+02  0.61620275676E+02  0.10566000000E+00 0. -1.
        994    1    1    2    0    0 -0.55985039470E+02  0.17306578487E+02  0.19999711114E+02  0.18205293392E+03  0.17120000000E+03 0.  0.
        998    1    1    2    0    0  0.34224336950E+02  0.55402241148E+01  0.14270706843E+04  0.14275267904E+04  0.10000000000E+02 0. -1.
</event>
<event>
 5    1  0.1087513E-008  0.3775828E+03  0.7957747E-01  0.3461752E+00
         13   -1    0    0    0    0  0.00000000000E+00  0.00000000000E+00  0.14999999963E+04  0.15000000000E+04  0.10566000000E+00 0.  1.
        994   -1    0    0    0    0 -0.00000000000E+00 -0.00000000000E+00  0.11368683772E-12  0.17120000000E+03  0.17120000000E+03 0.  0.
         13    1    1    2    0    0  0.25288604591E+02 -0.10236339560E+03  0.60362759410E+03  0.61276754304E+03  0.10566000000E+00 0.  1.
        994    1    1    2    0    0  0.49550143114E+02  0.14375984165E+03  0.87717248342E+02  0.24520575933E+03  0.17120000000E+03 0.  0.
        998    1    1    2    0    0 -0.74838747706E+02 -0.41396446049E+02  0.80865515384E+03  0.81322669763E+03  0.10000000000E+02 0. -1.
</event>
<event>
 5    1  0.1087513E-008  0.3806764E+03  0.7957747E-01  0.3448219E+00
         13   -1    0    0    0    0  0.00000000000E+00  0.00000000000E+00  0.14999999963E+04  0.15000000000E+04  0.10566000000E+00 0. -1.
        994   -1    0    0    0    0 -0.00000000000E+00 -0.00000000000E+00  0.11368683772E-12  0.17120000000E+03  0.17120000000E+03 0.  0.
         13    1    1    2    0    0  0.13411329964E+02 -0.16602542879E+02  0.65896023832E+02  0.69266191770E+02  0.10566000000E+00 0. -1.
        994    1    1    2    0    0 -0.90228824425E+01 -0.22844600663E+02  0.58069467316E+01  0.17305042276E+03  0.17120000000E+03 0.  0.
        998    1    1    2    0    0 -0.43884475211E+01  0.39447143543E+02  0.14282970257E+04  0.14288833855E+04  0.10000000000E+02 0. -1.
</event>
<event>
 5    1  0.1087513E-008  0.3786608E+03  0.7957747E-01  0.3457010E+00
         13   -1    0    0    0    0  0.00000000000E+00  0.00000000000E+00  0.14999999963E+04  0.15000000000E+04  0.10566000000E+00 0. -1.
        994   -1    0    0    0    0 -0.00000000000E+00 -0.00000000000E+00  0.11368683772E-12  0.17120000000E+03  0.17120000000E+03 0.  0.
         13    1    1    2    0    0  0.59276076194E+01 -0.17471395704E+02  0.36021565985E+02  0.40471602143E+02  0.10566000000E+00 0. -1.
        994    1    1    2    0    0 -0.25962978926E+01 -0.12766984305E+02  0.53808173693E+01  0.17177930564E+03  0.17120000000E+03 0.  0.
        998    1    1    2    0    0 -0.33313097268E+01  0.30238380010E+02  0.14585976129E+04  0.14589490922E+04  0.10000000000E+02 0. -1.
</event>
<event>
 5    1  0.1087513E-008  0.3814071E+03  0.7957747E-01  0.3445054E+00
         13   -1    0    0    0    0  0.00000000000E+00  0.00000000000E+00  0.14999999963E+04  0.15000000000E+04  0.10566000000E+00 0.  1.
        994   -1    0    0    0    0 -0.00000000000E+00 -0.00000000000E+00  0.11368683772E-12  0.17120000000E+03  0.17120000000E+03 0.  0.
         13    1    1    2    0    0  0.74054362591E+01 -0.21223248582E+02  0.70978457328E+02  0.74452799379E+02  0.10566000000E+00 0.  1.
        994    1    1    2    0    0 -0.11802565307E+02  0.16044929440E+02  0.47457784158E+01  0.17242013433E+03  0.17120000000E+03 0.  0.
        998    1    1    2    0    0  0.43971290482E+01  0.51783191416E+01  0.14242757605E+04  0.14243270663E+04  0.10000000000E+02 0.  1.
</event>
<event>
 5    1  0.1087513E-008  0.3827339E+03  0.7957747E-01  0.3439340E+00
         13   -1    0    0    0    0  0.00000000000E+00  0.00000000000E+00  0.14999999963E+04  0.15000000000E+04  0.10566000000E+00 0. -1.
        994   -1    0    0    0    0 -0.00000000000E+00 -0.00000000000E+00  0.11368683772E-12  0.17120000000E+03  0.17120000000E+03 0.  0.
         13    1    1    2    0    0  0.24468408854E+01 -0.33769117857E+02  0.18290228927E+03  0.18600967430E+03  0.10566000000E+00 0. -1.
        994    1    1    2    0    0 -0.14388358598E+01  0.34641882184E+02  0.67522915084E+01  0.17480607452E+03  0.17120000000E+03 0.  0.
        998    1    1    2    0    0 -0.10080050256E+01 -0.87276432764E+00  0.13103454155E+04  0.13103842512E+04  0.10000000000E+02 0. -1.
</event>
<event>
 5    1  0.1087513E-008  0.3572474E+03  0.7957747E-01  0.3556634E+00
         13   -1    0    0    0    0  0.00000000000E+00  0.00000000000E+00  0.14999999963E+04  0.15000000000E+04  0.10566000000E+00 0.  1.
        994   -1    0    0    0    0 -0.00000000000E+00 -0.00000000000E+00  0.11368683772E-12  0.17120000000E+03  0.17120000000E+03 0.  0.
         13    1    1    2    0    0  0.25065076458E+03 -0.24819507101E+02  0.99729633736E+03  0.10286115931E+04  0.10566000000E+00 0.  1.
        994    1    1    2    0    0 -0.24838241197E+03 -0.15692214760E+02  0.26685045207E+03  0.40306162302E+03  0.17120000000E+03 0.  0.
        998    1    1    2    0    0 -0.22683526146E+01  0.40511721861E+02  0.23585320685E+03  0.23952678392E+03  0.10000000000E+02 0.  1.
</event>
<event>
 5    1  0.1087513E-008  0.3769653E+03  0.7957747E-01  0.3464480E+00
         13   -1    0    0    0    0  0.00000000000E+00  0.00000000000E+00  0.14999999963E+04  0.15000000000E+04  0.10566000000E+00 0. -1.
        994   -1    0    0    0    0 -0.00000000000E+00 -0.00000000000E+00  0.11368683772E-12  0.17120000000E+03  0.17120000000E+03 0.  0.
         13    1    1    2    0    0  0.13023297331E+02 -0.70027443279E+02  0.27126713637E+03  0.28046268829E+03  0.10566000000E+00 0. -1.
        994    1    1    2    0    0  0.34035110522E+02  0.12204102257E+03  0.61956492339E+02  0.22181173747E+03  0.17120000000E+03 0.  0.
        998    1    1    2    0    0 -0.47058407853E+02 -0.52013579291E+02  0.11667763676E+04  0.11689255742E+04  0.10000000000E+02 0. -1.
</event>
<event>
 5    1  0.1087513E-008  0.2730254E+03  0.7957747E-01  0.4109646E+00
         13   -1    0    0    0    0  0.00000000000E+00  0.00000000000E+00  0.14999999963E+04  0.15000000000E+04  0.10566000000E+00 0. -1.
        994   -1    0    0    0    0 -0.00000000000E+00 -0.00000000000E+00  0.11368683772E-12  0.17120000000E+03  0.17120000000E+03 0.  0.
         13    1    1    2    0    0 -0.23152583824E+03 -0.10013849232E+03  0.68390159719E+03  0.72893987215E+03  0.10566000000E+00 0. -1.
        994    1    1    2    0    0  0.86746621037E+02  0.91810521160E+01  0.12259769470E+03  0.22792301929E+03  0.17120000000E+03 0.  0.
        998    1    1    2    0    0  0.14477921720E+03  0.90957440200E+02  0.69350070439E+03  0.71433710855E+03  0.10000000000E+02 0. -1.
</event>
<event>
 5    1  0.1087513E-008  0.3860370E+03  0.7957747E-01  0.3425286E+00
         13   -1    0    0    0    0  0.00000000000E+00  0.00000000000E+00  0.14999999963E+04  0.15000000000E+04  0.10566000000E+00 0.  1.
        994   -1    0    0    0    0 -0.00000000000E+00 -0.00000000000E+00  0.11368683772E-12  0.17120000000E+03  0.17120000000E+03 0.  0.
         13    1    1    2    0    0 -0.10173566877E+02  0.29444224269E+01  0.49151057254E+02  0.50279306674E+02  0.10566000000E+00 0.  1.
        994    1    1    2    0    0  0.12466510134E+02 -0.14143751961E+01  0.16322508354E+01  0.17166688258E+03  0.17120000000E+03 0.  0.
        998    1    1    2    0    0 -0.22929432574E+01 -0.15300472308E+01  0.14492166882E+04  0.14492538107E+04  0.10000000000E+02 0.  1.
</event>
<event>
 5    1  0.1087513E-008  0.3845804E+03  0.7957747E-01  0.3431454E+00
         13   -1    0    0    0    0  0.00000000000E+00  0.00000000000E+00  0.14999999963E+04  0.15000000000E+04  0.10566000000E+00 0. -1.
        994   -1    0    0    0    0 -0.00000000000E+00 -0.00000000000E+00  0.11368683772E-12  0.17120000000E+03  0.17120000000E+03 0.  0.
         13    1    1    2    0    0 -0.11015254096E+02 -0.14959700688E+02  0.98658928034E+02  0.10039284692E+03  0.10566000000E+00 0. -1.
        994    1    1    2    0    0  0.59307018895E+01  0.17119545316E+01  0.19640936791E+01  0.17132250780E+03  0.17120000000E+03 0.  0.
        998    1    1    2    0    0  0.50845522062E+01  0.13247746156E+02  0.13993769746E+04  0.13994846453E+04  0.10000000000E+02 0. -1.
</event>
<event>
 5    1  0.1087513E-008  0.3844678E+03  0.7957747E-01  0.3431933E+00
         13   -1    0    0    0    0  0.00000000000E+00  0.00000000000E+00  0.14999999963E+04  0.15000000000E+04  0.10566000000E+00 0. -1.
        994   -1    0    0    0    0 -0.00000000000E+00 -0.00000000000E+00  0.11368683772E-12  0.17120000000E+03  0.17120000000E+03 0.  0.
         13    1    1    2    0    0 -0.17236708256E+02 -0.15275888979E+01  0.78361657747E+02  0.80249599427E+02  0.10566000000E+00 0. -1.
        994    1    1    2    0    0  0.11695773909E+02  0.44485511907E+01  0.24106097500E+01  0.17167361991E+03  0.17120000000E+03 0.  0.
        998    1    1    2    0    0  0.55409343469E+01 -0.29209622929E+01  0.14192277288E+04  0.14192767807E+04  0.10000000000E+02 0. -1.
</event>
<event>
 5    1  0.1087513E-008  0.3835655E+03  0.7957747E-01  0.3435779E+00
         13   -1    0    0    0    0  0.00000000000E+00  0.00000000000E+00  0.14999999963E+04  0.15000000000E+04  0.10566000000E+00 0.  1.
        994   -1    0    0    0    0 -0.00000000000E+00 -0.00000000000E+00  0.11368683772E-12  0.17120000000E+03  0.17120000000E+03 0.  0.
         13    1    1    2    0    0 -0.43189622262E+02  0.21831961409E+02  0.55011995645E+02  0.73268743943E+02  0.10566000000E+00 0.  1.
        994    1    1    2    0    0  0.34832977924E+02 -0.42411971751E+02  0.29443324644E+02  0.18217700476E+03  0.17120000000E+03 0.  0.
        998    1    1    2    0    0  0.83566443382E+01  0.20580010342E+02  0.14155446760E+04  0.14157542513E+04  0.10000000000E+02 0.  1.
</event>
<event>
 5    1  0.1087513E-008  0.3732412E+03  0.7957747E-01  0.3481126E+00
         13   -1    0    0    0    0  0.00000000000E+00  0.00000000000E+00  0.14999999963E+04  0.15000000000E+04  0.10566000000E+00 0.  1.
        994   -1    0    0    0    0 -0.00000000000E+00 -0.00000000000E+00  0.11368683772E-12  0.17120000000E+03  0.17120000000E+03 0.  0.
         13    1    1    2    0    0 -0.46183149310E+02  0.56825536508E+02  0.31395827075E+03  0.32238460233E+03  0.10566000000E+00 0.  1.
        994    1    1    2    0    0  0.51344214036E+02 -0.32800310396E+02  0.20386438632E+02  0.18285823896E+03  0.17120000000E+03 0.  0.
        998    1    1    2    0    0 -0.51610647253E+01 -0.24025226112E+02  0.11656552869E+04  0.11659571587E+04  0.10000000000E+02 0.  1.
</event>
<event>
 5    1  0.1087513E-008  0.3847504E+03  0.7957747E-01  0.3430731E+00
         13   -1    0    0    0    0  0.00000000000E+00  0.00000000000E+00  0.14999999963E+04  0.15000000000E+04  0.10566000000E+00 0. -1.
        994   -1    0    0    0    0 -0.00000000000E+00 -0.00000000000E+00  0.11368683772E-12  0.17120000000E+03  0.17120000000E+03 0.  0.
         13    1    1    2    0    0  0.96155660275E+01  0.12712952930E+02  0.70657342868E+02  0.72433069432E+02  0.10566000000E+00 0. -1.
        994    1    1    2    0    0 -0.20280576985E+01 -0.16220946363E+02  0.26341243384E+01  0.17199886840E+03  0.17120000000E+03 0.  0.
        998    1    1    2    0    0 -0.75875083290E+01  0.35079934329E+01  0.14267085291E+04  0.14267680622E+04  0.10000000000E+02 0. -1.
</event>
<event>
 5    1  0.1087513E-008  0.3742867E+03  0.7957747E-01  0.3476419E+00
         13   -1    0    0    0    0  0.00000000000E+00  0.00000000000E+00  0.14999999963E+04  0.15000000000E+04  0.10566000000E+00 0. -1.
        994   -1    0    0    0    0 -0.00000000000E+00 -0.00000000000E+00  0.11368683772E-12  0.17120000000E+03  0.17120000000E+03 0.  0.
         13    1    1    2    0    0  0.31468482210E+02  0.33293786144E+02  0.15035973669E+03  0.15718397866E+03  0.10566000000E+00 0. -1.
        994    1    1    2    0    0 -0.46977315050E+02  0.12211762195E+02  0.15116075620E+02  0.17858872027E+03  0.17120000000E+03 0.  0.
        998    1    1    2    0    0  0.15508832840E+02 -0.45505548338E+02  0.13345241840E+04  0.13354273011E+04  0.10000000000E+02 0. -1.
</event>
<event>
 5    1  0.1087513E-008  0.3851443E+03  0.7957747E-01  0.3429061E+00
         13   -1    0    0    0    0  0.00000000000E+00  0.00000000000E+00  0.14999999963E+04  0.15000000000E+04  0.10566000000E+00 0.  1.
        994   -1    0    0    0    0 -0.00000000000E+00 -0.00000000000E+00  0.11368683772E-12  0.17120000000E+03  0.17120000000E+03 0.  0.
         13    1    1    2    0    0  0.16693810713E+01 -0.11550745368E+02  0.43044400686E+02  0.44598633904E+02  0.10566000000E+00 0.  1.
        994    1    1    2    0    0  0.32388041327E+01  0.11160399778E+02  0.20025622627E+01  0.17160563694E+03  0.17120000000E+03 0.  0.
        998    1    1    2    0    0 -0.49081852040E+01  0.39034558953E+00  0.14549530333E+04  0.14549957292E+04  0.10000000000E+02 0.  1.
</event>
<event>
 5    1  0.1087513E-008  0.3804706E+03  0.7957747E-01  0.3449112E+00
         13   -1    0    0    0    0  0.00000000000E+00  0.00000000000E+00  0.14999999963E+04  0.15000000000E+04  0.10566000000E+00 0. -1.
        994   -1    0    0    0    0 -0.00000000000E+00 -0.00000000000E+00  0.11368683772E-12  0.17120000000E+03  0.17120000000E+03 0.  0.
         13    1    1    2    0    0  0.16709360546E+02  0.36327853864E+02  0.22939969293E+03  0.23285863947E+03  0.10566000000E+00 0. -1.
        994    1    1    2    0    0 -0.24665889913E+01 -0.87140014494E+01  0.41695638110E+01  0.17149006719E+03  0.17120000000E+03 0.  0.
        998    1    1    2    0    0 -0.14242771554E+02 -0.27613852414E+02  0.12664307395E+04  0.12668512933E+04  0.10000000000E+02 0. -1.
</event>
<event>
 5    1  0.1087513E-008  0.3842860E+03  0.7957747E-01  0.3432706E+00
         13   -1    0    0    0    0  0.00000000000E+00  0.00000000000E+00  0.14999999963E+04  0.15000000000E+04  0.10566000000E+00 0.  1.
        994   -1    0    0    0    0 -0.00000000000E+00 -0.00000000000E+00  0.11368683772E-12  0.17120000000E+03  0.17120000000E+03 0.  0.
         13    1    1    2    0    0  0.20358207007E+02 -0.83104495994E+01  0.12762293707E+03  0.12950345708E+03  0.10566000000E+00 0.  1.
        994    1    1    2    0    0 -0.14581896222E+02 -0.14095195613E+02  0.33420000298E+01  0.17242944992E+03  0.17120000000E+03 0.  0.
        998    1    1    2    0    0 -0.57763107847E+01  0.22405645213E+02  0.13690350592E+04  0.13692670930E+04  0.10000000000E+02 0.  1.
</event>
<event>
 5    1  0.1087513E-008  0.3825573E+03  0.7957747E-01  0.3440099E+00
         13   -1    0    0    0    0  0.00000000000E+00  0.00000000000E+00  0.14999999963E+04  0.15000000000E+04  0.10566000000E+00 0.  1.
        994   -1    0    0    0    0 -0.00000000000E+00 -0.00000000000E+00  0.11368683772E-12  0.17120000000E+03  0.17120000000E+03 0.  0.
         13    1    1    2    0    0  0.32004364705E+02  0.89810104584E+01  0.15645826407E+03  0.15995042191E+03  0.10566000000E+00 0.  1.
        994    1    1    2    0    0 -0.43505752023E+02 -0.23430517641E+02  0.10984498943E+02  0.17852685746E+03  0.17120000000E+03 0.  0.
        998    1    1    2    0    0  0.11501387318E+02  0.14449507183E+02  0.13325572333E+04  0.13327227206E+04  0.10000000000E+02 0. -1.
</event>
<event>
 5    1  0.1087513E-008  0.3727019E+03  0.7957747E-01  0.3483565E+00
         13   -1    0    0    0    0  0.00000000000E+00  0.00000000000E+00  0.14999999963E+04  0.15000000000E+04  0.10566000000E+00 0. -1.
        994   -1    0    0    0    0 -0.00000000000E+00 -0.00000000000E+00  0.11368683772E-12  0.17120000000E+03  0.17120000000E+03 0.  0.
         13    1    1    2    0    0  0.34040588316E+01 -0.21535966591E+02  0.27490526568E+02  0.35087400710E+02  0.10566000000E+00 0. -1.
        994    1    1    2    0    0  0.97172992533E+01  0.89183844238E+01  0.84597786460E+01  0.17191559365E+03  0.17120000000E+03 0.  0.
        998    1    1    2    0    0 -0.13121358085E+02  0.12617582167E+02  0.14640496911E+04  0.14641970056E+04  0.10000000000E+02 0. -1.
</event>
<event>
 5    1  0.1087513E-008  0.3736636E+03  0.7957747E-01  0.3479221E+00
         13   -1    0    0    0    0  0.00000000000E+00  0.00000000000E+00  0.14999999963E+04  0.15000000000E+04  0.10566000000E+00 0.  1.
        994   -1    0    0    0    0 -0.00000000000E+00 -0.00000000000E+00  0.11368683772E-12  0.17120000000E+03  0.17120000000E+03 0.  0.
         13    1    1    2    0    0 -0.13383452272E+02  0.21868799983E+02  0.20017777449E+02  0.32528199850E+02  0.10566000000E+00 0.  1.
        994    1    1    2    0    0  0.13253548578E+02 -0.15664603139E+02  0.14381684560E+02  0.17302401334E+03  0.17120000000E+03 0.  0.
        998    1    1    2    0    0  0.12990369437E+00 -0.62041968434E+01  0.14656005343E+04  0.14656477868E+04  0.10000000000E+02 0.  1.
</event>
<event>
 5    1  0.1087513E-008  0.3865604E+03  0.7957747E-01  0.3423081E+00
         13   -1    0    0    0    0  0.00000000000E+00  0.00000000000E+00  0.14999999963E+04  0.15000000000E+04  0.10566000000E+00 0. -1.
        994   -1    0    0    0    0 -0.00000000000E+00 -0.00000000000E+00  0.11368683772E-12  0.17120000000E+03  0.17120000000E+03 0.  0.
         13    1    1    2    0    0  0.54249391845E+02 -0.55453395830E+02  0.12569201254E+03  0.14770432900E+03  0.10566000000E+00 0. -1.
        994    1    1    2    0    0 -0.74755332053E+02  0.55863435395E+02  0.53091599946E+02  0.20208226312E+03  0.17120000000E+03 0.  0.
        998    1    1    2    0    0  0.20505940208E+02 -0.41003956512E+00  0.13212163838E+04  0.13214134079E+04  0.10000000000E+02 0. -1.
</event>
<event>
 5    1  0.1087513E-008  0.3852361E+03  0.7957747E-01  0.3428671E+00
         13   -1    0    0    0    0  0.00000000000E+00  0.00000000000E+00  0.14999999963E+04  0.15000000000E+04  0.10566000000E+00 0. -1.
        994   -1    0    0    0    0 -0.00000000000E+00 -0.00000000000E+00  0.11368683772E-12  0.17120000000E+03  0.17120000000E+03 0.  0.
         13    1    1    2    0    0 -0.31092335461E+01  0.13360339875E+02  0.64135299632E+02  0.65585927132E+02  0.10566000000E+00 0. -1.
        994    1    1    2    0    0  0.13757787650E+02 -0.18576673520E+01  0.21465433683E+01  0.17177536289E+03  0.17120000000E+03 0.  0.
        998    1    1    2    0    0 -0.10648554104E+02 -0.11502672523E+02  0.14337181533E+04  0.14338387100E+04  0.10000000000E+02 0. -1.
</event>
<event>
 5    1  0.1087513E-008  0.3814580E+03  0.7957747E-01  0.3444835E+00
         13   -1    0    0    0    0  0.00000000000E+00  0.00000000000E+00  0.14999999963E+04  0.15000000000E+04  0.10566000000E+00 0. -1.
        994   -1    0    0    0    0 -0.00000000000E+00 -0.00000000000E+00  0.11368683772E-12  0.17120000000E+03  0.17120000000E+03 0.  0.
         13    1    1    2    0    0 -0.39490614916E+00  0.31376555001E+02  0.17700592263E+03  0.17976582536E+03  0.10566000000E+00 0. -1.
        994    1    1    2    0    0 -0.42208788162E+01  0.79911008809E+01  0.36707305799E+01  0.17147765969E+03  0.17120000000E+03 0.  0.
        998    1    1    2    0    0  0.46157849654E+01 -0.39367655882E+02  0.13193233431E+04  0.13199565150E+04  0.10000000000E+02 0. -1.
</event>
<event>
 5    1  0.1087513E-008  0.3857666E+03  0.7957747E-01  0.3426427E+00
         13   -1    0    0    0    0  0.00000000000E+00  0.00000000000E+00  0.14999999963E+04  0.15000000000E+04  0.10566000000E+00 0. -1.
        994   -1    0    0    0    0 -0.00000000000E+00 -0.00000000000E+00  0.11368683772E-12  0.17120000000E+03  0.17120000000E+03 0.  0.
         13    1    1    2    0    0  0.90670251209E+01 -0.72884264245E+01  0.54073750144E+02  0.55311063296E+02  0.10566000000E+00 0. -1.
        994    1    1    2    0    0 -0.77418014718E+01  0.50699104344E+01  0.15310057154E+01  0.17145676849E+03  0.17120000000E+03 0.  0.
        998    1    1    2    0    0 -0.13252236490E+01  0.22185159901E+01  0.14443952404E+04  0.14444321682E+04  0.10000000000E+02 0. -1.
</event>
<event>
 5    1  0.1087513E-008  0.3850856E+03  0.7957747E-01  0.3429309E+00
         13   -1    0    0    0    0  0.00000000000E+00  0.00000000000E+00  0.14999999963E+04  0.15000000000E+04  0.10566000000E+00 0.  1.
        994   -1    0    0    0    0 -0.00000000000E+00 -0.00000000000E+00  0.11368683772E-12  0.17120000000E+03  0.17120000000E+03 0.  0.
         13    1    1    2    0    0 -0.10837383996E+02 -0.11231046334E+01  0.37316020277E+02  0.38874243263E+02  0.10566000000E+00 0.  1.
        994    1    1    2    0    0  0.74538488202E+01 -0.28166069440E+01  0.17964248114E+01  0.17139474986E+03  0.17120000000E+03 0.  0.
        998    1    1    2    0    0  0.33835351761E+01  0.39397115774E+01  0.14608875512E+04  0.14609310069E+04  0.10000000000E+02 0.  1.
</event>
<event>
 5    1  0.1087513E-008  0.3812264E+03  0.7957747E-01  0.3445836E+00
         13   -1    0    0    0    0  0.00000000000E+00  0.00000000000E+00  0.14999999963E+04  0.15000000000E+04  0.10566000000E+00 0.  1.
        994   -1    0    0    0    0 -0.00000000000E+00 -0.00000000000E+00  0.11368683772E-12  0.17120000000E+03  0.17120000000E+03 0.  0.
         13    1    1    2    0    0 -0.11045840611E+02  0.11655879524E+02  0.39118474831E+02  0.42286361388E+02  0.10566000000E+00 0.  1.
        994    1    1    2    0    0 -0.19046331930E+02  0.54073896685E+01  0.48215881569E+01  0.17240849844E+03  0.17120000000E+03 0.  0.
        998    1    1    2    0    0  0.30092172542E+02 -0.17063269193E+02  0.14560599333E+04  0.14565051402E+04  0.10000000000E+02 0.  1.
</event>
<event>
 5    1  0.1087513E-008  0.3855032E+03  0.7957747E-01  0.3427541E+00
         13   -1    0    0    0    0  0.00000000000E+00  0.00000000000E+00  0.14999999963E+04  0.15000000000E+04  0.10566000000E+00 0. -1.
        994   -1    0    0    0    0 -0.00000000000E+00 -0.00000000000E+00  0.11368683772E-12  0.17120000000E+03  0.17120000000E+03 0.  0.
         13    1    1    2    0    0 -0.13811341333E+02 -0.65714215755E+01  0.81123063348E+02  0.82552403369E+02  0.10566000000E+00 0. -1.
        994    1    1    2    0    0  0.15518042597E+02  0.54787108003E+01  0.22702081389E+01  0.17200412717E+03  0.17120000000E+03 0.  0.
        998    1    1    2    0    0 -0.17067012636E+01  0.10927107752E+01  0.14166067248E+04  0.14166434695E+04  0.10000000000E+02 0. -1.
</event>
<event>
 5    1  0.1087513E-008  0.3931550E+03  0.7957747E-01  0.3395805E+00
         13   -1    0    0    0    0  0.00000000000E+00  0.00000000000E+00  0.14999999963E+04  0.15000000000E+04  0.10566000000E+00 0.  1.
        994   -1    0    0    0    0 -0.00000000000E+00 -0.00000000000E+00  0.11368683772E-12  0.17120000000E+03  0.17120000000E+03 0.  0.
         13    1    1    2    0    0 -0.11709859524E+03  0.58168721019E+02  0.41478201454E+03  0.43490207158E+03  0.10566000000E+00 0.  1.
        994    1    1    2    0    0  0.71908719727E+02  0.23979406477E+02  0.45983354443E+02  0.19279467003E+03  0.17120000000E+03 0.  0.
        998    1    1    2    0    0  0.45189875511E+02 -0.82148127496E+02  0.10392346273E+04  0.10435032584E+04  0.10000000000E+02 0.  1.
</event>
<event>
 5    1  0.1087513E-008  0.3852767E+03  0.7957747E-01  0.3428499E+00
         13   -1    0    0    0    0  0.00000000000E+00  0.00000000000E+00  0.14999999963E+04  0.15000000000E+04  0.10566000000E+00 0. -1.
        994   -1    0    0    0    0 -0.00000000000E+00 -0.00000000000E+00  0.11368683772E-12  0.17120000000E+03  0.17120000000E+03 0.  0.
         13    1    1    2    0    0 -0.51665495401E+01 -0.11726826087E+02  0.62096478120E+02  0.63405011184E+02  0.10566000000E+00 0. -1.
        994    1    1    2    0    0 -0.55383226591E+01 -0.79351368524E+01  0.18005405236E+01  0.17148271447E+03  0.17120000000E+03 0.  0.
        998    1    1    2    0    0  0.10704872199E+02  0.19661962939E+02  0.14361029776E+04  0.14363122743E+04  0.10000000000E+02 0. -1.
</event>
<event>
 5    1  0.1087513E-008  0.3827505E+03  0.7957747E-01  0.3439269E+00
         13   -1    0    0    0    0  0.00000000000E+00  0.00000000000E+00  0.14999999963E+04  0.15000000000E+04  0.10566000000E+00 0.  1.
        994   -1    0    0    0    0 -0.00000000000E+00 -0.00000000000E+00  0.11368683772E-12  0.17120000000E+03  0.17120000000E+03 0.  0.
         13    1    1    2    0    0 -0.65636348861E+01 -0.10072300064E+02  0.25169438535E+02  0.27893446035E+02  0.10566000000E+00 0.  1.
        994    1    1    2    0    0  0.45962231265E+01  0.84142696590E+01  0.30557133557E+01  0.17149548853E+03  0.17120000000E+03 0.  0.
        998    1    1    2    0    0  0.19674117596E+01  0.16580304048E+01  0.14717748444E+04  0.14718110654E+04  0.10000000000E+02 0.  1.
</event>
<event>
 5    1  0.1087513E-008  0.3761615E+03  0.7957747E-01  0.3468044E+00
         13   -1    0    0    0    0  0.00000000000E+00  0.00000000000E+00  0.14999999963E+04  0.15000000000E+04  0.10566000000E+00 0.  1.
        994   -1    0    0    0    0 -0.00000000000E+00 -0.00000000000E+00  0.11368683772E-12  0.17120000000E+03  0.17120000000E+03 0.  0.
         13    1    1    2    0    0 -0.13249991104E+02  0.87916078394E+01  0.19692201420E+02  0.25311036989E+02  0.10566000000E+00 0.  1.
        994    1    1    2    0    0 -0.30424987675E+02 -0.50070467353E+01  0.93093884172E+01  0.17420348764E+03  0.17120000000E+03 0.  0.
        998    1    1    2    0    0  0.43674978780E+02 -0.37845611041E+01  0.14709984064E+04  0.14716854754E+04  0.10000000000E+02 0.  1.
</event>
<event>
 5    1  0.1087513E-008  0.3860825E+03  0.7957747E-01  0.3425094E+00
         13   -1    0    0    0    0  0.00000000000E+00  0.00000000000E+00  0.14999999963E+04  0.15000000000E+04  0.10566000000E+00 0.  1.
        994   -1    0    0    0    0 -0.00000000000E+00 -0.00000000000E+00  0.11368683772E-12  0.17120000000E+03  0.17120000000E+03 0.  0.
         13    1    1    2    0    0 -0.13019876045E+01  0.12889091697E+02  0.76108079750E+02  0.77202816165E+02  0.10566000000E+00 0.  1.
        994    1    1    2    0    0 -0.85112702982E+01 -0.12134911646E+02  0.18139665337E+01  0.17185001681E+03  0.17120000000E+03 0.  0.
        998    1    1    2    0    0  0.98132579026E+01 -0.75418005096E+00  0.14220779500E+04  0.14221471670E+04  0.10000000000E+02 0.  1.
</event>
<event>
 5    1  0.1087513E-008  0.3773678E+03  0.7957747E-01  0.3462701E+00
         13   -1    0    0    0    0  0.00000000000E+00  0.00000000000E+00  0.14999999963E+04  0.15000000000E+04  0.10566000000E+00 0.  1.
        994   -1    0    0    0    0 -0.00000000000E+00 -0.00000000000E+00  0.11368683772E-12  0.17120000000E+03  0.17120000000E+03 0.  0.
         13    1    1    2    0    0 -0.10350921070E+02 -0.48266256672E+02  0.25147760276E+03  0.25627674290E+03  0.10566000000E+00 0.  1.
        994    1    1    2    0    0  0.14091344145E+02  0.86912965521E+01  0.63927129024E+01  0.17211743489E+03  0.17120000000E+03 0.  0.
        998    1    1    2    0    0 -0.37404230746E+01  0.39574960120E+02  0.12421296806E+04  0.12428058222E+04  0.10000000000E+02 0.  1.
</event>
<event>
 5    1  0.1087513E-008  0.3685090E+03  0.7957747E-01  0.3502772E+00
         13   -1    0    0    0    0  0.00000000000E+00  0.00000000000E+00  0.14999999963E+04  0.15000000000E+04  0.10566000000E+00 0. -1.
        994   -1    0    0    0    0 -0.00000000000E+00 -0.00000000000E+00  0.11368683772E-12  0.17120000000E+03  0.17120000000E+03 0.  0.
         13    1    1    2    0    0 -0.14360394717E+02 -0.41099463798E+02  0.86160821891E+02  0.96535409327E+02  0.10566000000E+00 0. -1.
        994    1    1    2    0    0  0.19994636070E+02  0.35073060143E+02  0.15842535780E+02  0.17660784512E+03  0.17120000000E+03 0.  0.
        998    1    1    2    0    0 -0.56342413529E+01  0.60264036551E+01  0.13979966386E+04  0.13980567455E+04  0.10000000000E+02 0. -1.
</event>
<event>
 5    1  0.1087513E-008  0.3795764E+03  0.7957747E-01  0.3453005E+00
         13   -1    0    0    0    0  0.00000000000E+00  0.00000000000E+00  0.14999999963E+04  0.15000000000E+04  0.10566000000E+00 0.  1.
        994   -1    0    0    0    0 -0.00000000000E+00 -0.00000000000E+00  0.11368683772E-12  0.17120000000E+03  0.17120000000E+03 0.  0.
         13    1    1    2    0    0 -0.79950809139E+00  0.42957634132E+02  0.19805928518E+03  0.20266595460E+03  0.10566000000E+00 0.  1.
        994    1    1    2    0    0 -0.24726485165E+02 -0.34930789975E+02  0.10502960859E+02  0.17678040430E+03  0.17120000000E+03 0.  0.
        998    1    1    2    0    0  0.25525993257E+02 -0.80268441567E+01  0.12914377502E+04  0.12917536411E+04  0.10000000000E+02 0.  1.
</event>
<event>
 5    1  0.1087513E-008  0.3805994E+03  0.7957747E-01  0.3448553E+00
         13   -1    0    0    0    0  0.00000000000E+00  0.00000000000E+00  0.14999999963E+04  0.15000000000E+04  0.10566000000E+00 0. -1.
        994   -1    0    0    0    0 -0.00000000000E+00 -0.00000000000E+00  0.11368683772E-12  0.17120000000E+03  0.17120000000E+03 0.  0.
         13    1    1    2    0    0 -0.23137849963E+02  0.83034387804E+01  0.75691944982E+02  0.79583848209E+02  0.10566000000E+00 0. -1.
        994    1    1    2    0    0  0.18024405691E+02 -0.10709075756E+02  0.52987540673E+01  0.17256036711E+03  0.17120000000E+03 0.  0.
        998    1    1    2    0    0  0.51134442720E+01  0.24056369754E+01  0.14190092972E+04  0.14190557847E+04  0.10000000000E+02 0. -1.
</event>
<event>
 5    1  0.1087513E-008  0.4217142E+03  0.7957747E-01  0.3287476E+00
         13   -1    0    0    0    0  0.00000000000E+00  0.00000000000E+00  0.14999999963E+04  0.15000000000E+04  0.10566000000E+00 0. -1.
        994   -1    0    0    0    0 -0.00000000000E+00 -0.00000000000E+00  0.11368683772E-12  0.17120000000E+03  0.17120000000E+03 0.  0.
         13    1    1    2    0    0  0.15439417098E+02  0.64135022883E+02  0.47179275370E+02  0.81102231468E+02  0.10566000000E+00 0. -1.
        994    1    1    2    0    0  0.40716539842E+02  0.15942594476E+02  0.49721609765E+02  0.18355838693E+03  0.17120000000E+03 0.  0.
        998    1    1    2    0    0 -0.56155956940E+02 -0.80077617359E+02  0.14030991111E+04  0.14065393816E+04  0.10000000000E+02 0. -1.
</event>
<event>
 5    1  0.1087513E-008  0.3691022E+03  0.7957747E-01  0.3500027E+00
         13   -1    0    0    0    0  0.00000000000E+00  0.00000000000E+00  0.14999999963E+04  0.15000000000E+04  0.10566000000E+00 0. -1.
        994   -1    0    0    0    0 -0.00000000000E+00 -0.00000000000E+00  0.11368683772E-12  0.17120000000E+03  0.17120000000E+03 0.  0.
         13    1    1    2    0    0  0.56661821001E+02 -0.62823082253E+02  0.37765127086E+03  0.38701136310E+03  0.10566000000E+00 0. -1.
        994    1    1    2    0    0 -0.48241576709E+02  0.16829838145E+02  0.18848523014E+02  0.17965299885E+03  0.17120000000E+03 0.  0.
        998    1    1    2    0    0 -0.84202442926E+01  0.45993244108E+02  0.11035002024E+04  0.11045356380E+04  0.10000000000E+02 0.  0.
</event>
<event>
 5    1  0.1087513E-008  0.3849381E+03  0.7957747E-01  0.3429935E+00
         13   -1    0    0    0    0  0.00000000000E+00  0.00000000000E+00  0.14999999963E+04  0.15000000000E+04  0.10566000000E+00 0. -1.
        994   -1    0    0    0    0 -0.00000000000E+00 -0.00000000000E+00  0.11368683772E-12  0.17120000000E+03  0.17120000000E+03 0.  0.
         13    1    1    2    0    0 -0.69083883594E+01  0.13139563717E+02  0.63942683952E+02  0.65643369501E+02  0.10566000000E+00 0. -1.
        994    1    1    2    0    0  0.86598627122E+01 -0.13174923634E+02  0.24789365756E+01  0.17194230707E+03  0.17120000000E+03 0.  0.
        998    1    1    2    0    0 -0.17514743528E+01  0.35359917433E-01  0.14335783758E+04  0.14336143234E+04  0.10000000000E+02 0. -1.
</event>
<event>
 5    1  0.1087513E-008  0.3826086E+03  0.7957747E-01  0.3439878E+00
         13   -1    0    0    0    0  0.00000000000E+00  0.00000000000E+00  0.14999999963E+04  0.15000000000E+04  0.10566000000E+00 0. -1.
        994   -1    0    0    0    0 -0.00000000000E+00 -0.00000000000E+00  0.11368683772E-12  0.17120000000E+03  0.17120000000E+03 0.  0.
         13    1    1    2    0    0 -0.13674298783E+02  0.16796940737E+02  0.88487117203E+02  0.91099422283E+02  0.10566000000E+00 0. -1.
        994    1    1    2    0    0 -0.10931374294E+02 -0.10498150545E+02  0.35838118924E+01  0.17190692196E+03  0.17120000000E+03 0.  0.
        998    1    1    2    0    0  0.24605673077E+02 -0.62987901920E+01  0.14079290672E+04  0.14081936558E+04  0.10000000000E+02 0. -1.
</event>
<event>
 5    1  0.1087513E-008  0.3738450E+03  0.7957747E-01  0.3478405E+00
         13   -1    0    0    0    0  0.00000000000E+00  0.00000000000E+00  0.14999999963E+04  0.15000000000E+04  0.10566000000E+00 0.  1.
        994   -1    0    0    0    0 -0.00000000000E+00 -0.00000000000E+00  0.11368683772E-12  0.17120000000E+03  0.17120000000E+03 0.  0.
         13    1    1    2    0    0 -0.40176901537E+02 -0.30691569906E+02  0.13636389417E+03  0.14543479184E+03  0.10566000000E+00 0.  1.
        994    1    1    2    0    0  0.62028557536E+02  0.52642179981E+02  0.30207261238E+02  0.19193920833E+03  0.17120000000E+03 0.  0.
        998    1    1    2    0    0 -0.21851656000E+02 -0.21950610075E+02  0.13334288409E+04  0.13338259998E+04  0.10000000000E+02 0.  1.
</event>
<event>
 5    1  0.1087513E-008  0.3805277E+03  0.7957747E-01  0.3448864E+00
         13   -1    0    0    0    0  0.00000000000E+00  0.00000000000E+00  0.14999999963E+04  0.15000000000E+04  0.10566000000E+00 0.  1.
        994   -1    0    0    0    0 -0.00000000000E+00 -0.00000000000E+00  0.11368683772E-12  0.17120000000E+03  0.17120000000E+03 0.  0.
         13    1    1    2    0    0  0.11657249091E+02 -0.15841684537E+02  0.48773091459E+02  0.52589695186E+02  0.10566000000E+00 0.  1.
        994    1    1    2    0    0 -0.60683997660E+01  0.10330433966E+02  0.43461853712E+01  0.17167373902E+03  0.17120000000E+03 0.  0.
        998    1    1    2    0    0 -0.55888493246E+01  0.55112505702E+01  0.14468807194E+04  0.14469365658E+04  0.10000000000E+02 0.  1.
</event>
<event>
 5    1  0.1087513E-008  0.3816912E+03  0.7957747E-01  0.3443828E+00
         13   -1    0    0    0    0  0.00000000000E+00  0.00000000000E+00  0.14999999963E+04  0.15000000000E+04  0.10566000000E+00 0.  1.
        994   -1    0    0    0    0 -0.00000000000E+00 -0.00000000000E+00  0.11368683772E-12  0.17120000000E+03  0.17120000000E+03 0.  0.
         13    1    1    2    0    0  0.10069575988E+02 -0.34997957083E+02  0.21750031216E+03  0.22052811683E+03  0.10566000000E+00 0.  1.
        994    1    1    2    0    0 -0.33479440024E+02  0.47348939615E+01  0.70919003172E+01  0.17465115853E+03  0.17120000000E+03 0.  0.
        998    1    1    2    0    0  0.23409864037E+02  0.30263063122E+02  0.12754077838E+04  0.12760207246E+04  0.10000000000E+02 0.  1.
</event>
<event>
 5    1  0.1087513E-008  0.3855464E+03  0.7957747E-01  0.3427358E+00
         13   -1    0    0    0    0  0.00000000000E+00  0.00000000000E+00  0.14999999963E+04  0.15000000000E+04  0.10566000000E+00 0. -1.
        994   -1    0    0    0    0 -0.00000000000E+00 -0.00000000000E+00  0.11368683772E-12  0.17120000000E+03  0.17120000000E+03 0.  0.
         13    1    1    2    0    0  0.50110152736E+01 -0.99039940074E+01  0.45246634540E+02  0.46588286860E+02  0.10566000000E+00 0. -1.
        994    1    1    2    0    0 -0.22042104769E+01  0.84734239636E+01  0.16107753821E+01  0.17143130419E+03  0.17120000000E+03 0.  0.
        998    1    1    2    0    0 -0.28068047968E+01  0.14305700438E+01  0.14531425864E+04  0.14531804090E+04  0.10000000000E+02 0. -1.
</event>
<event>
 5    1  0.1087513E-008  0.3705161E+03  0.7957747E-01  0.3493523E+00
         13   -1    0    0    0    0  0.00000000000E+00  0.00000000000E+00  0.14999999963E+04  0.15000000000E+04  0.10566000000E+00 0. -1.
        994   -1    0    0    0    0 -0.00000000000E+00 -0.00000000000E+00  0.11368683772E-12  0.17120000000E+03  0.17120000000E+03 0.  0.
         13    1    1    2    0    0 -0.11422925862E+02  0.18216639790E+02  0.21482041554E+02  0.30394382275E+02  0.10566000000E+00 0. -1.
        994    1    1    2    0    0  0.12404696748E+02 -0.19113869124E+02  0.10793706125E+02  0.17304670059E+03  0.17120000000E+03 0.  0.
        998    1    1    2    0    0 -0.98177088637E+00  0.89722933374E+00  0.14677242486E+04  0.14677589171E+04  0.10000000000E+02 0. -1.
</event>
<event>
 5    1  0.1087513E-008  0.3761480E+03  0.7957747E-01  0.3468105E+00
         13   -1    0    0    0    0  0.00000000000E+00  0.00000000000E+00  0.14999999963E+04  0.15000000000E+04  0.10566000000E+00 0. -1.
        994   -1    0    0    0    0 -0.00000000000E+00 -0.00000000000E+00  0.11368683772E-12  0.17120000000E+03  0.17120000000E+03 0.  0.
         13    1    1    2    0    0  0.24076015488E+02  0.28854402964E+02  0.10941768706E+03  0.11569128100E+03  0.10566000000E+00 0. -1.
        994    1    1    2    0    0 -0.17309097136E+02 -0.26399681596E+02  0.94722080691E+01  0.17434365706E+03  0.17120000000E+03 0.  0.
        998    1    1    2    0    0 -0.67669183524E+01 -0.24547213678E+01  0.13811101011E+04  0.13811650619E+04  0.10000000000E+02 0. -1.
</event>
<event>
 5    1  0.1087513E-008  0.3845669E+03  0.7957747E-01  0.3431511E+00
         13   -1    0    0    0    0  0.00000000000E+00  0.00000000000E+00  0.14999999963E+04  0.15000000000E+04  0.10566000000E+00 0.  1.
        994   -1    0    0    0    0 -0.00000000000E+00 -0.00000000000E+00  0.11368683772E-12  0.17120000000E+03  0.17120000000E+03 0.  0.
         13    1    1    2    0    0  0.82972410482E+01 -0.71983620986E+01  0.34507436924E+02  0.36213740390E+02  0.10566000000E+00 0.  1.
        994    1    1    2    0    0  0.90753149795E+01 -0.38160828656E+00  0.21170783234E+01  0.17145386839E+03  0.17120000000E+03 0.  0.
        998    1    1    2    0    0 -0.17372556028E+02  0.75799703852E+01  0.14633754810E+04  0.14635323912E+04  0.10000000000E+02 0.  1.
</event>
<event>
 5    1  0.1087513E-008  0.3817773E+03  0.7957747E-01  0.3443456E+00
         13   -1    0    0    0    0  0.00000000000E+00  0.00000000000E+00  0.14999999963E+04  0.15000000000E+04  0.10566000000E+00 0.  1.
        994   -1    0    0    0    0 -0.00000000000E+00 -0.00000000000E+00  0.11368683772E-12  0.17120000000E+03  0.17120000000E+03 0.  0.
         13    1    1    2    0    0  0.78137120771E+01  0.11516287812E+02  0.29788286217E+02  0.32879053228E+02  0.10566000000E+00 0.  1.
        994    1    1    2    0    0  0.53761453663E+01 -0.14601975970E+01  0.33418259227E+01  0.17132321184E+03  0.17120000000E+03 0.  0.
        998    1    1    2    0    0 -0.13189857443E+02 -0.10056090215E+02  0.14668698841E+04  0.14669977349E+04  0.10000000000E+02 0.  1.
</event>
<event>
 5    1  0.1286339E-008  0.3856089E+03  0.7957747E-01  0.3427094E+00
         13   -1    0    0    0    0  0.00000000000E+00  0.00000000000E+00  0.14999999963E+04  0.15000000000E+04  0.10566000000E+00 0.  1.
        994   -1    0    0    0    0 -0.00000000000E+00 -0.00000000000E+00  0.11368683772E-12  0.17120000000E+03  0.17120000000E+03 0.  0.
         13    1    1    2    0    0  0.21096041956E+01 -0.98992019282E+01  0.37878371563E+02  0.39207484298E+02  0.10566000000E+00 0.  1.
        994    1    1    2    0    0 -0.43715923271E+01  0.10308805640E+02  0.17397721439E+01  0.17157461671E+03  0.17120000000E+03 0.  0.
        998    1    1    2    0    0  0.22619881315E+01 -0.40960371199E+00  0.14603818526E+04  0.14604178990E+04  0.10000000000E+02 0.  1.
</event>
<event>
 5    1  0.1087513E-008  0.2709239E+03  0.7957747E-01  0.4128287E+00
         13   -1    0    0    0    0  0.00000000000E+00  0.00000000000E+00  0.14999999963E+04  0.15000000000E+04  0.10566000000E+00 0. -1.
        994   -1    0    0    0    0 -0.00000000000E+00 -0.00000000000E+00  0.11368683772E-12  0.17120000000E+03  0.17120000000E+03 0.  0.
         13    1    1    2    0    0  0.15909570039E+03  0.12543594685E+03  0.32991375638E+03  0.38715464153E+03  0.10566000000E+00 0. -1.
        994    1    1    2    0    0 -0.16750655496E+03 -0.12221977321E+03  0.26059099201E+03  0.37445056287E+03  0.17120000000E+03 0.  0.
        998    1    1    2    0    0  0.84108545761E+01 -0.32161736359E+01  0.90949524789E+03  0.90959479560E+03  0.10000000000E+02 0. -1.
</event>
<event>
 5    1  0.1087513E-008  0.3836889E+03  0.7957747E-01  0.3435252E+00
         13   -1    0    0    0    0  0.00000000000E+00  0.00000000000E+00  0.14999999963E+04  0.15000000000E+04  0.10566000000E+00 0.  1.
        994   -1    0    0    0    0 -0.00000000000E+00 -0.00000000000E+00  0.11368683772E-12  0.17120000000E+03  0.17120000000E+03 0.  0.
         13    1    1    2    0    0  0.42446840222E-01  0.14743508686E+02  0.50036692252E+02  0.52163728641E+02  0.10566000000E+00 0.  1.
        994    1    1    2    0    0  0.77347088773E+01  0.29334754978E+01  0.25084955995E+01  0.17141809575E+03  0.17120000000E+03 0.  0.
        998    1    1    2    0    0 -0.77771557176E+01 -0.17676984184E+02  0.14474548084E+04  0.14476181756E+04  0.10000000000E+02 0.  1.
</event>
<event>
 5    1  0.1087513E-008  0.3847833E+03  0.7957747E-01  0.3430592E+00
         13   -1    0    0    0    0  0.00000000000E+00  0.00000000000E+00  0.14999999963E+04  0.15000000000E+04  0.10566000000E+00 0. -1.
        994   -1    0    0    0    0 -0.00000000000E+00 -0.00000000000E+00  0.11368683772E-12  0.17120000000E+03  0.17120000000E+03 0.  0.
         13    1    1    2    0    0  0.12798505867E+01  0.11957371147E+02  0.41344372949E+02  0.43057927038E+02  0.10566000000E+00 0. -1.
        994    1    1    2    0    0 -0.11189317352E+01 -0.82835458994E+01  0.19677462083E+01  0.17141523026E+03  0.17120000000E+03 0.  0.
        998    1    1    2    0    0 -0.16091885144E+00 -0.36738252473E+01  0.14566878771E+04  0.14567268427E+04  0.10000000000E+02 0. -1.
</event>
<event>
 5    1  0.1087513E-008  0.3736701E+03  0.7957747E-01  0.3479192E+00
         13   -1    0    0    0    0  0.00000000000E+00  0.00000000000E+00  0.14999999963E+04  0.15000000000E+04  0.10566000000E+00 0. -1.
        994   -1    0    0    0    0 -0.00000000000E+00 -0.00000000000E+00  0.11368683772E-12  0.17120000000E+03  0.17120000000E+03 0.  0.
         13    1    1    2    0    0  0.58797188447E+02 -0.36790501994E+02  0.27284883850E+03  0.28152646455E+03  0.10566000000E+00 0. -1.
        994    1    1    2    0    0 -0.59049301759E+02  0.29386245261E+02  0.22366312709E+02  0.18482441233E+03  0.17120000000E+03 0.  0.
        998    1    1    2    0    0  0.25211331185E+00  0.74042567336E+01  0.12047848451E+04  0.12048491231E+04  0.10000000000E+02 0. -1.
</event>
<event>
 5    1  0.1087513E-008  0.3783650E+03  0.7957747E-01  0.3458309E+00
         13   -1    0    0    0    0  0.00000000000E+00  0.00000000000E+00  0.14999999963E+04  0.15000000000E+04  0.10566000000E+00 0.  1.
        994   -1    0    0    0    0 -0.00000000000E+00 -0.00000000000E+00  0.11368683772E-12  0.17120000000E+03  0.17120000000E+03 0.  0.
         13    1    1    2    0    0  0.18382288576E+02 -0.21044233846E+01  0.34339585064E+02  0.39007119831E+02  0.10566000000E+00 0.  1.
        994    1    1    2    0    0  0.47765489319E+01 -0.69370366532E+01  0.51992390119E+01  0.17148588858E+03  0.17120000000E+03 0.  0.
        998    1    1    2    0    0 -0.23158837508E+02  0.90414600378E+01  0.14604611722E+04  0.14607069916E+04  0.10000000000E+02 0.  1.
</event>
<event>
 5    1  0.1087513E-008  0.3835268E+03  0.7957747E-01  0.3435944E+00
         13   -1    0    0    0    0  0.00000000000E+00  0.00000000000E+00  0.14999999963E+04  0.15000000000E+04  0.10566000000E+00 0. -1.
        994   -1    0    0    0    0 -0.00000000000E+00 -0.00000000000E+00  0.11368683772E-12  0.17120000000E+03  0.17120000000E+03 0.  0.
         13    1    1    2    0    0  0.10211800777E+02  0.15502555912E+02  0.78576674937E+02  0.80739798879E+02  0.10566000000E+00 0. -1.
        994    1    1    2    0    0 -0.13751641479E+02  0.11144207863E+02  0.33992827925E+01  0.17214614761E+03  0.17120000000E+03 0.  0.
        998    1    1    2    0    0  0.35398407019E+01 -0.26646763776E+02  0.14180240385E+04  0.14183140535E+04  0.10000000000E+02 0. -1.
</event>
<event>
 5    1  0.2055753E-008  0.3865689E+03  0.7957747E-01  0.3423045E+00
         13   -1    0    0    0    0  0.00000000000E+00  0.00000000000E+00  0.14999999963E+04  0.15000000000E+04  0.10566000000E+00 0.  1.
        994   -1    0    0    0    0 -0.00000000000E+00 -0.00000000000E+00  0.11368683772E-12  0.17120000000E+03  0.17120000000E+03 0.  0.
         13    1    1    2    0    0 -0.48077716464E+01 -0.12997614554E+02  0.83689919843E+02  0.84829632203E+02  0.10566000000E+00 0.  1.
        994    1    1    2    0    0  0.10621717150E+02  0.42380614218E+02  0.71242745596E+01  0.17683080225E+03  0.17120000000E+03 0.  0.
        998    1    1    2    0    0 -0.58139455033E+01 -0.29382999664E+02  0.14091858019E+04  0.14095395655E+04  0.10000000000E+02 0.  1.
</event>
<event>
 5    1  0.1087513E-008  0.3034711E+03  0.7957747E-01  0.3871546E+00
         13   -1    0    0    0    0  0.00000000000E+00  0.00000000000E+00  0.14999999963E+04  0.15000000000E+04  0.10566000000E+00 0.  1.
        994   -1    0    0    0    0 -0.00000000000E+00 -0.00000000000E+00  0.11368683772E-12  0.17120000000E+03  0.17120000000E+03 0.  0.
         13    1    1    2    0    0  0.14120602688E+03  0.52235057633E+02  0.89073603153E+03  0.90337053987E+03  0.10566000000E+00 0.  1.
        994    1    1    2    0    0 -0.29334853221E+02 -0.25800172405E+02  0.31186314829E+02  0.17834855969E+03  0.17120000000E+03 0.  0.
        998    1    1    2    0    0 -0.11187117366E+03 -0.26434885227E+02  0.57807764992E+03  0.58948090044E+03  0.10000000000E+02 0.  1.
</event>
<event>
 5    1  0.1087513E-008  0.3852942E+03  0.7957747E-01  0.3428425E+00
         13   -1    0    0    0    0  0.00000000000E+00  0.00000000000E+00  0.14999999963E+04  0.15000000000E+04  0.10566000000E+00 0. -1.
        994   -1    0    0    0    0 -0.00000000000E+00 -0.00000000000E+00  0.11368683772E-12  0.17120000000E+03  0.17120000000E+03 0.  0.
         13    1    1    2    0    0  0.26655465917E-01  0.19227493124E+02  0.11530359930E+03  0.11689580137E+03  0.10566000000E+00 0. -1.
        994    1    1    2    0    0  0.10848525670E+01 -0.21257083914E+02  0.29740131466E+01  0.17254369092E+03  0.17120000000E+03 0.  0.
        998    1    1    2    0    0 -0.11115080329E+01  0.20295907899E+01  0.13817223838E+04  0.13817605077E+04  0.10000000000E+02 0.  0.
</event>
<event>
 5    1  0.1087513E-008  0.3962890E+03  0.7957747E-01  0.3383161E+00
         13   -1    0    0    0    0  0.00000000000E+00  0.00000000000E+00  0.14999999963E+04  0.15000000000E+04  0.10566000000E+00 0.  1.
        994   -1    0    0    0    0 -0.00000000000E+00 -0.00000000000E+00  0.11368683772E-12  0.17120000000E+03  0.17120000000E+03 0.  0.
         13    1    1    2    0    0  0.74080459722E+02  0.27056875463E+02  0.10775459855E+03  0.13353296857E+03  0.10566000000E+00 0.  1.
        994    1    1    2    0    0 -0.72518947936E+02 -0.14547660805E+02  0.47000040766E+02  0.19232544313E+03  0.17120000000E+03 0.  0.
        998    1    1    2    0    0 -0.15615117863E+01 -0.12509214658E+02  0.13452453570E+04  0.13453415883E+04  0.10000000000E+02 0.  1.
</event>
<event>
 5    1  0.1087513E-008  0.3757854E+03  0.7957747E-01  0.3469718E+00
         13   -1    0    0    0    0  0.00000000000E+00  0.00000000000E+00  0.14999999963E+04  0.15000000000E+04  0.10566000000E+00 0.  1.
        994   -1    0    0    0    0 -0.00000000000E+00 -0.00000000000E+00  0.11368683772E-12  0.17120000000E+03  0.17120000000E+03 0.  0.
         13    1    1    2    0    0  0.42112148026E+02  0.28441573521E+02  0.16614763968E+03  0.17374523145E+03  0.10566000000E+00 0.  1.
        994    1    1    2    0    0 -0.43920726358E+02 -0.55273882472E+02  0.23365373596E+02  0.18665372477E+03  0.17120000000E+03 0.  0.
        998    1    1    2    0    0  0.18085783320E+01  0.26832308951E+02  0.13104869830E+04  0.13108010438E+04  0.10000000000E+02 0.  1.
</event>
<event>
 5    1  0.1087513E-008  0.3838122E+03  0.7957747E-01  0.3434725E+00
         13   -1    0    0    0    0  0.00000000000E+00  0.00000000000E+00  0.14999999963E+04  0.15000000000E+04  0.10566000000E+00 0. -1.
        994   -1    0    0    0    0 -0.00000000000E+00 -0.00000000000E+00  0.11368683772E-12  0.17120000000E+03  0.17120000000E+03 0.  0.
         13    1    1    2    0    0  0.42036321503E+01  0.16436460881E+02  0.62188300571E+02  0.64461024359E+02  0.10566000000E+00 0. -1.
        994    1    1    2    0    0 -0.15240051825E+01 -0.17450507896E+02  0.32346501980E+01  0.17212421613E+03  0.17120000000E+03 0.  0.
        998    1    1    2    0    0 -0.26796269678E+01  0.10140470146E+01  0.14345770455E+04  0.14346147595E+04  0.10000000000E+02 0. -1.
</event>
<event>
 5    1  0.1087513E-008  0.3728434E+03  0.7957747E-01  0.3482924E+00
         13   -1    0    0    0    0  0.00000000000E+00  0.00000000000E+00  0.14999999963E+04  0.15000000000E+04  0.10566000000E+00 0. -1.
        994   -1    0    0    0    0 -0.00000000000E+00 -0.00000000000E+00  0.11368683772E-12  0.17120000000E+03  0.17120000000E+03 0.  0.
         13    1    1    2    0    0  0.21619977895E+02 -0.34129627020E+02  0.10390914446E+03  0.11148711294E+03  0.10566000000E+00 0. -1.
        994    1    1    2    0    0  0.32801959591E+02  0.45960686491E+02  0.18787595516E+02  0.18124780551E+03  0.17120000000E+03 0.  0.
        998    1    1    2    0    0 -0.54421937486E+02 -0.11831059470E+02  0.13773032563E+04  0.13784650816E+04  0.10000000000E+02 0. -1.
</event>
<event>
 5    1  0.1087513E-008  0.3836979E+03  0.7957747E-01  0.3435213E+00
         13   -1    0    0    0    0  0.00000000000E+00  0.00000000000E+00  0.14999999963E+04  0.15000000000E+04  0.10566000000E+00 0.  1.
        994   -1    0    0    0    0 -0.00000000000E+00 -0.00000000000E+00  0.11368683772E-12  0.17120000000E+03  0.17120000000E+03 0.  0.
         13    1    1    2    0    0 -0.51672226591E+01 -0.21026976500E+02  0.10724622850E+03  0.10941023089E+03  0.10566000000E+00 0.  1.
        994    1    1    2    0    0 -0.12335167910E+01  0.73725814779E+01  0.24625491096E+01  0.17138080601E+03  0.17120000000E+03 0.  0.
        998    1    1    2    0    0  0.64007394500E+01  0.13654395022E+02  0.13902912187E+04  0.13904089631E+04  0.10000000000E+02 0.  1.
</event>
<event>
 5    1  0.1087513E-008  0.3828418E+03  0.7957747E-01  0.3438877E+00
         13   -1    0    0    0    0  0.00000000000E+00  0.00000000000E+00  0.14999999963E+04  0.15000000000E+04  0.10566000000E+00 0.  1.
        994   -1    0    0    0    0 -0.00000000000E+00 -0.00000000000E+00  0.11368683772E-12  0.17120000000E+03  0.17120000000E+03 0.  0.
         13    1    1    2    0    0  0.11406047955E+02 -0.90700769306E+00  0.22450307794E+02  0.25198176065E+02  0.10566000000E+00 0.  1.
        994    1    1    2    0    0 -0.18579806856E+02 -0.28667610313E+01  0.38768260476E+01  0.17227274109E+03  0.17120000000E+03 0.  0.
        998    1    1    2    0    0  0.71737589009E+01  0.37737687244E+01  0.14736728624E+04  0.14737290828E+04  0.10000000000E+02 0.  1.
</event>
<event>
 5    1  0.1087513E-008  0.3860345E+03  0.7957747E-01  0.3425296E+00
         13   -1    0    0    0    0  0.00000000000E+00  0.00000000000E+00  0.14999999963E+04  0.15000000000E+04  0.10566000000E+00 0. -1.
        994   -1    0    0    0    0 -0.00000000000E+00 -0.00000000000E+00  0.11368683772E-12  0.17120000000E+03  0.17120000000E+03 0.  0.
         13    1    1    2    0    0 -0.53067160248E+01 -0.13643243807E+02  0.85623642917E+02  0.86866096534E+02  0.10566000000E+00 0. -1.
        994    1    1    2    0    0  0.87659127842E+00  0.25730877544E+02  0.32929823500E+01  0.17315637500E+03  0.17120000000E+03 0.  0.
        998    1    1    2    0    0  0.44301247464E+01 -0.12087633738E+02  0.14110833710E+04  0.14111775285E+04  0.10000000000E+02 0. -1.
</event>
<event>
 5    1  0.1087513E-008  0.3825103E+03  0.7957747E-01  0.3440300E+00
         13   -1    0    0    0    0  0.00000000000E+00  0.00000000000E+00  0.14999999963E+04  0.15000000000E+04  0.10566000000E+00 0.  1.
        994   -1    0    0    0    0 -0.00000000000E+00 -0.00000000000E+00  0.11368683772E-12  0.17120000000E+03  0.17120000000E+03 0.  0.
         13    1    1    2    0    0 -0.11869528460E+02  0.20319036280E+02  0.94650077474E+02  0.97531519372E+02  0.10566000000E+00 0.  1.
        994    1    1    2    0    0 -0.94628323689E+00 -0.19443053408E+02  0.41285830835E+01  0.17235258332E+03  0.17120000000E+03 0.  0.
        998    1    1    2    0    0  0.12815811697E+02 -0.87598287143E+00  0.14012213357E+04  0.14013158973E+04  0.10000000000E+02 0.  1.
</event>
<event>
 5    1  0.1087513E-008  0.3822205E+03  0.7957747E-01  0.3441547E+00
         13   -1    0    0    0    0  0.00000000000E+00  0.00000000000E+00  0.14999999963E+04  0.15000000000E+04  0.10566000000E+00 0.  1.
        994   -1    0    0    0    0 -0.00000000000E+00 -0.00000000000E+00  0.11368683772E-12  0.17120000000E+03  0.17120000000E+03 0.  0.
         13    1    1    2    0    0 -0.17690305506E+03  0.15830158341E+02  0.10485483146E+04  0.10634843036E+04  0.10566000000E+00 0.  1.
        994    1    1    2    0    0  0.18184213421E+03 -0.89564411307E+01  0.12217398038E+03  0.27817746331E+03  0.17120000000E+03 0.  0.
        998    1    1    2    0    0 -0.49390791441E+01 -0.68737172105E+01  0.32927770130E+03  0.32953823309E+03  0.10000000000E+02 0.  0.
</event>
<event>
 5    1  0.1087513E-008  0.3701624E+03  0.7957747E-01  0.3495145E+00
         13   -1    0    0    0    0  0.00000000000E+00  0.00000000000E+00  0.14999999963E+04  0.15000000000E+04  0.10566000000E+00 0. -1.
        994   -1    0    0    0    0 -0.00000000000E+00 -0.00000000000E+00  0.11368683772E-12  0.17120000000E+03  0.17120000000E+03 0.  0.
         13    1    1    2    0    0  0.25238081157E+02  0.50402208408E+02  0.17092940073E+03  0.17998392859E+03  0.10566000000E+00 0. -1.
        994    1    1    2    0    0  0.27360481809E+01 -0.37862445988E+02  0.14180458491E+02  0.17593060046E+03  0.17120000000E+03 0.  0.
        998    1    1    2    0    0 -0.27974129338E+02 -0.12539762420E+02  0.13148901371E+04  0.13152854709E+04  0.10000000000E+02 0. -1.
</event>
<event>
 5    1  0.1087513E-008  0.3760794E+03  0.7957747E-01  0.3468409E+00
         13   -1    0    0    0    0  0.00000000000E+00  0.00000000000E+00  0.14999999963E+04  0.15000000000E+04  0.10566000000E+00 0.  1.
        994   -1    0    0    0    0 -0.00000000000E+00 -0.00000000000E+00  0.11368683772E-12  0.17120000000E+03  0.17120000000E+03 0.  0.
         13    1    1    2    0    0  0.28843714713E+01 -0.29533991674E+02  0.76595290726E+02  0.82142717196E+02  0.10566000000E+00 0.  1.
        994    1    1    2    0    0  0.77517726813E+01 -0.51003478938E+01  0.64171457080E+01  0.17157133586E+03  0.17120000000E+03 0.  0.
        998    1    1    2    0    0 -0.10636144153E+02  0.34634339568E+02  0.14169875598E+04  0.14174859469E+04  0.10000000000E+02 0.  1.
</event>
<event>
 5    1  0.1087513E-008  0.3713384E+03  0.7957747E-01  0.3489762E+00
         13   -1    0    0    0    0  0.00000000000E+00  0.00000000000E+00  0.14999999963E+04  0.15000000000E+04  0.10566000000E+00 0.  1.
        994   -1    0    0    0    0 -0.00000000000E+00 -0.00000000000E+00  0.11368683772E-12  0.17120000000E+03  0.17120000000E+03 0.  0.
         13    1    1    2    0    0 -0.28379402020E+02 -0.71739836500E+02  0.29513013360E+03  0.30504721196E+03  0.10566000000E+00 0.  1.
        994    1    1    2    0    0  0.24038236828E+02  0.11181629606E+02  0.14120984612E+02  0.17381515434E+03  0.17120000000E+03 0.  0.
        998    1    1    2    0    0  0.43411651920E+01  0.60558206893E+02  0.11907488781E+04  0.11923376337E+04  0.10000000000E+02 0.  1.
</event>
<event>
 5    1  0.1087513E-008  0.3748899E+03  0.7957747E-01  0.3473715E+00
         13   -1    0    0    0    0  0.00000000000E+00  0.00000000000E+00  0.14999999963E+04  0.15000000000E+04  0.10566000000E+00 0. -1.
        994   -1    0    0    0    0 -0.00000000000E+00 -0.00000000000E+00  0.11368683772E-12  0.17120000000E+03  0.17120000000E+03 0.  0.
         13    1    1    2    0    0 -0.28288868712E+02  0.16416203225E+02  0.73447749665E+02  0.80401087780E+02  0.10566000000E+00 0. -1.
        994    1    1    2    0    0  0.23378520754E+02 -0.25975336444E+02  0.10899460674E+02  0.17507001908E+03  0.17120000000E+03 0.  0.
        998    1    1    2    0    0  0.49103479582E+01  0.95591332188E+01  0.14156527859E+04  0.14157288931E+04  0.10000000000E+02 0. -1.
</event>
<event>
 5    1  0.1087513E-008  0.3815931E+03  0.7957747E-01  0.3444251E+00
         13   -1    0    0    0    0  0.00000000000E+00  0.00000000000E+00  0.14999999963E+04  0.15000000000E+04  0.10566000000E+00 0. -1.
        994   -1    0    0    0    0 -0.00000000000E+00 -0.00000000000E+00  0.11368683772E-12  0.17120000000E+03  0.17120000000E+03 0.  0.
         13    1    1    2    0    0  0.12124656177E+02  0.34732912940E+01  0.23309126193E+02  0.26502784151E+02  0.10566000000E+00 0. -1.
        994    1    1    2    0    0  0.33937850463E+01 -0.45545367862E+01  0.34384188865E+01  0.17132870252E+03  0.17120000000E+03 0.  0.
        998    1    1    2    0    0 -0.15518441223E+02  0.10812454923E+01  0.14732524512E+04  0.14733685133E+04  0.10000000000E+02 0. -1.
</event>
<event>
 5    1  0.1087513E-008  0.3800183E+03  0.7957747E-01  0.3451079E+00
         13   -1    0    0    0    0  0.00000000000E+00  0.00000000000E+00  0.14999999963E+04  0.15000000000E+04  0.10566000000E+00 0.  1.
        994   -1    0    0    0    0 -0.00000000000E+00 -0.00000000000E+00  0.11368683772E-12  0.17120000000E+03  0.17120000000E+03 0.  0.
         13    1    1    2    0    0  0.29638060813E+02 -0.66402520848E+01  0.10533606443E+03  0.10962757513E+03  0.10566000000E+00 0.  1.
        994    1    1    2    0    0 -0.25271989225E+02  0.12464580235E+02  0.67826884754E+01  0.17363606786E+03  0.17120000000E+03 0.  0.
        998    1    1    2    0    0 -0.43660715874E+01 -0.58243281503E+01  0.13878812434E+04  0.13879363570E+04  0.10000000000E+02 0.  1.
</event>
<event>
 5    1  0.1087513E-008  0.3815911E+03  0.7957747E-01  0.3444260E+00
         13   -1    0    0    0    0  0.00000000000E+00  0.00000000000E+00  0.14999999963E+04  0.15000000000E+04  0.10566000000E+00 0. -1.
        994   -1    0    0    0    0 -0.00000000000E+00 -0.00000000000E+00  0.11368683772E-12  0.17120000000E+03  0.17120000000E+03 0.  0.
         13    1    1    2    0    0 -0.13539545841E+02  0.12362495110E+02  0.48478683384E+02  0.51829957492E+02  0.10566000000E+00 0. -1.
        994    1    1    2    0    0  0.14442707250E+02 -0.80049070564E+01  0.42394054289E+01  0.17204674623E+03  0.17120000000E+03 0.  0.
        998    1    1    2    0    0 -0.90316140906E+00 -0.43575880531E+01  0.14472819075E+04  0.14473232963E+04  0.10000000000E+02 0.  0.
</event>
<event>
 5    1  0.1087513E-008  0.3772432E+03  0.7957747E-01  0.3463251E+00
         13   -1    0    0    0    0  0.00000000000E+00  0.00000000000E+00  0.14999999963E+04  0.15000000000E+04  0.10566000000E+00 0. -1.
        994   -1    0    0    0    0 -0.00000000000E+00 -0.00000000000E+00  0.11368683772E-12  0.17120000000E+03  0.17120000000E+03 0.  0.
         13    1    1    2    0    0  0.37053459667E+02 -0.55041727911E+02  0.32144979268E+03  0.32822634121E+03  0.10566000000E+00 0. -1.
        994    1    1    2    0    0 -0.65487018337E+02  0.34351985626E+02  0.24208804319E+02  0.18805348892E+03  0.17120000000E+03 0.  0.
        998    1    1    2    0    0  0.28433558670E+02  0.20689742285E+02  0.11543413993E+04  0.11549201699E+04  0.10000000000E+02 0. -1.
</event>
<event>
 5    1  0.1087513E-008  0.3707914E+03  0.7957747E-01  0.3492261E+00
         13   -1    0    0    0    0  0.00000000000E+00  0.00000000000E+00  0.14999999963E+04  0.15000000000E+04  0.10566000000E+00 0. -1.
        994   -1    0    0    0    0 -0.00000000000E+00 -0.00000000000E+00  0.11368683772E-12  0.17120000000E+03  0.17120000000E+03 0.  0.
         13    1    1    2    0    0  0.21992537483E+02  0.23496632036E+02  0.53901881601E+02  0.62778877229E+02  0.10566000000E+00 0. -1.
        994    1    1    2    0    0 -0.21508229689E+02 -0.19025397555E+02  0.11704549078E+02  0.17398564931E+03  0.17120000000E+03 0.  0.
        998    1    1    2    0    0 -0.48430779454E+00 -0.44712344811E+01  0.14343935656E+04  0.14344354735E+04  0.10000000000E+02 0. -1.
</event>
<event>
 5    1  0.1087513E-008  0.3052483E+03  0.7957747E-01  0.3859249E+00
         13   -1    0    0    0    0  0.00000000000E+00  0.00000000000E+00  0.14999999963E+04  0.15000000000E+04  0.10566000000E+00 0.  1.
        994   -1    0    0    0    0 -0.00000000000E+00 -0.00000000000E+00  0.11368683772E-12  0.17120000000E+03  0.17120000000E+03 0.  0.
         13    1    1    2    0    0 -0.28427188474E+03  0.10188276896E+03  0.57952219932E+03  0.65348036981E+03  0.10566000000E+00 0.  1.
        994    1    1    2    0    0  0.16202808434E+03 -0.12171946545E+03  0.38192966172E+03  0.46502519812E+03  0.17120000000E+03 0.  0.
        998    1    1    2    0    0  0.12224380040E+03  0.19836696495E+02  0.53854813524E+03  0.55269443207E+03  0.10000000000E+02 0.  1.
</event>
<event>
 5    1  0.1087513E-008  0.3852557E+03  0.7957747E-01  0.3428589E+00
         13   -1    0    0    0    0  0.00000000000E+00  0.00000000000E+00  0.14999999963E+04  0.15000000000E+04  0.10566000000E+00 0.  1.
        994   -1    0    0    0    0 -0.00000000000E+00 -0.00000000000E+00  0.11368683772E-12  0.17120000000E+03  0.17120000000E+03 0.  0.
         13    1    1    2    0    0  0.81509518179E+01  0.72865775615E+01  0.36700373292E+02  0.38294396351E+02  0.10566000000E+00 0.  1.
        994    1    1    2    0    0 -0.10050468365E+02 -0.24067628076E+02  0.37417461223E+01  0.17321577093E+03  0.17120000000E+03 0.  0.
        998    1    1    2    0    0  0.18995165468E+01  0.16781050515E+02  0.14595578769E+04  0.14596898327E+04  0.10000000000E+02 0.  1.
</event>
<event>
 5    1  0.1087513E-008  0.3784995E+03  0.7957747E-01  0.3457718E+00
         13   -1    0    0    0    0  0.00000000000E+00  0.00000000000E+00  0.14999999963E+04  0.15000000000E+04  0.10566000000E+00 0.  1.
        994   -1    0    0    0    0 -0.00000000000E+00 -0.00000000000E+00  0.11368683772E-12  0.17120000000E+03  0.17120000000E+03 0.  0.
         13    1    1    2    0    0 -0.14115735093E+02 -0.21670071662E+01  0.19970287841E+02  0.24551445125E+02  0.10566000000E+00 0.  1.
        994    1    1    2    0    0 -0.16092315497E+02  0.94383364295E+01  0.60626843163E+01  0.17232016990E+03  0.17120000000E+03 0.  0.
        998    1    1    2    0    0  0.30208050590E+02 -0.72713292633E+01  0.14739670241E+04  0.14743283850E+04  0.10000000000E+02 0.  1.
</event>
<event>
 5    1  0.1087513E-008  0.3720279E+03  0.7957747E-01  0.3486623E+00
         13   -1    0    0    0    0  0.00000000000E+00  0.00000000000E+00  0.14999999963E+04  0.15000000000E+04  0.10566000000E+00 0. -1.
        994   -1    0    0    0    0 -0.00000000000E+00 -0.00000000000E+00  0.11368683772E-12  0.17120000000E+03  0.17120000000E+03 0.  0.
         13    1    1    2    0    0  0.15358552248E+03  0.12261368326E+03  0.82756403338E+03  0.85057913715E+03  0.10566000000E+00 0. -1.
        994    1    1    2    0    0 -0.15329236835E+03 -0.12328969054E+03  0.15557809392E+03  0.30366573941E+03  0.17120000000E+03 0.  0.
        998    1    1    2    0    0 -0.29315412523E+00  0.67600727872E+00  0.51685786898E+03  0.51695512344E+03  0.10000000000E+02 0.  0.
</event>
<event>
 5    1  0.1087513E-008  0.3786286E+03  0.7957747E-01  0.3457152E+00
         13   -1    0    0    0    0  0.00000000000E+00  0.00000000000E+00  0.14999999963E+04  0.15000000000E+04  0.10566000000E+00 0. -1.
        994   -1    0    0    0    0 -0.00000000000E+00 -0.00000000000E+00  0.11368683772E-12  0.17120000000E+03  0.17120000000E+03 0.  0.
         13    1    1    2    0    0 -0.20477989056E+02 -0.63581390056E+01  0.46556025686E+02  0.51256693798E+02  0.10566000000E+00 0. -1.
        994    1    1    2    0    0  0.88463709052E+01  0.22593498755E+01  0.51070329010E+01  0.17151934213E+03  0.17120000000E+03 0.  0.
        998    1    1    2    0    0  0.11631618150E+02  0.40987891301E+01  0.14483369377E+04  0.14484239641E+04  0.10000000000E+02 0. -1.
</event>
<event>
 5    1  0.1087513E-008  0.3839630E+03  0.7957747E-01  0.3434082E+00
         13   -1    0    0    0    0  0.00000000000E+00  0.00000000000E+00  0.14999999963E+04  0.15000000000E+04  0.10566000000E+00 0. -1.
        994   -1    0    0    0    0 -0.00000000000E+00 -0.00000000000E+00  0.11368683772E-12  0.17120000000E+03  0.17120000000E+03 0.  0.
         13    1    1    2    0    0 -0.10400386573E+02  0.20381669050E+01  0.25449563109E+02  0.27568344014E+02  0.10566000000E+00 0. -1.
        994    1    1    2    0    0  0.72207991892E+01 -0.54790496996E+01  0.24170181653E+01  0.17145682227E+03  0.17120000000E+03 0.  0.
        998    1    1    2    0    0  0.31795873840E+01  0.34408827946E+01  0.14721334150E+04  0.14721748337E+04  0.10000000000E+02 0. -1.
</event>
<event>
 5    1  0.1087513E-008  0.3813824E+03  0.7957747E-01  0.3445161E+00
         13   -1    0    0    0    0  0.00000000000E+00  0.00000000000E+00  0.14999999963E+04  0.15000000000E+04  0.10566000000E+00 0. -1.
        994   -1    0    0    0    0 -0.00000000000E+00 -0.00000000000E+00  0.11368683772E-12  0.17120000000E+03  0.17120000000E+03 0.  0.
         13    1    1    2    0    0 -0.10783418479E+02 -0.11504250077E+02  0.34765731131E+02  0.38174561020E+02  0.10566000000E+00 0. -1.
        994    1    1    2    0    0  0.56771113334E+01  0.10659048028E+02  0.39224449296E+01  0.17167023758E+03  0.17120000000E+03 0.  0.
        998    1    1    2    0    0  0.51063071453E+01  0.84520204937E+00  0.14613118202E+04  0.14613552014E+04  0.10000000000E+02 0. -1.
</event>
<event>
 5    1  0.1087513E-008  0.3848895E+03  0.7957747E-01  0.3430141E+00
         13   -1    0    0    0    0  0.00000000000E+00  0.00000000000E+00  0.14999999963E+04  0.15000000000E+04  0.10566000000E+00 0. -1.
        994   -1    0    0    0    0 -0.00000000000E+00 -0.00000000000E+00  0.11368683772E-12  0.17120000000E+03  0.17120000000E+03 0.  0.
         13    1    1    2    0    0 -0.61620463747E+01  0.11509296154E+02  0.50788338881E+02  0.52439500797E+02  0.10566000000E+00 0. -1.
        994    1    1    2    0    0  0.86048227566E+00 -0.81430542359E+01  0.19056334553E+01  0.17140630444E+03  0.17120000000E+03 0.  0.
        998    1    1    2    0    0  0.53015640990E+01 -0.33662419179E+01  0.14473060239E+04  0.14473541948E+04  0.10000000000E+02 0. -1.
</event>
<event>
 5    1  0.1087513E-008  0.3826337E+03  0.7957747E-01  0.3439770E+00
         13   -1    0    0    0    0  0.00000000000E+00  0.00000000000E+00  0.14999999963E+04  0.15000000000E+04  0.10566000000E+00 0.  1.
        994   -1    0    0    0    0 -0.00000000000E+00 -0.00000000000E+00  0.11368683772E-12  0.17120000000E+03  0.17120000000E+03 0.  0.
         13    1    1    2    0    0 -0.65688633661E+01 -0.12697721135E+02  0.34255283967E+02  0.37118967276E+02  0.10566000000E+00 0.  1.
        994    1    1    2    0    0  0.31739642511E+01  0.19332052321E+02  0.40825115550E+01  0.17236562649E+03  0.17120000000E+03 0.  0.
        998    1    1    2    0    0  0.33948991150E+01 -0.66343311861E+01  0.14616622008E+04  0.14617154062E+04  0.10000000000E+02 0.  1.
</event>
<event>
 5    1  0.1087513E-008  0.3842012E+03  0.7957747E-01  0.3433067E+00
         13   -1    0    0    0    0  0.00000000000E+00  0.00000000000E+00  0.14999999963E+04  0.15000000000E+04  0.10566000000E+00 0.  1.
        994   -1    0    0    0    0 -0.00000000000E+00 -0.00000000000E+00  0.11368683772E-12  0.17120000000E+03  0.17120000000E+03 0.  0.
         13    1    1    2    0    0  0.10307209545E+02 -0.99958152612E+01  0.50269924159E+02  0.52280314941E+02  0.10566000000E+00 0.  1.
        994    1    1    2    0    0 -0.69325584435E+01  0.75814108816E+01  0.23752811757E+01  0.17152440094E+03  0.17120000000E+03 0.  0.
        998    1    1    2    0    0 -0.33746511014E+01  0.24144043796E+01  0.14473547909E+04  0.14473952841E+04  0.10000000000E+02 0.  1.
</event>
<event>
 5    1  0.1087513E-008  0.3837195E+03  0.7957747E-01  0.3435121E+00
         13   -1    0    0    0    0  0.00000000000E+00  0.00000000000E+00  0.14999999963E+04  0.15000000000E+04  0.10566000000E+00 0.  1.
        994   -1    0    0    0    0 -0.00000000000E+00 -0.00000000000E+00  0.11368683772E-12  0.17120000000E+03  0.17120000000E+03 0.  0.
         13    1    1    2    0    0  0.15055693761E+02  0.13124339635E+02  0.79941182010E+02  0.82398579786E+02  0.10566000000E+00 0.  1.
        994    1    1    2    0    0 -0.56114905253E+02  0.17937454922E+02  0.13813994405E+02  0.18157891211E+03  0.17120000000E+03 0.  0.
        998    1    1    2    0    0  0.41059211493E+02 -0.31061794557E+02  0.14062448199E+04  0.14072225081E+04  0.10000000000E+02 0.  1.
</event>
<event>
 5    1  0.1087513E-008  0.3799622E+03  0.7957747E-01  0.3451323E+00
         13   -1    0    0    0    0  0.00000000000E+00  0.00000000000E+00  0.14999999963E+04  0.15000000000E+04  0.10566000000E+00 0. -1.
        994   -1    0    0    0    0 -0.00000000000E+00 -0.00000000000E+00  0.11368683772E-12  0.17120000000E+03  0.17120000000E+03 0.  0.
         13    1    1    2    0    0  0.88928822866E+01 -0.63962286131E+01  0.12651822279E+02  0.16735437456E+02  0.10566000000E+00 0. -1.
        994    1    1    2    0    0 -0.28635782523E+01  0.88744632067E+01  0.44429862417E+01  0.17151132996E+03  0.17120000000E+03 0.  0.
        998    1    1    2    0    0 -0.60293040343E+01 -0.24782345935E+01  0.14829051878E+04  0.14829532326E+04  0.10000000000E+02 0. -1.
</event>
<event>
 5    1  0.1087513E-008  0.3719279E+03  0.7957747E-01  0.3487077E+00
         13   -1    0    0    0    0  0.00000000000E+00  0.00000000000E+00  0.14999999963E+04  0.15000000000E+04  0.10566000000E+00 0.  1.
        994   -1    0    0    0    0 -0.00000000000E+00 -0.00000000000E+00  0.11368683772E-12  0.17120000000E+03  0.17120000000E+03 0.  0.
         13    1    1    2    0    0  0.94221216499E+01  0.66902208436E+01  0.42047565487E+01  0.12297421396E+02  0.10566000000E+00 0.  1.
        994    1    1    2    0    0 -0.11190887373E+02 -0.71237414849E+01  0.88695206716E+01  0.17194211831E+03  0.17120000000E+03 0.  0.
        998    1    1    2    0    0  0.17687657228E+01  0.43352064129E+00  0.14869257191E+04  0.14869604603E+04  0.10000000000E+02 0.  1.
</event>
<event>
 5    1  0.1087513E-008  0.3843256E+03  0.7957747E-01  0.3432537E+00
         13   -1    0    0    0    0  0.00000000000E+00  0.00000000000E+00  0.14999999963E+04  0.15000000000E+04  0.10566000000E+00 0. -1.
        994   -1    0    0    0    0 -0.00000000000E+00 -0.00000000000E+00  0.11368683772E-12  0.17120000000E+03  0.17120000000E+03 0.  0.
         13    1    1    2    0    0  0.14052123527E+02 -0.76828690058E+01  0.66692186063E+02  0.68588246060E+02  0.10566000000E+00 0. -1.
        994    1    1    2    0    0 -0.94219506083E+01 -0.45949757213E+01  0.23275806448E+01  0.17153642350E+03  0.17120000000E+03 0.  0.
        998    1    1    2    0    0 -0.46301729189E+01  0.12277844727E+02  0.14309802296E+04  0.14310753304E+04  0.10000000000E+02 0. -1.
</event>
<event>
 5    1  0.1087513E-008  0.3706250E+03  0.7957747E-01  0.3493023E+00
         13   -1    0    0    0    0  0.00000000000E+00  0.00000000000E+00  0.14999999963E+04  0.15000000000E+04  0.10566000000E+00 0. -1.
        994   -1    0    0    0    0 -0.00000000000E+00 -0.00000000000E+00  0.11368683772E-12  0.17120000000E+03  0.17120000000E+03 0.  0.
         13    1    1    2    0    0 -0.41790428610E+02  0.93924541530E+00  0.91220632457E+02  0.10034210011E+03  0.10566000000E+00 0. -1.
        994    1    1    2    0    0  0.35733665497E+02 -0.13849427264E+02  0.14027085926E+02  0.17599687675E+03  0.17120000000E+03 0.  0.
        998    1    1    2    0    0  0.60567631134E+01  0.12910181849E+02  0.13947522779E+04  0.13948610231E+04  0.10000000000E+02 0. -1.
</event>
<event>
 5    1  0.1087513E-008  0.3710597E+03  0.7957747E-01  0.3491035E+00
         13   -1    0    0    0    0  0.00000000000E+00  0.00000000000E+00  0.14999999963E+04  0.15000000000E+04  0.10566000000E+00 0. -1.
        994   -1    0    0    0    0 -0.00000000000E+00 -0.00000000000E+00  0.11368683772E-12  0.17120000000E+03  0.17120000000E+03 0.  0.
         13    1    1    2    0    0  0.88683092712E+00  0.23515554858E+02  0.29475831031E+02  0.37717417308E+02  0.10566000000E+00 0. -1.
        994    1    1    2    0    0  0.47735753488E+01  0.16602091773E+01  0.88042547197E+01  0.17150072366E+03  0.17120000000E+03 0.  0.
        998    1    1    2    0    0 -0.56604062760E+01 -0.25175764035E+02  0.14617199105E+04  0.14619818590E+04  0.10000000000E+02 0. -1.
</event>
<event>
 5    1  0.1087513E-008  0.3817511E+03  0.7957747E-01  0.3443569E+00
         13   -1    0    0    0    0  0.00000000000E+00  0.00000000000E+00  0.14999999963E+04  0.15000000000E+04  0.10566000000E+00 0.  1.
        994   -1    0    0    0    0 -0.00000000000E+00 -0.00000000000E+00  0.11368683772E-12  0.17120000000E+03  0.17120000000E+03 0.  0.
         13    1    1    2    0    0 -0.12646498898E+02 -0.33241617086E+01  0.25048608229E+02  0.28256466935E+02  0.10566000000E+00 0.  1.
        994    1    1    2    0    0  0.80654371769E+01  0.42613798735E+01  0.35284191807E+01  0.17147915435E+03  0.17120000000E+03 0.  0.
        998    1    1    2    0    0  0.45810617214E+01 -0.93721816482E+00  0.14714229689E+04  0.14714643787E+04  0.10000000000E+02 0.  1.
</event>
<event>
 5    1  0.1087513E-008  0.3840058E+03  0.7957747E-01  0.3433900E+00
         13   -1    0    0    0    0  0.00000000000E+00  0.00000000000E+00  0.14999999963E+04  0.15000000000E+04  0.10566000000E+00 0.  1.
        994   -1    0    0    0    0 -0.00000000000E+00 -0.00000000000E+00  0.11368683772E-12  0.17120000000E+03  0.17120000000E+03 0.  0.
         13    1    1    2    0    0  0.82925148383E+01  0.15920456529E+02  0.74298583187E+02  0.76436361544E+02  0.10566000000E+00 0.  1.
        994    1    1    2    0    0 -0.12254140855E+02 -0.95251880780E+01  0.29197012447E+01  0.17192689677E+03  0.17120000000E+03 0.  0.
        998    1    1    2    0    0  0.39616260164E+01 -0.63952684507E+01  0.14227817118E+04  0.14228367417E+04  0.10000000000E+02 0.  1.
</event>
<event>
 5    1  0.1087513E-008  0.3686383E+03  0.7957747E-01  0.3502173E+00
         13   -1    0    0    0    0  0.00000000000E+00  0.00000000000E+00  0.14999999963E+04  0.15000000000E+04  0.10566000000E+00 0. -1.
        994   -1    0    0    0    0 -0.00000000000E+00 -0.00000000000E+00  0.11368683772E-12  0.17120000000E+03  0.17120000000E+03 0.  0.
         13    1    1    2    0    0 -0.15789230641E+02 -0.47207260242E+02  0.12733582128E+03  0.13671959541E+03  0.10566000000E+00 0. -1.
        994    1    1    2    0    0 -0.12287131995E+02  0.16196810995E+02  0.11659934325E+02  0.17279671400E+03  0.17120000000E+03 0.  0.
        998    1    1    2    0    0  0.28076362636E+02  0.31010449248E+02  0.13610042407E+04  0.13616836906E+04  0.10000000000E+02 0. -1.
</event>
<event>
 5    1  0.1087513E-008  0.3784953E+03  0.7957747E-01  0.3457736E+00
         13   -1    0    0    0    0  0.00000000000E+00  0.00000000000E+00  0.14999999963E+04  0.15000000000E+04  0.10566000000E+00 0. -1.
        994   -1    0    0    0    0 -0.00000000000E+00 -0.00000000000E+00  0.11368683772E-12  0.17120000000E+03  0.17120000000E+03 0.  0.
         13    1    1    2    0    0 -0.19951920405E+02  0.58158725879E+02  0.35525088621E+03  0.36053255032E+03  0.10566000000E+00 0. -1.
        994    1    1    2    0    0  0.31063933305E+02 -0.35785386871E+02  0.12476210646E+02  0.17807486543E+03  0.17120000000E+03 0.  0.
        998    1    1    2    0    0 -0.11112012900E+02 -0.22373339009E+02  0.11322728994E+04  0.11325925842E+04  0.10000000000E+02 0. -1.
</event>
<event>
 5    1  0.1087513E-008  0.3856062E+03  0.7957747E-01  0.3427105E+00
         13   -1    0    0    0    0  0.00000000000E+00  0.00000000000E+00  0.14999999963E+04  0.15000000000E+04  0.10566000000E+00 0. -1.
        994   -1    0    0    0    0 -0.00000000000E+00 -0.00000000000E+00  0.11368683772E-12  0.17120000000E+03  0.17120000000E+03 0.  0.
         13    1    1    2    0    0 -0.18889688474E+01 -0.10150899070E+02  0.44209456707E+02  0.45399297149E+02  0.10566000000E+00 0. -1.
        994    1    1    2    0    0 -0.32597504563E+01 -0.83911125686E+01  0.15954709554E+01  0.17144393332E+03  0.17120000000E+03 0.  0.
        998    1    1    2    0    0  0.51487193036E+01  0.18542011639E+02  0.14541950686E+04  0.14543567695E+04  0.10000000000E+02 0. -1.
</event>
<event>
 5    1  0.1087513E-008  0.3787840E+03  0.7957747E-01  0.3456471E+00
         13   -1    0    0    0    0  0.00000000000E+00  0.00000000000E+00  0.14999999963E+04  0.15000000000E+04  0.10566000000E+00 0. -1.
        994   -1    0    0    0    0 -0.00000000000E+00 -0.00000000000E+00  0.11368683772E-12  0.17120000000E+03  0.17120000000E+03 0.  0.
         13    1    1    2    0    0  0.39820873210E+02  0.10344413819E+02  0.18681426429E+03  0.19129111152E+03  0.10566000000E+00 0. -1.
        994    1    1    2    0    0 -0.12085792821E+02 -0.16113285761E+02  0.61111424547E+01  0.17248910235E+03  0.17120000000E+03 0.  0.
        998    1    1    2    0    0 -0.27735080389E+02  0.57688719420E+01  0.13070745895E+04  0.13074197861E+04  0.10000000000E+02 0. -1.
</event>
<event>
 5    1  0.1087513E-008  0.3940060E+03  0.7957747E-01  0.3392352E+00
         13   -1    0    0    0    0  0.00000000000E+00  0.00000000000E+00  0.14999999963E+04  0.15000000000E+04  0.10566000000E+00 0. -1.
        994   -1    0    0    0    0 -0.00000000000E+00 -0.00000000000E+00  0.11368683772E-12  0.17120000000E+03  0.17120000000E+03 0.  0.
         13    1    1    2    0    0  0.17735571352E+02 -0.16777722520E+02 -0.12366651812E+01  0.24445510200E+02  0.10566000000E+00 0. -1.
        994    1    1    2    0    0 -0.45615169344E+02  0.13500239628E+03  0.10684396072E+03  0.24704546670E+03  0.17120000000E+03 0.  0.
        998    1    1    2    0    0  0.27879597992E+02 -0.11822467376E+03  0.13943927007E+04  0.13997090231E+04  0.10000000000E+02 0. -1.
</event>
<event>
 5    1  0.1087513E-008  0.3784274E+03  0.7957747E-01  0.3458035E+00
         13   -1    0    0    0    0  0.00000000000E+00  0.00000000000E+00  0.14999999963E+04  0.15000000000E+04  0.10566000000E+00 0. -1.
        994   -1    0    0    0    0 -0.00000000000E+00 -0.00000000000E+00  0.11368683772E-12  0.17120000000E+03  0.17120000000E+03 0.  0.
         13    1    1    2    0    0  0.11664821710E+01  0.16220873386E+02  0.25870845117E+02  0.30557964676E+02  0.10566000000E+00 0. -1.
        994    1    1    2    0    0 -0.33635273676E+02  0.70574860158E+01  0.89084027708E+01  0.17484261318E+03  0.17120000000E+03 0.  0.
        998    1    1    2    0    0  0.32468791505E+02 -0.23278359402E+02  0.14652207484E+04  0.14657994221E+04  0.10000000000E+02 0. -1.
</event>
<event>
 5    1  0.1087513E-008  0.3847884E+03  0.7957747E-01  0.3430570E+00
         13   -1    0    0    0    0  0.00000000000E+00  0.00000000000E+00  0.14999999963E+04  0.15000000000E+04  0.10566000000E+00 0. -1.
        994   -1    0    0    0    0 -0.00000000000E+00 -0.00000000000E+00  0.11368683772E-12  0.17120000000E+03  0.17120000000E+03 0.  0.
         13    1    1    2    0    0  0.66933985901E+01  0.13004500949E+02  0.60387789478E+02  0.62133846748E+02  0.10566000000E+00 0. -1.
        994    1    1    2    0    0 -0.10794518575E+02 -0.89093750221E+01  0.23801983754E+01  0.17178767109E+03  0.17120000000E+03 0.  0.
        998    1    1    2    0    0  0.41011199845E+01 -0.40951259269E+01  0.14372320084E+04  0.14372784822E+04  0.10000000000E+02 0. -1.
</event>
<event>
 5    1  0.1087513E-008  0.3801771E+03  0.7957747E-01  0.3450388E+00
         13   -1    0    0    0    0  0.00000000000E+00  0.00000000000E+00  0.14999999963E+04  0.15000000000E+04  0.10566000000E+00 0. -1.
        994   -1    0    0    0    0 -0.00000000000E+00 -0.00000000000E+00  0.11368683772E-12  0.17120000000E+03  0.17120000000E+03 0.  0.
         13    1    1    2    0    0 -0.91391734923E+02 -0.16867988776E+02  0.19548341662E+03  0.21645035365E+03  0.10566000000E+00 0. -1.
        994    1    1    2    0    0  0.11298201196E+03  0.57215404994E+02  0.77158605193E+02  0.22649818531E+03  0.17120000000E+03 0.  0.
        998    1    1    2    0    0 -0.21590277035E+02 -0.40347416218E+02  0.12273579745E+04  0.12282514610E+04  0.10000000000E+02 0. -1.
</event>
<event>
 5    1  0.1087513E-008  0.3853764E+03  0.7957747E-01  0.3428077E+00
         13   -1    0    0    0    0  0.00000000000E+00  0.00000000000E+00  0.14999999963E+04  0.15000000000E+04  0.10566000000E+00 0. -1.
        994   -1    0    0    0    0 -0.00000000000E+00 -0.00000000000E+00  0.11368683772E-12  0.17120000000E+03  0.17120000000E+03 0.  0.
         13    1    1    2    0    0  0.17280394859E+02 -0.10373987464E+01  0.96184964620E+02  0.97730480535E+02  0.10566000000E+00 0. -1.
        994    1    1    2    0    0 -0.20758578792E+02  0.55387867381E+01  0.29610140904E+01  0.17256825999E+03  0.17120000000E+03 0.  0.
        998    1    1    2    0    0  0.34781839327E+01 -0.45013879917E+01  0.14008540176E+04  0.14009012595E+04  0.10000000000E+02 0. -1.
</event>
<event>
 5    1  0.1087513E-008  0.3707776E+03  0.7957747E-01  0.3492325E+00
         13   -1    0    0    0    0  0.00000000000E+00  0.00000000000E+00  0.14999999963E+04  0.15000000000E+04  0.10566000000E+00 0. -1.
        994   -1    0    0    0    0 -0.00000000000E+00 -0.00000000000E+00  0.11368683772E-12  0.17120000000E+03  0.17120000000E+03 0.  0.
         13    1    1    2    0    0  0.50665342669E+02 -0.48112101184E+02  0.30702018815E+03  0.31487006578E+03  0.10566000000E+00 0. -1.
        994    1    1    2    0    0 -0.14077992292E+02  0.18596220271E+02  0.10741425557E+02  0.17311507011E+03  0.17120000000E+03 0.  0.
        998    1    1    2    0    0 -0.36587350377E+02  0.29515880913E+02  0.11822383826E+04  0.11832148641E+04  0.10000000000E+02 0. -1.
</event>
<event>
 5    1  0.1137559E-008  0.3859663E+03  0.7957747E-01  0.3425584E+00
         13   -1    0    0    0    0  0.00000000000E+00  0.00000000000E+00  0.14999999963E+04  0.15000000000E+04  0.10566000000E+00 0.  1.
        994   -1    0    0    0    0 -0.00000000000E+00 -0.00000000000E+00  0.11368683772E-12  0.17120000000E+03  0.17120000000E+03 0.  0.
         13    1    1    2    0    0  0.45142297411E+01  0.94515784978E+01  0.46344784330E+02  0.47513795943E+02  0.10566000000E+00 0.  1.
        994    1    1    2    0    0 -0.13747346904E+01 -0.14031059249E+02  0.18030363943E+01  0.17178897363E+03  0.17120000000E+03 0.  0.
        998    1    1    2    0    0 -0.31394950507E+01  0.45794807511E+01  0.14518521756E+04  0.14518972304E+04  0.10000000000E+02 0.  1.
</event>
<event>
 5    1  0.1087513E-008  0.4007595E+03  0.7957747E-01  0.3365466E+00
         13   -1    0    0    0    0  0.00000000000E+00  0.00000000000E+00  0.14999999963E+04  0.15000000000E+04  0.10566000000E+00 0.  1.
        994   -1    0    0    0    0 -0.00000000000E+00 -0.00000000000E+00  0.11368683772E-12  0.17120000000E+03  0.17120000000E+03 0.  0.
         13    1    1    2    0    0 -0.63715510487E+01 -0.35092550802E+02  0.11834667623E+02  0.37578641625E+02  0.10566000000E+00 0.  1.
        994    1    1    2    0    0  0.23209920862E+02  0.64471502324E+01  0.30515819175E+02  0.17555888298E+03  0.17120000000E+03 0.  0.
        998    1    1    2    0    0 -0.16838369813E+02  0.28645400570E+02  0.14576495095E+04  0.14580624754E+04  0.10000000000E+02 0.  1.
</event>
<event>
 5    1  0.1087513E-008  0.3166171E+03  0.7957747E-01  0.3784094E+00
         13   -1    0    0    0    0  0.00000000000E+00  0.00000000000E+00  0.14999999963E+04  0.15000000000E+04  0.10566000000E+00 0.  1.
        994   -1    0    0    0    0 -0.00000000000E+00 -0.00000000000E+00  0.11368683772E-12  0.17120000000E+03  0.17120000000E+03 0.  0.
         13    1    1    2    0    0  0.24835248575E+03  0.69219624738E+02  0.76701481577E+03  0.80918604314E+03  0.10566000000E+00 0.  1.
        994    1    1    2    0    0 -0.17110341443E+03 -0.67938780315E+02  0.19432078344E+03  0.31774528034E+03  0.17120000000E+03 0.  0.
        998    1    1    2    0    0 -0.77249071311E+02 -0.12808444229E+01  0.53866439706E+03  0.54426867652E+03  0.10000000000E+02 0. -1.
</event>
<event>
 5    1  0.1087513E-008  0.3838245E+03  0.7957747E-01  0.3434673E+00
         13   -1    0    0    0    0  0.00000000000E+00  0.00000000000E+00  0.14999999963E+04  0.15000000000E+04  0.10566000000E+00 0. -1.
        994   -1    0    0    0    0 -0.00000000000E+00 -0.00000000000E+00  0.11368683772E-12  0.17120000000E+03  0.17120000000E+03 0.  0.
         13    1    1    2    0    0  0.13918160449E+02  0.17357756371E+02  0.11705910268E+03  0.11915473797E+03  0.10566000000E+00 0. -1.
        994    1    1    2    0    0 -0.60807826063E+01 -0.40175532601E+01  0.23902734466E+01  0.17137173063E+03  0.17120000000E+03 0.  0.
        998    1    1    2    0    0 -0.78373778426E+01 -0.13340203111E+02  0.13805506202E+04  0.13806735314E+04  0.10000000000E+02 0. -1.
</event>
<event>
 5    1  0.1087513E-008  0.3738396E+03  0.7957747E-01  0.3478429E+00
         13   -1    0    0    0    0  0.00000000000E+00  0.00000000000E+00  0.14999999963E+04  0.15000000000E+04  0.10566000000E+00 0.  1.
        994   -1    0    0    0    0 -0.00000000000E+00 -0.00000000000E+00  0.11368683772E-12  0.17120000000E+03  0.17120000000E+03 0.  0.
         13    1    1    2    0    0 -0.21128948339E+01  0.23606921992E+02  0.35673516740E+02  0.42829453080E+02  0.10566000000E+00 0.  1.
        994    1    1    2    0    0  0.12293145402E+02 -0.14902516811E+02  0.85504640767E+01  0.17249857062E+03  0.17120000000E+03 0.  0.
        998    1    1    2    0    0 -0.10180250568E+02 -0.87044051805E+01  0.14557760155E+04  0.14558719763E+04  0.10000000000E+02 0.  1.
</event>
<event>
 5    1  0.1087513E-008  0.3489828E+03  0.7957747E-01  0.3598433E+00
         13   -1    0    0    0    0  0.00000000000E+00  0.00000000000E+00  0.14999999963E+04  0.15000000000E+04  0.10566000000E+00 0.  1.
        994   -1    0    0    0    0 -0.00000000000E+00 -0.00000000000E+00  0.11368683772E-12  0.17120000000E+03  0.17120000000E+03 0.  0.
         13    1    1    2    0    0 -0.14425838512E+03 -0.14414504280E+03  0.10779652771E+04  0.10970858786E+04  0.10566000000E+00 0.  1.
        994    1    1    2    0    0  0.10221826373E+03  0.12873689928E+03  0.11511645020E+03  0.26378589762E+03  0.17120000000E+03 0.  0.
        998    1    1    2    0    0  0.42040121398E+02  0.15408143517E+02  0.30691826894E+03  0.31032822383E+03  0.10000000000E+02 0. -1.
</event>
<event>
 5    1  0.1087513E-008  0.3799355E+03  0.7957747E-01  0.3451439E+00
         13   -1    0    0    0    0  0.00000000000E+00  0.00000000000E+00  0.14999999963E+04  0.15000000000E+04  0.10566000000E+00 0. -1.
        994   -1    0    0    0    0 -0.00000000000E+00 -0.00000000000E+00  0.11368683772E-12  0.17120000000E+03  0.17120000000E+03 0.  0.
         13    1    1    2    0    0  0.39217510995E+02 -0.26487333350E+02  0.24373880445E+03  0.24829057162E+03  0.10566000000E+00 0. -1.
        994    1    1    2    0    0 -0.29670913988E+02  0.24833858275E+02  0.91876689827E+01  0.17575817738E+03  0.17120000000E+03 0.  0.
        998    1    1    2    0    0 -0.95465970068E+01  0.16534750751E+01  0.12470735228E+04  0.12471512510E+04  0.10000000000E+02 0.  0.
</event>
<event>
 5    1  0.1087513E-008  0.3837023E+03  0.7957747E-01  0.3435195E+00
         13   -1    0    0    0    0  0.00000000000E+00  0.00000000000E+00  0.14999999963E+04  0.15000000000E+04  0.10566000000E+00 0. -1.
        994   -1    0    0    0    0 -0.00000000000E+00 -0.00000000000E+00  0.11368683772E-12  0.17120000000E+03  0.17120000000E+03 0.  0.
         13    1    1    2    0    0  0.16585303532E+02 -0.17591304797E+02  0.13112035781E+03  0.13333073800E+03  0.10566000000E+00 0. -1.
        994    1    1    2    0    0 -0.91918256523E+01  0.71740004682E+01  0.27249385992E+01  0.17161824271E+03  0.17120000000E+03 0.  0.
        998    1    1    2    0    0 -0.73934778799E+01  0.10417304328E+02  0.13661546999E+04  0.13662510193E+04  0.10000000000E+02 0. -1.
</event>
<event>
 5    1  0.1087513E-008  0.3859972E+03  0.7957747E-01  0.3425454E+00
         13   -1    0    0    0    0  0.00000000000E+00  0.00000000000E+00  0.14999999963E+04  0.15000000000E+04  0.10566000000E+00 0. -1.
        994   -1    0    0    0    0 -0.00000000000E+00 -0.00000000000E+00  0.11368683772E-12  0.17120000000E+03  0.17120000000E+03 0.  0.
         13    1    1    2    0    0 -0.82913430924E+01 -0.10738813674E+03  0.22812107271E+03  0.25227008000E+03  0.10566000000E+00 0. -1.
        994    1    1    2    0    0  0.15611660364E+02  0.11945768975E+03  0.75671057898E+02  0.22259697344E+03  0.17120000000E+03 0.  0.
        998    1    1    2    0    0 -0.73203172713E+01 -0.12069553008E+02  0.11962078657E+04  0.11963329466E+04  0.10000000000E+02 0. -1.
</event>
<event>
 5    1  0.1087513E-008  0.3785056E+03  0.7957747E-01  0.3457691E+00
         13   -1    0    0    0    0  0.00000000000E+00  0.00000000000E+00  0.14999999963E+04  0.15000000000E+04  0.10566000000E+00 0.  1.
        994   -1    0    0    0    0 -0.00000000000E+00 -0.00000000000E+00  0.11368683772E-12  0.17120000000E+03  0.17120000000E+03 0.  0.
         13    1    1    2    0    0  0.74105745076E+01 -0.84635169747E+01  0.10825135366E+02  0.15612253324E+02  0.10566000000E+00 0.  1.
        994    1    1    2    0    0 -0.43601304465E+01  0.38227116388E+01  0.50023916017E+01  0.17137119882E+03  0.17120000000E+03 0.  0.
        998    1    1    2    0    0 -0.30504440611E+01  0.46408053359E+01  0.14841724693E+04  0.14842165479E+04  0.10000000000E+02 0.  1.
</event>
<event>
 5    1  0.1087513E-008  0.3712171E+03  0.7957747E-01  0.3490316E+00
         13   -1    0    0    0    0  0.00000000000E+00  0.00000000000E+00  0.14999999963E+04  0.15000000000E+04  0.10566000000E+00 0.  1.
        994   -1    0    0    0    0 -0.00000000000E+00 -0.00000000000E+00  0.11368683772E-12  0.17120000000E+03  0.17120000000E+03 0.  0.
         13    1    1    2    0    0 -0.35192336263E+02 -0.32111269128E+02  0.12891106689E+03  0.13743255971E+03  0.10566000000E+00 0.  1.
        994    1    1    2    0    0  0.11802115518E+02  0.28994217080E+02  0.12015901107E+02  0.17445279142E+03  0.17120000000E+03 0.  0.
        998    1    1    2    0    0  0.23390220745E+02  0.31170520479E+01  0.13590730283E+04  0.13593146489E+04  0.10000000000E+02 0.  1.
</event>
<event>
 5    1  0.1087513E-008  0.3865971E+03  0.7957747E-01  0.3422927E+00
         13   -1    0    0    0    0  0.00000000000E+00  0.00000000000E+00  0.14999999963E+04  0.15000000000E+04  0.10566000000E+00 0. -1.
        994   -1    0    0    0    0 -0.00000000000E+00 -0.00000000000E+00  0.11368683772E-12  0.17120000000E+03  0.17120000000E+03 0.  0.
         13    1    1    2    0    0 -0.41943161911E+02 -0.40339894246E+02  0.52367459774E+02  0.78287278060E+02  0.10566000000E+00 0. -1.
        994    1    1    2    0    0  0.10524954357E+03  0.13243824415E+03  0.13591493848E+03  0.27640489402E+03  0.17120000000E+03 0.  0.
        998    1    1    2    0    0 -0.63306381657E+02 -0.92098349903E+02  0.13117175980E+04  0.13165078279E+04  0.10000000000E+02 0. -1.
</event>
<event>
 5    1  0.1087513E-008  0.3754599E+03  0.7957747E-01  0.3471168E+00
         13   -1    0    0    0    0  0.00000000000E+00  0.00000000000E+00  0.14999999963E+04  0.15000000000E+04  0.10566000000E+00 0.  1.
        994   -1    0    0    0    0 -0.00000000000E+00 -0.00000000000E+00  0.11368683772E-12  0.17120000000E+03  0.17120000000E+03 0.  0.
         13    1    1    2    0    0  0.18088833124E+03 -0.10799794592E+03  0.84686288721E+03  0.87267457027E+03  0.10566000000E+00 0.  1.
        994    1    1    2    0    0 -0.19060430246E+03  0.11522962070E+03  0.19935173305E+03  0.34446831360E+03  0.17120000000E+03 0.  0.
        998    1    1    2    0    0  0.97159712224E+01 -0.72316747847E+01  0.45378537602E+03  0.45405711613E+03  0.10000000000E+02 0.  1.
</event>
<event>
 5    1  0.1087513E-008  0.3715671E+03  0.7957747E-01  0.3488720E+00
         13   -1    0    0    0    0  0.00000000000E+00  0.00000000000E+00  0.14999999963E+04  0.15000000000E+04  0.10566000000E+00 0. -1.
        994   -1    0    0    0    0 -0.00000000000E+00 -0.00000000000E+00  0.11368683772E-12  0.17120000000E+03  0.17120000000E+03 0.  0.
         13    1    1    2    0    0 -0.11619832604E+03 -0.10061596872E+02  0.69485524123E+03  0.70457583278E+03  0.10566000000E+00 0. -1.
        994    1    1    2    0    0  0.85729076873E+02 -0.89684257697E+02  0.68035641829E+02  0.22210589650E+03  0.17120000000E+03 0.  0.
        998    1    1    2    0    0  0.30469249171E+02  0.99745854569E+02  0.73710911322E+03  0.74451827072E+03  0.10000000000E+02 0.  1.
</event>
<event>
 5    1  0.1087513E-008  0.3695793E+03  0.7957747E-01  0.3497827E+00
         13   -1    0    0    0    0  0.00000000000E+00  0.00000000000E+00  0.14999999963E+04  0.15000000000E+04  0.10566000000E+00 0.  1.
        994   -1    0    0    0    0 -0.00000000000E+00 -0.00000000000E+00  0.11368683772E-12  0.17120000000E+03  0.17120000000E+03 0.  0.
         13    1    1    2    0    0  0.10743605942E+02 -0.16306819374E+03  0.88884332205E+03  0.90374173479E+03  0.10566000000E+00 0.  1.
        994    1    1    2    0    0 -0.64252060230E+02  0.14078158845E+03  0.97635229234E+02  0.25057905115E+03  0.17120000000E+03 0.  0.
        998    1    1    2    0    0  0.53508454289E+02  0.22286605293E+02  0.51352144499E+03  0.51687921405E+03  0.10000000000E+02 0.  1.
</event>
<event>
 5    1  0.1087513E-008  0.3844241E+03  0.7957747E-01  0.3432118E+00
         13   -1    0    0    0    0  0.00000000000E+00  0.00000000000E+00  0.14999999963E+04  0.15000000000E+04  0.10566000000E+00 0.  1.
        994   -1    0    0    0    0 -0.00000000000E+00 -0.00000000000E+00  0.11368683772E-12  0.17120000000E+03  0.17120000000E+03 0.  0.
         13    1    1    2    0    0  0.76105127089E+01  0.19889525537E+02  0.10466520074E+03  0.10680977736E+03  0.10566000000E+00 0.  1.
        994    1    1    2    0    0 -0.63111971316E+01 -0.29575189397E+02  0.49353174874E+01  0.17392044272E+03  0.17120000000E+03 0.  0.
        998    1    1    2    0    0 -0.12993155774E+01  0.96856638597E+01  0.13903994781E+04  0.13904697799E+04  0.10000000000E+02 0.  1.
</event>
<event>
 5    1  0.1087513E-008  0.3843394E+03  0.7957747E-01  0.3432479E+00
         13   -1    0    0    0    0  0.00000000000E+00  0.00000000000E+00  0.14999999963E+04  0.15000000000E+04  0.10566000000E+00 0. -1.
        994   -1    0    0    0    0 -0.00000000000E+00 -0.00000000000E+00  0.11368683772E-12  0.17120000000E+03  0.17120000000E+03 0.  0.
         13    1    1    2    0    0  0.19669857481E+03 -0.94216572026E+02  0.97084409241E+03  0.99504037843E+03  0.10566000000E+00 0. -1.
        994    1    1    2    0    0 -0.21643395468E+03  0.11435623360E+03  0.23390528369E+03  0.37939705671E+03  0.17120000000E+03 0.  0.
        998    1    1    2    0    0  0.19735379867E+02 -0.20139661572E+02  0.29525062018E+03  0.29676256486E+03  0.10000000000E+02 0. -1.
</event>
<event>
 5    1  0.1087513E-008  0.3806312E+03  0.7957747E-01  0.3448415E+00
         13   -1    0    0    0    0  0.00000000000E+00  0.00000000000E+00  0.14999999963E+04  0.15000000000E+04  0.10566000000E+00 0. -1.
        994   -1    0    0    0    0 -0.00000000000E+00 -0.00000000000E+00  0.11368683772E-12  0.17120000000E+03  0.17120000000E+03 0.  0.
         13    1    1    2    0    0 -0.16545852669E+01 -0.13357710887E+02  0.21601509777E+02  0.25451964192E+02  0.10566000000E+00 0. -1.
        994    1    1    2    0    0 -0.38801439214E+01  0.19503576173E+02  0.51351377397E+01  0.17242753446E+03  0.17120000000E+03 0.  0.
        998    1    1    2    0    0  0.55347291883E+01 -0.61458652858E+01  0.14732633488E+04  0.14733205013E+04  0.10000000000E+02 0. -1.
</event>
<event>
 5    1  0.1087513E-008  0.3857081E+03  0.7957747E-01  0.3426675E+00
         13   -1    0    0    0    0  0.00000000000E+00  0.00000000000E+00  0.14999999963E+04  0.15000000000E+04  0.10566000000E+00 0. -1.
        994   -1    0    0    0    0 -0.00000000000E+00 -0.00000000000E+00  0.11368683772E-12  0.17120000000E+03  0.17120000000E+03 0.  0.
         13    1    1    2    0    0  0.14021328971E+02  0.37945292187E+01  0.80108760581E+02  0.81415114101E+02  0.10566000000E+00 0. -1.
        994    1    1    2    0    0 -0.11895556108E+02 -0.10584242014E+02  0.21112854643E+01  0.17195181872E+03  0.17120000000E+03 0.  0.
        998    1    1    2    0    0 -0.21257728628E+01  0.67897127948E+01  0.14177799502E+04  0.14178330672E+04  0.10000000000E+02 0. -1.
</event>
<event>
 5    1  0.1087513E-008  0.3835650E+03  0.7957747E-01  0.3435781E+00
         13   -1    0    0    0    0  0.00000000000E+00  0.00000000000E+00  0.14999999963E+04  0.15000000000E+04  0.10566000000E+00 0.  1.
        994   -1    0    0    0    0 -0.00000000000E+00 -0.00000000000E+00  0.11368683772E-12  0.17120000000E+03  0.17120000000E+03 0.  0.
         13    1    1    2    0    0 -0.82796751613E+01 -0.17362268183E+02  0.75257749155E+02  0.77677161052E+02  0.10566000000E+00 0.  1.
        994    1    1    2    0    0  0.36120277333E+01  0.19707995057E+02  0.36717741911E+01  0.17240758028E+03  0.17120000000E+03 0.  0.
        998    1    1    2    0    0  0.46676474280E+01 -0.23457268743E+01  0.14210704729E+04  0.14211152587E+04  0.10000000000E+02 0.  1.
</event>
<event>
 5    1  0.1087513E-008  0.3811967E+03  0.7957747E-01  0.3445964E+00
         13   -1    0    0    0    0  0.00000000000E+00  0.00000000000E+00  0.14999999963E+04  0.15000000000E+04  0.10566000000E+00 0.  1.
        994   -1    0    0    0    0 -0.00000000000E+00 -0.00000000000E+00  0.11368683772E-12  0.17120000000E+03  0.17120000000E+03 0.  0.
         13    1    1    2    0    0  0.14421899561E+01  0.32357621201E+02  0.16589552916E+03  0.16902790692E+03  0.10566000000E+00 0.  1.
        994    1    1    2    0    0  0.14014136310E+02 -0.38212785790E+01  0.42331549583E+01  0.17186726793E+03  0.17120000000E+03 0.  0.
        998    1    1    2    0    0 -0.15456326266E+02 -0.28536342622E+02  0.13298713122E+04  0.13303048251E+04  0.10000000000E+02 0.  1.
</event>
<event>
 5    1  0.1087513E-008  0.3816707E+03  0.7957747E-01  0.3443916E+00
         13   -1    0    0    0    0  0.00000000000E+00  0.00000000000E+00  0.14999999963E+04  0.15000000000E+04  0.10566000000E+00 0. -1.
        994   -1    0    0    0    0 -0.00000000000E+00 -0.00000000000E+00  0.11368683772E-12  0.17120000000E+03  0.17120000000E+03 0.  0.
         13    1    1    2    0    0 -0.15537835133E+02 -0.55221982419E+01  0.38587186023E+02  0.41963091917E+02  0.10566000000E+00 0. -1.
        994    1    1    2    0    0  0.20944534261E+02  0.54654175743E+01  0.48514343640E+01  0.17263116961E+03  0.17120000000E+03 0.  0.
        998    1    1    2    0    0 -0.54066991275E+01  0.56780667621E-01  0.14565613759E+04  0.14566057385E+04  0.10000000000E+02 0. -1.
</event>
<event>
 5    1  0.1087513E-008  0.3799328E+03  0.7957747E-01  0.3451451E+00
         13   -1    0    0    0    0  0.00000000000E+00  0.00000000000E+00  0.14999999963E+04  0.15000000000E+04  0.10566000000E+00 0.  1.
        994   -1    0    0    0    0 -0.00000000000E+00 -0.00000000000E+00  0.11368683772E-12  0.17120000000E+03  0.17120000000E+03 0.  0.
         13    1    1    2    0    0  0.36604367661E+02  0.57987263686E+01  0.14321275294E+03  0.14793041854E+03  0.10566000000E+00 0.  1.
        994    1    1    2    0    0 -0.38102076274E+02 -0.52013962038E+02  0.18194940017E+02  0.18384155217E+03  0.17120000000E+03 0.  0.
        998    1    1    2    0    0  0.14977086132E+01  0.46215235669E+02  0.13385923033E+04  0.13394280293E+04  0.10000000000E+02 0.  1.
</event>
<event>
 5    1  0.1087513E-008  0.3813812E+03  0.7957747E-01  0.3445166E+00
         13   -1    0    0    0    0  0.00000000000E+00  0.00000000000E+00  0.14999999963E+04  0.15000000000E+04  0.10566000000E+00 0.  1.
        994   -1    0    0    0    0 -0.00000000000E+00 -0.00000000000E+00  0.11368683772E-12  0.17120000000E+03  0.17120000000E+03 0.  0.
         13    1    1    2    0    0  0.24669112865E+02  0.10337865939E+02  0.13345620736E+03  0.13611027533E+03  0.10566000000E+00 0.  1.
        994    1    1    2    0    0  0.15424336418E+02  0.20189000178E+02  0.55885716743E+01  0.17316517553E+03  0.17120000000E+03 0.  0.
        998    1    1    2    0    0 -0.40093449282E+02 -0.30526866117E+02  0.13609552172E+04  0.13619245491E+04  0.10000000000E+02 0.  1.
</event>
<event>
 5    1  0.1087513E-008  0.3849732E+03  0.7957747E-01  0.3429786E+00
         13   -1    0    0    0    0  0.00000000000E+00  0.00000000000E+00  0.14999999963E+04  0.15000000000E+04  0.10566000000E+00 0.  1.
        994   -1    0    0    0    0 -0.00000000000E+00 -0.00000000000E+00  0.11368683772E-12  0.17120000000E+03  0.17120000000E+03 0.  0.
         13    1    1    2    0    0 -0.13179687842E+02  0.44881697395E+01  0.60060097308E+02  0.61652853072E+02  0.10566000000E+00 0.  1.
        994    1    1    2    0    0  0.62743097859E+01 -0.73804509988E+00  0.17747017937E+01  0.17132571681E+03  0.17120000000E+03 0.  0.
        998    1    1    2    0    0  0.69053780565E+01 -0.37501246397E+01  0.14381651972E+04  0.14382214301E+04  0.10000000000E+02 0.  1.
</event>
<event>
 5    1  0.1087513E-008  0.3773951E+03  0.7957747E-01  0.3462580E+00
         13   -1    0    0    0    0  0.00000000000E+00  0.00000000000E+00  0.14999999963E+04  0.15000000000E+04  0.10566000000E+00 0. -1.
        994   -1    0    0    0    0 -0.00000000000E+00 -0.00000000000E+00  0.11368683772E-12  0.17120000000E+03  0.17120000000E+03 0.  0.
         13    1    1    2    0    0  0.22262079575E+01  0.97945344171E+01  0.67908050073E+01  0.12124978474E+02  0.10566000000E+00 0. -1.
        994    1    1    2    0    0 -0.53788623306E+01 -0.39721457522E+01  0.56046916725E+01  0.17142217672E+03  0.17120000000E+03 0.  0.
        998    1    1    2    0    0  0.31526543731E+01 -0.58223886648E+01  0.14876044996E+04  0.14876528448E+04  0.10000000000E+02 0. -1.
</event>
<event>
 5    1  0.1087513E-008  0.3862363E+03  0.7957747E-01  0.3424446E+00
         13   -1    0    0    0    0  0.00000000000E+00  0.00000000000E+00  0.14999999963E+04  0.15000000000E+04  0.10566000000E+00 0.  1.
        994   -1    0    0    0    0 -0.00000000000E+00 -0.00000000000E+00  0.11368683772E-12  0.17120000000E+03  0.17120000000E+03 0.  0.
         13    1    1    2    0    0 -0.82303300401E+01  0.74630299653E+01  0.60874735461E+02  0.61880366275E+02  0.10566000000E+00 0.  1.
        994    1    1    2    0    0  0.59285662478E+01 -0.69051056547E+01  0.12889315377E+01  0.17144657980E+03  0.17120000000E+03 0.  0.
        998    1    1    2    0    0  0.23017637923E+01 -0.55792431069E+00  0.14378363293E+04  0.14378730539E+04  0.10000000000E+02 0.  1.
</event>
<event>
 5    1  0.1087513E-008  0.3748043E+03  0.7957747E-01  0.3474099E+00
         13   -1    0    0    0    0  0.00000000000E+00  0.00000000000E+00  0.14999999963E+04  0.15000000000E+04  0.10566000000E+00 0. -1.
        994   -1    0    0    0    0 -0.00000000000E+00 -0.00000000000E+00  0.11368683772E-12  0.17120000000E+03  0.17120000000E+03 0.  0.
         13    1    1    2    0    0  0.72647935152E+02  0.10131043982E+03  0.49783976178E+03  0.51321142551E+03  0.10566000000E+00 0. -1.
        994    1    1    2    0    0 -0.79686094876E+02 -0.56171778268E+02  0.48123652890E+02  0.20280648007E+03  0.17120000000E+03 0.  0.
        998    1    1    2    0    0  0.70381597236E+01 -0.45138661555E+02  0.95403658161E+03  0.95518209442E+03  0.10000000000E+02 0.  1.
</event>
<event>
 5    1  0.1087513E-008  0.3850202E+03  0.7957747E-01  0.3429586E+00
         13   -1    0    0    0    0  0.00000000000E+00  0.00000000000E+00  0.14999999963E+04  0.15000000000E+04  0.10566000000E+00 0. -1.
        994   -1    0    0    0    0 -0.00000000000E+00 -0.00000000000E+00  0.11368683772E-12  0.17120000000E+03  0.17120000000E+03 0.  0.
         13    1    1    2    0    0 -0.14664077912E+02  0.13713955652E+01  0.63537718969E+02  0.65222456276E+02  0.10566000000E+00 0. -1.
        994    1    1    2    0    0  0.18151346781E+02 -0.10575297452E+01  0.27079778273E+01  0.17218409596E+03  0.17120000000E+03 0.  0.
        998    1    1    2    0    0 -0.34872688688E+01 -0.31386582008E+00  0.14337542995E+04  0.14337934478E+04  0.10000000000E+02 0. -1.
</event>
<event>
 5    1  0.1087513E-008  0.3849360E+03  0.7957747E-01  0.3429944E+00
         13   -1    0    0    0    0  0.00000000000E+00  0.00000000000E+00  0.14999999963E+04  0.15000000000E+04  0.10566000000E+00 0. -1.
        994   -1    0    0    0    0 -0.00000000000E+00 -0.00000000000E+00  0.11368683772E-12  0.17120000000E+03  0.17120000000E+03 0.  0.
         13    1    1    2    0    0 -0.95676155277E+01  0.19089240218E+02  0.12476377293E+03  0.12657783597E+03  0.10566000000E+00 0. -1.
        994    1    1    2    0    0  0.25813918812E+02 -0.14859356931E+02  0.45855189974E+01  0.17383217734E+03  0.17120000000E+03 0.  0.
        998    1    1    2    0    0 -0.16246303285E+02 -0.42298832878E+01  0.13706507044E+04  0.13707899867E+04  0.10000000000E+02 0. -1.
</event>
<event>
 5    1  0.1087513E-008  0.3717948E+03  0.7957747E-01  0.3487683E+00
         13   -1    0    0    0    0  0.00000000000E+00  0.00000000000E+00  0.14999999963E+04  0.15000000000E+04  0.10566000000E+00 0.  1.
        994   -1    0    0    0    0 -0.00000000000E+00 -0.00000000000E+00  0.11368683772E-12  0.17120000000E+03  0.17120000000E+03 0.  0.
         13    1    1    2    0    0  0.36978706793E+02 -0.13762050327E+03  0.62013788265E+03  0.63630011185E+03  0.10566000000E+00 0.  1.
        994    1    1    2    0    0 -0.14664435989E+02  0.11803656292E+03  0.63476932820E+02  0.21791382900E+03  0.17120000000E+03 0.  0.
        998    1    1    2    0    0 -0.22314270804E+02  0.19583940351E+02  0.81638518080E+03  0.81698605914E+03  0.10000000000E+02 0.  1.
</event>
<event>
 5    1  0.1087513E-008  0.3808352E+03  0.7957747E-01  0.3447530E+00
         13   -1    0    0    0    0  0.00000000000E+00  0.00000000000E+00  0.14999999963E+04  0.15000000000E+04  0.10566000000E+00 0. -1.
        994   -1    0    0    0    0 -0.00000000000E+00 -0.00000000000E+00  0.11368683772E-12  0.17120000000E+03  0.17120000000E+03 0.  0.
         13    1    1    2    0    0 -0.15467316506E+02 -0.11804114231E+02  0.50355543951E+02  0.53983950979E+02  0.10566000000E+00 0. -1.
        994    1    1    2    0    0  0.10130135514E+02  0.17233017576E+01  0.40642430680E+01  0.17155625167E+03  0.17120000000E+03 0.  0.
        998    1    1    2    0    0  0.53371809915E+01  0.10080812473E+02  0.14455802093E+04  0.14456597974E+04  0.10000000000E+02 0. -1.
</event>
<event>
 5    1  0.1087513E-008  0.3803975E+03  0.7957747E-01  0.3449429E+00
         13   -1    0    0    0    0  0.00000000000E+00  0.00000000000E+00  0.14999999963E+04  0.15000000000E+04  0.10566000000E+00 0.  1.
        994   -1    0    0    0    0 -0.00000000000E+00 -0.00000000000E+00  0.11368683772E-12  0.17120000000E+03  0.17120000000E+03 0.  0.
         13    1    1    2    0    0  0.43325107373E+02 -0.82878065765E+01  0.51002604570E+02  0.67431665438E+02  0.10566000000E+00 0.  1.
        994    1    1    2    0    0 -0.44081674654E+02  0.24389273412E+01  0.23652395149E+02  0.17837605838E+03  0.17120000000E+03 0.  0.
        998    1    1    2    0    0  0.75656728144E+00  0.58488792353E+01  0.14253449966E+04  0.14253922762E+04  0.10000000000E+02 0.  1.
</event>
<event>
 5    1  0.1087513E-008  0.3816017E+03  0.7957747E-01  0.3444214E+00
         13   -1    0    0    0    0  0.00000000000E+00  0.00000000000E+00  0.14999999963E+04  0.15000000000E+04  0.10566000000E+00 0.  1.
        994   -1    0    0    0    0 -0.00000000000E+00 -0.00000000000E+00  0.11368683772E-12  0.17120000000E+03  0.17120000000E+03 0.  0.
         13    1    1    2    0    0 -0.37386679570E+02  0.18396361876E+02  0.21884880458E+03  0.22278016152E+03  0.10566000000E+00 0.  1.
        994    1    1    2    0    0  0.37823081574E+02 -0.24177345212E+02  0.10056892605E+02  0.17727298331E+03  0.17120000000E+03 0.  0.
        998    1    1    2    0    0 -0.43640200451E+00  0.57809833367E+01  0.12710942991E+04  0.12711468552E+04  0.10000000000E+02 0.  1.
</event>
<event>
 5    1  0.1087513E-008  0.3818532E+03  0.7957747E-01  0.3443129E+00
         13   -1    0    0    0    0  0.00000000000E+00  0.00000000000E+00  0.14999999963E+04  0.15000000000E+04  0.10566000000E+00 0. -1.
        994   -1    0    0    0    0 -0.00000000000E+00 -0.00000000000E+00  0.11368683772E-12  0.17120000000E+03  0.17120000000E+03 0.  0.
         13    1    1    2    0    0  0.98004984504E+01  0.94000943543E+01  0.27699226824E+02  0.30849147062E+02  0.10566000000E+00 0. -1.
        994    1    1    2    0    0 -0.24924379319E+01 -0.92865390370E+01  0.35078181967E+01  0.17150567583E+03  0.17120000000E+03 0.  0.
        998    1    1    2    0    0 -0.73080605185E+01 -0.11355531734E+00  0.14687929513E+04  0.14688451771E+04  0.10000000000E+02 0. -1.
</event>
<event>
 5    1  0.1087513E-008  0.3735883E+03  0.7957747E-01  0.3479560E+00
         13   -1    0    0    0    0  0.00000000000E+00  0.00000000000E+00  0.14999999963E+04  0.15000000000E+04  0.10566000000E+00 0. -1.
        994   -1    0    0    0    0 -0.00000000000E+00 -0.00000000000E+00  0.11368683772E-12  0.17120000000E+03  0.17120000000E+03 0.  0.
         13    1    1    2    0    0 -0.24802113248E+02 -0.26291181425E+02  0.88333049217E+02  0.95441656473E+02  0.10566000000E+00 0. -1.
        994    1    1    2    0    0 -0.11968508352E+02  0.31118170177E+02  0.11211461099E+02  0.17477620710E+03  0.17120000000E+03 0.  0.
        998    1    1    2    0    0  0.36770621600E+02 -0.48269887516E+01  0.14004554860E+04  0.14009821364E+04  0.10000000000E+02 0. -1.
</event>
<event>
 5    1  0.1087513E-008  0.3862890E+03  0.7957747E-01  0.3424224E+00
         13   -1    0    0    0    0  0.00000000000E+00  0.00000000000E+00  0.14999999963E+04  0.15000000000E+04  0.10566000000E+00 0.  1.
        994   -1    0    0    0    0 -0.00000000000E+00 -0.00000000000E+00  0.11368683772E-12  0.17120000000E+03  0.17120000000E+03 0.  0.
         13    1    1    2    0    0 -0.92821719412E+02 -0.18377768064E+01  0.30557325512E+03  0.31936542459E+03  0.10566000000E+00 0.  1.
        994    1    1    2    0    0 -0.14286153932E+02 -0.17899187402E+02  0.21773271598E+02  0.17409190234E+03  0.17120000000E+03 0.  0.
        998    1    1    2    0    0  0.10710787334E+03  0.19736964208E+02  0.11726534696E+04  0.11777426731E+04  0.10000000000E+02 0.  1.
</event>
<event>
 5    1  0.1087513E-008  0.3759262E+03  0.7957747E-01  0.3469091E+00
         13   -1    0    0    0    0  0.00000000000E+00  0.00000000000E+00  0.14999999963E+04  0.15000000000E+04  0.10566000000E+00 0.  1.
        994   -1    0    0    0    0 -0.00000000000E+00 -0.00000000000E+00  0.11368683772E-12  0.17120000000E+03  0.17120000000E+03 0.  0.
         13    1    1    2    0    0  0.61273737988E+01 -0.16400088065E+02  0.22933594202E+02  0.28852530309E+02  0.10566000000E+00 0.  1.
        994    1    1    2    0    0  0.59046196518E+01 -0.90081318570E+00  0.63247740161E+01  0.17142088194E+03  0.17120000000E+03 0.  0.
        998    1    1    2    0    0 -0.12031993451E+02  0.17300901250E+02  0.14707416281E+04  0.14709265878E+04  0.10000000000E+02 0.  1.
</event>
<event>
 5    1  0.1087513E-008  0.3788250E+03  0.7957747E-01  0.3456291E+00
         13   -1    0    0    0    0  0.00000000000E+00  0.00000000000E+00  0.14999999963E+04  0.15000000000E+04  0.10566000000E+00 0. -1.
        994   -1    0    0    0    0 -0.00000000000E+00 -0.00000000000E+00  0.11368683772E-12  0.17120000000E+03  0.17120000000E+03 0.  0.
         13    1    1    2    0    0  0.13198446276E+02  0.11229032978E+02  0.29153655901E+02  0.33915143847E+02  0.10566000000E+00 0. -1.
        994    1    1    2    0    0 -0.10522052996E+02 -0.18250477234E+02  0.62181983909E+01  0.17260330098E+03  0.17120000000E+03 0.  0.
        998    1    1    2    0    0 -0.26763932802E+01  0.70214442562E+01  0.14646281420E+04  0.14646815552E+04  0.10000000000E+02 0. -1.
</event>
<event>
 5    1  0.1087513E-008  0.3793875E+03  0.7957747E-01  0.3453830E+00
         13   -1    0    0    0    0  0.00000000000E+00  0.00000000000E+00  0.14999999963E+04  0.15000000000E+04  0.10566000000E+00 0.  1.
        994   -1    0    0    0    0 -0.00000000000E+00 -0.00000000000E+00  0.11368683772E-12  0.17120000000E+03  0.17120000000E+03 0.  0.
         13    1    1    2    0    0  0.20601368822E+03 -0.75175164280E+02  0.10354255811E+04  0.10583945815E+04  0.10566000000E+00 0.  1.
        994    1    1    2    0    0 -0.20523822515E+03  0.77928737684E+02  0.18776049637E+03  0.33579616022E+03  0.17120000000E+03 0.  0.
        998    1    1    2    0    0 -0.77546306375E+00 -0.27535734034E+01  0.27681391880E+03  0.27700925824E+03  0.10000000000E+02 0.  0.
</event>
<event>
 5    1  0.1087513E-008  0.3761746E+03  0.7957747E-01  0.3467986E+00
         13   -1    0    0    0    0  0.00000000000E+00  0.00000000000E+00  0.14999999963E+04  0.15000000000E+04  0.10566000000E+00 0. -1.
        994   -1    0    0    0    0 -0.00000000000E+00 -0.00000000000E+00  0.11368683772E-12  0.17120000000E+03  0.17120000000E+03 0.  0.
         13    1    1    2    0    0  0.12733794247E+02  0.14465213747E+02  0.29605962759E+02  0.35325856247E+02  0.10566000000E+00 0. -1.
        994    1    1    2    0    0  0.22649169726E+02 -0.10705236433E+02  0.82045685624E+01  0.17321761435E+03  0.17120000000E+03 0.  0.
        998    1    1    2    0    0 -0.35382963973E+02 -0.37599773143E+01  0.14621894650E+04  0.14626565294E+04  0.10000000000E+02 0. -1.
</event>
<event>
 5    1  0.1087513E-008  0.3842025E+03  0.7957747E-01  0.3433062E+00
         13   -1    0    0    0    0  0.00000000000E+00  0.00000000000E+00  0.14999999963E+04  0.15000000000E+04  0.10566000000E+00 0. -1.
        994   -1    0    0    0    0 -0.00000000000E+00 -0.00000000000E+00  0.11368683772E-12  0.17120000000E+03  0.17120000000E+03 0.  0.
         13    1    1    2    0    0  0.76909424380E+01  0.17682374658E+02  0.76088994379E+02  0.78494351381E+02  0.10566000000E+00 0. -1.
        994    1    1    2    0    0 -0.30496026469E+02 -0.33671361573E+02  0.88610984731E+01  0.17734634839E+03  0.17120000000E+03 0.  0.
        998    1    1    2    0    0  0.22805084031E+02  0.15988986915E+02  0.14150499034E+04  0.14153593002E+04  0.10000000000E+02 0. -1.
</event>
<event>
 5    1  0.1087513E-008  0.3817001E+03  0.7957747E-01  0.3443789E+00
         13   -1    0    0    0    0  0.00000000000E+00  0.00000000000E+00  0.14999999963E+04  0.15000000000E+04  0.10566000000E+00 0.  1.
        994   -1    0    0    0    0 -0.00000000000E+00 -0.00000000000E+00  0.11368683772E-12  0.17120000000E+03  0.17120000000E+03 0.  0.
         13    1    1    2    0    0 -0.34190726792E+02  0.17061960819E+02  0.21144334788E+03  0.21486837094E+03  0.10566000000E+00 0.  1.
        994    1    1    2    0    0  0.18127170458E+02 -0.26645906047E+02  0.67376241586E+01  0.17433712799E+03  0.17120000000E+03 0.  0.
        998    1    1    2    0    0  0.16063556335E+02  0.95839452286E+01  0.12818190242E+04  0.12819945011E+04  0.10000000000E+02 0.  1.
</event>
<event>
 5    1  0.1087513E-008  0.3115053E+03  0.7957747E-01  0.3817157E+00
         13   -1    0    0    0    0  0.00000000000E+00  0.00000000000E+00  0.14999999963E+04  0.15000000000E+04  0.10566000000E+00 0. -1.
        994   -1    0    0    0    0 -0.00000000000E+00 -0.00000000000E+00  0.11368683772E-12  0.17120000000E+03  0.17120000000E+03 0.  0.
         13    1    1    2    0    0 -0.36952375384E+02  0.25665721130E+03  0.45368071475E+03  0.52255583841E+03  0.10566000000E+00 0. -1.
        994    1    1    2    0    0  0.41170059205E+02 -0.25400898371E+03  0.41611212418E+03  0.51833799540E+03  0.17120000000E+03 0.  0.
        998    1    1    2    0    0 -0.42176838212E+01 -0.26482275806E+01  0.63020715735E+03  0.63030616620E+03  0.10000000000E+02 0. -1.
</event>
<event>
 5    1  0.1087513E-008  0.3822864E+03  0.7957747E-01  0.3441263E+00
         13   -1    0    0    0    0  0.00000000000E+00  0.00000000000E+00  0.14999999963E+04  0.15000000000E+04  0.10566000000E+00 0. -1.
        994   -1    0    0    0    0 -0.00000000000E+00 -0.00000000000E+00  0.11368683772E-12  0.17120000000E+03  0.17120000000E+03 0.  0.
         13    1    1    2    0    0  0.19522637767E+02 -0.27352464020E+02  0.19309854737E+03  0.19600089499E+03  0.10566000000E+00 0. -1.
        994    1    1    2    0    0 -0.19517645592E+02  0.68058929922E+01  0.44022780491E+01  0.17249950354E+03  0.17120000000E+03 0.  0.
        998    1    1    2    0    0 -0.49921751683E-02  0.20546571028E+02  0.13024991709E+04  0.13026996015E+04  0.10000000000E+02 0. -1.
</event>
<event>
 5    1  0.1087513E-008  0.3851579E+03  0.7957747E-01  0.3429003E+00
         13   -1    0    0    0    0  0.00000000000E+00  0.00000000000E+00  0.14999999963E+04  0.15000000000E+04  0.10566000000E+00 0.  1.
        994   -1    0    0    0    0 -0.00000000000E+00 -0.00000000000E+00  0.11368683772E-12  0.17120000000E+03  0.17120000000E+03 0.  0.
         13    1    1    2    0    0  0.12249489475E+02  0.54293270731E+01  0.59409088673E+02  0.60901383940E+02  0.10566000000E+00 0.  1.
        994    1    1    2    0    0 -0.70535227027E+01  0.38833771919E+01  0.17648904138E+01  0.17139833033E+03  0.17120000000E+03 0.  0.
        998    1    1    2    0    0 -0.51959667722E+01 -0.93127042650E+01  0.14388260172E+04  0.14389002857E+04  0.10000000000E+02 0.  1.
</event>
<event>
 5    1  0.1087513E-008  0.3727972E+03  0.7957747E-01  0.3483134E+00
         13   -1    0    0    0    0  0.00000000000E+00  0.00000000000E+00  0.14999999963E+04  0.15000000000E+04  0.10566000000E+00 0. -1.
        994   -1    0    0    0    0 -0.00000000000E+00 -0.00000000000E+00  0.11368683772E-12  0.17120000000E+03  0.17120000000E+03 0.  0.
         13    1    1    2    0    0 -0.15756778493E+02  0.22974078790E+02  0.25582499792E+02  0.37822742158E+02  0.10566000000E+00 0. -1.
        994    1    1    2    0    0  0.17411696268E+02 -0.22916809536E+02  0.15355631032E+02  0.17428018456E+03  0.17120000000E+03 0.  0.
        998    1    1    2    0    0 -0.16549177751E+01 -0.57269254570E-01  0.14590618655E+04  0.14590970733E+04  0.10000000000E+02 0. -1.
</event>
<event>
 5    1  0.1087513E-008  0.3720828E+03  0.7957747E-01  0.3486373E+00
         13   -1    0    0    0    0  0.00000000000E+00  0.00000000000E+00  0.14999999963E+04  0.15000000000E+04  0.10566000000E+00 0.  1.
        994   -1    0    0    0    0 -0.00000000000E+00 -0.00000000000E+00  0.11368683772E-12  0.17120000000E+03  0.17120000000E+03 0.  0.
         13    1    1    2    0    0 -0.32334843342E+02  0.19935455286E+02  0.53512513606E+02  0.65624421886E+02  0.10566000000E+00 0.  1.
        994    1    1    2    0    0  0.30775048736E+02 -0.22682614443E+02  0.17209290655E+02  0.17625891270E+03  0.17120000000E+03 0.  0.
        998    1    1    2    0    0  0.15597946067E+01  0.27471591566E+01  0.14292781920E+04  0.14293166654E+04  0.10000000000E+02 0.  1.
</event>
<event>
 5    1  0.1087513E-008  0.3832646E+03  0.7957747E-01  0.3437066E+00
         13   -1    0    0    0    0  0.00000000000E+00  0.00000000000E+00  0.14999999963E+04  0.15000000000E+04  0.10566000000E+00 0.  1.
        994   -1    0    0    0    0 -0.00000000000E+00 -0.00000000000E+00  0.11368683772E-12  0.17120000000E+03  0.17120000000E+03 0.  0.
         13    1    1    2    0    0  0.85321328494E+01 -0.78762671943E+01  0.27514169896E+02  0.29864252627E+02  0.10566000000E+00 0.  1.
        994    1    1    2    0    0 -0.61865671159E+01 -0.15223755694E+02  0.33877941320E+01  0.17202021247E+03  0.17120000000E+03 0.  0.
        998    1    1    2    0    0 -0.23455657335E+01  0.23100022888E+02  0.14690980323E+04  0.14693155349E+04  0.10000000000E+02 0.  1.
</event>
<event>
 5    1  0.1087513E-008  0.3777243E+03  0.7957747E-01  0.3461127E+00
         13   -1    0    0    0    0  0.00000000000E+00  0.00000000000E+00  0.14999999963E+04  0.15000000000E+04  0.10566000000E+00 0. -1.
        994   -1    0    0    0    0 -0.00000000000E+00 -0.00000000000E+00  0.11368683772E-12  0.17120000000E+03  0.17120000000E+03 0.  0.
         13    1    1    2    0    0  0.31708825877E+02 -0.17721698686E+02  0.12062046577E+03  0.12597148951E+03  0.10566000000E+00 0. -1.
        994    1    1    2    0    0 -0.27787428475E+02  0.27950020380E+01  0.79178673635E+01  0.17364355975E+03  0.17120000000E+03 0.  0.
        998    1    1    2    0    0 -0.39213974023E+01  0.14926696648E+02  0.13714616631E+04  0.13715849507E+04  0.10000000000E+02 0. -1.
</event>
<event>
 5    1  0.1087513E-008  0.3724931E+03  0.7957747E-01  0.3484511E+00
         13   -1    0    0    0    0  0.00000000000E+00  0.00000000000E+00  0.14999999963E+04  0.15000000000E+04  0.10566000000E+00 0.  1.
        994   -1    0    0    0    0 -0.00000000000E+00 -0.00000000000E+00  0.11368683772E-12  0.17120000000E+03  0.17120000000E+03 0.  0.
         13    1    1    2    0    0 -0.55304450318E+02 -0.47000424043E+02  0.28088244189E+03  0.29010787548E+03  0.10566000000E+00 0.  1.
        994    1    1    2    0    0  0.57898046144E+02  0.32717201857E+02  0.23288837987E+02  0.18513348973E+03  0.17120000000E+03 0.  0.
        998    1    1    2    0    0 -0.25935958257E+01  0.14283222186E+02  0.11958287164E+04  0.11959586348E+04  0.10000000000E+02 0.  1.
</event>
<event>
 5    1  0.1087513E-008  0.3834682E+03  0.7957747E-01  0.3436195E+00
         13   -1    0    0    0    0  0.00000000000E+00  0.00000000000E+00  0.14999999963E+04  0.15000000000E+04  0.10566000000E+00 0.  1.
        994   -1    0    0    0    0 -0.00000000000E+00 -0.00000000000E+00  0.11368683772E-12  0.17120000000E+03  0.17120000000E+03 0.  0.
         13    1    1    2    0    0  0.21368999594E+01  0.24384482416E+02  0.12618422373E+03  0.12853652713E+03  0.10566000000E+00 0.  1.
        994    1    1    2    0    0 -0.63899305567E+01 -0.12751214746E+02  0.30651646988E+01  0.17182042930E+03  0.17120000000E+03 0.  0.
        998    1    1    2    0    0  0.42530305973E+01 -0.11633267670E+02  0.13707506079E+04  0.13708430436E+04  0.10000000000E+02 0.  1.
</event>
<event>
 5    1  0.1087513E-008  0.3808315E+03  0.7957747E-01  0.3447546E+00
         13   -1    0    0    0    0  0.00000000000E+00  0.00000000000E+00  0.14999999963E+04  0.15000000000E+04  0.10566000000E+00 0.  1.
        994   -1    0    0    0    0 -0.00000000000E+00 -0.00000000000E+00  0.11368683772E-12  0.17120000000E+03  0.17120000000E+03 0.  0.
         13    1    1    2    0    0 -0.27493741792E+02  0.34913138154E+01  0.10363087641E+03  0.10727285220E+03  0.10566000000E+00 0.  1.
        994    1    1    2    0    0  0.15254246272E+02  0.65339197503E+01  0.46325900022E+01  0.17206476986E+03  0.17120000000E+03 0.  0.
        998    1    1    2    0    0  0.12239495520E+02 -0.10025233566E+02  0.13917365299E+04  0.13918623779E+04  0.10000000000E+02 0.  1.
</event>
<event>
 5    1  0.1087513E-008  0.3819267E+03  0.7957747E-01  0.3442812E+00
         13   -1    0    0    0    0  0.00000000000E+00  0.00000000000E+00  0.14999999963E+04  0.15000000000E+04  0.10566000000E+00 0. -1.
        994   -1    0    0    0    0 -0.00000000000E+00 -0.00000000000E+00  0.11368683772E-12  0.17120000000E+03  0.17120000000E+03 0.  0.
         13    1    1    2    0    0  0.20261889204E+02  0.99793411431E+01  0.79262220698E+02  0.82417487208E+02  0.10566000000E+00 0. -1.
        994    1    1    2    0    0 -0.17982905925E+02  0.24111137480E+01  0.42579912997E+01  0.17221140748E+03  0.17120000000E+03 0.  0.
        998    1    1    2    0    0 -0.22789832788E+01 -0.12390454891E+02  0.14164797843E+04  0.14165711053E+04  0.10000000000E+02 0. -1.
</event>
<event>
 5    1  0.1087513E-008  0.3743154E+03  0.7957747E-01  0.3476290E+00
         13   -1    0    0    0    0  0.00000000000E+00  0.00000000000E+00  0.14999999963E+04  0.15000000000E+04  0.10566000000E+00 0. -1.
        994   -1    0    0    0    0 -0.00000000000E+00 -0.00000000000E+00  0.11368683772E-12  0.17120000000E+03  0.17120000000E+03 0.  0.
         13    1    1    2    0    0  0.95375722198E+02  0.33443651895E+02  0.52401396661E+03  0.53367186042E+03  0.10566000000E+00 0. -1.
        994    1    1    2    0    0 -0.86404965289E+02 -0.26039722418E+02  0.35305625786E+02  0.19672267887E+03  0.17120000000E+03 0.  0.
        998    1    1    2    0    0 -0.89707569085E+01 -0.74039294764E+01  0.94068040388E+03  0.94080546071E+03  0.10000000000E+02 0. -1.
</event>
<event>
 5    1  0.1087513E-008  0.3735093E+03  0.7957747E-01  0.3479917E+00
         13   -1    0    0    0    0  0.00000000000E+00  0.00000000000E+00  0.14999999963E+04  0.15000000000E+04  0.10566000000E+00 0.  1.
        994   -1    0    0    0    0 -0.00000000000E+00 -0.00000000000E+00  0.11368683772E-12  0.17120000000E+03  0.17120000000E+03 0.  0.
         13    1    1    2    0    0 -0.45752236613E+02  0.83742839697E+02  0.39335567827E+03  0.40476515555E+03  0.10566000000E+00 0.  1.
        994    1    1    2    0    0  0.24933444052E+02 -0.31386631352E+02  0.18515440904E+02  0.17680231563E+03  0.17120000000E+03 0.  0.
        998    1    1    2    0    0  0.20818792562E+02 -0.52356208345E+02  0.10881288771E+04  0.10896325288E+04  0.10000000000E+02 0. -1.
</event>
<event>
 5    1  0.1087513E-008  0.3835000E+03  0.7957747E-01  0.3436059E+00
         13   -1    0    0    0    0  0.00000000000E+00  0.00000000000E+00  0.14999999963E+04  0.15000000000E+04  0.10566000000E+00 0.  1.
        994   -1    0    0    0    0 -0.00000000000E+00 -0.00000000000E+00  0.11368683772E-12  0.17120000000E+03  0.17120000000E+03 0.  0.
         13    1    1    2    0    0  0.86874654267E+02  0.12649453831E+02  0.18692643222E+03  0.20651565670E+03  0.10566000000E+00 0.  1.
        994    1    1    2    0    0 -0.78364152964E+02 -0.81930534840E+01  0.41424695880E+02  0.19295987154E+03  0.17120000000E+03 0.  0.
        998    1    1    2    0    0 -0.85105013035E+01 -0.44564003470E+01  0.12716488682E+04  0.12717244718E+04  0.10000000000E+02 0.  1.
</event>
<event>
 5    1  0.1087513E-008  0.3822149E+03  0.7957747E-01  0.3441571E+00
         13   -1    0    0    0    0  0.00000000000E+00  0.00000000000E+00  0.14999999963E+04  0.15000000000E+04  0.10566000000E+00 0.  1.
        994   -1    0    0    0    0 -0.00000000000E+00 -0.00000000000E+00  0.11368683772E-12  0.17120000000E+03  0.17120000000E+03 0.  0.
         13    1    1    2    0    0  0.25582083930E+02 -0.30770698720E+02  0.20808551965E+03  0.21189826231E+03  0.10566000000E+00 0.  1.
        994    1    1    2    0    0 -0.25958353289E+02  0.45782913940E+02  0.12266575143E+02  0.17952665590E+03  0.17120000000E+03 0.  0.
        998    1    1    2    0    0  0.37626935974E+00 -0.15012215220E+02  0.12796479015E+04  0.12797750818E+04  0.10000000000E+02 0.  1.
</event>
<event>
 5    1  0.1087513E-008  0.3842746E+03  0.7957747E-01  0.3432754E+00
         13   -1    0    0    0    0  0.00000000000E+00  0.00000000000E+00  0.14999999963E+04  0.15000000000E+04  0.10566000000E+00 0.  1.
        994   -1    0    0    0    0 -0.00000000000E+00 -0.00000000000E+00  0.11368683772E-12  0.17120000000E+03  0.17120000000E+03 0.  0.
         13    1    1    2    0    0 -0.12045220605E+02 -0.27221857975E+00  0.38698838680E+02  0.40531132745E+02  0.10566000000E+00 0.  1.
        994    1    1    2    0    0 -0.74401356534E+01 -0.52995248866E+01  0.22657925361E+01  0.17145849177E+03  0.17120000000E+03 0.  0.
        998    1    1    2    0    0  0.19485356259E+02  0.55717434663E+01  0.14590353651E+04  0.14592103755E+04  0.10000000000E+02 0.  1.
</event>
<event>
 5    1  0.1087513E-008  0.3734879E+03  0.7957747E-01  0.3480013E+00
         13   -1    0    0    0    0  0.00000000000E+00  0.00000000000E+00  0.14999999963E+04  0.15000000000E+04  0.10566000000E+00 0. -1.
        994   -1    0    0    0    0 -0.00000000000E+00 -0.00000000000E+00  0.11368683772E-12  0.17120000000E+03  0.17120000000E+03 0.  0.
         13    1    1    2    0    0  0.19377858518E+02  0.24212275542E+02  0.34038746332E+02  0.46047617784E+02  0.10566000000E+00 0. -1.
        994    1    1    2    0    0  0.37454343395E+01 -0.63283155237E+01  0.12986557780E+02  0.17184925528E+03  0.17120000000E+03 0.  0.
        998    1    1    2    0    0 -0.23123292858E+02 -0.17883960018E+02  0.14529746922E+04  0.14533031269E+04  0.10000000000E+02 0. -1.
</event>
<event>
 5    1  0.1087513E-008  0.3816395E+03  0.7957747E-01  0.3444050E+00
         13   -1    0    0    0    0  0.00000000000E+00  0.00000000000E+00  0.14999999963E+04  0.15000000000E+04  0.10566000000E+00 0. -1.
        994   -1    0    0    0    0 -0.00000000000E+00 -0.00000000000E+00  0.11368683772E-12  0.17120000000E+03  0.17120000000E+03 0.  0.
         13    1    1    2    0    0 -0.85163324566E+01 -0.28126781750E+02  0.15113220459E+03  0.15396297671E+03  0.10566000000E+00 0. -1.
        994    1    1    2    0    0  0.37102431237E+02 -0.13026140314E+02  0.84661124440E+01  0.17586183723E+03  0.17120000000E+03 0.  0.
        998    1    1    2    0    0 -0.28586098780E+02  0.41152922064E+02  0.13404016792E+04  0.13413751861E+04  0.10000000000E+02 0. -1.
</event>
<event>
 5    1  0.1087513E-008  0.3826561E+03  0.7957747E-01  0.3439674E+00
         13   -1    0    0    0    0  0.00000000000E+00  0.00000000000E+00  0.14999999963E+04  0.15000000000E+04  0.10566000000E+00 0. -1.
        994   -1    0    0    0    0 -0.00000000000E+00 -0.00000000000E+00  0.11368683772E-12  0.17120000000E+03  0.17120000000E+03 0.  0.
         13    1    1    2    0    0  0.16273285211E+02 -0.49817677417E+01  0.52398205998E+02  0.55092839619E+02  0.10566000000E+00 0. -1.
        994    1    1    2    0    0 -0.67516889733E+01 -0.62302151748E+01  0.30780820505E+01  0.17147394984E+03  0.17120000000E+03 0.  0.
        998    1    1    2    0    0 -0.95215962382E+01  0.11211982917E+02  0.14445237082E+04  0.14446332105E+04  0.10000000000E+02 0. -1.
</event>
<event>
 5    1  0.1087513E-008  0.3851600E+03  0.7957747E-01  0.3428994E+00
         13   -1    0    0    0    0  0.00000000000E+00  0.00000000000E+00  0.14999999963E+04  0.15000000000E+04  0.10566000000E+00 0. -1.
        994   -1    0    0    0    0 -0.00000000000E+00 -0.00000000000E+00  0.11368683772E-12  0.17120000000E+03  0.17120000000E+03 0.  0.
         13    1    1    2    0    0  0.61721039527E+01 -0.96036998007E+01  0.42347502672E+02  0.43859412487E+02  0.10566000000E+00 0. -1.
        994    1    1    2    0    0  0.13928071396E+01  0.81369355498E+01  0.17747492003E+01  0.17140810765E+03  0.17120000000E+03 0.  0.
        998    1    1    2    0    0 -0.75649110924E+01  0.14667642509E+01  0.14558777444E+04  0.14559324799E+04  0.10000000000E+02 0. -1.
</event>
<event>
 5    1  0.1087513E-008  0.3796885E+03  0.7957747E-01  0.3452516E+00
         13   -1    0    0    0    0  0.00000000000E+00  0.00000000000E+00  0.14999999963E+04  0.15000000000E+04  0.10566000000E+00 0. -1.
        994   -1    0    0    0    0 -0.00000000000E+00 -0.00000000000E+00  0.11368683772E-12  0.17120000000E+03  0.17120000000E+03 0.  0.
         13    1    1    2    0    0 -0.16125920889E+02  0.37011784861E+02  0.20222543820E+03  0.20621604342E+03  0.10566000000E+00 0. -1.
        994    1    1    2    0    0 -0.27968050653E+01 -0.16415383773E+02  0.52189330062E+01  0.17208708320E+03  0.17120000000E+03 0.  0.
        998    1    1    2    0    0  0.18922725954E+02 -0.20596401088E+02  0.12925556251E+04  0.12928968734E+04  0.10000000000E+02 0. -1.
</event>
<event>
 5    1  0.1087513E-008  0.3854385E+03  0.7957747E-01  0.3427815E+00
         13   -1    0    0    0    0  0.00000000000E+00  0.00000000000E+00  0.14999999963E+04  0.15000000000E+04  0.10566000000E+00 0. -1.
        994   -1    0    0    0    0 -0.00000000000E+00 -0.00000000000E+00  0.11368683772E-12  0.17120000000E+03  0.17120000000E+03 0.  0.
         13    1    1    2    0    0  0.47914701437E+01  0.14904168732E+02  0.82980690637E+02  0.84444648228E+02  0.10566000000E+00 0. -1.
        994    1    1    2    0    0 -0.35445942911E+01 -0.16308788804E+02  0.23278661304E+01  0.17202732254E+03  0.17120000000E+03 0.  0.
        998    1    1    2    0    0 -0.12468758527E+01  0.14046200720E+01  0.14146914395E+04  0.14147280292E+04  0.10000000000E+02 0. -1.
</event>
<event>
 5    1  0.1087513E-008  0.3835298E+03  0.7957747E-01  0.3435931E+00
         13   -1    0    0    0    0  0.00000000000E+00  0.00000000000E+00  0.14999999963E+04  0.15000000000E+04  0.10566000000E+00 0. -1.
        994   -1    0    0    0    0 -0.00000000000E+00 -0.00000000000E+00  0.11368683772E-12  0.17120000000E+03  0.17120000000E+03 0.  0.
         13    1    1    2    0    0  0.16529788092E+02 -0.18788214120E+02  0.12518099328E+03  0.12765783614E+03  0.10566000000E+00 0. -1.
        994    1    1    2    0    0 -0.21423862913E+02  0.11160015808E+02  0.42923906414E+01  0.17294910371E+03  0.17120000000E+03 0.  0.
        998    1    1    2    0    0  0.48940748215E+01  0.76281983119E+01  0.13705266124E+04  0.13705930602E+04  0.10000000000E+02 0. -1.
</event>
<event>
 5    1  0.1087513E-008  0.3854698E+03  0.7957747E-01  0.3427682E+00
         13   -1    0    0    0    0  0.00000000000E+00  0.00000000000E+00  0.14999999963E+04  0.15000000000E+04  0.10566000000E+00 0. -1.
        994   -1    0    0    0    0 -0.00000000000E+00 -0.00000000000E+00  0.11368683772E-12  0.17120000000E+03  0.17120000000E+03 0.  0.
         13    1    1    2    0    0 -0.13553344458E+02 -0.31552284693E+01  0.68885297923E+02  0.70276909769E+02  0.10566000000E+00 0. -1.
        994    1    1    2    0    0  0.11282662525E+02 -0.10572814078E+01  0.18188796457E+01  0.17158427854E+03  0.17120000000E+03 0.  0.
        998    1    1    2    0    0  0.22706819331E+01  0.42125098771E+01  0.14292958187E+04  0.14293388117E+04  0.10000000000E+02 0. -1.
</event>
<event>
 5    1  0.1087513E-008  0.3694902E+03  0.7957747E-01  0.3498237E+00
         13   -1    0    0    0    0  0.00000000000E+00  0.00000000000E+00  0.14999999963E+04  0.15000000000E+04  0.10566000000E+00 0.  1.
        994   -1    0    0    0    0 -0.00000000000E+00 -0.00000000000E+00  0.11368683772E-12  0.17120000000E+03  0.17120000000E+03 0.  0.
         13    1    1    2    0    0  0.30882035679E+02 -0.26879292520E+02  0.88270973689E+02  0.97303506895E+02  0.10566000000E+00 0.  1.
        994    1    1    2    0    0 -0.83063749683E+01  0.11107418158E+02  0.10202386964E+02  0.17206364899E+03  0.17120000000E+03 0.  0.
        998    1    1    2    0    0 -0.22575660711E+02  0.15771874362E+02  0.14015266356E+04  0.14018328441E+04  0.10000000000E+02 0.  1.
</event>
<event>
 5    1  0.1087513E-008  0.3819649E+03  0.7957747E-01  0.3442647E+00
         13   -1    0    0    0    0  0.00000000000E+00  0.00000000000E+00  0.14999999963E+04  0.15000000000E+04  0.10566000000E+00 0.  1.
        994   -1    0    0    0    0 -0.00000000000E+00 -0.00000000000E+00  0.11368683772E-12  0.17120000000E+03  0.17120000000E+03 0.  0.
         13    1    1    2    0    0  0.11267366756E+01 -0.13291981216E+02  0.27004172721E+02  0.30119475569E+02  0.10566000000E+00 0.  1.
        994    1    1    2    0    0 -0.20737626469E+01  0.10239060407E+02  0.35071027767E+01  0.17155430225E+03  0.17120000000E+03 0.  0.
        998    1    1    2    0    0  0.94702597131E+00  0.30529208088E+01  0.14694887208E+04  0.14695262222E+04  0.10000000000E+02 0.  1.
</event>
<event>
 5    1  0.1087513E-008  0.3826380E+03  0.7957747E-01  0.3439752E+00
         13   -1    0    0    0    0  0.00000000000E+00  0.00000000000E+00  0.14999999963E+04  0.15000000000E+04  0.10566000000E+00 0.  1.
        994   -1    0    0    0    0 -0.00000000000E+00 -0.00000000000E+00  0.11368683772E-12  0.17120000000E+03  0.17120000000E+03 0.  0.
         13    1    1    2    0    0 -0.29648685940E+02  0.38487703917E+00  0.15117964798E+03  0.15406002024E+03  0.10566000000E+00 0.  1.
        994    1    1    2    0    0  0.21510873770E+02 -0.44934626746E+01  0.44093800967E+01  0.17266091489E+03  0.17120000000E+03 0.  0.
        998    1    1    2    0    0  0.81378121699E+01  0.41085856355E+01  0.13444109682E+04  0.13444790649E+04  0.10000000000E+02 0.  1.
</event>
<event>
 5    1  0.1087513E-008  0.3812121E+03  0.7957747E-01  0.3445898E+00
         13   -1    0    0    0    0  0.00000000000E+00  0.00000000000E+00  0.14999999963E+04  0.15000000000E+04  0.10566000000E+00 0. -1.
        994   -1    0    0    0    0 -0.00000000000E+00 -0.00000000000E+00  0.11368683772E-12  0.17120000000E+03  0.17120000000E+03 0.  0.
         13    1    1    2    0    0  0.73274532970E+01  0.18361301848E+02  0.52779337677E+02  0.56360434944E+02  0.10566000000E+00 0. -1.
        994    1    1    2    0    0 -0.60328134428E+01 -0.18562732566E+02  0.47920271409E+01  0.17237567521E+03  0.17120000000E+03 0.  0.
        998    1    1    2    0    0 -0.12946398542E+01  0.20143071786E+00  0.14424286315E+04  0.14424638899E+04  0.10000000000E+02 0.  0.
</event>
<event>
 5    1  0.1087513E-008  0.3745552E+03  0.7957747E-01  0.3475215E+00
         13   -1    0    0    0    0  0.00000000000E+00  0.00000000000E+00  0.14999999963E+04  0.15000000000E+04  0.10566000000E+00 0.  1.
        994   -1    0    0    0    0 -0.00000000000E+00 -0.00000000000E+00  0.11368683772E-12  0.17120000000E+03  0.17120000000E+03 0.  0.
         13    1    1    2    0    0 -0.16813862817E+02 -0.12733045708E+02  0.29593422368E+02  0.36340311602E+02  0.10566000000E+00 0.  1.
        994    1    1    2    0    0  0.12286555458E+02  0.26098714413E+01  0.74446052978E+01  0.17182151501E+03  0.17120000000E+03 0.  0.
        998    1    1    2    0    0  0.45273073595E+01  0.10123174267E+02  0.14629619686E+04  0.14630381734E+04  0.10000000000E+02 0.  1.
</event>
<event>
 5    1  0.1087513E-008  0.3829682E+03  0.7957747E-01  0.3438335E+00
         13   -1    0    0    0    0  0.00000000000E+00  0.00000000000E+00  0.14999999963E+04  0.15000000000E+04  0.10566000000E+00 0. -1.
        994   -1    0    0    0    0 -0.00000000000E+00 -0.00000000000E+00  0.11368683772E-12  0.17120000000E+03  0.17120000000E+03 0.  0.
         13    1    1    2    0    0 -0.69433252491E+01  0.93276241376E+01  0.24631522842E+02  0.27238528211E+02  0.10566000000E+00 0. -1.
        994    1    1    2    0    0  0.42557969021E+01 -0.70998727356E+01  0.28691064378E+01  0.17142401165E+03  0.17120000000E+03 0.  0.
        998    1    1    2    0    0  0.26875283470E+01 -0.22277514020E+01  0.14724993670E+04  0.14725374601E+04  0.10000000000E+02 0. -1.
</event>
<event>
 5    1  0.1087513E-008  0.3831930E+03  0.7957747E-01  0.3437372E+00
         13   -1    0    0    0    0  0.00000000000E+00  0.00000000000E+00  0.14999999963E+04  0.15000000000E+04  0.10566000000E+00 0. -1.
        994   -1    0    0    0    0 -0.00000000000E+00 -0.00000000000E+00  0.11368683772E-12  0.17120000000E+03  0.17120000000E+03 0.  0.
         13    1    1    2    0    0 -0.98913849306E+01 -0.29104543224E+02  0.18273448314E+03  0.18530196012E+03  0.10566000000E+00 0. -1.
        994    1    1    2    0    0  0.12555962452E+02  0.17061108570E+02  0.40157811289E+01  0.17255231125E+03  0.17120000000E+03 0.  0.
        998    1    1    2    0    0 -0.26645775213E+01  0.12043434655E+02  0.13132497320E+04  0.13133457286E+04  0.10000000000E+02 0. -1.
</event>
<event>
 5    1  0.1087513E-008  0.3841954E+03  0.7957747E-01  0.3433092E+00
         13   -1    0    0    0    0  0.00000000000E+00  0.00000000000E+00  0.14999999963E+04  0.15000000000E+04  0.10566000000E+00 0. -1.
        994   -1    0    0    0    0 -0.00000000000E+00 -0.00000000000E+00  0.11368683772E-12  0.17120000000E+03  0.17120000000E+03 0.  0.
         13    1    1    2    0    0  0.12359212293E+02  0.14140828748E+02  0.96848377715E+02  0.98652585350E+02  0.10566000000E+00 0. -1.
        994    1    1    2    0    0 -0.97377740844E+01  0.13179195534E+02  0.29160003053E+01  0.17200714664E+03  0.17120000000E+03 0.  0.
        998    1    1    2    0    0 -0.26214382087E+01 -0.27320024282E+02  0.14002356183E+04  0.14005402680E+04  0.10000000000E+02 0. -1.
</event>
<event>
 5    1  0.1087513E-008  0.3773640E+03  0.7957747E-01  0.3462717E+00
         13   -1    0    0    0    0  0.00000000000E+00  0.00000000000E+00  0.14999999963E+04  0.15000000000E+04  0.10566000000E+00 0.  1.
        994   -1    0    0    0    0 -0.00000000000E+00 -0.00000000000E+00  0.11368683772E-12  0.17120000000E+03  0.17120000000E+03 0.  0.
         13    1    1    2    0    0  0.49561710275E+02  0.42282625232E+02  0.31151032460E+03  0.31824970859E+03  0.10566000000E+00 0.  1.
        994    1    1    2    0    0 -0.45506837478E+02 -0.44385894012E+02  0.19220735678E+02  0.18362967223E+03  0.17120000000E+03 0.  0.
        998    1    1    2    0    0 -0.40548727976E+01  0.21032687801E+01  0.11692689360E+04  0.11693206192E+04  0.10000000000E+02 0.  0.
</event>
<event>
 5    1  0.1087513E-008  0.3752256E+03  0.7957747E-01  0.3472214E+00
         13   -1    0    0    0    0  0.00000000000E+00  0.00000000000E+00  0.14999999963E+04  0.15000000000E+04  0.10566000000E+00 0.  1.
        994   -1    0    0    0    0 -0.00000000000E+00 -0.00000000000E+00  0.11368683772E-12  0.17120000000E+03  0.17120000000E+03 0.  0.
         13    1    1    2    0    0 -0.31171654148E+02  0.29968665311E+02  0.59246477128E+02  0.73348136575E+02  0.10566000000E+00 0.  1.
        994    1    1    2    0    0  0.64636801105E+02 -0.61925634081E+01  0.28900842119E+02  0.18536710219E+03  0.17120000000E+03 0.  0.
        998    1    1    2    0    0 -0.33465146957E+02 -0.23776101903E+02  0.14118526770E+04  0.14124847612E+04  0.10000000000E+02 0.  1.
</event>
<event>
 5    1  0.1087513E-008  0.3834749E+03  0.7957747E-01  0.3436166E+00
         13   -1    0    0    0    0  0.00000000000E+00  0.00000000000E+00  0.14999999963E+04  0.15000000000E+04  0.10566000000E+00 0. -1.
        994   -1    0    0    0    0 -0.00000000000E+00 -0.00000000000E+00  0.11368683772E-12  0.17120000000E+03  0.17120000000E+03 0.  0.
         13    1    1    2    0    0 -0.19066019486E+02 -0.78601070211E+01  0.91718279372E+02  0.94008235365E+02  0.10566000000E+00 0. -1.
        994    1    1    2    0    0  0.63809260231E+01  0.33226565290E+01  0.25602925010E+01  0.17137021725E+03  0.17120000000E+03 0.  0.
        998    1    1    2    0    0  0.12685093463E+02  0.45374504922E+01  0.14057214244E+04  0.14058215474E+04  0.10000000000E+02 0. -1.
</event>
<event>
 5    1  0.1087513E-008  0.3844767E+03  0.7957747E-01  0.3431894E+00
         13   -1    0    0    0    0  0.00000000000E+00  0.00000000000E+00  0.14999999963E+04  0.15000000000E+04  0.10566000000E+00 0.  1.
        994   -1    0    0    0    0 -0.00000000000E+00 -0.00000000000E+00  0.11368683772E-12  0.17120000000E+03  0.17120000000E+03 0.  0.
         13    1    1    2    0    0 -0.73499383980E+01 -0.16986153736E+02  0.84235294430E+02  0.86244692619E+02  0.10566000000E+00 0.  1.
        994    1    1    2    0    0  0.52957492810E+01  0.22220331286E+02  0.36109279879E+01  0.17275493302E+03  0.17120000000E+03 0.  0.
        998    1    1    2    0    0  0.20541891170E+01 -0.52341775499E+01  0.14121537739E+04  0.14122003744E+04  0.10000000000E+02 0.  1.
</event>
<event>
 5    1  0.1087513E-008  0.3695795E+03  0.7957747E-01  0.3497826E+00
         13   -1    0    0    0    0  0.00000000000E+00  0.00000000000E+00  0.14999999963E+04  0.15000000000E+04  0.10566000000E+00 0.  1.
        994   -1    0    0    0    0 -0.00000000000E+00 -0.00000000000E+00  0.11368683772E-12  0.17120000000E+03  0.17120000000E+03 0.  0.
         13    1    1    2    0    0 -0.47055404524E+02  0.16093563194E+02  0.11880258868E+03  0.12879161507E+03  0.10566000000E+00 0.  1.
        994    1    1    2    0    0  0.49991179444E+02 -0.50485505020E+00  0.18193852794E+02  0.17927584662E+03  0.17120000000E+03 0.  0.
        998    1    1    2    0    0 -0.29357749205E+01 -0.15588708144E+02  0.13630035548E+04  0.13631325383E+04  0.10000000000E+02 0.  0.
</event>
<event>
 5    1  0.1087513E-008  0.3860275E+03  0.7957747E-01  0.3425326E+00
         13   -1    0    0    0    0  0.00000000000E+00  0.00000000000E+00  0.14999999963E+04  0.15000000000E+04  0.10566000000E+00 0.  1.
        994   -1    0    0    0    0 -0.00000000000E+00 -0.00000000000E+00  0.11368683772E-12  0.17120000000E+03  0.17120000000E+03 0.  0.
         13    1    1    2    0    0 -0.81336847678E+01  0.11380943260E+02  0.81733563731E+02  0.82922067639E+02  0.10566000000E+00 0.  1.
        994    1    1    2    0    0  0.11454527359E+02 -0.14393373082E+02  0.22307674218E+01  0.17219985978E+03  0.17120000000E+03 0.  0.
        998    1    1    2    0    0 -0.33208425914E+01  0.30124298218E+01  0.14160356651E+04  0.14160780726E+04  0.10000000000E+02 0.  1.
</event>
<event>
 5    1  0.1087513E-008  0.3827857E+03  0.7957747E-01  0.3439118E+00
         13   -1    0    0    0    0  0.00000000000E+00  0.00000000000E+00  0.14999999963E+04  0.15000000000E+04  0.10566000000E+00 0.  1.
        994   -1    0    0    0    0 -0.00000000000E+00 -0.00000000000E+00  0.11368683772E-12  0.17120000000E+03  0.17120000000E+03 0.  0.
         13    1    1    2    0    0 -0.10374970993E+02 -0.11005794389E+02  0.42171333461E+02  0.44801786384E+02  0.10566000000E+00 0.  1.
        994    1    1    2    0    0  0.70255937238E+01 -0.23918942752E+01  0.29159514179E+01  0.17138559711E+03  0.17120000000E+03 0.  0.
        998    1    1    2    0    0  0.33493772690E+01  0.13397688664E+02  0.14549127114E+04  0.14550126165E+04  0.10000000000E+02 0.  1.
</event>
<event>
 5    1  0.1087513E-008  0.3765839E+03  0.7957747E-01  0.3466169E+00
         13   -1    0    0    0    0  0.00000000000E+00  0.00000000000E+00  0.14999999963E+04  0.15000000000E+04  0.10566000000E+00 0.  1.
        994   -1    0    0    0    0 -0.00000000000E+00 -0.00000000000E+00  0.11368683772E-12  0.17120000000E+03  0.17120000000E+03 0.  0.
         13    1    1    2    0    0  0.38154473294E+02  0.60654308837E+02  0.32383726010E+03  0.33167045574E+03  0.10566000000E+00 0.  1.
        994    1    1    2    0    0 -0.62470261185E+02 -0.53732854471E+02  0.29181093138E+02  0.19222572507E+03  0.17120000000E+03 0.  0.
        998    1    1    2    0    0  0.24315787892E+02 -0.69214543664E+01  0.11469816430E+04  0.11473038192E+04  0.10000000000E+02 0.  1.
</event>
<event>
 5    1  0.1087513E-008  0.3757159E+03  0.7957747E-01  0.3470027E+00
         13   -1    0    0    0    0  0.00000000000E+00  0.00000000000E+00  0.14999999963E+04  0.15000000000E+04  0.10566000000E+00 0. -1.
        994   -1    0    0    0    0 -0.00000000000E+00 -0.00000000000E+00  0.11368683772E-12  0.17120000000E+03  0.17120000000E+03 0.  0.
         13    1    1    2    0    0  0.36331739369E+02 -0.31148356003E+02  0.17234811835E+03  0.17886894764E+03  0.10566000000E+00 0. -1.
        994    1    1    2    0    0 -0.24313818965E+02  0.25411696860E+02  0.10517428815E+02  0.17509132600E+03  0.17120000000E+03 0.  0.
        998    1    1    2    0    0 -0.12017920403E+02  0.57366591427E+01  0.13171344491E+04  0.13172397264E+04  0.10000000000E+02 0. -1.
</event>
<event>
 5    1  0.1087513E-008  0.3832979E+03  0.7957747E-01  0.3436923E+00
         13   -1    0    0    0    0  0.00000000000E+00  0.00000000000E+00  0.14999999963E+04  0.15000000000E+04  0.10566000000E+00 0. -1.
        994   -1    0    0    0    0 -0.00000000000E+00 -0.00000000000E+00  0.11368683772E-12  0.17120000000E+03  0.17120000000E+03 0.  0.
         13    1    1    2    0    0 -0.77153315940E+01  0.78047738975E+01  0.23654753127E+02  0.26076797095E+02  0.10566000000E+00 0. -1.
        994    1    1    2    0    0  0.54987232593E+01 -0.15922706213E+01  0.25859289990E+01  0.17131520164E+03  0.17120000000E+03 0.  0.
        998    1    1    2    0    0  0.22166083347E+01 -0.62125032762E+01  0.14737593142E+04  0.14738080013E+04  0.10000000000E+02 0. -1.
</event>
<event>
 5    1  0.1087513E-008  0.3851143E+03  0.7957747E-01  0.3429188E+00
         13   -1    0    0    0    0  0.00000000000E+00  0.00000000000E+00  0.14999999963E+04  0.15000000000E+04  0.10566000000E+00 0. -1.
        994   -1    0    0    0    0 -0.00000000000E+00 -0.00000000000E+00  0.11368683772E-12  0.17120000000E+03  0.17120000000E+03 0.  0.
         13    1    1    2    0    0 -0.74901818447E+01  0.13257442435E+02  0.59937372277E+02  0.61841429184E+02  0.10566000000E+00 0. -1.
        994    1    1    2    0    0  0.22274225371E+02 -0.38797022906E+02  0.81805714272E+01  0.17713755065E+03  0.17120000000E+03 0.  0.
        998    1    1    2    0    0 -0.14784043527E+02  0.25539580471E+02  0.14318820526E+04  0.14322210202E+04  0.10000000000E+02 0. -1.
</event>
<event>
 5    1  0.1087513E-008  0.3811855E+03  0.7957747E-01  0.3446013E+00
         13   -1    0    0    0    0  0.00000000000E+00  0.00000000000E+00  0.14999999963E+04  0.15000000000E+04  0.10566000000E+00 0. -1.
        994   -1    0    0    0    0 -0.00000000000E+00 -0.00000000000E+00  0.11368683772E-12  0.17120000000E+03  0.17120000000E+03 0.  0.
         13    1    1    2    0    0 -0.16576889419E+02  0.30168986183E+02  0.17477339936E+03  0.17813116875E+03  0.10566000000E+00 0. -1.
        994    1    1    2    0    0 -0.50803562259E+01 -0.18487165189E+02  0.47608629235E+01  0.17233598322E+03  0.17120000000E+03 0.  0.
        998    1    1    2    0    0  0.21657245645E+02 -0.11681820994E+02  0.13204657340E+04  0.13207328480E+04  0.10000000000E+02 0. -1.
</event>
<event>
 5    1  0.1087513E-008  0.3852908E+03  0.7957747E-01  0.3428440E+00
         13   -1    0    0    0    0  0.00000000000E+00  0.00000000000E+00  0.14999999963E+04  0.15000000000E+04  0.10566000000E+00 0. -1.
        994   -1    0    0    0    0 -0.00000000000E+00 -0.00000000000E+00  0.11368683772E-12  0.17120000000E+03  0.17120000000E+03 0.  0.
         13    1    1    2    0    0 -0.71257609912E+01 -0.73234571948E+01  0.36768799622E+02  0.38162354286E+02  0.10566000000E+00 0. -1.
        994    1    1    2    0    0 -0.75344526992E+01  0.42367212898E+01  0.17313679944E+01  0.17142682235E+03  0.17120000000E+03 0.  0.
        998    1    1    2    0    0  0.14660213690E+02  0.30867359050E+01  0.14614998287E+04  0.14616108234E+04  0.10000000000E+02 0. -1.
</event>
<event>
 5    1  0.1087513E-008  0.3707382E+03  0.7957747E-01  0.3492505E+00
         13   -1    0    0    0    0  0.00000000000E+00  0.00000000000E+00  0.14999999963E+04  0.15000000000E+04  0.10566000000E+00 0.  1.
        994   -1    0    0    0    0 -0.00000000000E+00 -0.00000000000E+00  0.11368683772E-12  0.17120000000E+03  0.17120000000E+03 0.  0.
         13    1    1    2    0    0  0.18268780100E+03 -0.28749447497E+02  0.70101469784E+03  0.72499860767E+03  0.10566000000E+00 0.  1.
        994    1    1    2    0    0 -0.22389278217E+03 -0.43872679724E+02  0.21759694578E+03  0.35876268026E+03  0.17120000000E+03 0.  0.
        998    1    1    2    0    0  0.41204981176E+02  0.72622127222E+02  0.58138835266E+03  0.58743871207E+03  0.10000000000E+02 0.  1.
</event>
<event>
 5    1  0.1087513E-008  0.3752095E+03  0.7957747E-01  0.3472287E+00
         13   -1    0    0    0    0  0.00000000000E+00  0.00000000000E+00  0.14999999963E+04  0.15000000000E+04  0.10566000000E+00 0.  1.
        994   -1    0    0    0    0 -0.00000000000E+00 -0.00000000000E+00  0.11368683772E-12  0.17120000000E+03  0.17120000000E+03 0.  0.
         13    1    1    2    0    0 -0.12949252050E+02  0.41858681726E+02  0.17075980205E+03  0.17629167174E+03  0.10566000000E+00 0.  1.
        994    1    1    2    0    0  0.96862636678E+01  0.75842359671E+01  0.70854579843E+01  0.17178762486E+03  0.17120000000E+03 0.  0.
        998    1    1    2    0    0  0.32629883825E+01 -0.49442917693E+02  0.13221547362E+04  0.13231207034E+04  0.10000000000E+02 0.  1.
</event>
<event>
 5    1  0.1087513E-008  0.4204585E+03  0.7957747E-01  0.3291934E+00
         13   -1    0    0    0    0  0.00000000000E+00  0.00000000000E+00  0.14999999963E+04  0.15000000000E+04  0.10566000000E+00 0. -1.
        994   -1    0    0    0    0 -0.00000000000E+00 -0.00000000000E+00  0.11368683772E-12  0.17120000000E+03  0.17120000000E+03 0.  0.
         13    1    1    2    0    0  0.13280425182E+02 -0.12317869032E+03  0.16018776027E+03  0.20250799773E+03  0.10566000000E+00 0. -1.
        994    1    1    2    0    0 -0.17160797214E+01  0.11910986437E+03  0.10450370003E+03  0.23328216400E+03  0.17120000000E+03 0.  0.
        998    1    1    2    0    0 -0.11564345461E+02  0.40688259473E+01  0.12353085360E+04  0.12354098383E+04  0.10000000000E+02 0. -1.
</event>
<event>
 5    1  0.1087513E-008  0.3819622E+03  0.7957747E-01  0.3442659E+00
         13   -1    0    0    0    0  0.00000000000E+00  0.00000000000E+00  0.14999999963E+04  0.15000000000E+04  0.10566000000E+00 0.  1.
        994   -1    0    0    0    0 -0.00000000000E+00 -0.00000000000E+00  0.11368683772E-12  0.17120000000E+03  0.17120000000E+03 0.  0.
         13    1    1    2    0    0 -0.28575708950E+02  0.27692032691E+02  0.22908777001E+03  0.23251803661E+03  0.10566000000E+00 0.  1.
        994    1    1    2    0    0  0.19559630900E+02 -0.27319321722E+02  0.69045399683E+01  0.17460251193E+03  0.17120000000E+03 0.  0.
        998    1    1    2    0    0  0.90160780501E+01 -0.37271096939E+00  0.12640076863E+04  0.12640794515E+04  0.10000000000E+02 0.  1.
</event>
<event>
 5    1  0.1087513E-008  0.3754137E+03  0.7957747E-01  0.3471375E+00
         13   -1    0    0    0    0  0.00000000000E+00  0.00000000000E+00  0.14999999963E+04  0.15000000000E+04  0.10566000000E+00 0.  1.
        994   -1    0    0    0    0 -0.00000000000E+00 -0.00000000000E+00  0.11368683772E-12  0.17120000000E+03  0.17120000000E+03 0.  0.
         13    1    1    2    0    0  0.14247339982E+02  0.18748527989E+02  0.14442872812E+02  0.27624296144E+02  0.10566000000E+00 0.  1.
        994    1    1    2    0    0 -0.19901041175E+02  0.56882611852E+01  0.15358608019E+02  0.17312924246E+03  0.17120000000E+03 0.  0.
        998    1    1    2    0    0  0.56537011937E+01 -0.24436789175E+02  0.14701985154E+04  0.14704464614E+04  0.10000000000E+02 0.  1.
</event>
<event>
 5    1  0.1087513E-008  0.3812229E+03  0.7957747E-01  0.3445851E+00
         13   -1    0    0    0    0  0.00000000000E+00  0.00000000000E+00  0.14999999963E+04  0.15000000000E+04  0.10566000000E+00 0.  1.
        994   -1    0    0    0    0 -0.00000000000E+00 -0.00000000000E+00  0.11368683772E-12  0.17120000000E+03  0.17120000000E+03 0.  0.
         13    1    1    2    0    0  0.50401741453E+01 -0.13614792703E+02  0.27665272934E+02  0.31243310105E+02  0.10566000000E+00 0.  1.
        994    1    1    2    0    0 -0.57549820184E+01  0.19711389460E+02  0.49222709210E+01  0.17249732590E+03  0.17120000000E+03 0.  0.
        998    1    1    2    0    0  0.71480787307E+00 -0.60965967571E+01  0.14674124524E+04  0.14674593640E+04  0.10000000000E+02 0.  1.
</event>
<event>
 5    1  0.1087513E-008  0.3759063E+03  0.7957747E-01  0.3469179E+00
         13   -1    0    0    0    0  0.00000000000E+00  0.00000000000E+00  0.14999999963E+04  0.15000000000E+04  0.10566000000E+00 0. -1.
        994   -1    0    0    0    0 -0.00000000000E+00 -0.00000000000E+00  0.11368683772E-12  0.17120000000E+03  0.17120000000E+03 0.  0.
         13    1    1    2    0    0  0.26827717381E+02 -0.38579269736E+02  0.15633896316E+03  0.16324818235E+03  0.10566000000E+00 0. -1.
        994    1    1    2    0    0 -0.30338226103E+02  0.38926456117E+02  0.14513229214E+02  0.17876171506E+03  0.17120000000E+03 0.  0.
        998    1    1    2    0    0  0.35105087225E+01 -0.34718638046E+00  0.13291478039E+04  0.13291901026E+04  0.10000000000E+02 0. -1.
</event>
<event>
 5    1  0.1087513E-008  0.3779536E+03  0.7957747E-01  0.3460117E+00
         13   -1    0    0    0    0  0.00000000000E+00  0.00000000000E+00  0.14999999963E+04  0.15000000000E+04  0.10566000000E+00 0. -1.
        994   -1    0    0    0    0 -0.00000000000E+00 -0.00000000000E+00  0.11368683772E-12  0.17120000000E+03  0.17120000000E+03 0.  0.
         13    1    1    2    0    0  0.42191732388E+02 -0.22838528208E+02  0.18702190443E+03  0.19307756098E+03  0.10566000000E+00 0. -1.
        994    1    1    2    0    0 -0.48752752655E+02  0.23674372835E+02  0.15120267237E+02  0.18020923756E+03  0.17120000000E+03 0.  0.
        998    1    1    2    0    0  0.65610202675E+01 -0.83584462719E+00  0.12978578246E+04  0.12979132015E+04  0.10000000000E+02 0. -1.
</event>
<event>
 5    1  0.1087513E-008  0.3848527E+03  0.7957747E-01  0.3430297E+00
         13   -1    0    0    0    0  0.00000000000E+00  0.00000000000E+00  0.14999999963E+04  0.15000000000E+04  0.10566000000E+00 0.  1.
        994   -1    0    0    0    0 -0.00000000000E+00 -0.00000000000E+00  0.11368683772E-12  0.17120000000E+03  0.17120000000E+03 0.  0.
         13    1    1    2    0    0  0.10842294222E+02 -0.13027218166E+02  0.82098568240E+02  0.83829886247E+02  0.10566000000E+00 0.  1.
        994    1    1    2    0    0 -0.72438372424E+01  0.13194803250E+02  0.24491271822E+01  0.17187790502E+03  0.17120000000E+03 0.  0.
        998    1    1    2    0    0 -0.35984569794E+01 -0.16758508328E+00  0.14154523009E+04  0.14154922087E+04  0.10000000000E+02 0.  1.
</event>
<event>
 5    1  0.1087513E-008  0.3851721E+03  0.7957747E-01  0.3428943E+00
         13   -1    0    0    0    0  0.00000000000E+00  0.00000000000E+00  0.14999999963E+04  0.15000000000E+04  0.10566000000E+00 0. -1.
        994   -1    0    0    0    0 -0.00000000000E+00 -0.00000000000E+00  0.11368683772E-12  0.17120000000E+03  0.17120000000E+03 0.  0.
         13    1    1    2    0    0 -0.11910591674E+02  0.95427222699E+01  0.88714799066E+02  0.90018067518E+02  0.10566000000E+00 0. -1.
        994    1    1    2    0    0 -0.34789600418E+01  0.12402357558E+02  0.20902463999E+01  0.17169662421E+03  0.17120000000E+03 0.  0.
        998    1    1    2    0    0  0.15389551716E+02 -0.21945079828E+02  0.14091949508E+04  0.14094853083E+04  0.10000000000E+02 0. -1.
</event>
<event>
 5    1  0.1087513E-008  0.3746624E+03  0.7957747E-01  0.3474734E+00
         13   -1    0    0    0    0  0.00000000000E+00  0.00000000000E+00  0.14999999963E+04  0.15000000000E+04  0.10566000000E+00 0. -1.
        994   -1    0    0    0    0 -0.00000000000E+00 -0.00000000000E+00  0.11368683772E-12  0.17120000000E+03  0.17120000000E+03 0.  0.
         13    1    1    2    0    0 -0.76365914347E+02 -0.53010973094E+02  0.40129361120E+03  0.41192048953E+03  0.10566000000E+00 0. -1.
        994    1    1    2    0    0  0.49047656989E+02 -0.27988133679E+02  0.24847844804E+02  0.18197764608E+03  0.17120000000E+03 0.  0.
        998    1    1    2    0    0  0.27318257358E+02  0.80999106774E+02  0.10738585403E+04  0.10773018644E+04  0.10000000000E+02 0. -1.
</event>
<event>
 5    1  0.1087513E-008  0.3697942E+03  0.7957747E-01  0.3496837E+00
         13   -1    0    0    0    0  0.00000000000E+00  0.00000000000E+00  0.14999999963E+04  0.15000000000E+04  0.10566000000E+00 0.  1.
        994   -1    0    0    0    0 -0.00000000000E+00 -0.00000000000E+00  0.11368683772E-12  0.17120000000E+03  0.17120000000E+03 0.  0.
         13    1    1    2    0    0  0.64609901073E+01 -0.17973851672E+02  0.11994614299E+02  0.22554061127E+02  0.10566000000E+00 0.  1.
        994    1    1    2    0    0 -0.85506326537E+01  0.15249984322E+02  0.11898588193E+02  0.17250128041E+03  0.17120000000E+03 0.  0.
        998    1    1    2    0    0  0.20896425464E+01  0.27238673502E+01  0.14761067938E+04  0.14761446585E+04  0.10000000000E+02 0.  1.
</event>
<event>
 5    1  0.1087513E-008  0.3845724E+03  0.7957747E-01  0.3431488E+00
         13   -1    0    0    0    0  0.00000000000E+00  0.00000000000E+00  0.14999999963E+04  0.15000000000E+04  0.10566000000E+00 0. -1.
        994   -1    0    0    0    0 -0.00000000000E+00 -0.00000000000E+00  0.11368683772E-12  0.17120000000E+03  0.17120000000E+03 0.  0.
         13    1    1    2    0    0  0.55147734841E+01 -0.15031454270E+02  0.75200325582E+02  0.76886003120E+02  0.10566000000E+00 0. -1.
        994    1    1    2    0    0  0.10015505138E+02  0.17542728222E+01  0.21831148053E+01  0.17151557890E+03  0.17120000000E+03 0.  0.
        998    1    1    2    0    0 -0.15530278622E+02  0.13277181448E+02  0.14226165559E+04  0.14227984180E+04  0.10000000000E+02 0. -1.
</event>
<event>
 5    1  0.1087513E-008  0.3760064E+03  0.7957747E-01  0.3468734E+00
         13   -1    0    0    0    0  0.00000000000E+00  0.00000000000E+00  0.14999999963E+04  0.15000000000E+04  0.10566000000E+00 0. -1.
        994   -1    0    0    0    0 -0.00000000000E+00 -0.00000000000E+00  0.11368683772E-12  0.17120000000E+03  0.17120000000E+03 0.  0.
         13    1    1    2    0    0  0.95893443426E+01  0.35562375236E+02  0.48866855195E+02  0.61193290139E+02  0.10566000000E+00 0. -1.
        994    1    1    2    0    0  0.22759231380E+02  0.24204892256E+02  0.18103010835E+02  0.17533116786E+03  0.17120000000E+03 0.  0.
        998    1    1    2    0    0 -0.32348575723E+02 -0.59767267491E+02  0.14330301302E+04  0.14346755420E+04  0.10000000000E+02 0. -1.
</event>
<event>
 5    1  0.1087513E-008  0.3828589E+03  0.7957747E-01  0.3438804E+00
         13   -1    0    0    0    0  0.00000000000E+00  0.00000000000E+00  0.14999999963E+04  0.15000000000E+04  0.10566000000E+00 0.  1.
        994   -1    0    0    0    0 -0.00000000000E+00 -0.00000000000E+00  0.11368683772E-12  0.17120000000E+03  0.17120000000E+03 0.  0.
         13    1    1    2    0    0  0.82098150251E+01 -0.17824980291E+02  0.77961001744E+02  0.80393158553E+02  0.10566000000E+00 0.  1.
        994    1    1    2    0    0  0.73542632319E+01 -0.23313318568E+01  0.28940286729E+01  0.17139817881E+03  0.17120000000E+03 0.  0.
        998    1    1    2    0    0 -0.15564078257E+02  0.20156312148E+02  0.14191449659E+04  0.14194086626E+04  0.10000000000E+02 0.  1.
</event>
<event>
 5    1  0.1087513E-008  0.3844748E+03  0.7957747E-01  0.3431903E+00
         13   -1    0    0    0    0  0.00000000000E+00  0.00000000000E+00  0.14999999963E+04  0.15000000000E+04  0.10566000000E+00 0.  1.
        994   -1    0    0    0    0 -0.00000000000E+00 -0.00000000000E+00  0.11368683772E-12  0.17120000000E+03  0.17120000000E+03 0.  0.
         13    1    1    2    0    0  0.13544811294E+02 -0.29638756962E+00  0.44239151142E+02  0.46267303967E+02  0.10566000000E+00 0.  1.
        994    1    1    2    0    0 -0.26872376911E+02 -0.40999826991E+01  0.43291618899E+01  0.17339872013E+03  0.17120000000E+03 0.  0.
        998    1    1    2    0    0  0.13327565617E+02  0.43963702687E+01  0.14514316832E+04  0.14515339759E+04  0.10000000000E+02 0.  1.
</event>
<event>
 5    1  0.1087513E-008  0.3008161E+03  0.7957747E-01  0.3890210E+00
         13   -1    0    0    0    0  0.00000000000E+00  0.00000000000E+00  0.14999999963E+04  0.15000000000E+04  0.10566000000E+00 0. -1.
        994   -1    0    0    0    0 -0.00000000000E+00 -0.00000000000E+00  0.11368683772E-12  0.17120000000E+03  0.17120000000E+03 0.  0.
         13    1    1    2    0    0 -0.22037913990E+03 -0.13879221770E+03  0.51165695415E+03  0.57412811714E+03  0.10566000000E+00 0. -1.
        994    1    1    2    0    0  0.21020321904E+03  0.66279921479E+02  0.31978303260E+03  0.42443968856E+03  0.17120000000E+03 0.  0.
        998    1    1    2    0    0  0.10175920866E+02  0.72512296221E+02  0.66856000953E+03  0.67263219430E+03  0.10000000000E+02 0.  1.
</event>
<event>
 5    1  0.1087513E-008  0.3781444E+03  0.7957747E-01  0.3459278E+00
         13   -1    0    0    0    0  0.00000000000E+00  0.00000000000E+00  0.14999999963E+04  0.15000000000E+04  0.10566000000E+00 0.  1.
        994   -1    0    0    0    0 -0.00000000000E+00 -0.00000000000E+00  0.11368683772E-12  0.17120000000E+03  0.17120000000E+03 0.  0.
         13    1    1    2    0    0 -0.95617280675E+01 -0.92781932566E+01  0.15544876757E+02  0.20473540758E+02  0.10566000000E+00 0.  1.
        994    1    1    2    0    0 -0.55321282533E+01  0.95334545725E+01  0.54815123989E+01  0.17164200586E+03  0.17120000000E+03 0.  0.
        998    1    1    2    0    0  0.15093856321E+02 -0.25526131588E+00  0.14789736071E+04  0.14790844534E+04  0.10000000000E+02 0.  1.
</event>
<event>
 5    1  0.1087513E-008  0.3760616E+03  0.7957747E-01  0.3468488E+00
         13   -1    0    0    0    0  0.00000000000E+00  0.00000000000E+00  0.14999999963E+04  0.15000000000E+04  0.10566000000E+00 0. -1.
        994   -1    0    0    0    0 -0.00000000000E+00 -0.00000000000E+00  0.11368683772E-12  0.17120000000E+03  0.17120000000E+03 0.  0.
         13    1    1    2    0    0  0.12120597029E+02  0.35841056636E+02  0.12170632151E+03  0.12745167740E+03  0.10566000000E+00 0. -1.
        994    1    1    2    0    0  0.87632643514E+01 -0.13817577263E+02  0.70418742044E+01  0.17212422327E+03  0.17120000000E+03 0.  0.
        998    1    1    2    0    0 -0.20883861380E+02 -0.22023479373E+02  0.13712518006E+04  0.13716240993E+04  0.10000000000E+02 0. -1.
</event>
<event>
 5    1  0.1087513E-008  0.3820235E+03  0.7957747E-01  0.3442395E+00
         13   -1    0    0    0    0  0.00000000000E+00  0.00000000000E+00  0.14999999963E+04  0.15000000000E+04  0.10566000000E+00 0. -1.
        994   -1    0    0    0    0 -0.00000000000E+00 -0.00000000000E+00  0.11368683772E-12  0.17120000000E+03  0.17120000000E+03 0.  0.
         13    1    1    2    0    0 -0.26288803926E+02 -0.32564732624E+02  0.23658180983E+03  0.24025512883E+03  0.10566000000E+00 0. -1.
        994    1    1    2    0    0  0.22204183627E+02  0.37223105475E+02  0.93786654894E+01  0.17685017591E+03  0.17120000000E+03 0.  0.
        998    1    1    2    0    0  0.40846202996E+01 -0.46583728503E+01  0.12540395210E+04  0.12540946953E+04  0.10000000000E+02 0. -1.
</event>
<event>
 5    1  0.1087513E-008  0.3832238E+03  0.7957747E-01  0.3437240E+00
         13   -1    0    0    0    0  0.00000000000E+00  0.00000000000E+00  0.14999999963E+04  0.15000000000E+04  0.10566000000E+00 0. -1.
        994   -1    0    0    0    0 -0.00000000000E+00 -0.00000000000E+00  0.11368683772E-12  0.17120000000E+03  0.17120000000E+03 0.  0.
         13    1    1    2    0    0 -0.73054536496E+01  0.27982616511E+02  0.15911716575E+03  0.16172408627E+03  0.10566000000E+00 0. -1.
        994    1    1    2    0    0  0.90013618300E+01 -0.20510333794E+02  0.41757940150E+01  0.17270951208E+03  0.17120000000E+03 0.  0.
        998    1    1    2    0    0 -0.16959081804E+01 -0.74722827166E+01  0.13367070365E+04  0.13367664016E+04  0.10000000000E+02 0. -1.
</event>
<event>
 5    1  0.1087513E-008  0.3764384E+03  0.7957747E-01  0.3466814E+00
         13   -1    0    0    0    0  0.00000000000E+00  0.00000000000E+00  0.14999999963E+04  0.15000000000E+04  0.10566000000E+00 0.  1.
        994   -1    0    0    0    0 -0.00000000000E+00 -0.00000000000E+00  0.11368683772E-12  0.17120000000E+03  0.17120000000E+03 0.  0.
         13    1    1    2    0    0 -0.40993860077E+02 -0.13023202074E+02  0.70304567644E+02  0.82418709963E+02  0.10566000000E+00 0.  1.
        994    1    1    2    0    0 -0.35454711704E+02  0.38888529969E+01  0.18948442534E+02  0.17589952596E+03  0.17120000000E+03 0.  0.
        998    1    1    2    0    0  0.76448571781E+02  0.91343490766E+01  0.14107469861E+04  0.14128817641E+04  0.10000000000E+02 0.  1.
</event>
<event>
 5    1  0.1087513E-008  0.3785022E+03  0.7957747E-01  0.3457706E+00
         13   -1    0    0    0    0  0.00000000000E+00  0.00000000000E+00  0.14999999963E+04  0.15000000000E+04  0.10566000000E+00 0.  1.
        994   -1    0    0    0    0 -0.00000000000E+00 -0.00000000000E+00  0.11368683772E-12  0.17120000000E+03  0.17120000000E+03 0.  0.
         13    1    1    2    0    0 -0.27543557904E+02 -0.10994744230E+02  0.92872218509E+02  0.97492523393E+02  0.10566000000E+00 0.  1.
        994    1    1    2    0    0  0.86898023908E+01 -0.27206665410E+01  0.51697236610E+01  0.17151991352E+03  0.17120000000E+03 0.  0.
        998    1    1    2    0    0  0.18853755513E+02  0.13715410771E+02  0.14019580541E+04  0.14021875631E+04  0.10000000000E+02 0.  1.
</event>
<event>
 5    1  0.1087513E-008  0.3798644E+03  0.7957747E-01  0.3451749E+00
         13   -1    0    0    0    0  0.00000000000E+00  0.00000000000E+00  0.14999999963E+04  0.15000000000E+04  0.10566000000E+00 0.  1.
        994   -1    0    0    0    0 -0.00000000000E+00 -0.00000000000E+00  0.11368683772E-12  0.17120000000E+03  0.17120000000E+03 0.  0.
         13    1    1    2    0    0 -0.62931902378E+01 -0.11203693437E+02  0.18698635548E+02  0.22688700390E+02  0.10566000000E+00 0.  1.
        994    1    1    2    0    0 -0.64067833552E+01 -0.57042410349E+01  0.44477669564E+01  0.17147246971E+03  0.17120000000E+03 0.  0.
        998    1    1    2    0    0  0.12699973593E+02  0.16907934472E+02  0.14768535938E+04  0.14770388299E+04  0.10000000000E+02 0.  1.
</event>
<event>
 5    1  0.1087513E-008  0.3820917E+03  0.7957747E-01  0.3442101E+00
         13   -1    0    0    0    0  0.00000000000E+00  0.00000000000E+00  0.14999999963E+04  0.15000000000E+04  0.10566000000E+00 0.  1.
        994   -1    0    0    0    0 -0.00000000000E+00 -0.00000000000E+00  0.11368683772E-12  0.17120000000E+03  0.17120000000E+03 0.  0.
         13    1    1    2    0    0  0.20426708625E+02  0.14041392175E+02  0.10582078472E+03  0.10868514508E+03  0.10566000000E+00 0.  1.
        994    1    1    2    0    0 -0.96741255167E+01  0.70709355729E+01  0.35578418279E+01  0.17165571669E+03  0.17120000000E+03 0.  0.
        998    1    1    2    0    0 -0.10752583108E+02 -0.21112327748E+02  0.13906213697E+04  0.13908591382E+04  0.10000000000E+02 0.  1.
</event>
<event>
 5    1  0.1087513E-008  0.3773504E+03  0.7957747E-01  0.3462777E+00
         13   -1    0    0    0    0  0.00000000000E+00  0.00000000000E+00  0.14999999963E+04  0.15000000000E+04  0.10566000000E+00 0.  1.
        994   -1    0    0    0    0 -0.00000000000E+00 -0.00000000000E+00  0.11368683772E-12  0.17120000000E+03  0.17120000000E+03 0.  0.
         13    1    1    2    0    0  0.34411933760E+02  0.19951580380E+02  0.13654485461E+03  0.14222079745E+03  0.10566000000E+00 0.  1.
        994    1    1    2    0    0 -0.20591155415E+02 -0.27984569071E+02  0.95584759226E+01  0.17495123963E+03  0.17120000000E+03 0.  0.
        998    1    1    2    0    0 -0.13820778345E+02  0.80329886915E+01  0.13538966658E+04  0.13540279629E+04  0.10000000000E+02 0.  1.
</event>
<event>
 5    1  0.1087513E-008  0.3829405E+03  0.7957747E-01  0.3438454E+00
         13   -1    0    0    0    0  0.00000000000E+00  0.00000000000E+00  0.14999999963E+04  0.15000000000E+04  0.10566000000E+00 0. -1.
        994   -1    0    0    0    0 -0.00000000000E+00 -0.00000000000E+00  0.11368683772E-12  0.17120000000E+03  0.17120000000E+03 0.  0.
         13    1    1    2    0    0  0.10956955307E+02  0.14866185329E+02  0.60460725165E+02  0.63218421266E+02  0.10566000000E+00 0. -1.
        994    1    1    2    0    0 -0.82625877448E+01 -0.20977412411E+02  0.43408260357E+01  0.17273275589E+03  0.17120000000E+03 0.  0.
        998    1    1    2    0    0 -0.26943675619E+01  0.61112270818E+01  0.14351984451E+04  0.14352488228E+04  0.10000000000E+02 0. -1.
</event>
<event>
 5    1  0.1087513E-008  0.3817386E+03  0.7957747E-01  0.3443623E+00
         13   -1    0    0    0    0  0.00000000000E+00  0.00000000000E+00  0.14999999963E+04  0.15000000000E+04  0.10566000000E+00 0. -1.
        994   -1    0    0    0    0 -0.00000000000E+00 -0.00000000000E+00  0.11368683772E-12  0.17120000000E+03  0.17120000000E+03 0.  0.
         13    1    1    2    0    0 -0.49593845170E+01  0.12153490880E+02  0.25056135836E+02  0.28286462176E+02  0.10566000000E+00 0. -1.
        994    1    1    2    0    0  0.92508785059E+00 -0.11204633137E+02  0.36783301260E+01  0.17160818659E+03  0.17120000000E+03 0.  0.
        998    1    1    2    0    0  0.40342966665E+01 -0.94885774229E+00  0.14712655303E+04  0.14713053512E+04  0.10000000000E+02 0. -1.
</event>
<event>
 5    1  0.1087513E-008  0.3732070E+03  0.7957747E-01  0.3481281E+00
         13   -1    0    0    0    0  0.00000000000E+00  0.00000000000E+00  0.14999999963E+04  0.15000000000E+04  0.10566000000E+00 0.  1.
        994   -1    0    0    0    0 -0.00000000000E+00 -0.00000000000E+00  0.11368683772E-12  0.17120000000E+03  0.17120000000E+03 0.  0.
         13    1    1    2    0    0  0.37193811295E+02 -0.29840519630E+01  0.80066392026E+02  0.88334152290E+02  0.10566000000E+00 0.  1.
        994    1    1    2    0    0 -0.50694676110E+02  0.15366149155E+02  0.17260312918E+02  0.18003729371E+03  0.17120000000E+03 0.  0.
        998    1    1    2    0    0  0.13500864815E+02 -0.12382097192E+02  0.14026732913E+04  0.14028285540E+04  0.10000000000E+02 0.  1.
</event>
<event>
 5    1  0.1087513E-008  0.3799641E+03  0.7957747E-01  0.3451315E+00
         13   -1    0    0    0    0  0.00000000000E+00  0.00000000000E+00  0.14999999963E+04  0.15000000000E+04  0.10566000000E+00 0.  1.
        994   -1    0    0    0    0 -0.00000000000E+00 -0.00000000000E+00  0.11368683772E-12  0.17120000000E+03  0.17120000000E+03 0.  0.
         13    1    1    2    0    0 -0.62092057956E+02  0.11231985371E+02  0.32734804477E+03  0.33337416627E+03  0.10566000000E+00 0.  1.
        994    1    1    2    0    0  0.82093450821E+02  0.13234440204E+02  0.27626153729E+02  0.19232038229E+03  0.17120000000E+03 0.  0.
        998    1    1    2    0    0 -0.20001392865E+02 -0.24466425574E+02  0.11450257978E+04  0.11455054514E+04  0.10000000000E+02 0.  1.
</event>
<event>
 5    1  0.1087513E-008  0.3822492E+03  0.7957747E-01  0.3441423E+00
         13   -1    0    0    0    0  0.00000000000E+00  0.00000000000E+00  0.14999999963E+04  0.15000000000E+04  0.10566000000E+00 0. -1.
        994   -1    0    0    0    0 -0.00000000000E+00 -0.00000000000E+00  0.11368683772E-12  0.17120000000E+03  0.17120000000E+03 0.  0.
         13    1    1    2    0    0 -0.12238443482E+02  0.30752127307E+01  0.26117863012E+02  0.29006729642E+02  0.10566000000E+00 0. -1.
        994    1    1    2    0    0 -0.16752247363E+01 -0.72710199290E+01  0.31868099765E+01  0.17139215229E+03  0.17120000000E+03 0.  0.
        998    1    1    2    0    0  0.13913668218E+02  0.41958071983E+01  0.14706953233E+04  0.14708011181E+04  0.10000000000E+02 0. -1.
</event>
<event>
 5    1  0.1087513E-008  0.3759655E+03  0.7957747E-01  0.3468916E+00
         13   -1    0    0    0    0  0.00000000000E+00  0.00000000000E+00  0.14999999963E+04  0.15000000000E+04  0.10566000000E+00 0.  1.
        994   -1    0    0    0    0 -0.00000000000E+00 -0.00000000000E+00  0.11368683772E-12  0.17120000000E+03  0.17120000000E+03 0.  0.
         13    1    1    2    0    0 -0.21990906363E+02 -0.35981186642E+02  0.12892387932E+03  0.13564521214E+03  0.10566000000E+00 0.  1.
        994    1    1    2    0    0  0.16599536895E+02  0.41957608733E+02  0.13113367290E+02  0.17753136612E+03  0.17120000000E+03 0.  0.
        998    1    1    2    0    0  0.53913694677E+01 -0.59764220909E+01  0.13579627497E+04  0.13580234217E+04  0.10000000000E+02 0.  1.
</event>
<event>
 5    1  0.1087513E-008  0.3845356E+03  0.7957747E-01  0.3431644E+00
         13   -1    0    0    0    0  0.00000000000E+00  0.00000000000E+00  0.14999999963E+04  0.15000000000E+04  0.10566000000E+00 0. -1.
        994   -1    0    0    0    0 -0.00000000000E+00 -0.00000000000E+00  0.11368683772E-12  0.17120000000E+03  0.17120000000E+03 0.  0.
         13    1    1    2    0    0 -0.74501458101E+01 -0.87937107245E+01  0.35073053977E+02  0.36918346390E+02  0.10566000000E+00 0. -1.
        994    1    1    2    0    0  0.75690907877E+01  0.59778501383E+01  0.21673545357E+01  0.17148516919E+03  0.17120000000E+03 0.  0.
        998    1    1    2    0    0 -0.11894497754E+00  0.28158605862E+01  0.14627595878E+04  0.14627964844E+04  0.10000000000E+02 0. -1.
</event>
<event>
 5    1  0.1087513E-008  0.3852994E+03  0.7957747E-01  0.3428403E+00
         13   -1    0    0    0    0  0.00000000000E+00  0.00000000000E+00  0.14999999963E+04  0.15000000000E+04  0.10566000000E+00 0.  1.
        994   -1    0    0    0    0 -0.00000000000E+00 -0.00000000000E+00  0.11368683772E-12  0.17120000000E+03  0.17120000000E+03 0.  0.
         13    1    1    2    0    0  0.99014710638E+01 -0.91056243075E+01  0.61250025159E+02  0.62709873778E+02  0.10566000000E+00 0.  1.
        994    1    1    2    0    0  0.11711236689E-02  0.13333252120E+02  0.20658389897E+01  0.17173084552E+03  0.17120000000E+03 0.  0.
        998    1    1    2    0    0 -0.99026421875E+01 -0.42276278120E+01  0.14366841321E+04  0.14367592807E+04  0.10000000000E+02 0.  1.
</event>
<event>
 5    1  0.1087513E-008  0.3751461E+03  0.7957747E-01  0.3472570E+00
         13   -1    0    0    0    0  0.00000000000E+00  0.00000000000E+00  0.14999999963E+04  0.15000000000E+04  0.10566000000E+00 0. -1.
        994   -1    0    0    0    0 -0.00000000000E+00 -0.00000000000E+00  0.11368683772E-12  0.17120000000E+03  0.17120000000E+03 0.  0.
         13    1    1    2    0    0  0.31091091979E+02  0.53096664469E+02  0.26572465938E+03  0.27275541708E+03  0.10566000000E+00 0. -1.
        994    1    1    2    0    0 -0.74564087786E-01 -0.53169937220E+02  0.16269980565E+02  0.18000333345E+03  0.17120000000E+03 0.  0.
        998    1    1    2    0    0 -0.31016527891E+02  0.73272750672E-01  0.12180053563E+04  0.12184412495E+04  0.10000000000E+02 0. -1.
</event>
<event>
 5    1  0.1087513E-008  0.3843189E+03  0.7957747E-01  0.3432566E+00
         13   -1    0    0    0    0  0.00000000000E+00  0.00000000000E+00  0.14999999963E+04  0.15000000000E+04  0.10566000000E+00 0.  1.
        994   -1    0    0    0    0 -0.00000000000E+00 -0.00000000000E+00  0.11368683772E-12  0.17120000000E+03  0.17120000000E+03 0.  0.
         13    1    1    2    0    0 -0.14763878311E+00  0.10588237976E+02  0.27256770968E+02  0.29241670750E+02  0.10566000000E+00 0.  1.
        994    1    1    2    0    0 -0.33665374946E+01 -0.13957581676E+02  0.26483919205E+01  0.17182142370E+03  0.17120000000E+03 0.  0.
        998    1    1    2    0    0  0.35141762777E+01  0.33693437006E+01  0.14700948334E+04  0.14701369056E+04  0.10000000000E+02 0.  1.
</event>
<event>
 5    1  0.1087513E-008  0.3827272E+03  0.7957747E-01  0.3439369E+00
         13   -1    0    0    0    0  0.00000000000E+00  0.00000000000E+00  0.14999999963E+04  0.15000000000E+04  0.10566000000E+00 0. -1.
        994   -1    0    0    0    0 -0.00000000000E+00 -0.00000000000E+00  0.11368683772E-12  0.17120000000E+03  0.17120000000E+03 0.  0.
         13    1    1    2    0    0 -0.82329650841E+01  0.17507568615E+02  0.68611802988E+02  0.71287357548E+02  0.10566000000E+00 0. -1.
        994    1    1    2    0    0 -0.53936895195E+01 -0.10913567358E+02  0.32539067826E+01  0.17166311703E+03  0.17120000000E+03 0.  0.
        998    1    1    2    0    0  0.13626654604E+02 -0.65940012569E+01  0.14281342865E+04  0.14282495254E+04  0.10000000000E+02 0. -1.
</event>
<event>
 5    1  0.1087513E-008  0.3959630E+03  0.7957747E-01  0.3384467E+00
         13   -1    0    0    0    0  0.00000000000E+00  0.00000000000E+00  0.14999999963E+04  0.15000000000E+04  0.10566000000E+00 0. -1.
        994   -1    0    0    0    0 -0.00000000000E+00 -0.00000000000E+00  0.11368683772E-12  0.17120000000E+03  0.17120000000E+03 0.  0.
         13    1    1    2    0    0 -0.50722154442E+02 -0.20088003637E+02  0.46923408008E+02  0.71958892602E+02  0.10566000000E+00 0. -1.
        994    1    1    2    0    0  0.56990923861E+02  0.26928124042E+02  0.40854992851E+02  0.18695362983E+03  0.17120000000E+03 0.  0.
        998    1    1    2    0    0 -0.62687694186E+01 -0.68401204050E+01  0.14122215954E+04  0.14122874776E+04  0.10000000000E+02 0. -1.
</event>
<event>
 5    1  0.1087513E-008  0.3846009E+03  0.7957747E-01  0.3431367E+00
         13   -1    0    0    0    0  0.00000000000E+00  0.00000000000E+00  0.14999999963E+04  0.15000000000E+04  0.10566000000E+00 0. -1.
        994   -1    0    0    0    0 -0.00000000000E+00 -0.00000000000E+00  0.11368683772E-12  0.17120000000E+03  0.17120000000E+03 0.  0.
         13    1    1    2    0    0  0.24357923924E+01 -0.17629973571E+02  0.91662872764E+02  0.93374742088E+02  0.10566000000E+00 0. -1.
        994    1    1    2    0    0 -0.19872220398E+02  0.11363434944E+01  0.31341293700E+01  0.17238172521E+03  0.17120000000E+03 0.  0.
        998    1    1    2    0    0  0.17436428005E+02  0.16493630077E+02  0.14052029941E+04  0.14054435327E+04  0.10000000000E+02 0. -1.
</event>
<event>
 5    1  0.1087513E-008  0.3761580E+03  0.7957747E-01  0.3468060E+00
         13   -1    0    0    0    0  0.00000000000E+00  0.00000000000E+00  0.14999999963E+04  0.15000000000E+04  0.10566000000E+00 0.  1.
        994   -1    0    0    0    0 -0.00000000000E+00 -0.00000000000E+00  0.11368683772E-12  0.17120000000E+03  0.17120000000E+03 0.  0.
         13    1    1    2    0    0  0.45775777669E+02  0.32696067054E+02  0.32883721668E+03  0.33361411969E+03  0.10566000000E+00 0.  1.
        994    1    1    2    0    0 -0.62889919963E+01  0.15470507194E+01  0.62272940478E+01  0.17143559717E+03  0.17120000000E+03 0.  0.
        998    1    1    2    0    0 -0.39486785672E+02 -0.34243117774E+02  0.11649354856E+04  0.11661502831E+04  0.10000000000E+02 0.  1.
</event>
<event>
 5    1  0.1087513E-008  0.3820814E+03  0.7957747E-01  0.3442145E+00
         13   -1    0    0    0    0  0.00000000000E+00  0.00000000000E+00  0.14999999963E+04  0.15000000000E+04  0.10566000000E+00 0. -1.
        994   -1    0    0    0    0 -0.00000000000E+00 -0.00000000000E+00  0.11368683772E-12  0.17120000000E+03  0.17120000000E+03 0.  0.
         13    1    1    2    0    0  0.35526798013E+02 -0.35535632374E+01  0.18870853336E+03  0.19205650969E+03  0.10566000000E+00 0. -1.
        994    1    1    2    0    0 -0.29847994418E+02  0.24387173642E+02  0.80342968976E+01  0.17566908361E+03  0.17120000000E+03 0.  0.
        998    1    1    2    0    0 -0.56788035954E+01 -0.20833610405E+02  0.13032571660E+04  0.13034744067E+04  0.10000000000E+02 0. -1.
</event>
<event>
 5    1  0.1087513E-008  0.3836888E+03  0.7957747E-01  0.3435252E+00
         13   -1    0    0    0    0  0.00000000000E+00  0.00000000000E+00  0.14999999963E+04  0.15000000000E+04  0.10566000000E+00 0.  1.
        994   -1    0    0    0    0 -0.00000000000E+00 -0.00000000000E+00  0.11368683772E-12  0.17120000000E+03  0.17120000000E+03 0.  0.
         13    1    1    2    0    0  0.95561824339E+01  0.10346410935E+02  0.45759973699E+02  0.47878546333E+02  0.10566000000E+00 0.  1.
        994    1    1    2    0    0  0.70805837158E+00  0.57711065121E+01  0.23941829845E+01  0.17131543751E+03  0.17120000000E+03 0.  0.
        998    1    1    2    0    0 -0.10264240805E+02 -0.16117517447E+02  0.14518458396E+04  0.14520060162E+04  0.10000000000E+02 0.  1.
</event>
<event>
 5    1  0.1087513E-008  0.3229856E+03  0.7957747E-01  0.3744462E+00
         13   -1    0    0    0    0  0.00000000000E+00  0.00000000000E+00  0.14999999963E+04  0.15000000000E+04  0.10566000000E+00 0. -1.
        994   -1    0    0    0    0 -0.00000000000E+00 -0.00000000000E+00  0.11368683772E-12  0.17120000000E+03  0.17120000000E+03 0.  0.
         13    1    1    2    0    0 -0.17638767726E+02  0.21304288035E+03  0.78916054201E+03  0.81760183906E+03  0.10566000000E+00 0. -1.
        994    1    1    2    0    0  0.28958895275E+02 -0.19616230326E+03  0.17002133764E+03  0.31230587905E+03  0.17120000000E+03 0.  0.
        998    1    1    2    0    0 -0.11320127548E+02 -0.16880577097E+02  0.54081811662E+03  0.54129228190E+03  0.10000000000E+02 0. -1.
</event>
<event>
 5    1  0.1087513E-008  0.3861279E+03  0.7957747E-01  0.3424902E+00
         13   -1    0    0    0    0  0.00000000000E+00  0.00000000000E+00  0.14999999963E+04  0.15000000000E+04  0.10566000000E+00 0. -1.
        994   -1    0    0    0    0 -0.00000000000E+00 -0.00000000000E+00  0.11368683772E-12  0.17120000000E+03  0.17120000000E+03 0.  0.
         13    1    1    2    0    0  0.86151103320E+01 -0.99308220256E+01  0.73444409215E+02  0.74611887532E+02  0.10566000000E+00 0. -1.
        994    1    1    2    0    0 -0.11742144475E+01  0.28802329649E+02  0.37986606581E+01  0.17365144052E+03  0.17120000000E+03 0.  0.
        998    1    1    2    0    0 -0.74408958845E+01 -0.18871507624E+02  0.14227569264E+04  0.14229366719E+04  0.10000000000E+02 0. -1.
</event>
<event>
 5    1  0.1087513E-008  0.3792178E+03  0.7957747E-01  0.3454571E+00
         13   -1    0    0    0    0  0.00000000000E+00  0.00000000000E+00  0.14999999963E+04  0.15000000000E+04  0.10566000000E+00 0.  1.
        994   -1    0    0    0    0 -0.00000000000E+00 -0.00000000000E+00  0.11368683772E-12  0.17120000000E+03  0.17120000000E+03 0.  0.
         13    1    1    2    0    0  0.60672874849E+02 -0.18869455910E+02  0.38293287246E+03  0.38816858462E+03  0.10566000000E+00 0.  1.
        994    1    1    2    0    0 -0.53450060021E+02  0.61024253506E+00  0.14165165684E+02  0.17990934726E+03  0.17120000000E+03 0.  0.
        998    1    1    2    0    0 -0.72228148286E+01  0.18259213375E+02  0.11029019581E+04  0.11031220681E+04  0.10000000000E+02 0.  1.
</event>
<event>
 5    1  0.1087513E-008  0.3816967E+03  0.7957747E-01  0.3443804E+00
         13   -1    0    0    0    0  0.00000000000E+00  0.00000000000E+00  0.14999999963E+04  0.15000000000E+04  0.10566000000E+00 0.  1.
        994   -1    0    0    0    0 -0.00000000000E+00 -0.00000000000E+00  0.11368683772E-12  0.17120000000E+03  0.17120000000E+03 0.  0.
         13    1    1    2    0    0 -0.11537876164E+02 -0.79487573859E+00  0.19037973620E+02  0.22275771982E+02  0.10566000000E+00 0.  1.
        994    1    1    2    0    0  0.87864889161E+01  0.71004156793E+00  0.35374929459E+01  0.17146329171E+03  0.17120000000E+03 0.  0.
        998    1    1    2    0    0  0.27513872477E+01  0.84834170654E-01  0.14774245297E+04  0.14774609363E+04  0.10000000000E+02 0.  1.
</event>
<event>
 5    1  0.1087513E-008  0.3832833E+03  0.7957747E-01  0.3436986E+00
         13   -1    0    0    0    0  0.00000000000E+00  0.00000000000E+00  0.14999999963E+04  0.15000000000E+04  0.10566000000E+00 0.  1.
        994   -1    0    0    0    0 -0.00000000000E+00 -0.00000000000E+00  0.11368683772E-12  0.17120000000E+03  0.17120000000E+03 0.  0.
         13    1    1    2    0    0 -0.22896223091E+02  0.15947930049E+02  0.14003338191E+03  0.14278631839E+03  0.10566000000E+00 0.  1.
        994    1    1    2    0    0  0.30953380679E+02 -0.10070959827E+02  0.59967002803E+01  0.17437011333E+03  0.17120000000E+03 0.  0.
        998    1    1    2    0    0 -0.80571575888E+01 -0.58769702221E+01  0.13539699141E+04  0.13540435683E+04  0.10000000000E+02 0.  1.
</event>
<event>
 5    1  0.1087513E-008  0.3698771E+03  0.7957747E-01  0.3496456E+00
         13   -1    0    0    0    0  0.00000000000E+00  0.00000000000E+00  0.14999999963E+04  0.15000000000E+04  0.10566000000E+00 0.  1.
        994   -1    0    0    0    0 -0.00000000000E+00 -0.00000000000E+00  0.11368683772E-12  0.17120000000E+03  0.17120000000E+03 0.  0.
         13    1    1    2    0    0 -0.31988123185E+02  0.10099150196E+02  0.47074489409E+02  0.57803560243E+02  0.10566000000E+00 0.  1.
        994    1    1    2    0    0  0.24160346575E+02 -0.11524427840E+02  0.13381779157E+02  0.17379599189E+03  0.17120000000E+03 0.  0.
        998    1    1    2    0    0  0.78277766096E+01  0.14252776442E+01  0.14395437277E+04  0.14396004479E+04  0.10000000000E+02 0.  1.
</event>
<event>
 5    1  0.1087513E-008  0.3830553E+03  0.7957747E-01  0.3437962E+00
         13   -1    0    0    0    0  0.00000000000E+00  0.00000000000E+00  0.14999999963E+04  0.15000000000E+04  0.10566000000E+00 0. -1.
        994   -1    0    0    0    0 -0.00000000000E+00 -0.00000000000E+00  0.11368683772E-12  0.17120000000E+03  0.17120000000E+03 0.  0.
         13    1    1    2    0    0  0.12240465467E+02  0.11949891266E+02  0.58654085101E+02  0.61097804864E+02  0.10566000000E+00 0. -1.
        994    1    1    2    0    0 -0.11336860447E+02  0.11203196630E+02  0.34398938941E+01  0.17197473329E+03  0.17120000000E+03 0.  0.
        998    1    1    2    0    0 -0.90360501997E+00 -0.23153087895E+02  0.14379060173E+04  0.14381274618E+04  0.10000000000E+02 0. -1.
</event>
<event>
 5    1  0.1087513E-008  0.3840948E+03  0.7957747E-01  0.3433520E+00
         13   -1    0    0    0    0  0.00000000000E+00  0.00000000000E+00  0.14999999963E+04  0.15000000000E+04  0.10566000000E+00 0. -1.
        994   -1    0    0    0    0 -0.00000000000E+00 -0.00000000000E+00  0.11368683772E-12  0.17120000000E+03  0.17120000000E+03 0.  0.
         13    1    1    2    0    0  0.16617116478E+02 -0.11125180515E+02  0.89666981340E+02  0.91869891195E+02  0.10566000000E+00 0. -1.
        994    1    1    2    0    0 -0.19091586901E+02  0.12176179162E+02  0.37732590531E+01  0.17273223646E+03  0.17120000000E+03 0.  0.
        998    1    1    2    0    0  0.24744704228E+01 -0.10509986465E+01  0.14065597559E+04  0.14065978723E+04  0.10000000000E+02 0. -1.
</event>
<event>
 5    1  0.1087513E-008  0.3812462E+03  0.7957747E-01  0.3445750E+00
         13   -1    0    0    0    0  0.00000000000E+00  0.00000000000E+00  0.14999999963E+04  0.15000000000E+04  0.10566000000E+00 0.  1.
        994   -1    0    0    0    0 -0.00000000000E+00 -0.00000000000E+00  0.11368683772E-12  0.17120000000E+03  0.17120000000E+03 0.  0.
         13    1    1    2    0    0  0.16653823020E+02  0.16002978311E+02  0.82238636756E+02  0.85420428912E+02  0.10566000000E+00 0.  1.
        994    1    1    2    0    0 -0.83591097146E+01  0.14028720692E+02  0.43937233421E+01  0.17203320762E+03  0.17120000000E+03 0.  0.
        998    1    1    2    0    0 -0.82947133057E+01 -0.30031699003E+02  0.14133676362E+04  0.14137463635E+04  0.10000000000E+02 0.  1.
</event>
<event>
 5    1  0.1087513E-008  0.3837897E+03  0.7957747E-01  0.3434821E+00
         13   -1    0    0    0    0  0.00000000000E+00  0.00000000000E+00  0.14999999963E+04  0.15000000000E+04  0.10566000000E+00 0. -1.
        994   -1    0    0    0    0 -0.00000000000E+00 -0.00000000000E+00  0.11368683772E-12  0.17120000000E+03  0.17120000000E+03 0.  0.
         13    1    1    2    0    0  0.10678830941E+02  0.11342622047E+02  0.51519889726E+02  0.53823811706E+02  0.10566000000E+00 0. -1.
        994    1    1    2    0    0 -0.15972314324E+02 -0.11427265560E+02  0.35066648250E+01  0.17235844604E+03  0.17120000000E+03 0.  0.
        998    1    1    2    0    0  0.52934833832E+01  0.84643512077E-01  0.14449734417E+04  0.14450177423E+04  0.10000000000E+02 0. -1.
</event>
<event>
 5    1  0.1087513E-008  0.3728388E+03  0.7957747E-01  0.3482945E+00
         13   -1    0    0    0    0  0.00000000000E+00  0.00000000000E+00  0.14999999963E+04  0.15000000000E+04  0.10566000000E+00 0. -1.
        994   -1    0    0    0    0 -0.00000000000E+00 -0.00000000000E+00  0.11368683772E-12  0.17120000000E+03  0.17120000000E+03 0.  0.
         13    1    1    2    0    0  0.16560580071E+02  0.14406838727E+02  0.27944492009E+02  0.35534709962E+02  0.10566000000E+00 0. -1.
        994    1    1    2    0    0 -0.81543277823E+01 -0.81234083297E+01  0.82465330605E+01  0.17178453985E+03  0.17120000000E+03 0.  0.
        998    1    1    2    0    0 -0.84062522887E+01 -0.62834303970E+01  0.14638089712E+04  0.14638807502E+04  0.10000000000E+02 0. -1.
</event>
<event>
 5    1  0.1087513E-008  0.3758558E+03  0.7957747E-01  0.3469404E+00
         13   -1    0    0    0    0  0.00000000000E+00  0.00000000000E+00  0.14999999963E+04  0.15000000000E+04  0.10566000000E+00 0.  1.
        994   -1    0    0    0    0 -0.00000000000E+00 -0.00000000000E+00  0.11368683772E-12  0.17120000000E+03  0.17120000000E+03 0.  0.
         13    1    1    2    0    0 -0.92107628692E+00  0.26308965728E+02  0.50966647467E+02  0.57363929235E+02  0.10566000000E+00 0.  1.
        994    1    1    2    0    0  0.13744837290E+00 -0.29869451234E+02  0.92698754633E+01  0.17403325429E+03  0.17120000000E+03 0.  0.
        998    1    1    2    0    0  0.78362791401E+00  0.35604855059E+01  0.14397634733E+04  0.14398028165E+04  0.10000000000E+02 0.  1.
</event>
<event>
 5    1  0.1087513E-008  0.3828032E+03  0.7957747E-01  0.3439043E+00
         13   -1    0    0    0    0  0.00000000000E+00  0.00000000000E+00  0.14999999963E+04  0.15000000000E+04  0.10566000000E+00 0. -1.
        994   -1    0    0    0    0 -0.00000000000E+00 -0.00000000000E+00  0.11368683772E-12  0.17120000000E+03  0.17120000000E+03 0.  0.
         13    1    1    2    0    0 -0.28410547568E+02 -0.54098978947E+01  0.17455905056E+03  0.17693868854E+03  0.10566000000E+00 0. -1.
        994    1    1    2    0    0  0.27302000696E+01 -0.64160337393E+01  0.28858267014E+01  0.17136623786E+03  0.17120000000E+03 0.  0.
        998    1    1    2    0    0  0.25680347498E+02  0.11825931634E+02  0.13225551190E+04  0.13228950736E+04  0.10000000000E+02 0. -1.
</event>
<event>
 5    1  0.1087513E-008  0.3851226E+03  0.7957747E-01  0.3429152E+00
         13   -1    0    0    0    0  0.00000000000E+00  0.00000000000E+00  0.14999999963E+04  0.15000000000E+04  0.10566000000E+00 0.  1.
        994   -1    0    0    0    0 -0.00000000000E+00 -0.00000000000E+00  0.11368683772E-12  0.17120000000E+03  0.17120000000E+03 0.  0.
         13    1    1    2    0    0 -0.21048310213E+02 -0.51807370657E+00  0.12717516214E+03  0.12890629462E+03  0.10566000000E+00 0.  1.
        994    1    1    2    0    0  0.24991781882E+02  0.23480784970E+01  0.36433690442E+01  0.17306882091E+03  0.17120000000E+03 0.  0.
        998    1    1    2    0    0 -0.39434716697E+01 -0.18300047904E+01  0.13691814651E+04  0.13692248845E+04  0.10000000000E+02 0.  1.
</event>
<event>
 5    1  0.1087513E-008  0.3842978E+03  0.7957747E-01  0.3432656E+00
         13   -1    0    0    0    0  0.00000000000E+00  0.00000000000E+00  0.14999999963E+04  0.15000000000E+04  0.10566000000E+00 0. -1.
        994   -1    0    0    0    0 -0.00000000000E+00 -0.00000000000E+00  0.11368683772E-12  0.17120000000E+03  0.17120000000E+03 0.  0.
         13    1    1    2    0    0  0.13502380877E+02  0.17505784803E+02  0.13168494224E+03  0.13352790707E+03  0.10566000000E+00 0. -1.
        994    1    1    2    0    0 -0.43270174762E+01 -0.38125745839E+01  0.20888248852E+01  0.17130984208E+03  0.17120000000E+03 0.  0.
        998    1    1    2    0    0 -0.91753634006E+01 -0.13693210219E+02  0.13662262292E+04  0.13663622508E+04  0.10000000000E+02 0. -1.
</event>
<event>
 5    1  0.1087513E-008  0.3790351E+03  0.7957747E-01  0.3455371E+00
         13   -1    0    0    0    0  0.00000000000E+00  0.00000000000E+00  0.14999999963E+04  0.15000000000E+04  0.10566000000E+00 0.  1.
        994   -1    0    0    0    0 -0.00000000000E+00 -0.00000000000E+00  0.11368683772E-12  0.17120000000E+03  0.17120000000E+03 0.  0.
         13    1    1    2    0    0 -0.14593883922E+01 -0.11007715186E+02  0.11362733423E+02  0.15887809256E+02  0.10566000000E+00 0.  1.
        994    1    1    2    0    0  0.44677309417E+00  0.55290880017E+01  0.47242033304E+01  0.17135497809E+03  0.17120000000E+03 0.  0.
        998    1    1    2    0    0  0.10126152981E+01  0.54786271843E+01  0.14839130595E+04  0.14839572127E+04  0.10000000000E+02 0.  1.
</event>
<event>
 5    1  0.1087513E-008  0.3685393E+03  0.7957747E-01  0.3502631E+00
         13   -1    0    0    0    0  0.00000000000E+00  0.00000000000E+00  0.14999999963E+04  0.15000000000E+04  0.10566000000E+00 0.  1.
        994   -1    0    0    0    0 -0.00000000000E+00 -0.00000000000E+00  0.11368683772E-12  0.17120000000E+03  0.17120000000E+03 0.  0.
         13    1    1    2    0    0 -0.12362850976E+02  0.77887860616E+01  0.58754787898E+01  0.15749212285E+02  0.10566000000E+00 0.  1.
        994    1    1    2    0    0  0.12682722586E+02 -0.71871575025E+00  0.10729957795E+02  0.17200563944E+03  0.17120000000E+03 0.  0.
        998    1    1    2    0    0 -0.31987161052E+00 -0.70700703113E+01  0.14833945597E+04  0.14834451483E+04  0.10000000000E+02 0.  1.
</event>
<event>
 5    1  0.1087513E-008  0.3824426E+03  0.7957747E-01  0.3440591E+00
         13   -1    0    0    0    0  0.00000000000E+00  0.00000000000E+00  0.14999999963E+04  0.15000000000E+04  0.10566000000E+00 0.  1.
        994   -1    0    0    0    0 -0.00000000000E+00 -0.00000000000E+00  0.11368683772E-12  0.17120000000E+03  0.17120000000E+03 0.  0.
         13    1    1    2    0    0 -0.22520075714E+02  0.50406170441E+01  0.89145969168E+02  0.92084616595E+02  0.10566000000E+00 0.  1.
        994    1    1    2    0    0  0.17220350258E+02 -0.33505676248E+01  0.39264687334E+01  0.17214129058E+03  0.17120000000E+03 0.  0.
        998    1    1    2    0    0  0.52997254555E+01 -0.16900494193E+01  0.14069275584E+04  0.14069740928E+04  0.10000000000E+02 0.  1.
</event>
<event>
 5    1  0.1087513E-008  0.2796240E+03  0.7957747E-01  0.4053158E+00
         13   -1    0    0    0    0  0.00000000000E+00  0.00000000000E+00  0.14999999963E+04  0.15000000000E+04  0.10566000000E+00 0.  1.
        994   -1    0    0    0    0 -0.00000000000E+00 -0.00000000000E+00  0.11368683772E-12  0.17120000000E+03  0.17120000000E+03 0.  0.
         13    1    1    2    0    0  0.62033438147E+02 -0.12511748219E+03  0.68565194258E+03  0.69972932575E+03  0.10566000000E+00 0.  1.
        994    1    1    2    0    0 -0.63018420048E+02  0.14654876830E+02  0.37596465919E+02  0.18683955933E+03  0.17120000000E+03 0.  0.
        998    1    1    2    0    0  0.98498190092E+00  0.11046260536E+03  0.77675158778E+03  0.78463111492E+03  0.10000000000E+02 0.  1.
</event>
<event>
 5    1  0.1087513E-008  0.3811376E+03  0.7957747E-01  0.3446220E+00
         13   -1    0    0    0    0  0.00000000000E+00  0.00000000000E+00  0.14999999963E+04  0.15000000000E+04  0.10566000000E+00 0. -1.
        994   -1    0    0    0    0 -0.00000000000E+00 -0.00000000000E+00  0.11368683772E-12  0.17120000000E+03  0.17120000000E+03 0.  0.
         13    1    1    2    0    0  0.13161269801E+02 -0.12567777230E+02  0.43966013222E+02  0.47583500607E+02  0.10566000000E+00 0. -1.
        994    1    1    2    0    0 -0.13546708143E+02  0.14011539799E+02  0.48260434702E+01  0.17237333681E+03  0.17120000000E+03 0.  0.
        998    1    1    2    0    0  0.38543834109E+00 -0.14437625681E+01  0.14512079396E+04  0.14512431626E+04  0.10000000000E+02 0. -1.
</event>
<event>
 5    1  0.1087513E-008  0.3730063E+03  0.7957747E-01  0.3482187E+00
         13   -1    0    0    0    0  0.00000000000E+00  0.00000000000E+00  0.14999999963E+04  0.15000000000E+04  0.10566000000E+00 0.  1.
        994   -1    0    0    0    0 -0.00000000000E+00 -0.00000000000E+00  0.11368683772E-12  0.17120000000E+03  0.17120000000E+03 0.  0.
         13    1    1    2    0    0 -0.66963190289E+02 -0.48734937524E+02  0.47082133736E+03  0.47805010811E+03  0.10566000000E+00 0.  1.
        994    1    1    2    0    0 -0.17245838983E+02 -0.53382561381E+01  0.13689693416E+02  0.17269268556E+03  0.17120000000E+03 0.  0.
        998    1    1    2    0    0  0.84209029273E+02  0.54073193662E+02  0.10154889655E+04  0.10204572063E+04  0.10000000000E+02 0.  1.
</event>
<event>
 5    1  0.1087513E-008  0.3851699E+03  0.7957747E-01  0.3428952E+00
         13   -1    0    0    0    0  0.00000000000E+00  0.00000000000E+00  0.14999999963E+04  0.15000000000E+04  0.10566000000E+00 0.  1.
        994   -1    0    0    0    0 -0.00000000000E+00 -0.00000000000E+00  0.11368683772E-12  0.17120000000E+03  0.17120000000E+03 0.  0.
         13    1    1    2    0    0  0.86444377666E-01  0.10667216276E+02  0.37071039395E+02  0.38575511683E+02  0.10566000000E+00 0.  1.
        994    1    1    2    0    0  0.54505871744E+01 -0.54037302145E+01  0.17394464227E+01  0.17138078911E+03  0.17120000000E+03 0.  0.
        998    1    1    2    0    0 -0.55370315520E+01 -0.52634860611E+01  0.14611895105E+04  0.14612436992E+04  0.10000000000E+02 0.  1.
</event>
<event>
 5    1  0.1087513E-008  0.3817394E+03  0.7957747E-01  0.3443620E+00
         13   -1    0    0    0    0  0.00000000000E+00  0.00000000000E+00  0.14999999963E+04  0.15000000000E+04  0.10566000000E+00 0.  1.
        994   -1    0    0    0    0 -0.00000000000E+00 -0.00000000000E+00  0.11368683772E-12  0.17120000000E+03  0.17120000000E+03 0.  0.
         13    1    1    2    0    0 -0.18961637057E+02  0.27116419591E+02  0.17871592807E+03  0.18175323381E+03  0.10566000000E+00 0.  1.
        994    1    1    2    0    0 -0.11143841472E+02 -0.21760287865E+02  0.52468513019E+01  0.17301637142E+03  0.17120000000E+03 0.  0.
        998    1    1    2    0    0  0.30105478529E+02 -0.53561317264E+01  0.13160372169E+04  0.13164303948E+04  0.10000000000E+02 0.  1.
</event>
<event>
 5    1  0.1087513E-008  0.3650594E+03  0.7957747E-01  0.3518910E+00
         13   -1    0    0    0    0  0.00000000000E+00  0.00000000000E+00  0.14999999963E+04  0.15000000000E+04  0.10566000000E+00 0.  1.
        994   -1    0    0    0    0 -0.00000000000E+00 -0.00000000000E+00  0.11368683772E-12  0.17120000000E+03  0.17120000000E+03 0.  0.
         13    1    1    2    0    0 -0.97096883920E+02 -0.21390004487E+03  0.11042191606E+04  0.11289291386E+04  0.10566000000E+00 0.  1.
        994    1    1    2    0    0  0.96599176770E+02  0.20029513640E+03  0.19725684768E+03  0.34302951269E+03  0.17120000000E+03 0.  0.
        998    1    1    2    0    0  0.49770714968E+00  0.13604908478E+02  0.19852398800E+03  0.19924134876E+03  0.10000000000E+02 0. -1.
</event>
<event>
 5    1  0.1087513E-008  0.3689928E+03  0.7957747E-01  0.3500533E+00
         13   -1    0    0    0    0  0.00000000000E+00  0.00000000000E+00  0.14999999963E+04  0.15000000000E+04  0.10566000000E+00 0.  1.
        994   -1    0    0    0    0 -0.00000000000E+00 -0.00000000000E+00  0.11368683772E-12  0.17120000000E+03  0.17120000000E+03 0.  0.
         13    1    1    2    0    0 -0.18217873750E+02  0.64437385261E+02  0.17488688969E+03  0.18726853151E+03  0.10566000000E+00 0.  1.
        994    1    1    2    0    0  0.32366557612E+02 -0.88138897152E+02  0.41041397451E+02  0.19952417284E+03  0.17120000000E+03 0.  0.
        998    1    1    2    0    0 -0.14148683862E+02  0.23701511891E+02  0.12840717091E+04  0.12844072956E+04  0.10000000000E+02 0.  1.
</event>
<event>
 5    1  0.1087513E-008  0.3859703E+03  0.7957747E-01  0.3425567E+00
         13   -1    0    0    0    0  0.00000000000E+00  0.00000000000E+00  0.14999999963E+04  0.15000000000E+04  0.10566000000E+00 0.  1.
        994   -1    0    0    0    0 -0.00000000000E+00 -0.00000000000E+00  0.11368683772E-12  0.17120000000E+03  0.17120000000E+03 0.  0.
         13    1    1    2    0    0  0.11388435372E+02  0.19926813845E+01  0.67755581880E+02  0.68734978572E+02  0.10566000000E+00 0.  1.
        994    1    1    2    0    0  0.11889920527E+02 -0.97973351993E+01  0.19276790146E+01  0.17190262922E+03  0.17120000000E+03 0.  0.
        998    1    1    2    0    0 -0.23278355898E+02  0.78046538148E+01  0.14303167354E+04  0.14305623922E+04  0.10000000000E+02 0.  1.
</event>
<event>
 5    1  0.1087513E-008  0.3773946E+03  0.7957747E-01  0.3462582E+00
         13   -1    0    0    0    0  0.00000000000E+00  0.00000000000E+00  0.14999999963E+04  0.15000000000E+04  0.10566000000E+00 0. -1.
        994   -1    0    0    0    0 -0.00000000000E+00 -0.00000000000E+00  0.11368683772E-12  0.17120000000E+03  0.17120000000E+03 0.  0.
         13    1    1    2    0    0 -0.15656812109E+02 -0.62366745294E+01  0.23083525477E+02  0.28581325846E+02  0.10566000000E+00 0. -1.
        994    1    1    2    0    0  0.17767752949E+02  0.16168765657E+02  0.74026216294E+01  0.17303572127E+03  0.17120000000E+03 0.  0.
        998    1    1    2    0    0 -0.21109408395E+01 -0.99320911279E+01  0.14695138492E+04  0.14695829529E+04  0.10000000000E+02 0. -1.
</event>
<event>
 5    1  0.1087513E-008  0.3815103E+03  0.7957747E-01  0.3444608E+00
         13   -1    0    0    0    0  0.00000000000E+00  0.00000000000E+00  0.14999999963E+04  0.15000000000E+04  0.10566000000E+00 0.  1.
        994   -1    0    0    0    0 -0.00000000000E+00 -0.00000000000E+00  0.11368683772E-12  0.17120000000E+03  0.17120000000E+03 0.  0.
         13    1    1    2    0    0 -0.18993066724E+02 -0.27699190384E+02  0.17680163835E+03  0.17996336355E+03  0.10566000000E+00 0.  1.
        994    1    1    2    0    0  0.14561371904E+02  0.41328098557E+01  0.41351418260E+01  0.17191757638E+03  0.17120000000E+03 0.  0.
        998    1    1    2    0    0  0.44316948203E+01  0.23566380529E+02  0.13190632161E+04  0.13193190601E+04  0.10000000000E+02 0.  1.
</event>
<event>
 5    1  0.1087513E-008  0.3727869E+03  0.7957747E-01  0.3483180E+00
         13   -1    0    0    0    0  0.00000000000E+00  0.00000000000E+00  0.14999999963E+04  0.15000000000E+04  0.10566000000E+00 0.  1.
        994   -1    0    0    0    0 -0.00000000000E+00 -0.00000000000E+00  0.11368683772E-12  0.17120000000E+03  0.17120000000E+03 0.  0.
         13    1    1    2    0    0  0.74835519799E+00 -0.24027783346E+02  0.33219548613E+02  0.41005414059E+02  0.10566000000E+00 0.  1.
        994    1    1    2    0    0 -0.56952151544E+00  0.22614084057E+02  0.95741148843E+01  0.17295324463E+03  0.17120000000E+03 0.  0.
        998    1    1    2    0    0 -0.17883368255E+00  0.14136992889E+01  0.14572063328E+04  0.14572413413E+04  0.10000000000E+02 0.  1.
</event>
<event>
 5    1  0.1087513E-008  0.4088110E+03  0.7957747E-01  0.3334566E+00
         13   -1    0    0    0    0  0.00000000000E+00  0.00000000000E+00  0.14999999963E+04  0.15000000000E+04  0.10566000000E+00 0. -1.
        994   -1    0    0    0    0 -0.00000000000E+00 -0.00000000000E+00  0.11368683772E-12  0.17120000000E+03  0.17120000000E+03 0.  0.
         13    1    1    2    0    0  0.16367078566E+02 -0.45647468168E+02  0.23394589176E+02  0.53841346359E+02  0.10566000000E+00 0. -1.
        994    1    1    2    0    0 -0.45764221951E+02  0.19734530195E+02  0.43307923914E+02  0.18349068632E+03  0.17120000000E+03 0.  0.
        998    1    1    2    0    0  0.29397143385E+02  0.25912937973E+02  0.14332974832E+04  0.14338679673E+04  0.10000000000E+02 0. -1.
</event>
<event>
 5    1  0.1087513E-008  0.3830090E+03  0.7957747E-01  0.3438160E+00
         13   -1    0    0    0    0  0.00000000000E+00  0.00000000000E+00  0.14999999963E+04  0.15000000000E+04  0.10566000000E+00 0.  1.
        994   -1    0    0    0    0 -0.00000000000E+00 -0.00000000000E+00  0.11368683772E-12  0.17120000000E+03  0.17120000000E+03 0.  0.
         13    1    1    2    0    0 -0.22473486928E+01  0.16159758607E+02  0.48955013608E+02  0.51602256693E+02  0.10566000000E+00 0.  1.
        994    1    1    2    0    0  0.10069025182E+02 -0.14168638436E+02  0.36225544589E+01  0.17211826889E+03  0.17120000000E+03 0.  0.
        998    1    1    2    0    0 -0.78216764892E+01 -0.19911201716E+01  0.14474224282E+04  0.14474794744E+04  0.10000000000E+02 0.  1.
</event>
<event>
 5    1  0.1087513E-008  0.3763181E+03  0.7957747E-01  0.3467349E+00
         13   -1    0    0    0    0  0.00000000000E+00  0.00000000000E+00  0.14999999963E+04  0.15000000000E+04  0.10566000000E+00 0.  1.
        994   -1    0    0    0    0 -0.00000000000E+00 -0.00000000000E+00  0.11368683772E-12  0.17120000000E+03  0.17120000000E+03 0.  0.
         13    1    1    2    0    0  0.90294299186E+01  0.16886914788E+02  0.27639739861E+02  0.33625360657E+02  0.10566000000E+00 0.  1.
        994    1    1    2    0    0 -0.10291378511E+02 -0.15725818298E+02  0.71996569461E+01  0.17237891081E+03  0.17120000000E+03 0.  0.
        998    1    1    2    0    0  0.12619485927E+01 -0.11610964897E+01  0.14651605995E+04  0.14651957285E+04  0.10000000000E+02 0.  1.
</event>
<event>
 5    1  0.1087513E-008  0.3879079E+03  0.7957747E-01  0.3417432E+00
         13   -1    0    0    0    0  0.00000000000E+00  0.00000000000E+00  0.14999999963E+04  0.15000000000E+04  0.10566000000E+00 0. -1.
        994   -1    0    0    0    0 -0.00000000000E+00 -0.00000000000E+00  0.11368683772E-12  0.17120000000E+03  0.17120000000E+03 0.  0.
         13    1    1    2    0    0  0.12099552395E+03 -0.85672854596E+02  0.40716855754E+03  0.43331974366E+03  0.10566000000E+00 0. -1.
        994    1    1    2    0    0 -0.79686900628E+02  0.11612478430E+03  0.99190220977E+02  0.24286438108E+03  0.17120000000E+03 0.  0.
        998    1    1    2    0    0 -0.41308623323E+02 -0.30451929707E+02  0.99364121776E+03  0.99501587526E+03  0.10000000000E+02 0.  1.
</event>
<event>
 5    1  0.1087513E-008  0.3785766E+03  0.7957747E-01  0.3457380E+00
         13   -1    0    0    0    0  0.00000000000E+00  0.00000000000E+00  0.14999999963E+04  0.15000000000E+04  0.10566000000E+00 0.  1.
        994   -1    0    0    0    0 -0.00000000000E+00 -0.00000000000E+00  0.11368683772E-12  0.17120000000E+03  0.17120000000E+03 0.  0.
         13    1    1    2    0    0 -0.20341918625E+02 -0.88957710895E+02  0.51990690645E+03  0.52785459221E+03  0.10566000000E+00 0.  1.
        994    1    1    2    0    0 -0.69763043448E+01  0.10235649118E+03  0.41060587293E+02  0.20376685682E+03  0.17120000000E+03 0.  0.
        998    1    1    2    0    0  0.27318222970E+02 -0.13398780289E+02  0.93903250254E+03  0.93957855097E+03  0.10000000000E+02 0.  1.
</event>
<event>
 5    1  0.1087513E-008  0.3830643E+03  0.7957747E-01  0.3437924E+00
         13   -1    0    0    0    0  0.00000000000E+00  0.00000000000E+00  0.14999999963E+04  0.15000000000E+04  0.10566000000E+00 0. -1.
        994   -1    0    0    0    0 -0.00000000000E+00 -0.00000000000E+00  0.11368683772E-12  0.17120000000E+03  0.17120000000E+03 0.  0.
         13    1    1    2    0    0  0.60213909955E+02 -0.16328737697E+02  0.10117193695E+03  0.11886174581E+03  0.10566000000E+00 0. -1.
        994    1    1    2    0    0 -0.46402538463E+02  0.41612348800E+00  0.25954277954E+02  0.17926637520E+03  0.17120000000E+03 0.  0.
        998    1    1    2    0    0 -0.13811371492E+02  0.15912614209E+02  0.13728737814E+04  0.13730718790E+04  0.10000000000E+02 0. -1.
</event>
<event>
 5    1  0.1087513E-008  0.3771103E+03  0.7957747E-01  0.3463838E+00
         13   -1    0    0    0    0  0.00000000000E+00  0.00000000000E+00  0.14999999963E+04  0.15000000000E+04  0.10566000000E+00 0.  1.
        994   -1    0    0    0    0 -0.00000000000E+00 -0.00000000000E+00  0.11368683772E-12  0.17120000000E+03  0.17120000000E+03 0.  0.
         13    1    1    2    0    0  0.12264656545E+02  0.21265964630E+02  0.53585261203E+02  0.58941109882E+02  0.10566000000E+00 0.  1.
        994    1    1    2    0    0 -0.69384654254E+00 -0.58491246596E+01  0.57161322491E+01  0.17139663897E+03  0.17120000000E+03 0.  0.
        998    1    1    2    0    0 -0.11570810003E+02 -0.15416839971E+02  0.14406986028E+04  0.14408622511E+04  0.10000000000E+02 0.  1.
</event>
<event>
 5    1  0.1087513E-008  0.3830012E+03  0.7957747E-01  0.3438194E+00
         13   -1    0    0    0    0  0.00000000000E+00  0.00000000000E+00  0.14999999963E+04  0.15000000000E+04  0.10566000000E+00 0. -1.
        994   -1    0    0    0    0 -0.00000000000E+00 -0.00000000000E+00  0.11368683772E-12  0.17120000000E+03  0.17120000000E+03 0.  0.
         13    1    1    2    0    0  0.30679336246E+02  0.84041148351E+01  0.17555481361E+03  0.17841343718E+03  0.10566000000E+00 0. -1.
        994    1    1    2    0    0 -0.29382086885E+02 -0.40245808223E+01  0.55424762615E+01  0.17383803762E+03  0.17120000000E+03 0.  0.
        998    1    1    2    0    0 -0.12972493609E+01 -0.43795340128E+01  0.13189027064E+04  0.13189485252E+04  0.10000000000E+02 0. -1.
</event>
<event>
 5    1  0.1087513E-008  0.3771291E+03  0.7957747E-01  0.3463755E+00
         13   -1    0    0    0    0  0.00000000000E+00  0.00000000000E+00  0.14999999963E+04  0.15000000000E+04  0.10566000000E+00 0. -1.
        994   -1    0    0    0    0 -0.00000000000E+00 -0.00000000000E+00  0.11368683772E-12  0.17120000000E+03  0.17120000000E+03 0.  0.
         13    1    1    2    0    0  0.99736043067E+01  0.32847000709E+02  0.93307729492E+02  0.99422038731E+02  0.10566000000E+00 0. -1.
        994    1    1    2    0    0 -0.39903942637E+02 -0.34796327231E+02  0.15108993145E+02  0.17983556573E+03  0.17120000000E+03 0.  0.
        998    1    1    2    0    0  0.29930338330E+02  0.19493265221E+01  0.13915832736E+04  0.13919423955E+04  0.10000000000E+02 0. -1.
</event>
<event>
 5    1  0.1087513E-008  0.3694901E+03  0.7957747E-01  0.3498238E+00
         13   -1    0    0    0    0  0.00000000000E+00  0.00000000000E+00  0.14999999963E+04  0.15000000000E+04  0.10566000000E+00 0. -1.
        994   -1    0    0    0    0 -0.00000000000E+00 -0.00000000000E+00  0.11368683772E-12  0.17120000000E+03  0.17120000000E+03 0.  0.
         13    1    1    2    0    0  0.77212265617E+01  0.12222383338E+02  0.63488447783E+01  0.15789964792E+02  0.10566000000E+00 0. -1.
        994    1    1    2    0    0 -0.13103666419E+02 -0.23474959250E+02  0.12043411276E+02  0.17371604284E+03  0.17120000000E+03 0.  0.
        998    1    1    2    0    0  0.53824398576E+01  0.11252575912E+02  0.14816077402E+04  0.14816939924E+04  0.10000000000E+02 0. -1.
</event>
<event>
 5    1  0.1087513E-008  0.3857088E+03  0.7957747E-01  0.3426671E+00
         13   -1    0    0    0    0  0.00000000000E+00  0.00000000000E+00  0.14999999963E+04  0.15000000000E+04  0.10566000000E+00 0.  1.
        994   -1    0    0    0    0 -0.00000000000E+00 -0.00000000000E+00  0.11368683772E-12  0.17120000000E+03  0.17120000000E+03 0.  0.
         13    1    1    2    0    0 -0.31362356098E+01  0.96486835484E+01  0.41670243343E+02  0.42887683690E+02  0.10566000000E+00 0.  1.
        994    1    1    2    0    0  0.91993636007E+01  0.89952143674E+00  0.15589943608E+01  0.17145643147E+03  0.17120000000E+03 0.  0.
        998    1    1    2    0    0 -0.60631279909E+01 -0.10548204985E+02  0.14567707586E+04  0.14568558848E+04  0.10000000000E+02 0.  1.
</event>
<event>
 5    1  0.1087513E-008  0.3822974E+03  0.7957747E-01  0.3441216E+00
         13   -1    0    0    0    0  0.00000000000E+00  0.00000000000E+00  0.14999999963E+04  0.15000000000E+04  0.10566000000E+00 0. -1.
        994   -1    0    0    0    0 -0.00000000000E+00 -0.00000000000E+00  0.11368683772E-12  0.17120000000E+03  0.17120000000E+03 0.  0.
         13    1    1    2    0    0 -0.13602301547E+02  0.10961178986E+02  0.47241789300E+02  0.50368322112E+02  0.10566000000E+00 0. -1.
        994    1    1    2    0    0  0.21042767455E+02 -0.15880622689E+02  0.52870985430E+01  0.17329854486E+03  0.17120000000E+03 0.  0.
        998    1    1    2    0    0 -0.74404659081E+01  0.49194437034E+01  0.14474711084E+04  0.14475331330E+04  0.10000000000E+02 0. -1.
</event>
<event>
 5    1  0.1087513E-008  0.3820428E+03  0.7957747E-01  0.3442311E+00
         13   -1    0    0    0    0  0.00000000000E+00  0.00000000000E+00  0.14999999963E+04  0.15000000000E+04  0.10566000000E+00 0. -1.
        994   -1    0    0    0    0 -0.00000000000E+00 -0.00000000000E+00  0.11368683772E-12  0.17120000000E+03  0.17120000000E+03 0.  0.
         13    1    1    2    0    0  0.57822584832E+01  0.10497571220E+02  0.22409597214E+02  0.25413278538E+02  0.10566000000E+00 0. -1.
        994    1    1    2    0    0  0.63469771309E+01 -0.47499785694E+01  0.33141782865E+01  0.17141548994E+03  0.17120000000E+03 0.  0.
        998    1    1    2    0    0 -0.12129235614E+02 -0.57475926503E+01  0.14742762208E+04  0.14743712315E+04  0.10000000000E+02 0. -1.
</event>
<event>
 5    1  0.1087513E-008  0.3749665E+03  0.7957747E-01  0.3473373E+00
         13   -1    0    0    0    0  0.00000000000E+00  0.00000000000E+00  0.14999999963E+04  0.15000000000E+04  0.10566000000E+00 0. -1.
        994   -1    0    0    0    0 -0.00000000000E+00 -0.00000000000E+00  0.11368683772E-12  0.17120000000E+03  0.17120000000E+03 0.  0.
         13    1    1    2    0    0  0.60527023017E+00  0.28492125791E+02  0.23698201548E+02  0.37064585587E+02  0.10566000000E+00 0. -1.
        994    1    1    2    0    0  0.21482917099E+01 -0.31080905887E+02  0.17050616447E+02  0.17484507825E+03  0.17120000000E+03 0.  0.
        998    1    1    2    0    0 -0.27535619401E+01  0.25887800963E+01  0.14592511783E+04  0.14592903362E+04  0.10000000000E+02 0. -1.
</event>
<event>
 5    1  0.1087513E-008  0.3789178E+03  0.7957747E-01  0.3455884E+00
         13   -1    0    0    0    0  0.00000000000E+00  0.00000000000E+00  0.14999999963E+04  0.15000000000E+04  0.10566000000E+00 0.  1.
        994   -1    0    0    0    0 -0.00000000000E+00 -0.00000000000E+00  0.11368683772E-12  0.17120000000E+03  0.17120000000E+03 0.  0.
         13    1    1    2    0    0  0.50344273590E+02  0.79157129735E+02  0.51726901452E+03  0.52570680195E+03  0.10566000000E+00 0.  1.
        994    1    1    2    0    0 -0.87593951180E+02 -0.73592182462E+02  0.49925068475E+02  0.21187369366E+03  0.17120000000E+03 0.  0.
        998    1    1    2    0    0  0.37249677589E+02 -0.55649472730E+01  0.93280591329E+03  0.93361950439E+03  0.10000000000E+02 0.  1.
</event>
<event>
 5    1  0.1862320E-008  0.3864646E+03  0.7957747E-01  0.3423484E+00
         13   -1    0    0    0    0  0.00000000000E+00  0.00000000000E+00  0.14999999963E+04  0.15000000000E+04  0.10566000000E+00 0.  1.
        994   -1    0    0    0    0 -0.00000000000E+00 -0.00000000000E+00  0.11368683772E-12  0.17120000000E+03  0.17120000000E+03 0.  0.
         13    1    1    2    0    0 -0.58684275587E+01  0.85247270507E+01  0.58868272680E+02  0.59771181230E+02  0.10566000000E+00 0.  1.
        994    1    1    2    0    0  0.21933640597E+01 -0.10982433160E+02  0.13153804278E+01  0.17157096173E+03  0.17120000000E+03 0.  0.
        998    1    1    2    0    0  0.36750634990E+01  0.24577061093E+01  0.14398163432E+04  0.14398578570E+04  0.10000000000E+02 0.  1.
</event>
<event>
 5    1  0.1087513E-008  0.3715137E+03  0.7957747E-01  0.3488963E+00
         13   -1    0    0    0    0  0.00000000000E+00  0.00000000000E+00  0.14999999963E+04  0.15000000000E+04  0.10566000000E+00 0.  1.
        994   -1    0    0    0    0 -0.00000000000E+00 -0.00000000000E+00  0.11368683772E-12  0.17120000000E+03  0.17120000000E+03 0.  0.
         13    1    1    2    0    0 -0.49844783820E+02  0.25273057389E+02  0.16904803194E+03  0.17804628098E+03  0.10566000000E+00 0.  1.
        994    1    1    2    0    0  0.37939315714E+02 -0.29988914794E+02  0.16567792074E+02  0.17866913114E+03  0.17120000000E+03 0.  0.
        998    1    1    2    0    0  0.11905468106E+02  0.47158574050E+01  0.13143841723E+04  0.13144845879E+04  0.10000000000E+02 0.  1.
</event>
<event>
 5    1  0.1087513E-008  0.4197956E+03  0.7957747E-01  0.3294298E+00
         13   -1    0    0    0    0  0.00000000000E+00  0.00000000000E+00  0.14999999963E+04  0.15000000000E+04  0.10566000000E+00 0. -1.
        994   -1    0    0    0    0 -0.00000000000E+00 -0.00000000000E+00  0.11368683772E-12  0.17120000000E+03  0.17120000000E+03 0.  0.
         13    1    1    2    0    0  0.16578140294E+01  0.10298651794E+03  0.11269718521E+03  0.15267494209E+03  0.10566000000E+00 0. -1.
        994    1    1    2    0    0 -0.42644024872E+01 -0.99515001107E+02  0.83946131871E+02  0.21512278733E+03  0.17120000000E+03 0.  0.
        998    1    1    2    0    0  0.26065884578E+01 -0.34715168301E+01  0.13033566792E+04  0.13034022706E+04  0.10000000000E+02 0. -1.
</event>
<event>
 5    1  0.1087513E-008  0.3853527E+03  0.7957747E-01  0.3428178E+00
         13   -1    0    0    0    0  0.00000000000E+00  0.00000000000E+00  0.14999999963E+04  0.15000000000E+04  0.10566000000E+00 0. -1.
        994   -1    0    0    0    0 -0.00000000000E+00 -0.00000000000E+00  0.11368683772E-12  0.17120000000E+03  0.17120000000E+03 0.  0.
         13    1    1    2    0    0 -0.85307936020E+01 -0.72575131120E+01  0.42850675523E+02  0.44290376978E+02  0.10566000000E+00 0. -1.
        994    1    1    2    0    0  0.84911134313E+01  0.38202307886E+01  0.17399455091E+01  0.17146183418E+03  0.17120000000E+03 0.  0.
        998    1    1    2    0    0  0.39680170717E-01  0.34372823234E+01  0.14554093752E+04  0.14554477888E+04  0.10000000000E+02 0. -1.
</event>
<event>
 5    1  0.1087513E-008  0.3766108E+03  0.7957747E-01  0.3466050E+00
         13   -1    0    0    0    0  0.00000000000E+00  0.00000000000E+00  0.14999999963E+04  0.15000000000E+04  0.10566000000E+00 0. -1.
        994   -1    0    0    0    0 -0.00000000000E+00 -0.00000000000E+00  0.11368683772E-12  0.17120000000E+03  0.17120000000E+03 0.  0.
         13    1    1    2    0    0  0.72441007653E+01 -0.23397889034E+02  0.50715486946E+02  0.56320600026E+02  0.10566000000E+00 0. -1.
        994    1    1    2    0    0 -0.24555849974E+01  0.50226208558E+01  0.59595594267E+01  0.17139490356E+03  0.17120000000E+03 0.  0.
        998    1    1    2    0    0 -0.47885157678E+01  0.18375268178E+02  0.14433249499E+04  0.14434844964E+04  0.10000000000E+02 0. -1.
</event>
<event>
 5    1  0.1087513E-008  0.3754831E+03  0.7957747E-01  0.3471065E+00
         13   -1    0    0    0    0  0.00000000000E+00  0.00000000000E+00  0.14999999963E+04  0.15000000000E+04  0.10566000000E+00 0. -1.
        994   -1    0    0    0    0 -0.00000000000E+00 -0.00000000000E+00  0.11368683772E-12  0.17120000000E+03  0.17120000000E+03 0.  0.
         13    1    1    2    0    0  0.83693122085E+02 -0.29748863197E+02  0.52365253899E+03  0.53113230583E+03  0.10566000000E+00 0. -1.
        994    1    1    2    0    0  0.23525467528E+02  0.15897923792E+02  0.16746952107E+02  0.17434475045E+03  0.17120000000E+03 0.  0.
        998    1    1    2    0    0 -0.10721858961E+03  0.13850939404E+02  0.95960050519E+03  0.96572294372E+03  0.10000000000E+02 0. -1.
</event>
<event>
 5    1  0.1087513E-008  0.3729177E+03  0.7957747E-01  0.3482588E+00
         13   -1    0    0    0    0  0.00000000000E+00  0.00000000000E+00  0.14999999963E+04  0.15000000000E+04  0.10566000000E+00 0.  1.
        994   -1    0    0    0    0 -0.00000000000E+00 -0.00000000000E+00  0.11368683772E-12  0.17120000000E+03  0.17120000000E+03 0.  0.
         13    1    1    2    0    0 -0.34962322272E+01 -0.17908183112E+02  0.18228302840E+02  0.25791643038E+02  0.10566000000E+00 0.  1.
        994    1    1    2    0    0 -0.57252158569E+00  0.10998146763E+02  0.81672455309E+01  0.17174816131E+03  0.17120000000E+03 0.  0.
        998    1    1    2    0    0  0.40687538129E+01  0.69100363490E+01  0.14736044479E+04  0.14736601957E+04  0.10000000000E+02 0.  1.
</event>
<event>
 5    1  0.1087513E-008  0.3847119E+03  0.7957747E-01  0.3430895E+00
         13   -1    0    0    0    0  0.00000000000E+00  0.00000000000E+00  0.14999999963E+04  0.15000000000E+04  0.10566000000E+00 0. -1.
        994   -1    0    0    0    0 -0.00000000000E+00 -0.00000000000E+00  0.11368683772E-12  0.17120000000E+03  0.17120000000E+03 0.  0.
         13    1    1    2    0    0 -0.74172724449E+01 -0.79884463558E+01  0.32625412856E+02  0.34398545518E+02  0.10566000000E+00 0. -1.
        994    1    1    2    0    0  0.14531335395E+02  0.20196030269E+01  0.24820878292E+01  0.17184539349E+03  0.17120000000E+03 0.  0.
        998    1    1    2    0    0 -0.71140629498E+01  0.59688433289E+01  0.14648924956E+04  0.14649560610E+04  0.10000000000E+02 0. -1.
</event>
<event>
 5    1  0.1087513E-008  0.3786990E+03  0.7957747E-01  0.3456843E+00
         13   -1    0    0    0    0  0.00000000000E+00  0.00000000000E+00  0.14999999963E+04  0.15000000000E+04  0.10566000000E+00 0.  1.
        994   -1    0    0    0    0 -0.00000000000E+00 -0.00000000000E+00  0.11368683772E-12  0.17120000000E+03  0.17120000000E+03 0.  0.
         13    1    1    2    0    0 -0.33330462842E+02  0.35309771924E+01  0.13517287487E+03  0.13926630899E+03  0.10566000000E+00 0.  1.
        994    1    1    2    0    0 -0.70549208602E+01  0.26583431086E+01  0.49821507671E+01  0.17143832863E+03  0.17120000000E+03 0.  0.
        998    1    1    2    0    0  0.40385383702E+02 -0.61893203011E+01  0.13598449706E+04  0.13604953624E+04  0.10000000000E+02 0.  1.
</event>
<event>
 5    1  0.1087513E-008  0.3846184E+03  0.7957747E-01  0.3431292E+00
         13   -1    0    0    0    0  0.00000000000E+00  0.00000000000E+00  0.14999999963E+04  0.15000000000E+04  0.10566000000E+00 0.  1.
        994   -1    0    0    0    0 -0.00000000000E+00 -0.00000000000E+00  0.11368683772E-12  0.17120000000E+03  0.17120000000E+03 0.  0.
         13    1    1    2    0    0 -0.20004394947E+02  0.47150440564E+01  0.12201611918E+03  0.12373500701E+03  0.10566000000E+00 0.  1.
        994    1    1    2    0    0  0.76913567912E+01  0.33072294345E+01  0.20505576848E+01  0.17141685892E+03  0.17120000000E+03 0.  0.
        998    1    1    2    0    0  0.12313038156E+02 -0.80222734909E+01  0.13759333194E+04  0.13760481341E+04  0.10000000000E+02 0.  1.
</event>
<event>
 5    1  0.1134499E-008  0.3854587E+03  0.7957747E-01  0.3427729E+00
         13   -1    0    0    0    0  0.00000000000E+00  0.00000000000E+00  0.14999999963E+04  0.15000000000E+04  0.10566000000E+00 0.  1.
        994   -1    0    0    0    0 -0.00000000000E+00 -0.00000000000E+00  0.11368683772E-12  0.17120000000E+03  0.17120000000E+03 0.  0.
         13    1    1    2    0    0  0.47362644279E+01  0.96141840452E+01  0.46978237534E+02  0.48185378502E+02  0.10566000000E+00 0.  1.
        994    1    1    2    0    0 -0.17750542570E+02  0.25011242651E+02  0.44975255994E+01  0.17398365371E+03  0.17120000000E+03 0.  0.
        998    1    1    2    0    0  0.13014278142E+02 -0.34625426696E+02  0.14485242331E+04  0.14490309678E+04  0.10000000000E+02 0.  1.
</event>
<event>
 5    1  0.1087513E-008  0.3784286E+03  0.7957747E-01  0.3458029E+00
         13   -1    0    0    0    0  0.00000000000E+00  0.00000000000E+00  0.14999999963E+04  0.15000000000E+04  0.10566000000E+00 0. -1.
        994   -1    0    0    0    0 -0.00000000000E+00 -0.00000000000E+00  0.11368683772E-12  0.17120000000E+03  0.17120000000E+03 0.  0.
         13    1    1    2    0    0 -0.42581830885E+02  0.26765969125E+02  0.27029198190E+03  0.27493162071E+03  0.10566000000E+00 0. -1.
        994    1    1    2    0    0  0.18103300996E+02 -0.11723879481E+02  0.64932306098E+01  0.17267536275E+03  0.17120000000E+03 0.  0.
        998    1    1    2    0    0  0.24478529889E+02 -0.15042089644E+02  0.12232147838E+04  0.12235930165E+04  0.10000000000E+02 0. -1.
</event>
<event>
 5    1  0.1087513E-008  0.3871245E+03  0.7957747E-01  0.3420712E+00
         13   -1    0    0    0    0  0.00000000000E+00  0.00000000000E+00  0.14999999963E+04  0.15000000000E+04  0.10566000000E+00 0. -1.
        994   -1    0    0    0    0 -0.00000000000E+00 -0.00000000000E+00  0.11368683772E-12  0.17120000000E+03  0.17120000000E+03 0.  0.
         13    1    1    2    0    0 -0.28604793659E+02  0.37239416497E+02  0.47896283696E+02  0.67075133375E+02  0.10566000000E+00 0. -1.
        994    1    1    2    0    0  0.27373130777E+02 -0.11910398919E+02  0.23619885583E+02  0.17538097071E+03  0.17120000000E+03 0.  0.
        998    1    1    2    0    0  0.12316628816E+01 -0.25329017579E+02  0.14284838270E+04  0.14287438959E+04  0.10000000000E+02 0. -1.
</event>
<event>
 5    1  0.1087513E-008  0.3715584E+03  0.7957747E-01  0.3488759E+00
         13   -1    0    0    0    0  0.00000000000E+00  0.00000000000E+00  0.14999999963E+04  0.15000000000E+04  0.10566000000E+00 0. -1.
        994   -1    0    0    0    0 -0.00000000000E+00 -0.00000000000E+00  0.11368683772E-12  0.17120000000E+03  0.17120000000E+03 0.  0.
         13    1    1    2    0    0 -0.40986721293E+02  0.36746046592E+02  0.16683512187E+03  0.17568196355E+03  0.10566000000E+00 0. -1.
        994    1    1    2    0    0  0.36972551885E+02 -0.24632453449E+02  0.15275448788E+02  0.17752888974E+03  0.17120000000E+03 0.  0.
        998    1    1    2    0    0  0.40141694080E+01 -0.12113593143E+02  0.13178894256E+04  0.13179891467E+04  0.10000000000E+02 0. -1.
</event>
<event>
 5    1  0.1087513E-008  0.3700531E+03  0.7957747E-01  0.3495647E+00
         13   -1    0    0    0    0  0.00000000000E+00  0.00000000000E+00  0.14999999963E+04  0.15000000000E+04  0.10566000000E+00 0.  1.
        994   -1    0    0    0    0 -0.00000000000E+00 -0.00000000000E+00  0.11368683772E-12  0.17120000000E+03  0.17120000000E+03 0.  0.
         13    1    1    2    0    0  0.16608067898E+02 -0.64244569918E+01  0.96753678322E+01  0.20266363109E+02  0.10566000000E+00 0.  1.
        994    1    1    2    0    0 -0.81957629355E+01  0.50854620931E+01  0.11292239898E+02  0.17184291413E+03  0.17120000000E+03 0.  0.
        998    1    1    2    0    0 -0.84123049625E+01  0.13389948987E+01  0.14790323885E+04  0.14790907228E+04  0.10000000000E+02 0.  1.
</event>
<event>
 5    1  0.1087513E-008  0.3802798E+03  0.7957747E-01  0.3449941E+00
         13   -1    0    0    0    0  0.00000000000E+00  0.00000000000E+00  0.14999999963E+04  0.15000000000E+04  0.10566000000E+00 0.  1.
        994   -1    0    0    0    0 -0.00000000000E+00 -0.00000000000E+00  0.11368683772E-12  0.17120000000E+03  0.17120000000E+03 0.  0.
         13    1    1    2    0    0 -0.11793216940E+02  0.58226427199E+01  0.20259810294E+02  0.24154796858E+02  0.10566000000E+00 0.  1.
        994    1    1    2    0    0  0.18700829823E+01 -0.68284838382E+01  0.41593833507E+01  0.17139680823E+03  0.17120000000E+03 0.  0.
        998    1    1    2    0    0  0.99231339577E+01  0.10058411184E+01  0.14755808026E+04  0.14756483949E+04  0.10000000000E+02 0.  1.
</event>
<event>
 5    1  0.1087513E-008  0.3855920E+03  0.7957747E-01  0.3427165E+00
         13   -1    0    0    0    0  0.00000000000E+00  0.00000000000E+00  0.14999999963E+04  0.15000000000E+04  0.10566000000E+00 0. -1.
        994   -1    0    0    0    0 -0.00000000000E+00 -0.00000000000E+00  0.11368683772E-12  0.17120000000E+03  0.17120000000E+03 0.  0.
         13    1    1    2    0    0 -0.75736352427E+01 -0.13823430999E+02  0.93588644585E+02  0.94906758214E+02  0.10566000000E+00 0. -1.
        994    1    1    2    0    0  0.34435429881E+01  0.95828840493E+01  0.16769379324E+01  0.17151076286E+03  0.17120000000E+03 0.  0.
        998    1    1    2    0    0  0.41300922547E+01  0.42405469499E+01  0.14047344138E+04  0.14047824789E+04  0.10000000000E+02 0. -1.
</event>
<event>
 5    1  0.1087513E-008  0.3825631E+03  0.7957747E-01  0.3440074E+00
         13   -1    0    0    0    0  0.00000000000E+00  0.00000000000E+00  0.14999999963E+04  0.15000000000E+04  0.10566000000E+00 0.  1.
        994   -1    0    0    0    0 -0.00000000000E+00 -0.00000000000E+00  0.11368683772E-12  0.17120000000E+03  0.17120000000E+03 0.  0.
         13    1    1    2    0    0 -0.13366943492E+02 -0.26394218339E+02  0.14117184986E+03  0.14423880302E+03  0.10566000000E+00 0.  1.
        994    1    1    2    0    0  0.38513792382E+01  0.30544625671E+02  0.59930532848E+01  0.17404931476E+03  0.17120000000E+03 0.  0.
        998    1    1    2    0    0  0.95155642541E+01 -0.41504073319E+01  0.13528350931E+04  0.13529118822E+04  0.10000000000E+02 0.  1.
</event>
<event>
 5    1  0.1087513E-008  0.3247682E+03  0.7957747E-01  0.3733663E+00
         13   -1    0    0    0    0  0.00000000000E+00  0.00000000000E+00  0.14999999963E+04  0.15000000000E+04  0.10566000000E+00 0.  1.
        994   -1    0    0    0    0 -0.00000000000E+00 -0.00000000000E+00  0.11368683772E-12  0.17120000000E+03  0.17120000000E+03 0.  0.
         13    1    1    2    0    0  0.20548809729E+03 -0.39806944098E+02  0.88027899948E+03  0.90482102043E+03  0.10566000000E+00 0.  1.
        994    1    1    2    0    0 -0.17844412816E+03 -0.33573557553E+02  0.15230958827E+03  0.29236474021E+03  0.17120000000E+03 0.  0.
        998    1    1    2    0    0 -0.27043969129E+02  0.73380501651E+02  0.46741140853E+03  0.47401423936E+03  0.10000000000E+02 0.  1.
</event>
<event>
 5    1  0.1087513E-008  0.3785808E+03  0.7957747E-01  0.3457361E+00
         13   -1    0    0    0    0  0.00000000000E+00  0.00000000000E+00  0.14999999963E+04  0.15000000000E+04  0.10566000000E+00 0.  1.
        994   -1    0    0    0    0 -0.00000000000E+00 -0.00000000000E+00  0.11368683772E-12  0.17120000000E+03  0.17120000000E+03 0.  0.
         13    1    1    2    0    0  0.14210856110E+02  0.31179435459E+02  0.30459104546E+02  0.45846197669E+02  0.10566000000E+00 0.  1.
        994    1    1    2    0    0  0.19203718913E+01 -0.44140677124E+02  0.22619964632E+02  0.17825035766E+03  0.17120000000E+03 0.  0.
        998    1    1    2    0    0 -0.16131228001E+02  0.12961241664E+02  0.14469209271E+04  0.14471034447E+04  0.10000000000E+02 0.  1.
</event>
<event>
 5    1  0.1087513E-008  0.3796671E+03  0.7957747E-01  0.3452609E+00
         13   -1    0    0    0    0  0.00000000000E+00  0.00000000000E+00  0.14999999963E+04  0.15000000000E+04  0.10566000000E+00 0.  1.
        994   -1    0    0    0    0 -0.00000000000E+00 -0.00000000000E+00  0.11368683772E-12  0.17120000000E+03  0.17120000000E+03 0.  0.
         13    1    1    2    0    0 -0.11188654958E+02 -0.29778313310E+00  0.12741222395E+02  0.16959498422E+02  0.10566000000E+00 0.  1.
        994    1    1    2    0    0  0.63385918546E+01 -0.67739668617E+01  0.45893763453E+01  0.17151258481E+03  0.17120000000E+03 0.  0.
        998    1    1    2    0    0  0.48500631037E+01  0.70717499948E+01  0.14826693975E+04  0.14827279168E+04  0.10000000000E+02 0.  1.
</event>
<event>
 5    1  0.1087513E-008  0.3749476E+03  0.7957747E-01  0.3473457E+00
         13   -1    0    0    0    0  0.00000000000E+00  0.00000000000E+00  0.14999999963E+04  0.15000000000E+04  0.10566000000E+00 0.  1.
        994   -1    0    0    0    0 -0.00000000000E+00 -0.00000000000E+00  0.11368683772E-12  0.17120000000E+03  0.17120000000E+03 0.  0.
         13    1    1    2    0    0  0.43841408281E+02 -0.45570843740E+02  0.23990699840E+03  0.24810108812E+03  0.10566000000E+00 0.  1.
        994    1    1    2    0    0 -0.34379274600E+02  0.63135140755E+02  0.24483826899E+02  0.18728822253E+03  0.17120000000E+03 0.  0.
        998    1    1    2    0    0 -0.94621336805E+01 -0.17564297014E+02  0.12356091710E+04  0.12358106893E+04  0.10000000000E+02 0.  1.
</event>
<event>
 5    1  0.1087513E-008  0.3861140E+03  0.7957747E-01  0.3424961E+00
         13   -1    0    0    0    0  0.00000000000E+00  0.00000000000E+00  0.14999999963E+04  0.15000000000E+04  0.10566000000E+00 0. -1.
        994   -1    0    0    0    0 -0.00000000000E+00 -0.00000000000E+00  0.11368683772E-12  0.17120000000E+03  0.17120000000E+03 0.  0.
         13    1    1    2    0    0  0.12044933638E+02 -0.19311032438E+01  0.68746888101E+02  0.69820880642E+02  0.10566000000E+00 0. -1.
        994    1    1    2    0    0 -0.11402091011E+02 -0.55447238367E+01  0.16049976695E+01  0.17167634566E+03  0.17120000000E+03 0.  0.
        998    1    1    2    0    0 -0.64284262668E+00  0.74758270805E+01  0.14296481105E+04  0.14297027737E+04  0.10000000000E+02 0. -1.
</event>
<event>
 5    1  0.1087513E-008  0.3704672E+03  0.7957747E-01  0.3493746E+00
         13   -1    0    0    0    0  0.00000000000E+00  0.00000000000E+00  0.14999999963E+04  0.15000000000E+04  0.10566000000E+00 0. -1.
        994   -1    0    0    0    0 -0.00000000000E+00 -0.00000000000E+00  0.11368683772E-12  0.17120000000E+03  0.17120000000E+03 0.  0.
         13    1    1    2    0    0 -0.90572858957E+01  0.12999414782E+02  0.61269775738E+01  0.16987355023E+02  0.10566000000E+00 0. -1.
        994    1    1    2    0    0  0.72448582207E+01 -0.12428518484E+02  0.11911097273E+02  0.17221576664E+03  0.17120000000E+03 0.  0.
        998    1    1    2    0    0  0.18124276750E+01 -0.57089629766E+00  0.14819619214E+04  0.14819968783E+04  0.10000000000E+02 0. -1.
</event>
<event>
 5    1  0.1087513E-008  0.3724306E+03  0.7957747E-01  0.3484794E+00
         13   -1    0    0    0    0  0.00000000000E+00  0.00000000000E+00  0.14999999963E+04  0.15000000000E+04  0.10566000000E+00 0.  1.
        994   -1    0    0    0    0 -0.00000000000E+00 -0.00000000000E+00  0.11368683772E-12  0.17120000000E+03  0.17120000000E+03 0.  0.
         13    1    1    2    0    0  0.84483539301E+02  0.24808215924E+02  0.35342364035E+03  0.36422684788E+03  0.10566000000E+00 0.  1.
        994    1    1    2    0    0 -0.92466632911E+02 -0.12838891444E+02  0.38505466636E+02  0.19876374492E+03  0.17120000000E+03 0.  0.
        998    1    1    2    0    0  0.79830936096E+01 -0.11969324480E+02  0.11080708893E+04  0.11082094072E+04  0.10000000000E+02 0.  1.
</event>
<event>
 5    1  0.1087513E-008  0.3704259E+03  0.7957747E-01  0.3493936E+00
         13   -1    0    0    0    0  0.00000000000E+00  0.00000000000E+00  0.14999999963E+04  0.15000000000E+04  0.10566000000E+00 0. -1.
        994   -1    0    0    0    0 -0.00000000000E+00 -0.00000000000E+00  0.11368683772E-12  0.17120000000E+03  0.17120000000E+03 0.  0.
         13    1    1    2    0    0 -0.55684965350E+02  0.62098412266E+02  0.35656886559E+03  0.36619447735E+03  0.10566000000E+00 0. -1.
        994    1    1    2    0    0  0.27467976993E+02 -0.52635060127E+02  0.21316920750E+02  0.18245215928E+03  0.17120000000E+03 0.  0.
        998    1    1    2    0    0  0.28216988357E+02 -0.94633521395E+01  0.11221142099E+04  0.11225533634E+04  0.10000000000E+02 0. -1.
</event>
<event>
 5    1  0.1087513E-008  0.4280291E+03  0.7957747E-01  0.3265447E+00
         13   -1    0    0    0    0  0.00000000000E+00  0.00000000000E+00  0.14999999963E+04  0.15000000000E+04  0.10566000000E+00 0.  1.
        994   -1    0    0    0    0 -0.00000000000E+00 -0.00000000000E+00  0.11368683772E-12  0.17120000000E+03  0.17120000000E+03 0.  0.
         13    1    1    2    0    0 -0.10166529099E+03 -0.80713291298E+01  0.12357608249E+03  0.16022495771E+03  0.10566000000E+00 0.  1.
        994    1    1    2    0    0  0.77764481416E+01 -0.11611669623E+03  0.10893742952E+03  0.23392384197E+03  0.17120000000E+03 0.  0.
        998    1    1    2    0    0  0.93888842846E+02  0.12418802536E+03  0.12674864843E+04  0.12770512003E+04  0.10000000000E+02 0.  1.
</event>
<event>
 5    1  0.1087513E-008  0.3797451E+03  0.7957747E-01  0.3452269E+00
         13   -1    0    0    0    0  0.00000000000E+00  0.00000000000E+00  0.14999999963E+04  0.15000000000E+04  0.10566000000E+00 0. -1.
        994   -1    0    0    0    0 -0.00000000000E+00 -0.00000000000E+00  0.11368683772E-12  0.17120000000E+03  0.17120000000E+03 0.  0.
         13    1    1    2    0    0  0.54801343329E+01  0.27185438310E+02  0.98956652923E+02  0.10276920867E+03  0.10566000000E+00 0. -1.
        994    1    1    2    0    0 -0.27710725093E+02  0.92585756544E+01  0.71230600781E+01  0.17382112499E+03  0.17120000000E+03 0.  0.
        998    1    1    2    0    0  0.22230590760E+02 -0.36444013965E+02  0.13939202833E+04  0.13946096663E+04  0.10000000000E+02 0. -1.
</event>
<event>
 5    1  0.1087513E-008  0.3793117E+03  0.7957747E-01  0.3454161E+00
         13   -1    0    0    0    0  0.00000000000E+00  0.00000000000E+00  0.14999999963E+04  0.15000000000E+04  0.10566000000E+00 0. -1.
        994   -1    0    0    0    0 -0.00000000000E+00 -0.00000000000E+00  0.11368683772E-12  0.17120000000E+03  0.17120000000E+03 0.  0.
         13    1    1    2    0    0  0.34355179134E+02 -0.48117789915E+01  0.12962762170E+03  0.13418928058E+03  0.10566000000E+00 0. -1.
        994    1    1    2    0    0 -0.22436116811E+02  0.20776591385E+02  0.76202614929E+01  0.17407628923E+03  0.17120000000E+03 0.  0.
        998    1    1    2    0    0 -0.11919062322E+02 -0.15964812393E+02  0.13627521131E+04  0.13629344302E+04  0.10000000000E+02 0. -1.
</event>
<event>
 5    1  0.1087513E-008  0.3848992E+03  0.7957747E-01  0.3430100E+00
         13   -1    0    0    0    0  0.00000000000E+00  0.00000000000E+00  0.14999999963E+04  0.15000000000E+04  0.10566000000E+00 0. -1.
        994   -1    0    0    0    0 -0.00000000000E+00 -0.00000000000E+00  0.11368683772E-12  0.17120000000E+03  0.17120000000E+03 0.  0.
         13    1    1    2    0    0  0.16818887540E+03  0.11745073737E+03  0.10832800360E+04  0.11025324581E+04  0.10566000000E+00 0. -1.
        994    1    1    2    0    0 -0.17282489965E+03 -0.14427006396E+03  0.19143599830E+03  0.34152522417E+03  0.17120000000E+03 0.  0.
        998    1    1    2    0    0  0.46360242551E+01  0.26819326594E+02  0.22528396195E+03  0.22714231775E+03  0.10000000000E+02 0.  1.
</event>
<event>
 5    1  0.1087513E-008  0.3842956E+03  0.7957747E-01  0.3432665E+00
         13   -1    0    0    0    0  0.00000000000E+00  0.00000000000E+00  0.14999999963E+04  0.15000000000E+04  0.10566000000E+00 0. -1.
        994   -1    0    0    0    0 -0.00000000000E+00 -0.00000000000E+00  0.11368683772E-12  0.17120000000E+03  0.17120000000E+03 0.  0.
         13    1    1    2    0    0  0.81914149652E+01  0.77631037849E+01  0.33946250682E+02  0.35773232436E+02  0.10566000000E+00 0. -1.
        994    1    1    2    0    0  0.13679715641E+02 -0.24820691474E+01  0.26176387347E+01  0.17178354787E+03  0.17120000000E+03 0.  0.
        998    1    1    2    0    0 -0.21871130606E+02 -0.52810346375E+01  0.14634361069E+04  0.14636432197E+04  0.10000000000E+02 0. -1.
</event>
