<event>
 5    1  0.1245771E-008  0.3757611E+03  0.7957747E-01  0.3469826E+00
         13   -1    0    0    0    0  0.00000000000E+00  0.00000000000E+00  0.14999999963E+04  0.15000000000E+04  0.10566000000E+00 0.  1.
        994   -1    0    0    0    0 -0.00000000000E+00 -0.00000000000E+00  0.11368683772E-12  0.17120000000E+03  0.17120000000E+03 0.  0.
         13    1    1    2    0    0 -0.11639895177E+01  0.27871541933E+02  0.64099237718E+02  0.69906374254E+02  0.10566000000E+00 0.  1.
        994    1    1    2    0    0 -0.44653274036E+01  0.28225564734E+01  0.63830477156E+01  0.17140037711E+03  0.17120000000E+03 0.  0.
        998    1    1    2    0    0  0.56293169212E+01 -0.30694098407E+02  0.14295177108E+04  0.14298932486E+04  0.10000000000E+02 0.  1.
</event>
<event>
 5    1  0.1245771E-008  0.3831876E+03  0.7957747E-01  0.3437396E+00
         13   -1    0    0    0    0  0.00000000000E+00  0.00000000000E+00  0.14999999963E+04  0.15000000000E+04  0.10566000000E+00 0.  1.
        994   -1    0    0    0    0 -0.00000000000E+00 -0.00000000000E+00  0.11368683772E-12  0.17120000000E+03  0.17120000000E+03 0.  0.
         13    1    1    2    0    0  0.27421386753E+02 -0.15804796579E+02  0.17833197144E+03  0.18111882080E+03  0.10566000000E+00 0.  1.
        994    1    1    2    0    0 -0.23932451918E+02  0.19223450260E+02  0.56561294544E+01  0.17402222587E+03  0.17120000000E+03 0.  0.
        998    1    1    2    0    0 -0.34889348352E+01 -0.34186536811E+01  0.13160118954E+04  0.13160589533E+04  0.10000000000E+02 0.  1.
</event>
<event>
 5    1  0.1245771E-008  0.3800776E+03  0.7957747E-01  0.3450820E+00
         13   -1    0    0    0    0  0.00000000000E+00  0.00000000000E+00  0.14999999963E+04  0.15000000000E+04  0.10566000000E+00 0.  1.
        994   -1    0    0    0    0 -0.00000000000E+00 -0.00000000000E+00  0.11368683772E-12  0.17120000000E+03  0.17120000000E+03 0.  0.
         13    1    1    2    0    0  0.61348529291E+01 -0.85681993800E+01  0.11842790973E+02  0.15852864824E+02  0.10566000000E+00 0.  1.
        994    1    1    2    0    0 -0.39642786937E+01  0.33985348327E+01  0.41850892480E+01  0.17133073430E+03  0.17120000000E+03 0.  0.
        998    1    1    2    0    0 -0.21705742354E+01  0.51696645473E+01  0.14839721161E+04  0.14840164009E+04  0.10000000000E+02 0.  1.
</event>
<event>
 5    1  0.1245771E-008  0.3831981E+03  0.7957747E-01  0.3437350E+00
         13   -1    0    0    0    0  0.00000000000E+00  0.00000000000E+00  0.14999999963E+04  0.15000000000E+04  0.10566000000E+00 0.  1.
        994   -1    0    0    0    0 -0.00000000000E+00 -0.00000000000E+00  0.11368683772E-12  0.17120000000E+03  0.17120000000E+03 0.  0.
         13    1    1    2    0    0  0.12149574434E+02  0.13804458853E+02  0.63116837023E+02  0.65741322795E+02  0.10566000000E+00 0.  1.
        994    1    1    2    0    0 -0.10346622752E+02 -0.19263111654E+02  0.41105852324E+01  0.17263967384E+03  0.17120000000E+03 0.  0.
        998    1    1    2    0    0 -0.18029516816E+01  0.54586528014E+01  0.14327725740E+04  0.14328190034E+04  0.10000000000E+02 0.  1.
</event>
<event>
 5    1  0.1245771E-008  0.3768517E+03  0.7957747E-01  0.3464982E+00
         13   -1    0    0    0    0  0.00000000000E+00  0.00000000000E+00  0.14999999963E+04  0.15000000000E+04  0.10566000000E+00 0. -1.
        994   -1    0    0    0    0 -0.00000000000E+00 -0.00000000000E+00  0.11368683772E-12  0.17120000000E+03  0.17120000000E+03 0.  0.
         13    1    1    2    0    0 -0.18739597436E+02 -0.47429205367E+02  0.24254312144E+03  0.24784648263E+03  0.10566000000E+00 0. -1.
        994    1    1    2    0    0 -0.45435109376E+02  0.43362398821E+02  0.19174524939E+02  0.18336234401E+03  0.17120000000E+03 0.  0.
        998    1    1    2    0    0  0.64174706813E+02  0.40668065458E+01  0.12382823499E+04  0.12399911734E+04  0.10000000000E+02 0. -1.
</event>
<event>
 5    1  0.1245771E-008  0.3849350E+03  0.7957747E-01  0.3429948E+00
         13   -1    0    0    0    0  0.00000000000E+00  0.00000000000E+00  0.14999999963E+04  0.15000000000E+04  0.10566000000E+00 0. -1.
        994   -1    0    0    0    0 -0.00000000000E+00 -0.00000000000E+00  0.11368683772E-12  0.17120000000E+03  0.17120000000E+03 0.  0.
         13    1    1    2    0    0  0.15718355804E+02  0.10096690817E+02  0.10630716571E+03  0.10793625212E+03  0.10566000000E+00 0. -1.
        994    1    1    2    0    0 -0.11771006941E+02 -0.85707887633E+00  0.21207136295E+01  0.17161942960E+03  0.17120000000E+03 0.  0.
        998    1    1    2    0    0 -0.39473488627E+01 -0.92396119405E+01  0.13915721169E+04  0.13916443183E+04  0.10000000000E+02 0. -1.
</event>
<event>
 5    1  0.1245771E-008  0.2936006E+03  0.7957747E-01  0.3942791E+00
         13   -1    0    0    0    0  0.00000000000E+00  0.00000000000E+00  0.14999999963E+04  0.15000000000E+04  0.10566000000E+00 0. -1.
        994   -1    0    0    0    0 -0.00000000000E+00 -0.00000000000E+00  0.11368683772E-12  0.17120000000E+03  0.17120000000E+03 0.  0.
         13    1    1    2    0    0 -0.18475711494E+03  0.36892603673E+02  0.95284075006E+03  0.97128871190E+03  0.10566000000E+00 0. -1.
        994    1    1    2    0    0  0.51490079424E+02  0.69735751816E+02  0.90240817716E+02  0.21205458859E+03  0.17120000000E+03 0.  0.
        998    1    1    2    0    0  0.13326703552E+03 -0.10662835549E+03  0.45691842851E+03  0.48785669951E+03  0.10000000000E+02 0. -1.
</event>
<event>
 5    1  0.1245771E-008  0.3724204E+03  0.7957747E-01  0.3484841E+00
         13   -1    0    0    0    0  0.00000000000E+00  0.00000000000E+00  0.14999999963E+04  0.15000000000E+04  0.10566000000E+00 0. -1.
        994   -1    0    0    0    0 -0.00000000000E+00 -0.00000000000E+00  0.11368683772E-12  0.17120000000E+03  0.17120000000E+03 0.  0.
         13    1    1    2    0    0  0.38281987100E+02  0.41026448906E+02  0.17733183450E+03  0.18599803961E+03  0.10566000000E+00 0. -1.
        994    1    1    2    0    0 -0.35868066571E+02 -0.35377902737E+02  0.16763361742E+02  0.17924442669E+03  0.17120000000E+03 0.  0.
        998    1    1    2    0    0 -0.24139205292E+01 -0.56485461687E+01  0.13059048000E+04  0.13059575337E+04  0.10000000000E+02 0. -1.
</event>
<event>
 5    1  0.1245771E-008  0.3780109E+03  0.7957747E-01  0.3459866E+00
         13   -1    0    0    0    0  0.00000000000E+00  0.00000000000E+00  0.14999999963E+04  0.15000000000E+04  0.10566000000E+00 0. -1.
        994   -1    0    0    0    0 -0.00000000000E+00 -0.00000000000E+00  0.11368683772E-12  0.17120000000E+03  0.17120000000E+03 0.  0.
         13    1    1    2    0    0  0.14020486296E+02 -0.44106319623E+02  0.19682950608E+03  0.20219744582E+03  0.10566000000E+00 0. -1.
        994    1    1    2    0    0 -0.64629726477E+02  0.19206310070E+02  0.20593495094E+02  0.18514701167E+03  0.17120000000E+03 0.  0.
        998    1    1    2    0    0  0.50609240181E+02  0.24900009553E+02  0.12825769951E+04  0.12838555425E+04  0.10000000000E+02 0. -1.
</event>
<event>
 5    1  0.1245771E-008  0.3845333E+03  0.7957747E-01  0.3431654E+00
         13   -1    0    0    0    0  0.00000000000E+00  0.00000000000E+00  0.14999999963E+04  0.15000000000E+04  0.10566000000E+00 0.  1.
        994   -1    0    0    0    0 -0.00000000000E+00 -0.00000000000E+00  0.11368683772E-12  0.17120000000E+03  0.17120000000E+03 0.  0.
         13    1    1    2    0    0  0.28965646998E+02  0.23888541043E+02  0.20012465416E+03  0.20361620629E+03  0.10566000000E+00 0.  1.
        994    1    1    2    0    0 -0.62009025610E+02 -0.65164888890E+02  0.28983462091E+02  0.19555322313E+03  0.17120000000E+03 0.  0.
        998    1    1    2    0    0  0.33043378612E+02  0.41276347847E+02  0.12708918800E+04  0.12720305706E+04  0.10000000000E+02 0.  1.
</event>
<event>
 5    1  0.1245771E-008  0.3803722E+03  0.7957747E-01  0.3449539E+00
         13   -1    0    0    0    0  0.00000000000E+00  0.00000000000E+00  0.14999999963E+04  0.15000000000E+04  0.10566000000E+00 0. -1.
        994   -1    0    0    0    0 -0.00000000000E+00 -0.00000000000E+00  0.11368683772E-12  0.17120000000E+03  0.17120000000E+03 0.  0.
         13    1    1    2    0    0 -0.24537631328E+02 -0.17940953853E+02  0.10910827957E+03  0.11326341426E+03  0.10566000000E+00 0. -1.
        994    1    1    2    0    0  0.25331542465E+02  0.14814845454E+02  0.68259678048E+01  0.17383095388E+03  0.17120000000E+03 0.  0.
        998    1    1    2    0    0 -0.79391113660E+00  0.31261083997E+01  0.13840657489E+04  0.13841056319E+04  0.10000000000E+02 0. -1.
</event>
<event>
 5    1  0.1245771E-008  0.3854096E+03  0.7957747E-01  0.3427937E+00
         13   -1    0    0    0    0  0.00000000000E+00  0.00000000000E+00  0.14999999963E+04  0.15000000000E+04  0.10566000000E+00 0. -1.
        994   -1    0    0    0    0 -0.00000000000E+00 -0.00000000000E+00  0.11368683772E-12  0.17120000000E+03  0.17120000000E+03 0.  0.
         13    1    1    2    0    0  0.10692690981E+02 -0.27829118337E+01  0.42498402990E+02  0.43911315847E+02  0.10566000000E+00 0. -1.
        994    1    1    2    0    0 -0.96924985279E+01 -0.12072042845E+01  0.17402980736E+01  0.17148723132E+03  0.17120000000E+03 0.  0.
        998    1    1    2    0    0 -0.10001924530E+01  0.39901161181E+01  0.14557612952E+04  0.14558014528E+04  0.10000000000E+02 0. -1.
</event>
<event>
 5    1  0.1245771E-008  0.3834986E+03  0.7957747E-01  0.3436065E+00
         13   -1    0    0    0    0  0.00000000000E+00  0.00000000000E+00  0.14999999963E+04  0.15000000000E+04  0.10566000000E+00 0. -1.
        994   -1    0    0    0    0 -0.00000000000E+00 -0.00000000000E+00  0.11368683772E-12  0.17120000000E+03  0.17120000000E+03 0.  0.
         13    1    1    2    0    0  0.65092513331E+01  0.23295879793E+02  0.10464529418E+03  0.10740445581E+03  0.10566000000E+00 0. -1.
        994    1    1    2    0    0 -0.28896285134E+02 -0.32675561736E+02  0.86908058960E+01  0.17688317539E+03  0.17120000000E+03 0.  0.
        998    1    1    2    0    0  0.22387033801E+02  0.93796819436E+01  0.13866638962E+04  0.13869123688E+04  0.10000000000E+02 0. -1.
</event>
<event>
 5    1  0.1245771E-008  0.3735547E+03  0.7957747E-01  0.3479712E+00
         13   -1    0    0    0    0  0.00000000000E+00  0.00000000000E+00  0.14999999963E+04  0.15000000000E+04  0.10566000000E+00 0.  1.
        994   -1    0    0    0    0 -0.00000000000E+00 -0.00000000000E+00  0.11368683772E-12  0.17120000000E+03  0.17120000000E+03 0.  0.
         13    1    1    2    0    0  0.55834143720E+01 -0.46715000924E+02  0.15525393979E+03  0.16222596220E+03  0.10566000000E+00 0.  1.
        994    1    1    2    0    0  0.15864060220E+02  0.18783349209E+02  0.94903624694E+01  0.17321659734E+03  0.17120000000E+03 0.  0.
        998    1    1    2    0    0 -0.21447474592E+02  0.27931651716E+02  0.13352556940E+04  0.13357574405E+04  0.10000000000E+02 0.  1.
</event>
<event>
 5    1  0.1245771E-008  0.3745962E+03  0.7957747E-01  0.3475031E+00
         13   -1    0    0    0    0  0.00000000000E+00  0.00000000000E+00  0.14999999963E+04  0.15000000000E+04  0.10566000000E+00 0.  1.
        994   -1    0    0    0    0 -0.00000000000E+00 -0.00000000000E+00  0.11368683772E-12  0.17120000000E+03  0.17120000000E+03 0.  0.
         13    1    1    2    0    0 -0.57970877057E+01  0.12284385507E+02  0.10802695585E+02  0.17355741099E+02  0.10566000000E+00 0.  1.
        994    1    1    2    0    0  0.10644198575E+02  0.17502425753E+02  0.83159010820E+01  0.17262163272E+03  0.17120000000E+03 0.  0.
        998    1    1    2    0    0 -0.48471108691E+01 -0.29786811260E+02  0.14808813996E+04  0.14812226262E+04  0.10000000000E+02 0.  1.
</event>
<event>
 5    1  0.1245771E-008  0.3787011E+03  0.7957747E-01  0.3456834E+00
         13   -1    0    0    0    0  0.00000000000E+00  0.00000000000E+00  0.14999999963E+04  0.15000000000E+04  0.10566000000E+00 0.  1.
        994   -1    0    0    0    0 -0.00000000000E+00 -0.00000000000E+00  0.11368683772E-12  0.17120000000E+03  0.17120000000E+03 0.  0.
         13    1    1    2    0    0  0.33183814669E+02  0.16576232213E+02  0.14588558132E+03  0.15052757565E+03  0.10566000000E+00 0.  1.
        994    1    1    2    0    0 -0.23934195836E+02  0.85966427382E+01  0.69646479960E+01  0.17321863156E+03  0.17120000000E+03 0.  0.
        998    1    1    2    0    0 -0.92496188321E+01 -0.25172874951E+02  0.13471497670E+04  0.13474537928E+04  0.10000000000E+02 0.  1.
</event>
<event>
 5    1  0.1245771E-008  0.3816380E+03  0.7957747E-01  0.3444057E+00
         13   -1    0    0    0    0  0.00000000000E+00  0.00000000000E+00  0.14999999963E+04  0.15000000000E+04  0.10566000000E+00 0.  1.
        994   -1    0    0    0    0 -0.00000000000E+00 -0.00000000000E+00  0.11368683772E-12  0.17120000000E+03  0.17120000000E+03 0.  0.
         13    1    1    2    0    0 -0.14108035249E+03 -0.10757235335E+03  0.95514204540E+03  0.97147918924E+03  0.10566000000E+00 0.  1.
        994    1    1    2    0    0  0.14222493777E+03  0.12894859672E+03  0.13748431297E+03  0.29166256159E+03  0.17120000000E+03 0.  0.
        998    1    1    2    0    0 -0.11445852859E+01 -0.21376243370E+02  0.40737363791E+03  0.40805824917E+03  0.10000000000E+02 0.  1.
</event>
<event>
 5    1  0.1245771E-008  0.3812061E+03  0.7957747E-01  0.3445924E+00
         13   -1    0    0    0    0  0.00000000000E+00  0.00000000000E+00  0.14999999963E+04  0.15000000000E+04  0.10566000000E+00 0.  1.
        994   -1    0    0    0    0 -0.00000000000E+00 -0.00000000000E+00  0.11368683772E-12  0.17120000000E+03  0.17120000000E+03 0.  0.
         13    1    1    2    0    0  0.18120674845E+02  0.31526401106E+01  0.47207683070E+02  0.50664331649E+02  0.10566000000E+00 0.  1.
        994    1    1    2    0    0 -0.10204537574E+02  0.39215830730E+01  0.39235973771E+01  0.17159354888E+03  0.17120000000E+03 0.  0.
        998    1    1    2    0    0 -0.79161372708E+01 -0.70742231836E+01  0.14488687158E+04  0.14489421195E+04  0.10000000000E+02 0.  1.
</event>
<event>
 5    1  0.1245771E-008  0.3829282E+03  0.7957747E-01  0.3438507E+00
         13   -1    0    0    0    0  0.00000000000E+00  0.00000000000E+00  0.14999999963E+04  0.15000000000E+04  0.10566000000E+00 0. -1.
        994   -1    0    0    0    0 -0.00000000000E+00 -0.00000000000E+00  0.11368683772E-12  0.17120000000E+03  0.17120000000E+03 0.  0.
         13    1    1    2    0    0 -0.11314615681E+01  0.25351142125E+02  0.12113290352E+03  0.12376248257E+03  0.10566000000E+00 0. -1.
        994    1    1    2    0    0  0.78079566102E+00 -0.14256225224E+02  0.33374514871E+01  0.17182673884E+03  0.17120000000E+03 0.  0.
        998    1    1    2    0    0  0.35066590707E+00 -0.11094916902E+02  0.13755296413E+04  0.13756107786E+04  0.10000000000E+02 0. -1.
</event>
<event>
 5    1  0.1245771E-008  0.3787570E+03  0.7957747E-01  0.3456589E+00
         13   -1    0    0    0    0  0.00000000000E+00  0.00000000000E+00  0.14999999963E+04  0.15000000000E+04  0.10566000000E+00 0. -1.
        994   -1    0    0    0    0 -0.00000000000E+00 -0.00000000000E+00  0.11368683772E-12  0.17120000000E+03  0.17120000000E+03 0.  0.
         13    1    1    2    0    0 -0.25532122830E+02  0.23457051823E+01  0.68864979173E+02  0.73483250809E+02  0.10566000000E+00 0. -1.
        994    1    1    2    0    0  0.11132620539E+02  0.61484389746E+01  0.53050062971E+01  0.17175366556E+03  0.17120000000E+03 0.  0.
        998    1    1    2    0    0  0.14399502290E+02 -0.84941441568E+01  0.14258300108E+04  0.14259630836E+04  0.10000000000E+02 0. -1.
</event>
<event>
 5    1  0.1245771E-008  0.3798931E+03  0.7957747E-01  0.3451624E+00
         13   -1    0    0    0    0  0.00000000000E+00  0.00000000000E+00  0.14999999963E+04  0.15000000000E+04  0.10566000000E+00 0. -1.
        994   -1    0    0    0    0 -0.00000000000E+00 -0.00000000000E+00  0.11368683772E-12  0.17120000000E+03  0.17120000000E+03 0.  0.
         13    1    1    2    0    0 -0.97212618566E+01 -0.34843223500E+02  0.16186984920E+03  0.16586263112E+03  0.10566000000E+00 0. -1.
        994    1    1    2    0    0  0.35219815444E+01  0.14009100333E+02  0.48852202552E+01  0.17187776070E+03  0.17120000000E+03 0.  0.
        998    1    1    2    0    0  0.61992803122E+01  0.20834123167E+02  0.13332449268E+04  0.13334596082E+04  0.10000000000E+02 0. -1.
</event>
<event>
 5    1  0.1245771E-008  0.3850397E+03  0.7957747E-01  0.3429504E+00
         13   -1    0    0    0    0  0.00000000000E+00  0.00000000000E+00  0.14999999963E+04  0.15000000000E+04  0.10566000000E+00 0.  1.
        994   -1    0    0    0    0 -0.00000000000E+00 -0.00000000000E+00  0.11368683772E-12  0.17120000000E+03  0.17120000000E+03 0.  0.
         13    1    1    2    0    0  0.63658372074E+01  0.14945150984E+02  0.81980439259E+02  0.83574427946E+02  0.10566000000E+00 0.  1.
        994    1    1    2    0    0 -0.10674531788E+02 -0.70349266128E+01  0.21480484839E+01  0.17169009853E+03  0.17120000000E+03 0.  0.
        998    1    1    2    0    0  0.43086945808E+01 -0.79102243712E+01  0.14158715085E+04  0.14159354735E+04  0.10000000000E+02 0.  1.
</event>
<event>
 5    1  0.1245771E-008  0.3849680E+03  0.7957747E-01  0.3429808E+00
         13   -1    0    0    0    0  0.00000000000E+00  0.00000000000E+00  0.14999999963E+04  0.15000000000E+04  0.10566000000E+00 0. -1.
        994   -1    0    0    0    0 -0.00000000000E+00 -0.00000000000E+00  0.11368683772E-12  0.17120000000E+03  0.17120000000E+03 0.  0.
         13    1    1    2    0    0 -0.12658983607E+02  0.72625086008E+01  0.64491092162E+02  0.66121902797E+02  0.10566000000E+00 0. -1.
        994    1    1    2    0    0  0.86980074275E+01 -0.51845750838E+01  0.19833302242E+01  0.17151066658E+03  0.17120000000E+03 0.  0.
        998    1    1    2    0    0  0.39609761800E+01 -0.20779335170E+01  0.14335255739E+04  0.14335674306E+04  0.10000000000E+02 0. -1.
</event>
<event>
 5    1  0.1245771E-008  0.3792297E+03  0.7957747E-01  0.3454519E+00
         13   -1    0    0    0    0  0.00000000000E+00  0.00000000000E+00  0.14999999963E+04  0.15000000000E+04  0.10566000000E+00 0. -1.
        994   -1    0    0    0    0 -0.00000000000E+00 -0.00000000000E+00  0.11368683772E-12  0.17120000000E+03  0.17120000000E+03 0.  0.
         13    1    1    2    0    0  0.39268491955E+02  0.76526143150E+01  0.14362143277E+03  0.14908958408E+03  0.10566000000E+00 0. -1.
        994    1    1    2    0    0 -0.52235749249E+02 -0.39043204437E+02  0.18910491081E+02  0.18417380917E+03  0.17120000000E+03 0.  0.
        998    1    1    2    0    0  0.12967257294E+02  0.31390590122E+02  0.13374680724E+04  0.13379366067E+04  0.10000000000E+02 0. -1.
</event>
<event>
 5    1  0.1245771E-008  0.3838209E+03  0.7957747E-01  0.3434688E+00
         13   -1    0    0    0    0  0.00000000000E+00  0.00000000000E+00  0.14999999963E+04  0.15000000000E+04  0.10566000000E+00 0.  1.
        994   -1    0    0    0    0 -0.00000000000E+00 -0.00000000000E+00  0.11368683772E-12  0.17120000000E+03  0.17120000000E+03 0.  0.
         13    1    1    2    0    0 -0.22263106812E+02 -0.48634832804E+01  0.11588112533E+03  0.11810057479E+03  0.10566000000E+00 0.  1.
        994    1    1    2    0    0  0.14189032765E+02  0.51089975435E+01  0.29678323758E+01  0.17188856430E+03  0.17120000000E+03 0.  0.
        998    1    1    2    0    0  0.80740740467E+01 -0.24551426312E+00  0.13811510386E+04  0.13812108609E+04  0.10000000000E+02 0.  1.
</event>
<event>
 5    1  0.1245771E-008  0.3852920E+03  0.7957747E-01  0.3428435E+00
         13   -1    0    0    0    0  0.00000000000E+00  0.00000000000E+00  0.14999999963E+04  0.15000000000E+04  0.10566000000E+00 0.  1.
        994   -1    0    0    0    0 -0.00000000000E+00 -0.00000000000E+00  0.11368683772E-12  0.17120000000E+03  0.17120000000E+03 0.  0.
         13    1    1    2    0    0  0.99219677826E+01 -0.62313119605E+01  0.41224442398E+02  0.42857210695E+02  0.10566000000E+00 0.  1.
        994    1    1    2    0    0 -0.37272476919E+02 -0.22678302516E+01  0.60799886003E+01  0.17533050747E+03  0.17120000000E+03 0.  0.
        998    1    1    2    0    0  0.27350509137E+02  0.84991422121E+01  0.14526955653E+04  0.14530122818E+04  0.10000000000E+02 0.  1.
</event>
<event>
 5    1  0.1245771E-008  0.3691636E+03  0.7957747E-01  0.3499744E+00
         13   -1    0    0    0    0  0.00000000000E+00  0.00000000000E+00  0.14999999963E+04  0.15000000000E+04  0.10566000000E+00 0.  1.
        994   -1    0    0    0    0 -0.00000000000E+00 -0.00000000000E+00  0.11368683772E-12  0.17120000000E+03  0.17120000000E+03 0.  0.
         13    1    1    2    0    0  0.18430653461E+02 -0.20503147125E+02  0.32200561760E+02  0.42390510385E+02  0.10566000000E+00 0.  1.
        994    1    1    2    0    0 -0.25106902550E+02 -0.12129541517E+01  0.12702742572E+02  0.17350108784E+03  0.17120000000E+03 0.  0.
        998    1    1    2    0    0  0.66762490889E+01  0.21716101276E+02  0.14550966919E+04  0.14553084018E+04  0.10000000000E+02 0.  1.
</event>
<event>
 5    1  0.1245771E-008  0.3846088E+03  0.7957747E-01  0.3431333E+00
         13   -1    0    0    0    0  0.00000000000E+00  0.00000000000E+00  0.14999999963E+04  0.15000000000E+04  0.10566000000E+00 0. -1.
        994   -1    0    0    0    0 -0.00000000000E+00 -0.00000000000E+00  0.11368683772E-12  0.17120000000E+03  0.17120000000E+03 0.  0.
         13    1    1    2    0    0 -0.52622788816E+01  0.12577795830E+02  0.51387488038E+02  0.53165567972E+02  0.10566000000E+00 0. -1.
        994    1    1    2    0    0  0.15913501913E+02 -0.73013090846E+00  0.26605623160E+01  0.17196014430E+03  0.17120000000E+03 0.  0.
        998    1    1    2    0    0 -0.10651223031E+02 -0.11847664921E+02  0.14459519459E+04  0.14460742877E+04  0.10000000000E+02 0. -1.
</event>
<event>
 5    1  0.1245771E-008  0.3720226E+03  0.7957747E-01  0.3486647E+00
         13   -1    0    0    0    0  0.00000000000E+00  0.00000000000E+00  0.14999999963E+04  0.15000000000E+04  0.10566000000E+00 0.  1.
        994   -1    0    0    0    0 -0.00000000000E+00 -0.00000000000E+00  0.11368683772E-12  0.17120000000E+03  0.17120000000E+03 0.  0.
         13    1    1    2    0    0 -0.41660857932E+02  0.24862008015E+02  0.90140398641E+02  0.10236722697E+03  0.10566000000E+00 0.  1.
        994    1    1    2    0    0  0.38275357157E+02 -0.20458924911E+02  0.18673736149E+02  0.17759988456E+03  0.17120000000E+03 0.  0.
        998    1    1    2    0    0  0.33855007753E+01 -0.44030831035E+01  0.13911858615E+04  0.13912328885E+04  0.10000000000E+02 0.  1.
</event>
<event>
 5    1  0.1245771E-008  0.3769391E+03  0.7957747E-01  0.3464596E+00
         13   -1    0    0    0    0  0.00000000000E+00  0.00000000000E+00  0.14999999963E+04  0.15000000000E+04  0.10566000000E+00 0. -1.
        994   -1    0    0    0    0 -0.00000000000E+00 -0.00000000000E+00  0.11368683772E-12  0.17120000000E+03  0.17120000000E+03 0.  0.
         13    1    1    2    0    0  0.73762963692E+02 -0.93168593918E+01  0.15998304921E+03  0.17641532212E+03  0.10566000000E+00 0. -1.
        994    1    1    2    0    0 -0.78565733877E+02  0.25822359997E+02  0.39591076139E+02  0.19420675098E+03  0.17120000000E+03 0.  0.
        998    1    1    2    0    0  0.48027701851E+01 -0.16505500605E+02  0.13004258709E+04  0.13005779269E+04  0.10000000000E+02 0. -1.
</event>
<event>
 5    1  0.1245771E-008  0.3802437E+03  0.7957747E-01  0.3450098E+00
         13   -1    0    0    0    0  0.00000000000E+00  0.00000000000E+00  0.14999999963E+04  0.15000000000E+04  0.10566000000E+00 0. -1.
        994   -1    0    0    0    0 -0.00000000000E+00 -0.00000000000E+00  0.11368683772E-12  0.17120000000E+03  0.17120000000E+03 0.  0.
         13    1    1    2    0    0 -0.18431069541E+02  0.31617510373E+02  0.14167414752E+03  0.14632479806E+03  0.10566000000E+00 0. -1.
        994    1    1    2    0    0  0.25411819970E+02 -0.39837432346E+02  0.11504465291E+02  0.17797352143E+03  0.17120000000E+03 0.  0.
        998    1    1    2    0    0 -0.69807504287E+01  0.82199219733E+01  0.13468213835E+04  0.13469016805E+04  0.10000000000E+02 0. -1.
</event>
<event>
 5    1  0.1245771E-008  0.3855608E+03  0.7957747E-01  0.3427297E+00
         13   -1    0    0    0    0  0.00000000000E+00  0.00000000000E+00  0.14999999963E+04  0.15000000000E+04  0.10566000000E+00 0.  1.
        994   -1    0    0    0    0 -0.00000000000E+00 -0.00000000000E+00  0.11368683772E-12  0.17120000000E+03  0.17120000000E+03 0.  0.
         13    1    1    2    0    0  0.10375257273E+02 -0.96745766800E+01  0.73163580447E+02  0.74526264264E+02  0.10566000000E+00 0.  1.
        994    1    1    2    0    0 -0.12215629083E+02  0.52082504386E+01  0.19310768501E+01  0.17172511908E+03  0.17120000000E+03 0.  0.
        998    1    1    2    0    0  0.18403718092E+01  0.44663262414E+01  0.14249053390E+04  0.14249486167E+04  0.10000000000E+02 0.  1.
</event>
<event>
 5    1  0.1245771E-008  0.3850953E+03  0.7957747E-01  0.3429268E+00
         13   -1    0    0    0    0  0.00000000000E+00  0.00000000000E+00  0.14999999963E+04  0.15000000000E+04  0.10566000000E+00 0.  1.
        994   -1    0    0    0    0 -0.00000000000E+00 -0.00000000000E+00  0.11368683772E-12  0.17120000000E+03  0.17120000000E+03 0.  0.
         13    1    1    2    0    0  0.11914897907E+02 -0.52008046723E+01  0.51150892393E+02  0.52777250004E+02  0.10566000000E+00 0.  1.
        994    1    1    2    0    0 -0.15919189607E+02  0.41927939647E+01  0.24742645219E+01  0.17200744782E+03  0.17120000000E+03 0.  0.
        998    1    1    2    0    0  0.40042917003E+01  0.10080107076E+01  0.14463748394E+04  0.14464153022E+04  0.10000000000E+02 0.  1.
</event>
<event>
 5    1  0.1245771E-008  0.3737398E+03  0.7957747E-01  0.3478878E+00
         13   -1    0    0    0    0  0.00000000000E+00  0.00000000000E+00  0.14999999963E+04  0.15000000000E+04  0.10566000000E+00 0. -1.
        994   -1    0    0    0    0 -0.00000000000E+00 -0.00000000000E+00  0.11368683772E-12  0.17120000000E+03  0.17120000000E+03 0.  0.
         13    1    1    2    0    0 -0.36599063111E+01  0.21753122424E+02  0.29440197076E+02  0.36787628590E+02  0.10566000000E+00 0. -1.
        994    1    1    2    0    0  0.32451966928E+01 -0.24489946501E+02  0.94134276486E+01  0.17322915863E+03  0.17120000000E+03 0.  0.
        998    1    1    2    0    0  0.41470961833E+00  0.27368240778E+01  0.14611463716E+04  0.14611832128E+04  0.10000000000E+02 0. -1.
</event>
<event>
 5    1  0.1245771E-008  0.3802028E+03  0.7957747E-01  0.3450276E+00
         13   -1    0    0    0    0  0.00000000000E+00  0.00000000000E+00  0.14999999963E+04  0.15000000000E+04  0.10566000000E+00 0. -1.
        994   -1    0    0    0    0 -0.00000000000E+00 -0.00000000000E+00  0.11368683772E-12  0.17120000000E+03  0.17120000000E+03 0.  0.
         13    1    1    2    0    0 -0.94421248312E+01 -0.39663532762E+01  0.11214500904E+02  0.15187556558E+02  0.10566000000E+00 0. -1.
        994    1    1    2    0    0  0.77429241675E+01  0.33840651767E+01  0.42693965830E+01  0.17146157738E+03  0.17120000000E+03 0.  0.
        998    1    1    2    0    0  0.16992006637E+01  0.58228809948E+00  0.14845160988E+04  0.14845508661E+04  0.10000000000E+02 0. -1.
</event>
<event>
 5    1  0.3628051E-008  0.3864323E+03  0.7957747E-01  0.3423620E+00
         13   -1    0    0    0    0  0.00000000000E+00  0.00000000000E+00  0.14999999963E+04  0.15000000000E+04  0.10566000000E+00 0.  1.
        994   -1    0    0    0    0 -0.00000000000E+00 -0.00000000000E+00  0.11368683772E-12  0.17120000000E+03  0.17120000000E+03 0.  0.
         13    1    1    2    0    0  0.27993361011E+01 -0.97251839439E+01  0.57358090839E+02  0.58244117592E+02  0.10566000000E+00 0.  1.
        994    1    1    2    0    0 -0.47073650536E+01  0.43496353345E+01  0.10551714557E+01  0.17132317998E+03  0.17120000000E+03 0.  0.
        998    1    1    2    0    0  0.19080289525E+01  0.53755486093E+01  0.14415867340E+04  0.14416327024E+04  0.10000000000E+02 0.  1.
</event>
<event>
 5    1  0.1245771E-008  0.3783219E+03  0.7957747E-01  0.3458498E+00
         13   -1    0    0    0    0  0.00000000000E+00  0.00000000000E+00  0.14999999963E+04  0.15000000000E+04  0.10566000000E+00 0.  1.
        994   -1    0    0    0    0 -0.00000000000E+00 -0.00000000000E+00  0.11368683772E-12  0.17120000000E+03  0.17120000000E+03 0.  0.
         13    1    1    2    0    0 -0.28356799678E+01 -0.10896014176E+02  0.10536954744E+02  0.15420855524E+02  0.10566000000E+00 0.  1.
        994    1    1    2    0    0  0.18264117290E+02  0.17282590896E+01  0.61148652984E+01  0.17228870084E+03  0.17120000000E+03 0.  0.
        998    1    1    2    0    0 -0.15428437322E+02  0.91677550859E+01  0.14833481762E+04  0.14834904436E+04  0.10000000000E+02 0.  1.
</event>
<event>
 5    1  0.1245771E-008  0.3820282E+03  0.7957747E-01  0.3442375E+00
         13   -1    0    0    0    0  0.00000000000E+00  0.00000000000E+00  0.14999999963E+04  0.15000000000E+04  0.10566000000E+00 0. -1.
        994   -1    0    0    0    0 -0.00000000000E+00 -0.00000000000E+00  0.11368683772E-12  0.17120000000E+03  0.17120000000E+03 0.  0.
         13    1    1    2    0    0  0.22353394503E+02 -0.27861816434E+01  0.85413460030E+02  0.88334066884E+02  0.10566000000E+00 0. -1.
        994    1    1    2    0    0 -0.41872762907E+01 -0.71362584417E+01  0.33401899755E+01  0.17143236665E+03  0.17120000000E+03 0.  0.
        998    1    1    2    0    0 -0.18166118212E+02  0.99224400851E+01  0.14112463463E+04  0.14114335665E+04  0.10000000000E+02 0. -1.
</event>
<event>
 5    1  0.1245771E-008  0.3768223E+03  0.7957747E-01  0.3465113E+00
         13   -1    0    0    0    0  0.00000000000E+00  0.00000000000E+00  0.14999999963E+04  0.15000000000E+04  0.10566000000E+00 0. -1.
        994   -1    0    0    0    0 -0.00000000000E+00 -0.00000000000E+00  0.11368683772E-12  0.17120000000E+03  0.17120000000E+03 0.  0.
         13    1    1    2    0    0 -0.17044584740E+02  0.15146947216E+02  0.44848458908E+02  0.50312456801E+02  0.10566000000E+00 0. -1.
        994    1    1    2    0    0  0.35374463551E+01  0.12699857250E+01  0.57936287934E+01  0.17133923230E+03  0.17120000000E+03 0.  0.
        998    1    1    2    0    0  0.13507138385E+02 -0.16416932941E+02  0.14493579086E+04  0.14495483109E+04  0.10000000000E+02 0. -1.
</event>
<event>
 5    1  0.1245771E-008  0.3847045E+03  0.7957747E-01  0.3430927E+00
         13   -1    0    0    0    0  0.00000000000E+00  0.00000000000E+00  0.14999999963E+04  0.15000000000E+04  0.10566000000E+00 0.  1.
        994   -1    0    0    0    0 -0.00000000000E+00 -0.00000000000E+00  0.11368683772E-12  0.17120000000E+03  0.17120000000E+03 0.  0.
         13    1    1    2    0    0 -0.82758778228E+00 -0.13448954996E+02  0.49438795039E+02  0.51242218052E+02  0.10566000000E+00 0.  1.
        994    1    1    2    0    0  0.15848022405E+01  0.14392581920E+02  0.24673966251E+01  0.17182894418E+03  0.17120000000E+03 0.  0.
        998    1    1    2    0    0 -0.75721445822E+00 -0.94362692445E+00  0.14480938046E+04  0.14481288378E+04  0.10000000000E+02 0.  1.
</event>
<event>
 5    1  0.1245771E-008  0.3791195E+03  0.7957747E-01  0.3455001E+00
         13   -1    0    0    0    0  0.00000000000E+00  0.00000000000E+00  0.14999999963E+04  0.15000000000E+04  0.10566000000E+00 0. -1.
        994   -1    0    0    0    0 -0.00000000000E+00 -0.00000000000E+00  0.11368683772E-12  0.17120000000E+03  0.17120000000E+03 0.  0.
         13    1    1    2    0    0 -0.15190252198E+02 -0.18442457613E+02  0.60093370432E+02  0.64669098792E+02  0.10566000000E+00 0. -1.
        994    1    1    2    0    0  0.87031569465E+01  0.15706063932E+02  0.56599791377E+01  0.17223211300E+03  0.17120000000E+03 0.  0.
        998    1    1    2    0    0  0.64870952519E+01  0.27363936805E+01  0.14342466467E+04  0.14342987882E+04  0.10000000000E+02 0. -1.
</event>
<event>
 5    1  0.1245771E-008  0.3846274E+03  0.7957747E-01  0.3431254E+00
         13   -1    0    0    0    0  0.00000000000E+00  0.00000000000E+00  0.14999999963E+04  0.15000000000E+04  0.10566000000E+00 0.  1.
        994   -1    0    0    0    0 -0.00000000000E+00 -0.00000000000E+00  0.11368683772E-12  0.17120000000E+03  0.17120000000E+03 0.  0.
         13    1    1    2    0    0  0.21961578120E+02  0.26866253296E+02  0.24619075753E+02  0.42546639522E+02  0.10566000000E+00 0.  1.
        994    1    1    2    0    0 -0.14416271338E+02 -0.15646442000E+02  0.20562803322E+02  0.17373804680E+03  0.17120000000E+03 0.  0.
        998    1    1    2    0    0 -0.75453067822E+01 -0.11219811296E+02  0.14548181172E+04  0.14549153137E+04  0.10000000000E+02 0.  1.
</event>
<event>
 5    1  0.1245771E-008  0.3825554E+03  0.7957747E-01  0.3440107E+00
         13   -1    0    0    0    0  0.00000000000E+00  0.00000000000E+00  0.14999999963E+04  0.15000000000E+04  0.10566000000E+00 0. -1.
        994   -1    0    0    0    0 -0.00000000000E+00 -0.00000000000E+00  0.11368683772E-12  0.17120000000E+03  0.17120000000E+03 0.  0.
         13    1    1    2    0    0  0.25613728497E+02 -0.62931352093E+01  0.13831394928E+03  0.14080634350E+03  0.10566000000E+00 0. -1.
        994    1    1    2    0    0  0.69179357789E+01  0.23245384787E+02  0.48010056467E+01  0.17297599661E+03  0.17120000000E+03 0.  0.
        998    1    1    2    0    0 -0.32531664276E+02 -0.16952249578E+02  0.13568850413E+04  0.13574176599E+04  0.10000000000E+02 0. -1.
</event>
<event>
 5    1  0.1245771E-008  0.3828904E+03  0.7957747E-01  0.3438669E+00
         13   -1    0    0    0    0  0.00000000000E+00  0.00000000000E+00  0.14999999963E+04  0.15000000000E+04  0.10566000000E+00 0.  1.
        994   -1    0    0    0    0 -0.00000000000E+00 -0.00000000000E+00  0.11368683772E-12  0.17120000000E+03  0.17120000000E+03 0.  0.
         13    1    1    2    0    0  0.24105499861E+02 -0.88892625219E+01  0.12704017485E+03  0.12961215722E+03  0.10566000000E+00 0.  1.
        994    1    1    2    0    0 -0.78172324411E+01  0.84917124610E+01  0.31224076410E+01  0.17161703800E+03  0.17120000000E+03 0.  0.
        998    1    1    2    0    0 -0.16288267420E+02  0.39755006093E+00  0.13698374138E+04  0.13699708048E+04  0.10000000000E+02 0.  1.
</event>
<event>
 5    1  0.1245771E-008  0.3788194E+03  0.7957747E-01  0.3456315E+00
         13   -1    0    0    0    0  0.00000000000E+00  0.00000000000E+00  0.14999999963E+04  0.15000000000E+04  0.10566000000E+00 0. -1.
        994   -1    0    0    0    0 -0.00000000000E+00 -0.00000000000E+00  0.11368683772E-12  0.17120000000E+03  0.17120000000E+03 0.  0.
         13    1    1    2    0    0 -0.39096098242E+01  0.20723288181E+02  0.43784089211E+02  0.48598326659E+02  0.10566000000E+00 0. -1.
        994    1    1    2    0    0  0.74012712882E+01 -0.22214711239E+02  0.65724922886E+01  0.17291879559E+03  0.17120000000E+03 0.  0.
        998    1    1    2    0    0 -0.34916614639E+01  0.14914230583E+01  0.14496434148E+04  0.14496828778E+04  0.10000000000E+02 0. -1.
</event>
<event>
 5    1  0.1245771E-008  0.3742396E+03  0.7957747E-01  0.3476630E+00
         13   -1    0    0    0    0  0.00000000000E+00  0.00000000000E+00  0.14999999963E+04  0.15000000000E+04  0.10566000000E+00 0. -1.
        994   -1    0    0    0    0 -0.00000000000E+00 -0.00000000000E+00  0.11368683772E-12  0.17120000000E+03  0.17120000000E+03 0.  0.
         13    1    1    2    0    0  0.34395478292E+01  0.98016917285E+01  0.43220561908E+01  0.11251443630E+02  0.10566000000E+00 0. -1.
        994    1    1    2    0    0 -0.35214178851E+00 -0.11082507237E+02  0.74888013541E+01  0.17172206648E+03  0.17120000000E+03 0.  0.
        998    1    1    2    0    0 -0.30874060407E+01  0.12808155082E+01  0.14881891387E+04  0.14882264899E+04  0.10000000000E+02 0. -1.
</event>
<event>
 5    1  0.1245771E-008  0.3798612E+03  0.7957747E-01  0.3451763E+00
         13   -1    0    0    0    0  0.00000000000E+00  0.00000000000E+00  0.14999999963E+04  0.15000000000E+04  0.10566000000E+00 0.  1.
        994   -1    0    0    0    0 -0.00000000000E+00 -0.00000000000E+00  0.11368683772E-12  0.17120000000E+03  0.17120000000E+03 0.  0.
         13    1    1    2    0    0  0.19267315969E+02 -0.38284273768E+02  0.19662360743E+03  0.20124057554E+03  0.10566000000E+00 0.  1.
        994    1    1    2    0    0 -0.17279802444E+02  0.34473527394E+02  0.91925217423E+01  0.17572978723E+03  0.17120000000E+03 0.  0.
        998    1    1    2    0    0 -0.19875135256E+01  0.38107463742E+01  0.12941838671E+04  0.12942296372E+04  0.10000000000E+02 0.  1.
</event>
<event>
 5    1  0.1245771E-008  0.3856284E+03  0.7957747E-01  0.3427011E+00
         13   -1    0    0    0    0  0.00000000000E+00  0.00000000000E+00  0.14999999963E+04  0.15000000000E+04  0.10566000000E+00 0. -1.
        994   -1    0    0    0    0 -0.00000000000E+00 -0.00000000000E+00  0.11368683772E-12  0.17120000000E+03  0.17120000000E+03 0.  0.
         13    1    1    2    0    0 -0.12901488428E+02 -0.35223227694E+01  0.63653820704E+02  0.65043640855E+02  0.10566000000E+00 0. -1.
        994    1    1    2    0    0  0.20258591551E+02 -0.14573633993E+01  0.26735670815E+01  0.17242135135E+03  0.17120000000E+03 0.  0.
        998    1    1    2    0    0 -0.73571031224E+01  0.49796861687E+01  0.14336726085E+04  0.14337350078E+04  0.10000000000E+02 0. -1.
</event>
<event>
 5    1  0.1245771E-008  0.3832175E+03  0.7957747E-01  0.3437267E+00
         13   -1    0    0    0    0  0.00000000000E+00  0.00000000000E+00  0.14999999963E+04  0.15000000000E+04  0.10566000000E+00 0. -1.
        994   -1    0    0    0    0 -0.00000000000E+00 -0.00000000000E+00  0.11368683772E-12  0.17120000000E+03  0.17120000000E+03 0.  0.
         13    1    1    2    0    0  0.52461929499E+01 -0.16500269987E+02  0.60727832261E+02  0.63147939201E+02  0.10566000000E+00 0. -1.
        994    1    1    2    0    0  0.11096472654E+02  0.89215253089E+01  0.31885397523E+01  0.17182063935E+03  0.17120000000E+03 0.  0.
        998    1    1    2    0    0 -0.16342665603E+02  0.75787446785E+01  0.14360836243E+04  0.14362314215E+04  0.10000000000E+02 0. -1.
</event>
<event>
 5    1  0.1245771E-008  0.3768952E+03  0.7957747E-01  0.3464790E+00
         13   -1    0    0    0    0  0.00000000000E+00  0.00000000000E+00  0.14999999963E+04  0.15000000000E+04  0.10566000000E+00 0. -1.
        994   -1    0    0    0    0 -0.00000000000E+00 -0.00000000000E+00  0.11368683772E-12  0.17120000000E+03  0.17120000000E+03 0.  0.
         13    1    1    2    0    0  0.13391826205E+03  0.12423988645E+02  0.79571308328E+03  0.80699924316E+03  0.10566000000E+00 0. -1.
        994    1    1    2    0    0 -0.12627288713E+03 -0.13712848507E+02  0.62300067384E+02  0.22208922224E+03  0.17120000000E+03 0.  0.
        998    1    1    2    0    0 -0.76453749203E+01  0.12888598620E+01  0.64198684562E+03  0.64211153460E+03  0.10000000000E+02 0. -1.
</event>
<event>
 5    1  0.1245771E-008  0.3780854E+03  0.7957747E-01  0.3459538E+00
         13   -1    0    0    0    0  0.00000000000E+00  0.00000000000E+00  0.14999999963E+04  0.15000000000E+04  0.10566000000E+00 0.  1.
        994   -1    0    0    0    0 -0.00000000000E+00 -0.00000000000E+00  0.11368683772E-12  0.17120000000E+03  0.17120000000E+03 0.  0.
         13    1    1    2    0    0 -0.29564905650E+02 -0.14584696618E+02  0.28042845829E+02  0.43280589041E+02  0.10566000000E+00 0.  1.
        994    1    1    2    0    0  0.37515104064E+02  0.23189469014E+02  0.22311539981E+02  0.17819197323E+03  0.17120000000E+03 0.  0.
        998    1    1    2    0    0 -0.79501984148E+01 -0.86047723967E+01  0.14496456105E+04  0.14497274377E+04  0.10000000000E+02 0.  1.
</event>
<event>
 5    1  0.1245771E-008  0.3782325E+03  0.7957747E-01  0.3458891E+00
         13   -1    0    0    0    0  0.00000000000E+00  0.00000000000E+00  0.14999999963E+04  0.15000000000E+04  0.10566000000E+00 0.  1.
        994   -1    0    0    0    0 -0.00000000000E+00 -0.00000000000E+00  0.11368683772E-12  0.17120000000E+03  0.17120000000E+03 0.  0.
         13    1    1    2    0    0 -0.35062354310E+01  0.17762924105E+02  0.29965346596E+02  0.35010688658E+02  0.10566000000E+00 0.  1.
        994    1    1    2    0    0  0.52138842730E+01 -0.18426086719E+02  0.62620767553E+01  0.17238143423E+03  0.17120000000E+03 0.  0.
        998    1    1    2    0    0 -0.17076488421E+01  0.66316261412E+00  0.14637725729E+04  0.14638078771E+04  0.10000000000E+02 0.  1.
</event>
<event>
 5    1  0.1245771E-008  0.3831005E+03  0.7957747E-01  0.3437768E+00
         13   -1    0    0    0    0  0.00000000000E+00  0.00000000000E+00  0.14999999963E+04  0.15000000000E+04  0.10566000000E+00 0.  1.
        994   -1    0    0    0    0 -0.00000000000E+00 -0.00000000000E+00  0.11368683772E-12  0.17120000000E+03  0.17120000000E+03 0.  0.
         13    1    1    2    0    0 -0.31345158196E+02 -0.15646893186E+02  0.19668982735E+03  0.19978549386E+03  0.10566000000E+00 0.  1.
        994    1    1    2    0    0  0.37075315056E+02  0.19387834630E+02  0.83901694961E+01  0.17643781358E+03  0.17120000000E+03 0.  0.
        998    1    1    2    0    0 -0.57301568594E+01 -0.37409414449E+01  0.12949199994E+04  0.12949766926E+04  0.10000000000E+02 0.  1.
</event>
<event>
 5    1  0.1245771E-008  0.3781351E+03  0.7957747E-01  0.3459319E+00
         13   -1    0    0    0    0  0.00000000000E+00  0.00000000000E+00  0.14999999963E+04  0.15000000000E+04  0.10566000000E+00 0.  1.
        994   -1    0    0    0    0 -0.00000000000E+00 -0.00000000000E+00  0.11368683772E-12  0.17120000000E+03  0.17120000000E+03 0.  0.
         13    1    1    2    0    0 -0.11447647857E+02 -0.38509228361E+02  0.12406824402E+03  0.13041069607E+03  0.10566000000E+00 0.  1.
        994    1    1    2    0    0 -0.77589276655E+01  0.75857993956E+02  0.24892065824E+02  0.18906001996E+03  0.17120000000E+03 0.  0.
        998    1    1    2    0    0  0.19206575523E+02 -0.37348765595E+02  0.13510396864E+04  0.13517292840E+04  0.10000000000E+02 0.  1.
</event>
<event>
 5    1  0.1245771E-008  0.3838943E+03  0.7957747E-01  0.3434375E+00
         13   -1    0    0    0    0  0.00000000000E+00  0.00000000000E+00  0.14999999963E+04  0.15000000000E+04  0.10566000000E+00 0. -1.
        994   -1    0    0    0    0 -0.00000000000E+00 -0.00000000000E+00  0.11368683772E-12  0.17120000000E+03  0.17120000000E+03 0.  0.
         13    1    1    2    0    0  0.10293278128E+02 -0.13098546921E+01  0.23810728895E+02  0.25973626403E+02  0.10566000000E+00 0. -1.
        994    1    1    2    0    0 -0.90467767565E+01  0.45484293491E+01  0.25185912286E+01  0.17151768329E+03  0.17120000000E+03 0.  0.
        998    1    1    2    0    0 -0.12465013711E+01 -0.32385746570E+01  0.14736706762E+04  0.14737086903E+04  0.10000000000E+02 0. -1.
</event>
<event>
 5    1  0.1245771E-008  0.3804857E+03  0.7957747E-01  0.3449046E+00
         13   -1    0    0    0    0  0.00000000000E+00  0.00000000000E+00  0.14999999963E+04  0.15000000000E+04  0.10566000000E+00 0.  1.
        994   -1    0    0    0    0 -0.00000000000E+00 -0.00000000000E+00  0.11368683772E-12  0.17120000000E+03  0.17120000000E+03 0.  0.
         13    1    1    2    0    0 -0.12828066991E+02  0.87384273853E+01  0.29799974499E+02  0.33600134822E+02  0.10566000000E+00 0.  1.
        994    1    1    2    0    0  0.15679477626E+01 -0.98315660387E+01  0.42190407250E+01  0.17154112759E+03  0.17120000000E+03 0.  0.
        998    1    1    2    0    0  0.11260119228E+02  0.10931386535E+01  0.14659809811E+04  0.14660587376E+04  0.10000000000E+02 0.  1.
</event>
<event>
 5    1  0.1245771E-008  0.3782160E+03  0.7957747E-01  0.3458963E+00
         13   -1    0    0    0    0  0.00000000000E+00  0.00000000000E+00  0.14999999963E+04  0.15000000000E+04  0.10566000000E+00 0. -1.
        994   -1    0    0    0    0 -0.00000000000E+00 -0.00000000000E+00  0.11368683772E-12  0.17120000000E+03  0.17120000000E+03 0.  0.
         13    1    1    2    0    0  0.16754105657E+02 -0.23189240233E+02  0.73424952922E+02  0.78801496144E+02  0.10566000000E+00 0. -1.
        994    1    1    2    0    0 -0.19104235950E+02  0.31929166336E+02  0.97060896720E+01  0.17546535747E+03  0.17120000000E+03 0.  0.
        998    1    1    2    0    0  0.23501302926E+01 -0.87399261038E+01  0.14168689537E+04  0.14169331464E+04  0.10000000000E+02 0. -1.
</event>
<event>
 5    1  0.1245771E-008  0.3837118E+03  0.7957747E-01  0.3435154E+00
         13   -1    0    0    0    0  0.00000000000E+00  0.00000000000E+00  0.14999999963E+04  0.15000000000E+04  0.10566000000E+00 0. -1.
        994   -1    0    0    0    0 -0.00000000000E+00 -0.00000000000E+00  0.11368683772E-12  0.17120000000E+03  0.17120000000E+03 0.  0.
         13    1    1    2    0    0  0.14835898313E+02  0.12082498017E+02  0.77300398725E+02  0.79633243336E+02  0.10566000000E+00 0. -1.
        994    1    1    2    0    0 -0.51281510749E+02  0.29073834755E+02  0.13833038139E+02  0.18159260491E+03  0.17120000000E+03 0.  0.
        998    1    1    2    0    0  0.36445612435E+02 -0.41156332772E+02  0.14088665594E+04  0.14099741518E+04  0.10000000000E+02 0. -1.
</event>
<event>
 5    1  0.1245771E-008  0.3822146E+03  0.7957747E-01  0.3441572E+00
         13   -1    0    0    0    0  0.00000000000E+00  0.00000000000E+00  0.14999999963E+04  0.15000000000E+04  0.10566000000E+00 0.  1.
        994   -1    0    0    0    0 -0.00000000000E+00 -0.00000000000E+00  0.11368683772E-12  0.17120000000E+03  0.17120000000E+03 0.  0.
         13    1    1    2    0    0  0.20332737294E+02 -0.58841600928E+01  0.75213740234E+02  0.78135532442E+02  0.10566000000E+00 0.  1.
        994    1    1    2    0    0 -0.10960210500E+02 -0.79238308197E+01  0.36266170825E+01  0.17177166722E+03  0.17120000000E+03 0.  0.
        998    1    1    2    0    0 -0.93725267942E+01  0.13807990912E+02  0.14211596390E+04  0.14212928003E+04  0.10000000000E+02 0.  1.
</event>
<event>
 5    1  0.1245771E-008  0.2611235E+03  0.7957747E-01  0.4219721E+00
         13   -1    0    0    0    0  0.00000000000E+00  0.00000000000E+00  0.14999999963E+04  0.15000000000E+04  0.10566000000E+00 0. -1.
        994   -1    0    0    0    0 -0.00000000000E+00 -0.00000000000E+00  0.11368683772E-12  0.17120000000E+03  0.17120000000E+03 0.  0.
         13    1    1    2    0    0 -0.16694250511E+03  0.47282601655E+02  0.35758146190E+03  0.39745434642E+03  0.10566000000E+00 0. -1.
        994    1    1    2    0    0  0.18564436435E+03 -0.85779850389E+01  0.17981155298E+03  0.31012746803E+03  0.17120000000E+03 0.  0.
        998    1    1    2    0    0 -0.18701859239E+02 -0.38704616616E+02  0.96260698140E+03  0.96361818555E+03  0.10000000000E+02 0. -1.
</event>
<event>
 5    1  0.1245771E-008  0.3861587E+03  0.7957747E-01  0.3424773E+00
         13   -1    0    0    0    0  0.00000000000E+00  0.00000000000E+00  0.14999999963E+04  0.15000000000E+04  0.10566000000E+00 0.  1.
        994   -1    0    0    0    0 -0.00000000000E+00 -0.00000000000E+00  0.11368683772E-12  0.17120000000E+03  0.17120000000E+03 0.  0.
         13    1    1    2    0    0  0.37745480518E+01  0.10877900265E+02  0.60319562922E+02  0.61408767797E+02  0.10566000000E+00 0.  1.
        994    1    1    2    0    0 -0.46730171261E+01 -0.14248969329E+02  0.17930521233E+01  0.17186484589E+03  0.17120000000E+03 0.  0.
        998    1    1    2    0    0  0.89846907427E+00  0.33710690635E+01  0.14378873812E+04  0.14379263863E+04  0.10000000000E+02 0.  1.
</event>
<event>
 5    1  0.1245771E-008  0.3734816E+03  0.7957747E-01  0.3480042E+00
         13   -1    0    0    0    0  0.00000000000E+00  0.00000000000E+00  0.14999999963E+04  0.15000000000E+04  0.10566000000E+00 0. -1.
        994   -1    0    0    0    0 -0.00000000000E+00 -0.00000000000E+00  0.11368683772E-12  0.17120000000E+03  0.17120000000E+03 0.  0.
         13    1    1    2    0    0  0.38533597447E+02 -0.15340081443E+02  0.11903474397E+03  0.12605331279E+03  0.10566000000E+00 0. -1.
        994    1    1    2    0    0 -0.68748096182E+01  0.17493758124E+02  0.86685549492E+01  0.17244674084E+03  0.17120000000E+03 0.  0.
        998    1    1    2    0    0 -0.31658787828E+02 -0.21536766809E+01  0.13722966974E+04  0.13726999464E+04  0.10000000000E+02 0. -1.
</event>
<event>
 5    1  0.1245771E-008  0.3803399E+03  0.7957747E-01  0.3449680E+00
         13   -1    0    0    0    0  0.00000000000E+00  0.00000000000E+00  0.14999999963E+04  0.15000000000E+04  0.10566000000E+00 0.  1.
        994   -1    0    0    0    0 -0.00000000000E+00 -0.00000000000E+00  0.11368683772E-12  0.17120000000E+03  0.17120000000E+03 0.  0.
         13    1    1    2    0    0  0.83688289788E+01 -0.95422545718E+01  0.18798441685E+02  0.22682250651E+02  0.10566000000E+00 0.  1.
        994    1    1    2    0    0 -0.31869964326E+01  0.59016611722E+01  0.41119013006E+01  0.17138067068E+03  0.17120000000E+03 0.  0.
        998    1    1    2    0    0 -0.51818325462E+01  0.36405933997E+01  0.14770896533E+04  0.14771370787E+04  0.10000000000E+02 0.  1.
</event>
<event>
 5    1  0.1245771E-008  0.3705961E+03  0.7957747E-01  0.3493156E+00
         13   -1    0    0    0    0  0.00000000000E+00  0.00000000000E+00  0.14999999963E+04  0.15000000000E+04  0.10566000000E+00 0.  1.
        994   -1    0    0    0    0 -0.00000000000E+00 -0.00000000000E+00  0.11368683772E-12  0.17120000000E+03  0.17120000000E+03 0.  0.
         13    1    1    2    0    0 -0.29523946448E+01  0.61783698340E+02  0.25827231678E+03  0.26557587013E+03  0.10566000000E+00 0.  1.
        994    1    1    2    0    0  0.52556352006E+02 -0.40162876031E+01  0.18606310544E+02  0.18009424059E+03  0.17120000000E+03 0.  0.
        998    1    1    2    0    0 -0.49603957361E+02 -0.57767410737E+02  0.12231213690E+04  0.12255298893E+04  0.10000000000E+02 0.  1.
</event>
<event>
 5    1  0.1245771E-008  0.3721407E+03  0.7957747E-01  0.3486110E+00
         13   -1    0    0    0    0  0.00000000000E+00  0.00000000000E+00  0.14999999963E+04  0.15000000000E+04  0.10566000000E+00 0.  1.
        994   -1    0    0    0    0 -0.00000000000E+00 -0.00000000000E+00  0.11368683772E-12  0.17120000000E+03  0.17120000000E+03 0.  0.
         13    1    1    2    0    0  0.35519907664E+02  0.31761013791E+02  0.13074482483E+03  0.13915691223E+03  0.10566000000E+00 0.  1.
        994    1    1    2    0    0 -0.28969258799E+02 -0.25208624753E+02  0.13233001967E+02  0.17595239430E+03  0.17120000000E+03 0.  0.
        998    1    1    2    0    0 -0.65506488653E+01 -0.65523890377E+01  0.13560221695E+04  0.13560906935E+04  0.10000000000E+02 0.  1.
</event>
<event>
 5    1  0.1245771E-008  0.3825284E+03  0.7957747E-01  0.3440223E+00
         13   -1    0    0    0    0  0.00000000000E+00  0.00000000000E+00  0.14999999963E+04  0.15000000000E+04  0.10566000000E+00 0. -1.
        994   -1    0    0    0    0 -0.00000000000E+00 -0.00000000000E+00  0.11368683772E-12  0.17120000000E+03  0.17120000000E+03 0.  0.
         13    1    1    2    0    0 -0.32340402191E+02  0.12214163062E+02  0.19398345042E+03  0.19703978683E+03  0.10566000000E+00 0. -1.
        994    1    1    2    0    0  0.27912052199E+02 -0.61772650031E+01  0.55762758083E+01  0.17365994389E+03  0.17120000000E+03 0.  0.
        998    1    1    2    0    0  0.44283499925E+01 -0.60368980594E+01  0.13004402701E+04  0.13005002693E+04  0.10000000000E+02 0.  1.
</event>
<event>
 5    1  0.1245771E-008  0.3826877E+03  0.7957747E-01  0.3439539E+00
         13   -1    0    0    0    0  0.00000000000E+00  0.00000000000E+00  0.14999999963E+04  0.15000000000E+04  0.10566000000E+00 0. -1.
        994   -1    0    0    0    0 -0.00000000000E+00 -0.00000000000E+00  0.11368683772E-12  0.17120000000E+03  0.17120000000E+03 0.  0.
         13    1    1    2    0    0  0.16444727986E+02  0.70551821591E+01  0.57277266207E+02  0.60007508380E+02  0.10566000000E+00 0. -1.
        994    1    1    2    0    0 -0.95103466072E+01 -0.17026487851E+01  0.30918978241E+01  0.17150027854E+03  0.17120000000E+03 0.  0.
        998    1    1    2    0    0 -0.69343813785E+01 -0.53525333740E+01  0.14396308322E+04  0.14396922131E+04  0.10000000000E+02 0. -1.
</event>
<event>
 5    1  0.1245771E-008  0.3795528E+03  0.7957747E-01  0.3453108E+00
         13   -1    0    0    0    0  0.00000000000E+00  0.00000000000E+00  0.14999999963E+04  0.15000000000E+04  0.10566000000E+00 0. -1.
        994   -1    0    0    0    0 -0.00000000000E+00 -0.00000000000E+00  0.11368683772E-12  0.17120000000E+03  0.17120000000E+03 0.  0.
         13    1    1    2    0    0  0.23032297601E+02  0.29729339963E+02  0.12413643577E+03  0.12970808085E+03  0.10566000000E+00 0. -1.
        994    1    1    2    0    0 -0.38633636576E+02 -0.58307464183E+02  0.20915851886E+02  0.18611617639E+03  0.17120000000E+03 0.  0.
        998    1    1    2    0    0  0.15601338976E+02  0.28578124219E+02  0.13549477086E+04  0.13553757428E+04  0.10000000000E+02 0. -1.
</event>
<event>
 5    1  0.1245771E-008  0.3852460E+03  0.7957747E-01  0.3428629E+00
         13   -1    0    0    0    0  0.00000000000E+00  0.00000000000E+00  0.14999999963E+04  0.15000000000E+04  0.10566000000E+00 0. -1.
        994   -1    0    0    0    0 -0.00000000000E+00 -0.00000000000E+00  0.11368683772E-12  0.17120000000E+03  0.17120000000E+03 0.  0.
         13    1    1    2    0    0 -0.26281447546E+01 -0.11971447236E+02  0.49489487399E+02  0.50984735175E+02  0.10566000000E+00 0. -1.
        994    1    1    2    0    0  0.28309790277E+01  0.91789098876E+01  0.18112884677E+01  0.17147882550E+03  0.17120000000E+03 0.  0.
        998    1    1    2    0    0 -0.20283427305E+00  0.27925373486E+01  0.14486992204E+04  0.14487364393E+04  0.10000000000E+02 0. -1.
</event>
<event>
 5    1  0.1245771E-008  0.3822901E+03  0.7957747E-01  0.3441247E+00
         13   -1    0    0    0    0  0.00000000000E+00  0.00000000000E+00  0.14999999963E+04  0.15000000000E+04  0.10566000000E+00 0. -1.
        994   -1    0    0    0    0 -0.00000000000E+00 -0.00000000000E+00  0.11368683772E-12  0.17120000000E+03  0.17120000000E+03 0.  0.
         13    1    1    2    0    0 -0.37559981630E+02  0.45887072938E+01  0.19115959111E+03  0.19486869655E+03  0.10566000000E+00 0. -1.
        994    1    1    2    0    0  0.47719871535E+02 -0.25009248461E+02  0.12672424018E+02  0.17992409227E+03  0.17120000000E+03 0.  0.
        998    1    1    2    0    0 -0.10159889905E+02  0.20420541167E+02  0.12961679811E+04  0.12964072112E+04  0.10000000000E+02 0. -1.
</event>
<event>
 5    1  0.1245771E-008  0.3838667E+03  0.7957747E-01  0.3434493E+00
         13   -1    0    0    0    0  0.00000000000E+00  0.00000000000E+00  0.14999999963E+04  0.15000000000E+04  0.10566000000E+00 0. -1.
        994   -1    0    0    0    0 -0.00000000000E+00 -0.00000000000E+00  0.11368683772E-12  0.17120000000E+03  0.17120000000E+03 0.  0.
         13    1    1    2    0    0  0.62452617124E+01 -0.17596007387E+02  0.73161263377E+02  0.75506320218E+02  0.10566000000E+00 0. -1.
        994    1    1    2    0    0 -0.10740838851E+02  0.22965028947E+02  0.43183374169E+01  0.17312090056E+03  0.17120000000E+03 0.  0.
        998    1    1    2    0    0  0.44955771385E+01 -0.53690215604E+01  0.14225203955E+04  0.14225727792E+04  0.10000000000E+02 0. -1.
</event>
<event>
 5    1  0.1245771E-008  0.3862341E+03  0.7957747E-01  0.3424455E+00
         13   -1    0    0    0    0  0.00000000000E+00  0.00000000000E+00  0.14999999963E+04  0.15000000000E+04  0.10566000000E+00 0. -1.
        994   -1    0    0    0    0 -0.00000000000E+00 -0.00000000000E+00  0.11368683772E-12  0.17120000000E+03  0.17120000000E+03 0.  0.
         13    1    1    2    0    0 -0.33773511161E+01 -0.10633020181E+02  0.52159509555E+02  0.53339415256E+02  0.10566000000E+00 0. -1.
        994    1    1    2    0    0  0.17520890331E+02  0.28850533847E+02  0.47595034744E+01  0.17456067076E+03  0.17120000000E+03 0.  0.
        998    1    1    2    0    0 -0.14143539215E+02 -0.18217513667E+02  0.14430809832E+04  0.14432999140E+04  0.10000000000E+02 0. -1.
</event>
<event>
 5    1  0.1245771E-008  0.3849416E+03  0.7957747E-01  0.3429920E+00
         13   -1    0    0    0    0  0.00000000000E+00  0.00000000000E+00  0.14999999963E+04  0.15000000000E+04  0.10566000000E+00 0.  1.
        994   -1    0    0    0    0 -0.00000000000E+00 -0.00000000000E+00  0.11368683772E-12  0.17120000000E+03  0.17120000000E+03 0.  0.
         13    1    1    2    0    0  0.11390643440E+02  0.42946711448E+01  0.44180354352E+02  0.45826911667E+02  0.10566000000E+00 0.  1.
        994    1    1    2    0    0 -0.95162667691E+01 -0.23440398943E+01  0.19751378175E+01  0.17149167626E+03  0.17120000000E+03 0.  0.
        998    1    1    2    0    0 -0.18743766709E+01 -0.19506312506E+01  0.14538445041E+04  0.14538814121E+04  0.10000000000E+02 0.  1.
</event>
<event>
 5    1  0.1245771E-008  0.3856352E+03  0.7957747E-01  0.3426983E+00
         13   -1    0    0    0    0  0.00000000000E+00  0.00000000000E+00  0.14999999963E+04  0.15000000000E+04  0.10566000000E+00 0. -1.
        994   -1    0    0    0    0 -0.00000000000E+00 -0.00000000000E+00  0.11368683772E-12  0.17120000000E+03  0.17120000000E+03 0.  0.
         13    1    1    2    0    0 -0.62936676743E+01  0.81148907411E+01  0.38573301246E+02  0.39917069502E+02  0.10566000000E+00 0. -1.
        994    1    1    2    0    0  0.10974569362E+02 -0.10473091633E+02  0.20706965767E+01  0.17188325865E+03  0.17120000000E+03 0.  0.
        998    1    1    2    0    0 -0.46809016873E+01  0.23582008920E+01  0.14593559985E+04  0.14593996718E+04  0.10000000000E+02 0. -1.
</event>
<event>
 5    1  0.1245771E-008  0.3857211E+03  0.7957747E-01  0.3426620E+00
         13   -1    0    0    0    0  0.00000000000E+00  0.00000000000E+00  0.14999999963E+04  0.15000000000E+04  0.10566000000E+00 0.  1.
        994   -1    0    0    0    0 -0.00000000000E+00 -0.00000000000E+00  0.11368683772E-12  0.17120000000E+03  0.17120000000E+03 0.  0.
         13    1    1    2    0    0 -0.13276956681E+02  0.22926212569E+01  0.73288662511E+02  0.74516930342E+02  0.10566000000E+00 0.  1.
        994    1    1    2    0    0  0.51439488239E+01 -0.78094492307E+01  0.15595295505E+01  0.17146229859E+03  0.17120000000E+03 0.  0.
        998    1    1    2    0    0  0.81330078569E+01  0.55168279738E+01  0.14251518042E+04  0.14252207711E+04  0.10000000000E+02 0.  1.
</event>
<event>
 5    1  0.1245771E-008  0.3826292E+03  0.7957747E-01  0.3439790E+00
         13   -1    0    0    0    0  0.00000000000E+00  0.00000000000E+00  0.14999999963E+04  0.15000000000E+04  0.10566000000E+00 0.  1.
        994   -1    0    0    0    0 -0.00000000000E+00 -0.00000000000E+00  0.11368683772E-12  0.17120000000E+03  0.17120000000E+03 0.  0.
         13    1    1    2    0    0 -0.13238908955E+02 -0.68656348421E+01  0.37691344577E+02  0.40534605859E+02  0.10566000000E+00 0.  1.
        994    1    1    2    0    0  0.13467962243E+02  0.92764470216E+01  0.36986100747E+01  0.17201906346E+03  0.17120000000E+03 0.  0.
        998    1    1    2    0    0 -0.22905328797E+00 -0.24108121796E+01  0.14586100416E+04  0.14586463307E+04  0.10000000000E+02 0.  1.
</event>
<event>
 5    1  0.1245771E-008  0.3779855E+03  0.7957747E-01  0.3459977E+00
         13   -1    0    0    0    0  0.00000000000E+00  0.00000000000E+00  0.14999999963E+04  0.15000000000E+04  0.10566000000E+00 0. -1.
        994   -1    0    0    0    0 -0.00000000000E+00 -0.00000000000E+00  0.11368683772E-12  0.17120000000E+03  0.17120000000E+03 0.  0.
         13    1    1    2    0    0 -0.56362523836E+02  0.67663252854E+02  0.51172180320E+03  0.51924393585E+03  0.10566000000E+00 0. -1.
        994    1    1    2    0    0  0.45033261352E+02 -0.73031888726E+02  0.30342257760E+02  0.19388590461E+03  0.17120000000E+03 0.  0.
        998    1    1    2    0    0  0.11329262484E+02  0.53686358712E+01  0.95793593532E+03  0.95807015955E+03  0.10000000000E+02 0. -1.
</event>
<event>
 5    1  0.1245771E-008  0.3745477E+03  0.7957747E-01  0.3475248E+00
         13   -1    0    0    0    0  0.00000000000E+00  0.00000000000E+00  0.14999999963E+04  0.15000000000E+04  0.10566000000E+00 0.  1.
        994   -1    0    0    0    0 -0.00000000000E+00 -0.00000000000E+00  0.11368683772E-12  0.17120000000E+03  0.17120000000E+03 0.  0.
         13    1    1    2    0    0 -0.55907116317E+02  0.37709699679E+01  0.21734273694E+03  0.22444977687E+03  0.10566000000E+00 0.  1.
        994    1    1    2    0    0  0.39875291398E+02  0.19689102195E+02  0.13673976026E+02  0.17740946206E+03  0.17120000000E+03 0.  0.
        998    1    1    2    0    0  0.16031824919E+02 -0.23460072163E+02  0.12689832833E+04  0.12693407611E+04  0.10000000000E+02 0.  1.
</event>
<event>
 5    1  0.1245771E-008  0.3836731E+03  0.7957747E-01  0.3435319E+00
         13   -1    0    0    0    0  0.00000000000E+00  0.00000000000E+00  0.14999999963E+04  0.15000000000E+04  0.10566000000E+00 0. -1.
        994   -1    0    0    0    0 -0.00000000000E+00 -0.00000000000E+00  0.11368683772E-12  0.17120000000E+03  0.17120000000E+03 0.  0.
         13    1    1    2    0    0  0.20707970375E+02 -0.20303732557E+02  0.17191019489E+03  0.17433928950E+03  0.10566000000E+00 0. -1.
        994    1    1    2    0    0 -0.46040223675E+01  0.31008917323E+02  0.55430161130E+01  0.17413476104E+03  0.17120000000E+03 0.  0.
        998    1    1    2    0    0 -0.16103948008E+02 -0.10705184767E+02  0.13225467853E+04  0.13227259495E+04  0.10000000000E+02 0. -1.
</event>
<event>
 5    1  0.1245771E-008  0.3710829E+03  0.7957747E-01  0.3490929E+00
         13   -1    0    0    0    0  0.00000000000E+00  0.00000000000E+00  0.14999999963E+04  0.15000000000E+04  0.10566000000E+00 0.  1.
        994   -1    0    0    0    0 -0.00000000000E+00 -0.00000000000E+00  0.11368683772E-12  0.17120000000E+03  0.17120000000E+03 0.  0.
         13    1    1    2    0    0  0.28255784931E+02  0.12838355255E+02  0.49530412589E+02  0.58450711570E+02  0.10566000000E+00 0.  1.
        994    1    1    2    0    0 -0.50245111660E+02  0.22480226766E+02  0.19214927464E+02  0.18085514999E+03  0.17120000000E+03 0.  0.
        998    1    1    2    0    0  0.21989326729E+02 -0.35318582021E+02  0.14312546562E+04  0.14318941384E+04  0.10000000000E+02 0.  1.
</event>
<event>
 5    1  0.1245771E-008  0.3787180E+03  0.7957747E-01  0.3456760E+00
         13   -1    0    0    0    0  0.00000000000E+00  0.00000000000E+00  0.14999999963E+04  0.15000000000E+04  0.10566000000E+00 0.  1.
        994   -1    0    0    0    0 -0.00000000000E+00 -0.00000000000E+00  0.11368683772E-12  0.17120000000E+03  0.17120000000E+03 0.  0.
         13    1    1    2    0    0  0.13265749288E+02  0.47089322137E+02  0.22838220763E+03  0.23356332822E+03  0.10566000000E+00 0.  1.
        994    1    1    2    0    0 -0.89547106874E+01 -0.38597592456E+02  0.10070367818E+02  0.17601367360E+03  0.17120000000E+03 0.  0.
        998    1    1    2    0    0 -0.43110386003E+01 -0.84917296813E+01  0.12615474208E+04  0.12616229982E+04  0.10000000000E+02 0.  1.
</event>
<event>
 5    1  0.1245771E-008  0.3808385E+03  0.7957747E-01  0.3447516E+00
         13   -1    0    0    0    0  0.00000000000E+00  0.00000000000E+00  0.14999999963E+04  0.15000000000E+04  0.10566000000E+00 0.  1.
        994   -1    0    0    0    0 -0.00000000000E+00 -0.00000000000E+00  0.11368683772E-12  0.17120000000E+03  0.17120000000E+03 0.  0.
         13    1    1    2    0    0  0.24739477386E+02 -0.44160775029E+01  0.81778369040E+02  0.85552652143E+02  0.10566000000E+00 0.  1.
        994    1    1    2    0    0 -0.21042471469E+02 -0.72668032239E-01  0.51879820212E+01  0.17256635258E+03  0.17120000000E+03 0.  0.
        998    1    1    2    0    0 -0.36970059167E+01  0.44887455351E+01  0.14130336452E+04  0.14130809953E+04  0.10000000000E+02 0.  0.
</event>
<event>
 5    1  0.1245771E-008  0.3716704E+03  0.7957747E-01  0.3488249E+00
         13   -1    0    0    0    0  0.00000000000E+00  0.00000000000E+00  0.14999999963E+04  0.15000000000E+04  0.10566000000E+00 0. -1.
        994   -1    0    0    0    0 -0.00000000000E+00 -0.00000000000E+00  0.11368683772E-12  0.17120000000E+03  0.17120000000E+03 0.  0.
         13    1    1    2    0    0  0.30814560600E+02 -0.85149546811E+01  0.51604089985E+02  0.60704488017E+02  0.10566000000E+00 0. -1.
        994    1    1    2    0    0 -0.56616494791E+02  0.10561639503E+02  0.19889435057E+02  0.18171957885E+03  0.17120000000E+03 0.  0.
        998    1    1    2    0    0  0.25801934191E+02 -0.20466848220E+01  0.14285064712E+04  0.14287759331E+04  0.10000000000E+02 0. -1.
</event>
<event>
 5    1  0.1245771E-008  0.3829991E+03  0.7957747E-01  0.3438203E+00
         13   -1    0    0    0    0  0.00000000000E+00  0.00000000000E+00  0.14999999963E+04  0.15000000000E+04  0.10566000000E+00 0.  1.
        994   -1    0    0    0    0 -0.00000000000E+00 -0.00000000000E+00  0.11368683772E-12  0.17120000000E+03  0.17120000000E+03 0.  0.
         13    1    1    2    0    0  0.38169930017E+01 -0.20333318079E+02  0.81656108137E+02  0.84236241725E+02  0.10566000000E+00 0.  1.
        994    1    1    2    0    0 -0.45832302182E+01  0.10403234223E+02  0.30547091461E+01  0.17160420895E+03  0.17120000000E+03 0.  0.
        998    1    1    2    0    0  0.76623721657E+00  0.99300838568E+01  0.14152891790E+04  0.14153595493E+04  0.10000000000E+02 0.  1.
</event>
<event>
 5    1  0.1245771E-008  0.3857560E+03  0.7957747E-01  0.3426472E+00
         13   -1    0    0    0    0  0.00000000000E+00  0.00000000000E+00  0.14999999963E+04  0.15000000000E+04  0.10566000000E+00 0.  1.
        994   -1    0    0    0    0 -0.00000000000E+00 -0.00000000000E+00  0.11368683772E-12  0.17120000000E+03  0.17120000000E+03 0.  0.
         13    1    1    2    0    0  0.91541582455E+01 -0.83180693203E+01  0.59637767838E+02  0.60907006223E+02  0.10566000000E+00 0.  1.
        994    1    1    2    0    0 -0.96321703707E+01  0.81357001606E+01  0.17769268244E+01  0.17167284524E+03  0.17120000000E+03 0.  0.
        998    1    1    2    0    0  0.47801212512E+00  0.18236915967E+00  0.14385853016E+04  0.14386201485E+04  0.10000000000E+02 0.  1.
</event>
<event>
 5    1  0.1245771E-008  0.3829926E+03  0.7957747E-01  0.3438231E+00
         13   -1    0    0    0    0  0.00000000000E+00  0.00000000000E+00  0.14999999963E+04  0.15000000000E+04  0.10566000000E+00 0. -1.
        994   -1    0    0    0    0 -0.00000000000E+00 -0.00000000000E+00  0.11368683772E-12  0.17120000000E+03  0.17120000000E+03 0.  0.
         13    1    1    2    0    0 -0.60240876614E+01  0.12050982432E+02  0.32115623636E+02  0.34827291817E+02  0.10566000000E+00 0. -1.
        994    1    1    2    0    0  0.24631115963E+02 -0.11918640281E+02  0.51125200627E+01  0.17344833156E+03  0.17120000000E+03 0.  0.
        998    1    1    2    0    0 -0.18607028301E+02 -0.13234215131E+00  0.14627718526E+04  0.14629243766E+04  0.10000000000E+02 0. -1.
</event>
<event>
 5    1  0.1245771E-008  0.3732377E+03  0.7957747E-01  0.3481142E+00
         13   -1    0    0    0    0  0.00000000000E+00  0.00000000000E+00  0.14999999963E+04  0.15000000000E+04  0.10566000000E+00 0. -1.
        994   -1    0    0    0    0 -0.00000000000E+00 -0.00000000000E+00  0.11368683772E-12  0.17120000000E+03  0.17120000000E+03 0.  0.
         13    1    1    2    0    0 -0.50041157442E+01 -0.15600363932E+02  0.14141849312E+02  0.21642910969E+02  0.10566000000E+00 0. -1.
        994    1    1    2    0    0  0.63749475299E+01  0.17194989197E+02  0.87373582684E+01  0.17240095429E+03  0.17120000000E+03 0.  0.
        998    1    1    2    0    0 -0.13708317857E+01 -0.15946252651E+01  0.14771207887E+04  0.14771561347E+04  0.10000000000E+02 0. -1.
</event>
<event>
 5    1  0.1245771E-008  0.3834881E+03  0.7957747E-01  0.3436110E+00
         13   -1    0    0    0    0  0.00000000000E+00  0.00000000000E+00  0.14999999963E+04  0.15000000000E+04  0.10566000000E+00 0.  1.
        994   -1    0    0    0    0 -0.00000000000E+00 -0.00000000000E+00  0.11368683772E-12  0.17120000000E+03  0.17120000000E+03 0.  0.
         13    1    1    2    0    0 -0.12151327289E+02 -0.44779287377E+01  0.35265698623E+02  0.37568434411E+02  0.10566000000E+00 0.  1.
        994    1    1    2    0    0  0.11264425921E+01  0.61965781497E+01  0.25137479499E+01  0.17133425047E+03  0.17120000000E+03 0.  0.
        998    1    1    2    0    0  0.11024884697E+02 -0.17186494120E+01  0.14622205497E+04  0.14622973151E+04  0.10000000000E+02 0.  1.
</event>
<event>
 5    1  0.1245771E-008  0.3780331E+03  0.7957747E-01  0.3459768E+00
         13   -1    0    0    0    0  0.00000000000E+00  0.00000000000E+00  0.14999999963E+04  0.15000000000E+04  0.10566000000E+00 0.  1.
        994   -1    0    0    0    0 -0.00000000000E+00 -0.00000000000E+00  0.11368683772E-12  0.17120000000E+03  0.17120000000E+03 0.  0.
         13    1    1    2    0    0  0.13233255789E+02  0.41383038015E+02  0.21692387559E+03  0.22123212664E+03  0.10566000000E+00 0.  1.
        994    1    1    2    0    0 -0.37609640917E+01  0.15622580876E+00  0.51770119321E+01  0.17131961566E+03  0.17120000000E+03 0.  0.
        998    1    1    2    0    0 -0.94722916972E+01 -0.41539263824E+02  0.12778991088E+04  0.12786482577E+04  0.10000000000E+02 0.  1.
</event>
<event>
 5    1  0.1245771E-008  0.3838068E+03  0.7957747E-01  0.3434748E+00
         13   -1    0    0    0    0  0.00000000000E+00  0.00000000000E+00  0.14999999963E+04  0.15000000000E+04  0.10566000000E+00 0.  1.
        994   -1    0    0    0    0 -0.00000000000E+00 -0.00000000000E+00  0.11368683772E-12  0.17120000000E+03  0.17120000000E+03 0.  0.
         13    1    1    2    0    0  0.23550544375E+02  0.28124106049E+02  0.21448312552E+03  0.21759737080E+03  0.10566000000E+00 0.  1.
        994    1    1    2    0    0 -0.21473748786E+02 -0.57564598562E+02  0.14787100515E+02  0.18249083055E+03  0.17120000000E+03 0.  0.
        998    1    1    2    0    0 -0.20767955888E+01  0.29440492513E+02  0.12707297702E+04  0.12711117986E+04  0.10000000000E+02 0.  1.
</event>
<event>
 5    1  0.1245771E-008  0.3776283E+03  0.7957747E-01  0.3461551E+00
         13   -1    0    0    0    0  0.00000000000E+00  0.00000000000E+00  0.14999999963E+04  0.15000000000E+04  0.10566000000E+00 0.  1.
        994   -1    0    0    0    0 -0.00000000000E+00 -0.00000000000E+00  0.11368683772E-12  0.17120000000E+03  0.17120000000E+03 0.  0.
         13    1    1    2    0    0 -0.29222214814E+02  0.44368586395E+01  0.80351769878E+02  0.85615662351E+02  0.10566000000E+00 0.  1.
        994    1    1    2    0    0  0.18082666321E+02  0.46779418068E+01  0.65114943169E+01  0.17233892630E+03  0.17120000000E+03 0.  0.
        998    1    1    2    0    0  0.11139548493E+02 -0.91148004464E+01  0.14131367321E+04  0.14132454113E+04  0.10000000000E+02 0.  1.
</event>
<event>
 5    1  0.1245771E-008  0.3735461E+03  0.7957747E-01  0.3479751E+00
         13   -1    0    0    0    0  0.00000000000E+00  0.00000000000E+00  0.14999999963E+04  0.15000000000E+04  0.10566000000E+00 0. -1.
        994   -1    0    0    0    0 -0.00000000000E+00 -0.00000000000E+00  0.11368683772E-12  0.17120000000E+03  0.17120000000E+03 0.  0.
         13    1    1    2    0    0 -0.20885053031E+02  0.52648853890E+02  0.19108938781E+03  0.19930693052E+03  0.10566000000E+00 0. -1.
        994    1    1    2    0    0  0.22077474161E+02 -0.48423771480E+02  0.17164624052E+02  0.18010091846E+03  0.17120000000E+03 0.  0.
        998    1    1    2    0    0 -0.11924211303E+01 -0.42250824104E+01  0.12917459844E+04  0.12917921510E+04  0.10000000000E+02 0. -1.
</event>
<event>
 5    1  0.1245771E-008  0.3769075E+03  0.7957747E-01  0.3464736E+00
         13   -1    0    0    0    0  0.00000000000E+00  0.00000000000E+00  0.14999999963E+04  0.15000000000E+04  0.10566000000E+00 0.  1.
        994   -1    0    0    0    0 -0.00000000000E+00 -0.00000000000E+00  0.11368683772E-12  0.17120000000E+03  0.17120000000E+03 0.  0.
         13    1    1    2    0    0 -0.28063662194E+02  0.20460997069E+02  0.11431138545E+03  0.11947102386E+03  0.10566000000E+00 0.  1.
        994    1    1    2    0    0  0.84617164956E+01  0.97043960122E+01  0.62625512211E+01  0.17179765859E+03  0.17120000000E+03 0.  0.
        998    1    1    2    0    0  0.19601945698E+02 -0.30165393081E+02  0.13794260596E+04  0.13799313175E+04  0.10000000000E+02 0.  1.
</event>
<event>
 5    1  0.1245771E-008  0.3837330E+03  0.7957747E-01  0.3435064E+00
         13   -1    0    0    0    0  0.00000000000E+00  0.00000000000E+00  0.14999999963E+04  0.15000000000E+04  0.10566000000E+00 0. -1.
        994   -1    0    0    0    0 -0.00000000000E+00 -0.00000000000E+00  0.11368683772E-12  0.17120000000E+03  0.17120000000E+03 0.  0.
         13    1    1    2    0    0  0.15098902650E+02  0.24925653753E+01  0.50211921160E+02  0.52492265469E+02  0.10566000000E+00 0. -1.
        994    1    1    2    0    0 -0.14822198910E+02  0.16502491911E+01  0.29953254146E+01  0.17187446837E+03  0.17120000000E+03 0.  0.
        998    1    1    2    0    0 -0.27670374060E+00 -0.41428145664E+01  0.14467927497E+04  0.14468332662E+04  0.10000000000E+02 0. -1.
</event>
<event>
 5    1  0.1245771E-008  0.3835816E+03  0.7957747E-01  0.3435710E+00
         13   -1    0    0    0    0  0.00000000000E+00  0.00000000000E+00  0.14999999963E+04  0.15000000000E+04  0.10566000000E+00 0.  1.
        994   -1    0    0    0    0 -0.00000000000E+00 -0.00000000000E+00  0.11368683772E-12  0.17120000000E+03  0.17120000000E+03 0.  0.
         13    1    1    2    0    0 -0.15634140477E+02 -0.13587376951E+02  0.92071099780E+02  0.94372356862E+02  0.10566000000E+00 0.  1.
        994    1    1    2    0    0  0.11216665107E+02  0.48876032250E+01  0.28307117846E+01  0.17165999875E+03  0.17120000000E+03 0.  0.
        998    1    1    2    0    0  0.44174753693E+01  0.86997737258E+01  0.14050981847E+04  0.14051676444E+04  0.10000000000E+02 0.  1.
</event>
<event>
 5    1  0.1245771E-008  0.3810310E+03  0.7957747E-01  0.3446682E+00
         13   -1    0    0    0    0  0.00000000000E+00  0.00000000000E+00  0.14999999963E+04  0.15000000000E+04  0.10566000000E+00 0.  1.
        994   -1    0    0    0    0 -0.00000000000E+00 -0.00000000000E+00  0.11368683772E-12  0.17120000000E+03  0.17120000000E+03 0.  0.
         13    1    1    2    0    0 -0.22506933096E+02 -0.83615858538E+00  0.64834746162E+02  0.68635389359E+02  0.10566000000E+00 0.  1.
        994    1    1    2    0    0  0.28147368685E+02  0.11495238642E+01  0.62620294574E+01  0.17361523200E+03  0.17120000000E+03 0.  0.
        998    1    1    2    0    0 -0.56404355893E+01 -0.31336527881E+00  0.14289032207E+04  0.14289493786E+04  0.10000000000E+02 0.  1.
</event>
<event>
 5    1  0.1245771E-008  0.3816590E+03  0.7957747E-01  0.3443967E+00
         13   -1    0    0    0    0  0.00000000000E+00  0.00000000000E+00  0.14999999963E+04  0.15000000000E+04  0.10566000000E+00 0.  1.
        994   -1    0    0    0    0 -0.00000000000E+00 -0.00000000000E+00  0.11368683772E-12  0.17120000000E+03  0.17120000000E+03 0.  0.
         13    1    1    2    0    0 -0.20112699035E+02  0.95948022111E+01  0.73767137260E+02  0.77059604175E+02  0.10566000000E+00 0.  1.
        994    1    1    2    0    0  0.20834659402E+02  0.79107605370E+01  0.49510437286E+01  0.17271541911E+03  0.17120000000E+03 0.  0.
        998    1    1    2    0    0 -0.72196036664E+00 -0.17505562748E+02  0.14212818153E+04  0.14214249767E+04  0.10000000000E+02 0.  1.
</event>
<event>
 5    1  0.1245771E-008  0.3821183E+03  0.7957747E-01  0.3441986E+00
         13   -1    0    0    0    0  0.00000000000E+00  0.00000000000E+00  0.14999999963E+04  0.15000000000E+04  0.10566000000E+00 0.  1.
        994   -1    0    0    0    0 -0.00000000000E+00 -0.00000000000E+00  0.11368683772E-12  0.17120000000E+03  0.17120000000E+03 0.  0.
         13    1    1    2    0    0 -0.25176016227E+02  0.16781333225E+02  0.16042683725E+03  0.16325509551E+03  0.10566000000E+00 0.  1.
        994    1    1    2    0    0  0.86972090050E+01 -0.53889357193E+00  0.33197377185E+01  0.17145376202E+03  0.17120000000E+03 0.  0.
        998    1    1    2    0    0  0.16478807222E+02 -0.16242439653E+02  0.13362534213E+04  0.13364911425E+04  0.10000000000E+02 0.  1.
</event>
<event>
 5    1  0.1245771E-008  0.3758061E+03  0.7957747E-01  0.3469626E+00
         13   -1    0    0    0    0  0.00000000000E+00  0.00000000000E+00  0.14999999963E+04  0.15000000000E+04  0.10566000000E+00 0.  1.
        994   -1    0    0    0    0 -0.00000000000E+00 -0.00000000000E+00  0.11368683772E-12  0.17120000000E+03  0.17120000000E+03 0.  0.
         13    1    1    2    0    0 -0.70653999677E+02 -0.68054287859E+02  0.34142472916E+03  0.35523827301E+03  0.10566000000E+00 0.  1.
        994    1    1    2    0    0  0.46099501653E+02  0.33251424240E+02  0.25663630144E+02  0.18220560688E+03  0.17120000000E+03 0.  0.
        998    1    1    2    0    0  0.24554498024E+02  0.34802863619E+02  0.11329116370E+04  0.11337561201E+04  0.10000000000E+02 0.  1.
</event>
<event>
 5    1  0.1245771E-008  0.3724781E+03  0.7957747E-01  0.3484579E+00
         13   -1    0    0    0    0  0.00000000000E+00  0.00000000000E+00  0.14999999963E+04  0.15000000000E+04  0.10566000000E+00 0.  1.
        994   -1    0    0    0    0 -0.00000000000E+00 -0.00000000000E+00  0.11368683772E-12  0.17120000000E+03  0.17120000000E+03 0.  0.
         13    1    1    2    0    0 -0.22633911259E+03  0.62769001327E+02  0.11694057682E+04  0.11927611678E+04  0.10566000000E+00 0.  1.
        994    1    1    2    0    0  0.22252477580E+03 -0.46667261614E+02  0.20349687511E+03  0.34987930395E+03  0.17120000000E+03 0.  0.
        998    1    1    2    0    0  0.38143367890E+01 -0.16101739713E+02  0.12709735295E+03  0.12855952828E+03  0.10000000000E+02 0.  0.
</event>
<event>
 5    1  0.1245771E-008  0.3739873E+03  0.7957747E-01  0.3477764E+00
         13   -1    0    0    0    0  0.00000000000E+00  0.00000000000E+00  0.14999999963E+04  0.15000000000E+04  0.10566000000E+00 0.  1.
        994   -1    0    0    0    0 -0.00000000000E+00 -0.00000000000E+00  0.11368683772E-12  0.17120000000E+03  0.17120000000E+03 0.  0.
         13    1    1    2    0    0 -0.45399156243E+02  0.24912975865E+02  0.11384024985E+03  0.12506539651E+03  0.10566000000E+00 0.  1.
        994    1    1    2    0    0 -0.93433206261E+01  0.10257421710E+01  0.13376234683E+02  0.17197881684E+03  0.17120000000E+03 0.  0.
        998    1    1    2    0    0  0.54742476870E+02 -0.25938718036E+02  0.13727835117E+04  0.13741557866E+04  0.10000000000E+02 0.  1.
</event>
<event>
 5    1  0.1245771E-008  0.3781345E+03  0.7957747E-01  0.3459322E+00
         13   -1    0    0    0    0  0.00000000000E+00  0.00000000000E+00  0.14999999963E+04  0.15000000000E+04  0.10566000000E+00 0.  1.
        994   -1    0    0    0    0 -0.00000000000E+00 -0.00000000000E+00  0.11368683772E-12  0.17120000000E+03  0.17120000000E+03 0.  0.
         13    1    1    2    0    0  0.79180613812E+02  0.67413303382E+02  0.54454094156E+03  0.55438161159E+03  0.10566000000E+00 0.  1.
        994    1    1    2    0    0 -0.96299585458E+02 -0.70280694022E+02  0.54479839669E+02  0.21561650921E+03  0.17120000000E+03 0.  0.
        998    1    1    2    0    0  0.17118971646E+02  0.28673906398E+01  0.90097921505E+03  0.90120187920E+03  0.10000000000E+02 0.  1.
</event>
<event>
 5    1  0.1671345E-008  0.3859455E+03  0.7957747E-01  0.3425672E+00
         13   -1    0    0    0    0  0.00000000000E+00  0.00000000000E+00  0.14999999963E+04  0.15000000000E+04  0.10566000000E+00 0. -1.
        994   -1    0    0    0    0 -0.00000000000E+00 -0.00000000000E+00  0.11368683772E-12  0.17120000000E+03  0.17120000000E+03 0.  0.
         13    1    1    2    0    0 -0.61334292803E+00 -0.10607644910E+02  0.49408740053E+02  0.50538431691E+02  0.10566000000E+00 0. -1.
        994    1    1    2    0    0  0.30930733894E+01  0.61171778607E+01  0.13154886365E+01  0.17134222328E+03  0.17120000000E+03 0.  0.
        998    1    1    2    0    0 -0.24797304614E+01  0.44904670489E+01  0.14492757676E+04  0.14493193450E+04  0.10000000000E+02 0. -1.
</event>
<event>
 5    1  0.1245771E-008  0.3849750E+03  0.7957747E-01  0.3429778E+00
         13   -1    0    0    0    0  0.00000000000E+00  0.00000000000E+00  0.14999999963E+04  0.15000000000E+04  0.10566000000E+00 0.  1.
        994   -1    0    0    0    0 -0.00000000000E+00 -0.00000000000E+00  0.11368683772E-12  0.17120000000E+03  0.17120000000E+03 0.  0.
         13    1    1    2    0    0 -0.42363319505E+00  0.16906098889E+02  0.99332051126E+02  0.10076141717E+03  0.10566000000E+00 0.  1.
        994    1    1    2    0    0 -0.51772468104E+01  0.53478832198E+01  0.18247675498E+01  0.17137144895E+03  0.17120000000E+03 0.  0.
        998    1    1    2    0    0  0.56008800055E+01 -0.22253982108E+02  0.13988431776E+04  0.13990671339E+04  0.10000000000E+02 0.  1.
</event>
<event>
 5    1  0.1245771E-008  0.3844323E+03  0.7957747E-01  0.3432084E+00
         13   -1    0    0    0    0  0.00000000000E+00  0.00000000000E+00  0.14999999963E+04  0.15000000000E+04  0.10566000000E+00 0.  1.
        994   -1    0    0    0    0 -0.00000000000E+00 -0.00000000000E+00  0.11368683772E-12  0.17120000000E+03  0.17120000000E+03 0.  0.
         13    1    1    2    0    0  0.11001318975E+00  0.16288497795E+02  0.67064059607E+02  0.69013958866E+02  0.10566000000E+00 0.  1.
        994    1    1    2    0    0  0.21264039635E+01 -0.15734126975E+02  0.27432458517E+01  0.17195653446E+03  0.17120000000E+03 0.  0.
        998    1    1    2    0    0 -0.22364171533E+01 -0.55437081908E+00  0.14301926908E+04  0.14302295067E+04  0.10000000000E+02 0.  1.
</event>
<event>
 5    1  0.1245771E-008  0.3827958E+03  0.7957747E-01  0.3439075E+00
         13   -1    0    0    0    0  0.00000000000E+00  0.00000000000E+00  0.14999999963E+04  0.15000000000E+04  0.10566000000E+00 0. -1.
        994   -1    0    0    0    0 -0.00000000000E+00 -0.00000000000E+00  0.11368683772E-12  0.17120000000E+03  0.17120000000E+03 0.  0.
         13    1    1    2    0    0  0.17497282843E+02  0.58207935050E+01  0.61536894405E+02  0.64240462958E+02  0.10566000000E+00 0. -1.
        994    1    1    2    0    0 -0.93247365389E+01 -0.93802762723E+01  0.33081136945E+01  0.17174202721E+03  0.17120000000E+03 0.  0.
        998    1    1    2    0    0 -0.81725463045E+01  0.35594827674E+01  0.14351549882E+04  0.14352175098E+04  0.10000000000E+02 0. -1.
</event>
<event>
 5    1  0.1245771E-008  0.3823117E+03  0.7957747E-01  0.3441154E+00
         13   -1    0    0    0    0  0.00000000000E+00  0.00000000000E+00  0.14999999963E+04  0.15000000000E+04  0.10566000000E+00 0. -1.
        994   -1    0    0    0    0 -0.00000000000E+00 -0.00000000000E+00  0.11368683772E-12  0.17120000000E+03  0.17120000000E+03 0.  0.
         13    1    1    2    0    0  0.43164991516E+01 -0.11583442431E+02  0.26928839238E+02  0.29630758515E+02  0.10566000000E+00 0. -1.
        994    1    1    2    0    0 -0.27096430698E+02 -0.29876094208E+02  0.83865926142E+01  0.17608683227E+03  0.17120000000E+03 0.  0.
        998    1    1    2    0    0  0.22779931547E+02  0.41459536639E+02  0.14646845644E+04  0.14654824092E+04  0.10000000000E+02 0. -1.
</event>
<event>
 5    1  0.1245771E-008  0.3709223E+03  0.7957747E-01  0.3491663E+00
         13   -1    0    0    0    0  0.00000000000E+00  0.00000000000E+00  0.14999999963E+04  0.15000000000E+04  0.10566000000E+00 0.  1.
        994   -1    0    0    0    0 -0.00000000000E+00 -0.00000000000E+00  0.11368683772E-12  0.17120000000E+03  0.17120000000E+03 0.  0.
         13    1    1    2    0    0 -0.40690956113E+01  0.49194288348E+02  0.15856239273E+03  0.16606829649E+03  0.10566000000E+00 0.  1.
        994    1    1    2    0    0 -0.32705267133E+02 -0.56922134867E+00  0.12484542698E+02  0.17474341852E+03  0.17120000000E+03 0.  0.
        998    1    1    2    0    0  0.36774362744E+02 -0.48625066999E+02  0.13289530608E+04  0.13303882850E+04  0.10000000000E+02 0.  1.
</event>
<event>
 5    1  0.1245771E-008  0.3825576E+03  0.7957747E-01  0.3440097E+00
         13   -1    0    0    0    0  0.00000000000E+00  0.00000000000E+00  0.14999999963E+04  0.15000000000E+04  0.10566000000E+00 0.  1.
        994   -1    0    0    0    0 -0.00000000000E+00 -0.00000000000E+00  0.11368683772E-12  0.17120000000E+03  0.17120000000E+03 0.  0.
         13    1    1    2    0    0  0.26839458552E+02 -0.20640047056E+00  0.13797316937E+03  0.14055961642E+03  0.10566000000E+00 0.  1.
        994    1    1    2    0    0 -0.32717913736E+01  0.54881886039E+01  0.29829794063E+01  0.17134515750E+03  0.17120000000E+03 0.  0.
        998    1    1    2    0    0 -0.23567667179E+02 -0.52817881333E+01  0.13590438475E+04  0.13592952261E+04  0.10000000000E+02 0.  1.
</event>
<event>
 5    1  0.1245771E-008  0.3768116E+03  0.7957747E-01  0.3465160E+00
         13   -1    0    0    0    0  0.00000000000E+00  0.00000000000E+00  0.14999999963E+04  0.15000000000E+04  0.10566000000E+00 0.  1.
        994   -1    0    0    0    0 -0.00000000000E+00 -0.00000000000E+00  0.11368683772E-12  0.17120000000E+03  0.17120000000E+03 0.  0.
         13    1    1    2    0    0  0.22065004425E+01 -0.31093942805E+02  0.27136645793E+02  0.41329295086E+02  0.10566000000E+00 0.  1.
        994    1    1    2    0    0 -0.29649851381E+01  0.26785715045E+02  0.17192352076E+02  0.17415878570E+03  0.17120000000E+03 0.  0.
        998    1    1    2    0    0  0.75848469560E+00  0.43082277602E+01  0.14556709984E+04  0.14557119192E+04  0.10000000000E+02 0.  1.
</event>
<event>
 5    1  0.1245771E-008  0.3685305E+03  0.7957747E-01  0.3502672E+00
         13   -1    0    0    0    0  0.00000000000E+00  0.00000000000E+00  0.14999999963E+04  0.15000000000E+04  0.10566000000E+00 0.  1.
        994   -1    0    0    0    0 -0.00000000000E+00 -0.00000000000E+00  0.11368683772E-12  0.17120000000E+03  0.17120000000E+03 0.  0.
         13    1    1    2    0    0 -0.96394173490E+02 -0.48275818481E+02  0.63886770155E+03  0.64789994798E+03  0.10566000000E+00 0.  1.
        994    1    1    2    0    0  0.47315281420E+02  0.26608476387E+02  0.20350877022E+02  0.18074939852E+03  0.17120000000E+03 0.  0.
        998    1    1    2    0    0  0.49078892070E+02  0.21667342094E+02  0.84078141770E+03  0.84255065350E+03  0.10000000000E+02 0.  1.
</event>
<event>
 5    1  0.1245771E-008  0.3699471E+03  0.7957747E-01  0.3496134E+00
         13   -1    0    0    0    0  0.00000000000E+00  0.00000000000E+00  0.14999999963E+04  0.15000000000E+04  0.10566000000E+00 0. -1.
        994   -1    0    0    0    0 -0.00000000000E+00 -0.00000000000E+00  0.11368683772E-12  0.17120000000E+03  0.17120000000E+03 0.  0.
         13    1    1    2    0    0 -0.15259218176E+02 -0.12988856618E+01  0.83741000336E+01  0.17454728835E+02  0.10566000000E+00 0. -1.
        994    1    1    2    0    0  0.14096237871E+02  0.52812266863E+00  0.99851473996E+01  0.17207011944E+03  0.17120000000E+03 0.  0.
        998    1    1    2    0    0  0.11629803046E+01  0.77076299320E+00  0.14816407488E+04  0.14816751517E+04  0.10000000000E+02 0. -1.
</event>
<event>
 5    1  0.1245771E-008  0.3857071E+03  0.7957747E-01  0.3426679E+00
         13   -1    0    0    0    0  0.00000000000E+00  0.00000000000E+00  0.14999999963E+04  0.15000000000E+04  0.10566000000E+00 0.  1.
        994   -1    0    0    0    0 -0.00000000000E+00 -0.00000000000E+00  0.11368683772E-12  0.17120000000E+03  0.17120000000E+03 0.  0.
         13    1    1    2    0    0 -0.16865444217E+01 -0.13594302266E+02  0.69628536584E+02  0.70963326846E+02  0.10566000000E+00 0.  1.
        994    1    1    2    0    0  0.99866713524E+01  0.16173318532E+02  0.24658987956E+01  0.17226964473E+03  0.17120000000E+03 0.  0.
        998    1    1    2    0    0 -0.83001269307E+01 -0.25790162654E+01  0.14279055609E+04  0.14279670284E+04  0.10000000000E+02 0.  1.
</event>
<event>
 5    1  0.1245771E-008  0.3780087E+03  0.7957747E-01  0.3459875E+00
         13   -1    0    0    0    0  0.00000000000E+00  0.00000000000E+00  0.14999999963E+04  0.15000000000E+04  0.10566000000E+00 0.  1.
        994   -1    0    0    0    0 -0.00000000000E+00 -0.00000000000E+00  0.11368683772E-12  0.17120000000E+03  0.17120000000E+03 0.  0.
         13    1    1    2    0    0 -0.26137379754E+02 -0.22928911678E+02  0.10348722011E+03  0.10917194466E+03  0.10566000000E+00 0.  1.
        994    1    1    2    0    0  0.35153125995E+02  0.27721611059E+02  0.11915910765E+02  0.17735743265E+03  0.17120000000E+03 0.  0.
        998    1    1    2    0    0 -0.90157462411E+01 -0.47926993812E+01  0.13845968654E+04  0.13846706227E+04  0.10000000000E+02 0.  1.
</event>
<event>
 5    1  0.1245771E-008  0.3842416E+03  0.7957747E-01  0.3432895E+00
         13   -1    0    0    0    0  0.00000000000E+00  0.00000000000E+00  0.14999999963E+04  0.15000000000E+04  0.10566000000E+00 0. -1.
        994   -1    0    0    0    0 -0.00000000000E+00 -0.00000000000E+00  0.11368683772E-12  0.17120000000E+03  0.17120000000E+03 0.  0.
         13    1    1    2    0    0 -0.14083782746E+02 -0.53553944457E+00  0.49272829349E+02  0.51249025503E+02  0.10566000000E+00 0. -1.
        994    1    1    2    0    0  0.88237885425E+01 -0.33830146346E+01  0.23016302838E+01  0.17147606694E+03  0.17120000000E+03 0.  0.
        998    1    1    2    0    0  0.52599942038E+01  0.39185540792E+01  0.14484255366E+04  0.14484749076E+04  0.10000000000E+02 0. -1.
</event>
<event>
 5    1  0.1245771E-008  0.3790197E+03  0.7957747E-01  0.3455438E+00
         13   -1    0    0    0    0  0.00000000000E+00  0.00000000000E+00  0.14999999963E+04  0.15000000000E+04  0.10566000000E+00 0.  1.
        994   -1    0    0    0    0 -0.00000000000E+00 -0.00000000000E+00  0.11368683772E-12  0.17120000000E+03  0.17120000000E+03 0.  0.
         13    1    1    2    0    0  0.93464053424E+01  0.16103367948E+02  0.36145278463E+02  0.40659144990E+02  0.10566000000E+00 0.  1.
        994    1    1    2    0    0 -0.13664582815E+02 -0.11783272294E+01  0.52599212075E+01  0.17182903145E+03  0.17120000000E+03 0.  0.
        998    1    1    2    0    0  0.43181774726E+01 -0.14925040718E+02  0.14585947966E+04  0.14587118236E+04  0.10000000000E+02 0.  1.
</event>
<event>
 5    1  0.1245771E-008  0.3854999E+03  0.7957747E-01  0.3427555E+00
         13   -1    0    0    0    0  0.00000000000E+00  0.00000000000E+00  0.14999999963E+04  0.15000000000E+04  0.10566000000E+00 0.  1.
        994   -1    0    0    0    0 -0.00000000000E+00 -0.00000000000E+00  0.11368683772E-12  0.17120000000E+03  0.17120000000E+03 0.  0.
         13    1    1    2    0    0 -0.11741849634E+02  0.10139751206E+02  0.92837926680E+02  0.94125328056E+02  0.10566000000E+00 0.  1.
        994    1    1    2    0    0  0.85786297774E+01  0.52249401730E+01  0.17134835591E+01  0.17150297057E+03  0.17120000000E+03 0.  0.
        998    1    1    2    0    0  0.31632198570E+01 -0.15364691379E+02  0.14054485860E+04  0.14055717014E+04  0.10000000000E+02 0.  1.
</event>
<event>
 5    1  0.1245771E-008  0.3786815E+03  0.7957747E-01  0.3456920E+00
         13   -1    0    0    0    0  0.00000000000E+00  0.00000000000E+00  0.14999999963E+04  0.15000000000E+04  0.10566000000E+00 0. -1.
        994   -1    0    0    0    0 -0.00000000000E+00 -0.00000000000E+00  0.11368683772E-12  0.17120000000E+03  0.17120000000E+03 0.  0.
         13    1    1    2    0    0 -0.20689140137E+02  0.26838759320E+02  0.11597301355E+03  0.12082264091E+03  0.10566000000E+00 0. -1.
        994    1    1    2    0    0  0.97374355771E+01 -0.22304769209E+02  0.67915044084E+01  0.17305457207E+03  0.17120000000E+03 0.  0.
        998    1    1    2    0    0  0.10951704560E+02 -0.45339901106E+01  0.13772354783E+04  0.13773227870E+04  0.10000000000E+02 0. -1.
</event>
<event>
 5    1  0.1245771E-008  0.3825584E+03  0.7957747E-01  0.3440094E+00
         13   -1    0    0    0    0  0.00000000000E+00  0.00000000000E+00  0.14999999963E+04  0.15000000000E+04  0.10566000000E+00 0. -1.
        994   -1    0    0    0    0 -0.00000000000E+00 -0.00000000000E+00  0.11368683772E-12  0.17120000000E+03  0.17120000000E+03 0.  0.
         13    1    1    2    0    0  0.53404088170E+01 -0.15030390478E+02  0.41942258338E+02  0.44873118933E+02  0.10566000000E+00 0. -1.
        994    1    1    2    0    0 -0.13904295233E+02  0.17423337880E+02  0.44961201112E+01  0.17270366882E+03  0.17120000000E+03 0.  0.
        998    1    1    2    0    0  0.85638864156E+01 -0.23929474021E+01  0.14535616178E+04  0.14536232122E+04  0.10000000000E+02 0. -1.
</event>
<event>
 5    1  0.1245771E-008  0.3707442E+03  0.7957747E-01  0.3492478E+00
         13   -1    0    0    0    0  0.00000000000E+00  0.00000000000E+00  0.14999999963E+04  0.15000000000E+04  0.10566000000E+00 0.  1.
        994   -1    0    0    0    0 -0.00000000000E+00 -0.00000000000E+00  0.11368683772E-12  0.17120000000E+03  0.17120000000E+03 0.  0.
         13    1    1    2    0    0  0.47436593910E+02 -0.26390377525E+02  0.20139577106E+03  0.20858319738E+03  0.10566000000E+00 0.  1.
        994    1    1    2    0    0  0.22418465556E+02  0.28976507806E+02  0.13523797474E+02  0.17559771838E+03  0.17120000000E+03 0.  0.
        998    1    1    2    0    0 -0.69855059466E+02 -0.25861302810E+01  0.12850804277E+04  0.12870190842E+04  0.10000000000E+02 0.  1.
</event>
<event>
 5    1  0.1245771E-008  0.3836733E+03  0.7957747E-01  0.3435318E+00
         13   -1    0    0    0    0  0.00000000000E+00  0.00000000000E+00  0.14999999963E+04  0.15000000000E+04  0.10566000000E+00 0.  1.
        994   -1    0    0    0    0 -0.00000000000E+00 -0.00000000000E+00  0.11368683772E-12  0.17120000000E+03  0.17120000000E+03 0.  0.
         13    1    1    2    0    0  0.95285183766E+01  0.89185780289E+01  0.36421602541E+02  0.38689507520E+02  0.10566000000E+00 0.  1.
        994    1    1    2    0    0 -0.10239642016E+02 -0.31341225222E+01  0.26690975928E+01  0.17155534697E+03  0.17120000000E+03 0.  0.
        998    1    1    2    0    0  0.71112363944E+00 -0.57844555067E+01  0.14609092961E+04  0.14609551455E+04  0.10000000000E+02 0.  1.
</event>
<event>
 5    1  0.1245771E-008  0.3755206E+03  0.7957747E-01  0.3470898E+00
         13   -1    0    0    0    0  0.00000000000E+00  0.00000000000E+00  0.14999999963E+04  0.15000000000E+04  0.10566000000E+00 0.  1.
        994   -1    0    0    0    0 -0.00000000000E+00 -0.00000000000E+00  0.11368683772E-12  0.17120000000E+03  0.17120000000E+03 0.  0.
         13    1    1    2    0    0  0.32980348156E+02  0.38598406780E+02  0.17116522220E+03  0.17853594828E+03  0.10566000000E+00 0.  1.
        994    1    1    2    0    0 -0.68428068987E+02 -0.18034102366E+02  0.23597814494E+02  0.18674561929E+03  0.17120000000E+03 0.  0.
        998    1    1    2    0    0  0.35447720831E+02 -0.20564304414E+02  0.13052369596E+04  0.13059184324E+04  0.10000000000E+02 0.  1.
</event>
<event>
 5    1  0.1245771E-008  0.3844420E+03  0.7957747E-01  0.3432042E+00
         13   -1    0    0    0    0  0.00000000000E+00  0.00000000000E+00  0.14999999963E+04  0.15000000000E+04  0.10566000000E+00 0.  1.
        994   -1    0    0    0    0 -0.00000000000E+00 -0.00000000000E+00  0.11368683772E-12  0.17120000000E+03  0.17120000000E+03 0.  0.
         13    1    1    2    0    0 -0.46908339014E+00 -0.10854094425E+02  0.30112789089E+02  0.32012851104E+02  0.10566000000E+00 0.  1.
        994    1    1    2    0    0  0.15437576369E+01  0.10466184738E+02  0.22762443741E+01  0.17154167278E+03  0.17120000000E+03 0.  0.
        998    1    1    2    0    0 -0.10746742467E+01  0.38790968681E+00  0.14676109628E+04  0.14676454761E+04  0.10000000000E+02 0.  1.
</event>
<event>
 5    1  0.1245771E-008  0.3686388E+03  0.7957747E-01  0.3502170E+00
         13   -1    0    0    0    0  0.00000000000E+00  0.00000000000E+00  0.14999999963E+04  0.15000000000E+04  0.10566000000E+00 0. -1.
        994   -1    0    0    0    0 -0.00000000000E+00 -0.00000000000E+00  0.11368683772E-12  0.17120000000E+03  0.17120000000E+03 0.  0.
         13    1    1    2    0    0 -0.80304065947E+02 -0.48799033588E+02  0.48856517807E+03  0.49751988209E+03  0.10566000000E+00 0. -1.
        994    1    1    2    0    0  0.32477093226E+02  0.28541263508E+02  0.16504618350E+02  0.17734488359E+03  0.17120000000E+03 0.  0.
        998    1    1    2    0    0  0.47826972721E+02  0.20257770080E+02  0.99493019986E+03  0.99633523433E+03  0.10000000000E+02 0. -1.
</event>
<event>
 5    1  0.1245771E-008  0.3850489E+03  0.7957747E-01  0.3429465E+00
         13   -1    0    0    0    0  0.00000000000E+00  0.00000000000E+00  0.14999999963E+04  0.15000000000E+04  0.10566000000E+00 0. -1.
        994   -1    0    0    0    0 -0.00000000000E+00 -0.00000000000E+00  0.11368683772E-12  0.17120000000E+03  0.17120000000E+03 0.  0.
         13    1    1    2    0    0  0.16860293100E+02  0.53276723161E+01  0.10024676227E+03  0.10179429299E+03  0.10566000000E+00 0. -1.
        994    1    1    2    0    0 -0.50756222553E+01 -0.10028865549E+02  0.20213765323E+01  0.17158049437E+03  0.17120000000E+03 0.  0.
        998    1    1    2    0    0 -0.11784670845E+02  0.47011932327E+01  0.13977318575E+04  0.13978252126E+04  0.10000000000E+02 0. -1.
</event>
<event>
 5    1  0.1245771E-008  0.3861632E+03  0.7957747E-01  0.3424754E+00
         13   -1    0    0    0    0  0.00000000000E+00  0.00000000000E+00  0.14999999963E+04  0.15000000000E+04  0.10566000000E+00 0.  1.
        994   -1    0    0    0    0 -0.00000000000E+00 -0.00000000000E+00  0.11368683772E-12  0.17120000000E+03  0.17120000000E+03 0.  0.
         13    1    1    2    0    0 -0.67060912380E+01  0.78776323634E+01  0.51161904636E+02  0.52197513364E+02  0.10566000000E+00 0.  1.
        994    1    1    2    0    0 -0.22093847749E+01 -0.12581051271E+02  0.15884738029E+01  0.17168321840E+03  0.17120000000E+03 0.  0.
        998    1    1    2    0    0  0.89154760128E+01  0.47034189080E+01  0.14472496178E+04  0.14473192682E+04  0.10000000000E+02 0.  1.
</event>
<event>
 5    1  0.1245771E-008  0.3793606E+03  0.7957747E-01  0.3453947E+00
         13   -1    0    0    0    0  0.00000000000E+00  0.00000000000E+00  0.14999999963E+04  0.15000000000E+04  0.10566000000E+00 0.  1.
        994   -1    0    0    0    0 -0.00000000000E+00 -0.00000000000E+00  0.11368683772E-12  0.17120000000E+03  0.17120000000E+03 0.  0.
         13    1    1    2    0    0 -0.43550020332E+02 -0.94689408089E+02  0.32196066393E+03  0.33841005977E+03  0.10566000000E+00 0.  1.
        994    1    1    2    0    0  0.19152145293E+02  0.67464094220E+02  0.33978561390E+02  0.18810154522E+03  0.17120000000E+03 0.  0.
        998    1    1    2    0    0  0.24397875039E+02  0.27225313868E+02  0.11440607710E+04  0.11446883950E+04  0.10000000000E+02 0.  1.
</event>
<event>
 5    1  0.1245771E-008  0.3751601E+03  0.7957747E-01  0.3472507E+00
         13   -1    0    0    0    0  0.00000000000E+00  0.00000000000E+00  0.14999999963E+04  0.15000000000E+04  0.10566000000E+00 0. -1.
        994   -1    0    0    0    0 -0.00000000000E+00 -0.00000000000E+00  0.11368683772E-12  0.17120000000E+03  0.17120000000E+03 0.  0.
         13    1    1    2    0    0 -0.65555200145E+01 -0.30541069854E+02  0.81758263801E+02  0.87522320892E+02  0.10566000000E+00 0. -1.
        994    1    1    2    0    0  0.43635958698E+02 -0.23489740340E+02  0.14986100136E+02  0.17885717204E+03  0.17120000000E+03 0.  0.
        998    1    1    2    0    0 -0.37080438684E+02  0.54030810194E+02  0.14032556323E+04  0.14048205071E+04  0.10000000000E+02 0. -1.
</event>
<event>
 5    1  0.1245771E-008  0.3850015E+03  0.7957747E-01  0.3429666E+00
         13   -1    0    0    0    0  0.00000000000E+00  0.00000000000E+00  0.14999999963E+04  0.15000000000E+04  0.10566000000E+00 0.  1.
        994   -1    0    0    0    0 -0.00000000000E+00 -0.00000000000E+00  0.11368683772E-12  0.17120000000E+03  0.17120000000E+03 0.  0.
         13    1    1    2    0    0  0.56470702995E+02  0.79231737586E+02  0.21206257465E+03  0.23331771315E+03  0.10566000000E+00 0.  1.
        994    1    1    2    0    0 -0.56972864394E+02 -0.72253189450E+02  0.51074146578E+02  0.20095879954E+03  0.17120000000E+03 0.  0.
        998    1    1    2    0    0  0.50216139881E+00 -0.69785481364E+01  0.12368632750E+04  0.12369234873E+04  0.10000000000E+02 0.  1.
</event>
<event>
 5    1  0.1245771E-008  0.3812325E+03  0.7957747E-01  0.3445810E+00
         13   -1    0    0    0    0  0.00000000000E+00  0.00000000000E+00  0.14999999963E+04  0.15000000000E+04  0.10566000000E+00 0. -1.
        994   -1    0    0    0    0 -0.00000000000E+00 -0.00000000000E+00  0.11368683772E-12  0.17120000000E+03  0.17120000000E+03 0.  0.
         13    1    1    2    0    0 -0.36874671965E+02  0.20972211719E+02  0.22844103237E+03  0.23234649025E+03  0.10566000000E+00 0. -1.
        994    1    1    2    0    0  0.32056087442E+02 -0.19305721463E+02  0.81884816770E+01  0.17543316350E+03  0.17120000000E+03 0.  0.
        998    1    1    2    0    0  0.48185845228E+01 -0.16664902559E+01  0.12633704822E+04  0.12634203463E+04  0.10000000000E+02 0. -1.
</event>
<event>
 5    1  0.1245771E-008  0.3812814E+03  0.7957747E-01  0.3445598E+00
         13   -1    0    0    0    0  0.00000000000E+00  0.00000000000E+00  0.14999999963E+04  0.15000000000E+04  0.10566000000E+00 0.  1.
        994   -1    0    0    0    0 -0.00000000000E+00 -0.00000000000E+00  0.11368683772E-12  0.17120000000E+03  0.17120000000E+03 0.  0.
         13    1    1    2    0    0  0.10403459221E+02  0.15463079451E+02  0.50225690731E+02  0.53572100606E+02  0.10566000000E+00 0.  1.
        994    1    1    2    0    0 -0.12687160673E+02  0.38834045498E+01  0.40739344955E+01  0.17176170068E+03  0.17120000000E+03 0.  0.
        998    1    1    2    0    0  0.22837014524E+01 -0.19346484001E+02  0.14457003711E+04  0.14458661987E+04  0.10000000000E+02 0.  1.
</event>
<event>
 5    1  0.1245771E-008  0.3727417E+03  0.7957747E-01  0.3483385E+00
         13   -1    0    0    0    0  0.00000000000E+00  0.00000000000E+00  0.14999999963E+04  0.15000000000E+04  0.10566000000E+00 0.  1.
        994   -1    0    0    0    0 -0.00000000000E+00 -0.00000000000E+00  0.11368683772E-12  0.17120000000E+03  0.17120000000E+03 0.  0.
         13    1    1    2    0    0 -0.14127726737E+02  0.79536444192E+01  0.13430728117E+02  0.21053473445E+02  0.10566000000E+00 0.  1.
        994    1    1    2    0    0  0.69349484527E+01 -0.27863328311E+01  0.80343827491E+01  0.17155129981E+03  0.17120000000E+03 0.  0.
        998    1    1    2    0    0  0.71927782846E+01 -0.51673115881E+01  0.14785348854E+04  0.14785952267E+04  0.10000000000E+02 0.  1.
</event>
<event>
 5    1  0.1245771E-008  0.3830959E+03  0.7957747E-01  0.3437788E+00
         13   -1    0    0    0    0  0.00000000000E+00  0.00000000000E+00  0.14999999963E+04  0.15000000000E+04  0.10566000000E+00 0.  1.
        994   -1    0    0    0    0 -0.00000000000E+00 -0.00000000000E+00  0.11368683772E-12  0.17120000000E+03  0.17120000000E+03 0.  0.
         13    1    1    2    0    0 -0.21984663110E+02  0.52508067513E+01  0.99421469724E+02  0.10195850229E+03  0.10566000000E+00 0.  1.
        994    1    1    2    0    0  0.14438381526E+02  0.68614505506E+01  0.34245104859E+01  0.17197881741E+03  0.17120000000E+03 0.  0.
        998    1    1    2    0    0  0.75462815846E+01 -0.12112257302E+02  0.13971540161E+04  0.13972626803E+04  0.10000000000E+02 0.  1.
</event>
<event>
 5    1  0.1245771E-008  0.3817221E+03  0.7957747E-01  0.3443694E+00
         13   -1    0    0    0    0  0.00000000000E+00  0.00000000000E+00  0.14999999963E+04  0.15000000000E+04  0.10566000000E+00 0. -1.
        994   -1    0    0    0    0 -0.00000000000E+00 -0.00000000000E+00  0.11368683772E-12  0.17120000000E+03  0.17120000000E+03 0.  0.
         13    1    1    2    0    0  0.77651999788E+02  0.50242946520E+02  0.19582526480E+03  0.21656807762E+03  0.10566000000E+00 0. -1.
        994    1    1    2    0    0 -0.63123745140E+02 -0.10096996427E+03  0.71010239635E+02  0.22029851343E+03  0.17120000000E+03 0.  0.
        998    1    1    2    0    0 -0.14528254648E+02  0.50727017750E+02  0.12331644918E+04  0.12343334090E+04  0.10000000000E+02 0. -1.
</event>
<event>
 5    1  0.1245771E-008  0.3851402E+03  0.7957747E-01  0.3429078E+00
         13   -1    0    0    0    0  0.00000000000E+00  0.00000000000E+00  0.14999999963E+04  0.15000000000E+04  0.10566000000E+00 0.  1.
        994   -1    0    0    0    0 -0.00000000000E+00 -0.00000000000E+00  0.11368683772E-12  0.17120000000E+03  0.17120000000E+03 0.  0.
         13    1    1    2    0    0 -0.13283031807E+02 -0.78021258753E+00  0.56333904051E+02  0.57884087410E+02  0.10566000000E+00 0.  1.
        994    1    1    2    0    0  0.10037809815E+02  0.26255079786E+01  0.19144899401E+01  0.17152479759E+03  0.17120000000E+03 0.  0.
        998    1    1    2    0    0  0.32452219913E+01 -0.18452953911E+01  0.14417516023E+04  0.14417911150E+04  0.10000000000E+02 0.  1.
</event>
<event>
 5    1  0.1245771E-008  0.3825453E+03  0.7957747E-01  0.3440150E+00
         13   -1    0    0    0    0  0.00000000000E+00  0.00000000000E+00  0.14999999963E+04  0.15000000000E+04  0.10566000000E+00 0.  1.
        994   -1    0    0    0    0 -0.00000000000E+00 -0.00000000000E+00  0.11368683772E-12  0.17120000000E+03  0.17120000000E+03 0.  0.
         13    1    1    2    0    0  0.33592888320E+01 -0.17948325412E+02  0.54265822649E+02  0.57255723542E+02  0.10566000000E+00 0.  1.
        994    1    1    2    0    0  0.85797184746E+01  0.26960049851E+02  0.55118401152E+01  0.17360955112E+03  0.17120000000E+03 0.  0.
        998    1    1    2    0    0 -0.11939007307E+02 -0.90117244397E+01  0.14402223335E+04  0.14403347253E+04  0.10000000000E+02 0.  1.
</event>
<event>
 5    1  0.1245771E-008  0.3847632E+03  0.7957747E-01  0.3430677E+00
         13   -1    0    0    0    0  0.00000000000E+00  0.00000000000E+00  0.14999999963E+04  0.15000000000E+04  0.10566000000E+00 0. -1.
        994   -1    0    0    0    0 -0.00000000000E+00 -0.00000000000E+00  0.11368683772E-12  0.17120000000E+03  0.17120000000E+03 0.  0.
         13    1    1    2    0    0  0.11726562725E+02  0.74881008866E+01  0.55232671762E+02  0.56958257717E+02  0.10566000000E+00 0. -1.
        994    1    1    2    0    0 -0.97478825247E+01 -0.19602864085E+01  0.20732125881E+01  0.17150102666E+03  0.17120000000E+03 0.  0.
        998    1    1    2    0    0 -0.19786802001E+01 -0.55278144781E+01  0.14426941119E+04  0.14427407156E+04  0.10000000000E+02 0. -1.
</event>
<event>
 5    1  0.1245771E-008  0.3851452E+03  0.7957747E-01  0.3429057E+00
         13   -1    0    0    0    0  0.00000000000E+00  0.00000000000E+00  0.14999999963E+04  0.15000000000E+04  0.10566000000E+00 0. -1.
        994   -1    0    0    0    0 -0.00000000000E+00 -0.00000000000E+00  0.11368683772E-12  0.17120000000E+03  0.17120000000E+03 0.  0.
         13    1    1    2    0    0 -0.10087542055E+02  0.24142606987E+01  0.32493279414E+02  0.34108818955E+02  0.10566000000E+00 0. -1.
        994    1    1    2    0    0  0.19031474657E+02 -0.36335238130E+01  0.27930111727E+01  0.17231552581E+03  0.17120000000E+03 0.  0.
        998    1    1    2    0    0 -0.89439326021E+01  0.12192631142E+01  0.14647137057E+04  0.14647756552E+04  0.10000000000E+02 0. -1.
</event>
<event>
 5    1  0.1245771E-008  0.3840400E+03  0.7957747E-01  0.3433754E+00
         13   -1    0    0    0    0  0.00000000000E+00  0.00000000000E+00  0.14999999963E+04  0.15000000000E+04  0.10566000000E+00 0.  1.
        994   -1    0    0    0    0 -0.00000000000E+00 -0.00000000000E+00  0.11368683772E-12  0.17120000000E+03  0.17120000000E+03 0.  0.
         13    1    1    2    0    0  0.96617250142E+01  0.61827092360E+01  0.31123044941E+02  0.33169713809E+02  0.10566000000E+00 0.  1.
        994    1    1    2    0    0  0.35425426668E+00 -0.79710188735E+01  0.23175481190E+01  0.17140149844E+03  0.17120000000E+03 0.  0.
        998    1    1    2    0    0 -0.10015979281E+02  0.17883096374E+01  0.14665594032E+04  0.14666287878E+04  0.10000000000E+02 0.  1.
</event>
<event>
 5    1  0.1245771E-008  0.3843127E+03  0.7957747E-01  0.3432592E+00
         13   -1    0    0    0    0  0.00000000000E+00  0.00000000000E+00  0.14999999963E+04  0.15000000000E+04  0.10566000000E+00 0.  1.
        994   -1    0    0    0    0 -0.00000000000E+00 -0.00000000000E+00  0.11368683772E-12  0.17120000000E+03  0.17120000000E+03 0.  0.
         13    1    1    2    0    0  0.10118650439E+02 -0.62746069003E+01  0.34934113588E+02  0.36907468549E+02  0.10566000000E+00 0.  1.
        994    1    1    2    0    0 -0.11622820529E+02  0.36868543901E+01  0.24619434064E+01  0.17165134435E+03  0.17120000000E+03 0.  0.
        998    1    1    2    0    0  0.15041700901E+01  0.25877525102E+01  0.14626039393E+04  0.14626411871E+04  0.10000000000E+02 0.  1.
</event>
<event>
 5    1  0.1245771E-008  0.3846352E+03  0.7957747E-01  0.3431221E+00
         13   -1    0    0    0    0  0.00000000000E+00  0.00000000000E+00  0.14999999963E+04  0.15000000000E+04  0.10566000000E+00 0.  1.
        994   -1    0    0    0    0 -0.00000000000E+00 -0.00000000000E+00  0.11368683772E-12  0.17120000000E+03  0.17120000000E+03 0.  0.
         13    1    1    2    0    0  0.59967195161E+01 -0.13230299304E+02  0.53445255446E+02  0.55384185092E+02  0.10566000000E+00 0.  1.
        994    1    1    2    0    0 -0.82087406345E+01  0.23590764429E+02  0.38682822973E+01  0.17305580371E+03  0.17120000000E+03 0.  0.
        998    1    1    2    0    0  0.22120211183E+01 -0.10360465125E+02  0.14426864585E+04  0.14427600112E+04  0.10000000000E+02 0.  1.
</event>
<event>
 5    1  0.1245771E-008  0.3831004E+03  0.7957747E-01  0.3437769E+00
         13   -1    0    0    0    0  0.00000000000E+00  0.00000000000E+00  0.14999999963E+04  0.15000000000E+04  0.10566000000E+00 0.  1.
        994   -1    0    0    0    0 -0.00000000000E+00 -0.00000000000E+00  0.11368683772E-12  0.17120000000E+03  0.17120000000E+03 0.  0.
         13    1    1    2    0    0 -0.10253996013E+02  0.85147164564E+01  0.32422839810E+02  0.35055620604E+02  0.10566000000E+00 0.  1.
        994    1    1    2    0    0  0.11538617439E+02 -0.15618709379E+02  0.38249653105E+01  0.17234022785E+03  0.17120000000E+03 0.  0.
        998    1    1    2    0    0 -0.12846214260E+01  0.71039929222E+01  0.14637521912E+04  0.14638041515E+04  0.10000000000E+02 0.  1.
</event>
<event>
 5    1  0.1245771E-008  0.3725131E+03  0.7957747E-01  0.3484420E+00
         13   -1    0    0    0    0  0.00000000000E+00  0.00000000000E+00  0.14999999963E+04  0.15000000000E+04  0.10566000000E+00 0.  1.
        994   -1    0    0    0    0 -0.00000000000E+00 -0.00000000000E+00  0.11368683772E-12  0.17120000000E+03  0.17120000000E+03 0.  0.
         13    1    1    2    0    0 -0.25519601838E+02  0.36375361077E+02  0.11839204571E+03  0.12645593946E+03  0.10566000000E+00 0.  1.
        994    1    1    2    0    0  0.15147658051E+02 -0.29245167479E+02  0.11688857064E+02  0.17473065199E+03  0.17120000000E+03 0.  0.
        998    1    1    2    0    0  0.10371943787E+02 -0.71301935985E+01  0.13699190935E+04  0.13700134086E+04  0.10000000000E+02 0.  1.
</event>
<event>
 5    1  0.1245771E-008  0.3825792E+03  0.7957747E-01  0.3440004E+00
         13   -1    0    0    0    0  0.00000000000E+00  0.00000000000E+00  0.14999999963E+04  0.15000000000E+04  0.10566000000E+00 0. -1.
        994   -1    0    0    0    0 -0.00000000000E+00 -0.00000000000E+00  0.11368683772E-12  0.17120000000E+03  0.17120000000E+03 0.  0.
         13    1    1    2    0    0 -0.15719704690E+02 -0.60182707708E+01  0.52198769028E+02  0.54845704943E+02  0.10566000000E+00 0. -1.
        994    1    1    2    0    0 -0.10647735459E+02  0.20594147780E+02  0.46204382968E+01  0.17282442432E+03  0.17120000000E+03 0.  0.
        998    1    1    2    0    0  0.26367440149E+02 -0.14575877009E+02  0.14431807890E+04  0.14435298707E+04  0.10000000000E+02 0. -1.
</event>
<event>
 5    1  0.1245771E-008  0.3830332E+03  0.7957747E-01  0.3438057E+00
         13   -1    0    0    0    0  0.00000000000E+00  0.00000000000E+00  0.14999999963E+04  0.15000000000E+04  0.10566000000E+00 0.  1.
        994   -1    0    0    0    0 -0.00000000000E+00 -0.00000000000E+00  0.11368683772E-12  0.17120000000E+03  0.17120000000E+03 0.  0.
         13    1    1    2    0    0 -0.52569915532E+01  0.85832151883E+01  0.18075383966E+02  0.20689084385E+02  0.10566000000E+00 0.  1.
        994    1    1    2    0    0  0.12159072744E+02 -0.83400749637E+01  0.33296544063E+01  0.17186601322E+03  0.17120000000E+03 0.  0.
        998    1    1    2    0    0 -0.69020811913E+01 -0.24314022455E+00  0.14785949579E+04  0.14786449024E+04  0.10000000000E+02 0.  1.
</event>
<event>
 5    1  0.1245771E-008  0.3907101E+03  0.7957747E-01  0.3405810E+00
         13   -1    0    0    0    0  0.00000000000E+00  0.00000000000E+00  0.14999999963E+04  0.15000000000E+04  0.10566000000E+00 0.  1.
        994   -1    0    0    0    0 -0.00000000000E+00 -0.00000000000E+00  0.11368683772E-12  0.17120000000E+03  0.17120000000E+03 0.  0.
         13    1    1    2    0    0  0.89119354427E+02 -0.30400644136E+02  0.19190067394E+03  0.21375766260E+03  0.10566000000E+00 0.  1.
        994    1    1    2    0    0 -0.73529525089E+02 -0.27109452879E+02  0.45900631114E+02  0.19379840410E+03  0.17120000000E+03 0.  0.
        998    1    1    2    0    0 -0.15589829338E+02  0.57510097015E+02  0.12621986912E+04  0.12636439333E+04  0.10000000000E+02 0.  1.
</event>
<event>
 5    1  0.1245771E-008  0.3697966E+03  0.7957747E-01  0.3496826E+00
         13   -1    0    0    0    0  0.00000000000E+00  0.00000000000E+00  0.14999999963E+04  0.15000000000E+04  0.10566000000E+00 0.  1.
        994   -1    0    0    0    0 -0.00000000000E+00 -0.00000000000E+00  0.11368683772E-12  0.17120000000E+03  0.17120000000E+03 0.  0.
         13    1    1    2    0    0  0.24335000629E+02 -0.65511974565E+00  0.26732997070E+02  0.36156406540E+02  0.10566000000E+00 0.  1.
        994    1    1    2    0    0 -0.31736691453E+02 -0.50596024042E+00  0.12869338704E+02  0.17459247824E+03  0.17120000000E+03 0.  0.
        998    1    1    2    0    0  0.74016908250E+01  0.11610799861E+01  0.14603976605E+04  0.14604511152E+04  0.10000000000E+02 0.  1.
</event>
<event>
 5    1  0.1245771E-008  0.3700056E+03  0.7957747E-01  0.3495865E+00
         13   -1    0    0    0    0  0.00000000000E+00  0.00000000000E+00  0.14999999963E+04  0.15000000000E+04  0.10566000000E+00 0. -1.
        994   -1    0    0    0    0 -0.00000000000E+00 -0.00000000000E+00  0.11368683772E-12  0.17120000000E+03  0.17120000000E+03 0.  0.
         13    1    1    2    0    0 -0.66672954078E+02  0.16638030096E+02  0.36625906379E+03  0.37264972806E+03  0.10566000000E+00 0. -1.
        994    1    1    2    0    0 -0.40187019723E+02 -0.48836679123E+02  0.25060001118E+02  0.18422122961E+03  0.17120000000E+03 0.  0.
        998    1    1    2    0    0  0.10685997380E+03  0.32198649027E+02  0.11086809314E+04  0.11143290423E+04  0.10000000000E+02 0. -1.
</event>
<event>
 5    1  0.1245771E-008  0.3857819E+03  0.7957747E-01  0.3426363E+00
         13   -1    0    0    0    0  0.00000000000E+00  0.00000000000E+00  0.14999999963E+04  0.15000000000E+04  0.10566000000E+00 0.  1.
        994   -1    0    0    0    0 -0.00000000000E+00 -0.00000000000E+00  0.11368683772E-12  0.17120000000E+03  0.17120000000E+03 0.  0.
         13    1    1    2    0    0 -0.70175343322E+01 -0.11767866999E+02  0.76270697401E+02  0.77491670055E+02  0.10566000000E+00 0.  1.
        994    1    1    2    0    0  0.82797346046E+01  0.54192477914E+01  0.15637350172E+01  0.17149287892E+03  0.17120000000E+03 0.  0.
        998    1    1    2    0    0 -0.12622002725E+01  0.63486192072E+01  0.14221655639E+04  0.14222154510E+04  0.10000000000E+02 0.  1.
</event>
<event>
 5    1  0.1245771E-008  0.3835734E+03  0.7957747E-01  0.3435745E+00
         13   -1    0    0    0    0  0.00000000000E+00  0.00000000000E+00  0.14999999963E+04  0.15000000000E+04  0.10566000000E+00 0. -1.
        994   -1    0    0    0    0 -0.00000000000E+00 -0.00000000000E+00  0.11368683772E-12  0.17120000000E+03  0.17120000000E+03 0.  0.
         13    1    1    2    0    0  0.18178042123E+02 -0.53784652123E+01  0.81420825090E+02  0.83598630526E+02  0.10566000000E+00 0. -1.
        994    1    1    2    0    0  0.49671489250E+00  0.60059393453E+01  0.24600736849E+01  0.17132369946E+03  0.17120000000E+03 0.  0.
        998    1    1    2    0    0 -0.18674757016E+02 -0.62747413295E+00  0.14161190975E+04  0.14162776700E+04  0.10000000000E+02 0. -1.
</event>
<event>
 5    1  0.1245771E-008  0.3737798E+03  0.7957747E-01  0.3478698E+00
         13   -1    0    0    0    0  0.00000000000E+00  0.00000000000E+00  0.14999999963E+04  0.15000000000E+04  0.10566000000E+00 0.  1.
        994   -1    0    0    0    0 -0.00000000000E+00 -0.00000000000E+00  0.11368683772E-12  0.17120000000E+03  0.17120000000E+03 0.  0.
         13    1    1    2    0    0  0.22175833320E+02  0.14766568501E+03  0.48895981940E+03  0.51125203008E+03  0.10566000000E+00 0.  1.
        994    1    1    2    0    0 -0.18483786468E+02 -0.15898808200E+03  0.11021689479E+03  0.25899047178E+03  0.17120000000E+03 0.  0.
        998    1    1    2    0    0 -0.36920468519E+01  0.11322396990E+02  0.90082328209E+03  0.90095749814E+03  0.10000000000E+02 0.  1.
</event>
<event>
 5    1  0.1245771E-008  0.3832666E+03  0.7957747E-01  0.3437057E+00
         13   -1    0    0    0    0  0.00000000000E+00  0.00000000000E+00  0.14999999963E+04  0.15000000000E+04  0.10566000000E+00 0. -1.
        994   -1    0    0    0    0 -0.00000000000E+00 -0.00000000000E+00  0.11368683772E-12  0.17120000000E+03  0.17120000000E+03 0.  0.
         13    1    1    2    0    0  0.23658077207E+02  0.10144408851E+02  0.13639804645E+03  0.13880580639E+03  0.10566000000E+00 0. -1.
        994    1    1    2    0    0 -0.12764953940E+02  0.57907513931E+00  0.30333674812E+01  0.17170300142E+03  0.17120000000E+03 0.  0.
        998    1    1    2    0    0 -0.10893123266E+02 -0.10723483991E+02  0.13605685823E+04  0.13606911922E+04  0.10000000000E+02 0. -1.
</event>
<event>
 5    1  0.1245771E-008  0.3804119E+03  0.7957747E-01  0.3449367E+00
         13   -1    0    0    0    0  0.00000000000E+00  0.00000000000E+00  0.14999999963E+04  0.15000000000E+04  0.10566000000E+00 0. -1.
        994   -1    0    0    0    0 -0.00000000000E+00 -0.00000000000E+00  0.11368683772E-12  0.17120000000E+03  0.17120000000E+03 0.  0.
         13    1    1    2    0    0 -0.31412329497E+02 -0.24602920141E+02  0.23167379594E+03  0.23508465925E+03  0.10566000000E+00 0. -1.
        994    1    1    2    0    0  0.12244282283E+02 -0.48918555724E+01  0.45059507222E+01  0.17176610926E+03  0.17120000000E+03 0.  0.
        998    1    1    2    0    0  0.19168047214E+02  0.29494775714E+02  0.12638202496E+04  0.12643492315E+04  0.10000000000E+02 0. -1.
</event>
<event>
 5    1  0.1245771E-008  0.3838508E+03  0.7957747E-01  0.3434561E+00
         13   -1    0    0    0    0  0.00000000000E+00  0.00000000000E+00  0.14999999963E+04  0.15000000000E+04  0.10566000000E+00 0. -1.
        994   -1    0    0    0    0 -0.00000000000E+00 -0.00000000000E+00  0.11368683772E-12  0.17120000000E+03  0.17120000000E+03 0.  0.
         13    1    1    2    0    0  0.22507245727E+02  0.21730687807E+01  0.11132608623E+03  0.11359932648E+03  0.10566000000E+00 0. -1.
        994    1    1    2    0    0 -0.18875141371E+02 -0.52632804109E+01  0.34702476152E+01  0.17235270726E+03  0.17120000000E+03 0.  0.
        998    1    1    2    0    0 -0.36321043563E+01  0.30902116302E+01  0.13852036624E+04  0.13852479663E+04  0.10000000000E+02 0. -1.
</event>
<event>
 5    1  0.1245771E-008  0.3737211E+03  0.7957747E-01  0.3478962E+00
         13   -1    0    0    0    0  0.00000000000E+00  0.00000000000E+00  0.14999999963E+04  0.15000000000E+04  0.10566000000E+00 0.  1.
        994   -1    0    0    0    0 -0.00000000000E+00 -0.00000000000E+00  0.11368683772E-12  0.17120000000E+03  0.17120000000E+03 0.  0.
         13    1    1    2    0    0  0.24924878063E+02  0.18241565134E+02  0.31079575848E+02  0.43817296173E+02  0.10566000000E+00 0.  1.
        994    1    1    2    0    0 -0.24258932993E+02 -0.18539355837E+02  0.16229213031E+02  0.17465689480E+03  0.17120000000E+03 0.  0.
        998    1    1    2    0    0 -0.66594507002E+00  0.29779070237E+00  0.14526912074E+04  0.14527258090E+04  0.10000000000E+02 0.  1.
</event>
<event>
 5    1  0.1245771E-008  0.2782849E+03  0.7957747E-01  0.4064379E+00
         13   -1    0    0    0    0  0.00000000000E+00  0.00000000000E+00  0.14999999963E+04  0.15000000000E+04  0.10566000000E+00 0.  1.
        994   -1    0    0    0    0 -0.00000000000E+00 -0.00000000000E+00  0.11368683772E-12  0.17120000000E+03  0.17120000000E+03 0.  0.
         13    1    1    2    0    0 -0.18114590006E+03 -0.47390721898E+02  0.45980551349E+03  0.49646836660E+03  0.10566000000E+00 0.  1.
        994    1    1    2    0    0  0.18766826950E+03  0.40082517091E+02  0.17878496194E+03  0.31320838138E+03  0.17120000000E+03 0.  0.
        998    1    1    2    0    0 -0.65223694385E+01  0.73082048075E+01  0.86140952085E+03  0.86152325202E+03  0.10000000000E+02 0.  1.
</event>
<event>
 5    1  0.1245771E-008  0.3852943E+03  0.7957747E-01  0.3428425E+00
         13   -1    0    0    0    0  0.00000000000E+00  0.00000000000E+00  0.14999999963E+04  0.15000000000E+04  0.10566000000E+00 0. -1.
        994   -1    0    0    0    0 -0.00000000000E+00 -0.00000000000E+00  0.11368683772E-12  0.17120000000E+03  0.17120000000E+03 0.  0.
         13    1    1    2    0    0 -0.24017090891E+01  0.11191445500E+02  0.45957814416E+02  0.47361888991E+02  0.10566000000E+00 0. -1.
        994    1    1    2    0    0 -0.67393149514E+01 -0.22661420085E+01  0.16502118087E+01  0.17135552797E+03  0.17120000000E+03 0.  0.
        998    1    1    2    0    0  0.91410240405E+01 -0.89253034915E+01  0.14523919701E+04  0.14524825830E+04  0.10000000000E+02 0. -1.
</event>
<event>
 5    1  0.1245771E-008  0.3839128E+03  0.7957747E-01  0.3434296E+00
         13   -1    0    0    0    0  0.00000000000E+00  0.00000000000E+00  0.14999999963E+04  0.15000000000E+04  0.10566000000E+00 0.  1.
        994   -1    0    0    0    0 -0.00000000000E+00 -0.00000000000E+00  0.11368683772E-12  0.17120000000E+03  0.17120000000E+03 0.  0.
         13    1    1    2    0    0 -0.11285384319E+02 -0.16767251223E+01  0.28905251632E+02  0.31075650312E+02  0.10566000000E+00 0.  1.
        994    1    1    2    0    0  0.12358340074E+02 -0.25759690165E+01  0.26969816427E+01  0.17168598631E+03  0.17120000000E+03 0.  0.
        998    1    1    2    0    0 -0.10729557548E+01  0.42526941387E+01  0.14683977630E+04  0.14684383634E+04  0.10000000000E+02 0.  1.
</event>
<event>
 5    1  0.1245771E-008  0.3819130E+03  0.7957747E-01  0.3442871E+00
         13   -1    0    0    0    0  0.00000000000E+00  0.00000000000E+00  0.14999999963E+04  0.15000000000E+04  0.10566000000E+00 0.  1.
        994   -1    0    0    0    0 -0.00000000000E+00 -0.00000000000E+00  0.11368683772E-12  0.17120000000E+03  0.17120000000E+03 0.  0.
         13    1    1    2    0    0  0.21797608812E+02  0.22710697648E+02  0.14480008371E+03  0.14818227608E+03  0.10566000000E+00 0.  1.
        994    1    1    2    0    0 -0.20985248664E+02 -0.19647445542E+02  0.59206847712E+01  0.17369771814E+03  0.17120000000E+03 0.  0.
        998    1    1    2    0    0 -0.81236014775E+00 -0.30632521063E+01  0.13492792278E+04  0.13493200058E+04  0.10000000000E+02 0.  1.
</event>
<event>
 5    1  0.1245771E-008  0.3755112E+03  0.7957747E-01  0.3470940E+00
         13   -1    0    0    0    0  0.00000000000E+00  0.00000000000E+00  0.14999999963E+04  0.15000000000E+04  0.10566000000E+00 0. -1.
        994   -1    0    0    0    0 -0.00000000000E+00 -0.00000000000E+00  0.11368683772E-12  0.17120000000E+03  0.17120000000E+03 0.  0.
         13    1    1    2    0    0  0.42702297340E+02  0.23646166872E+02  0.19647387665E+03  0.20244659240E+03  0.10566000000E+00 0. -1.
        994    1    1    2    0    0 -0.22319301570E+01 -0.33044735749E+02  0.10147761618E+02  0.17466926787E+03  0.17120000000E+03 0.  0.
        998    1    1    2    0    0 -0.40470367183E+02  0.93985688775E+01  0.12933783580E+04  0.12940841397E+04  0.10000000000E+02 0. -1.
</event>
<event>
 5    1  0.1245771E-008  0.3845452E+03  0.7957747E-01  0.3431603E+00
         13   -1    0    0    0    0  0.00000000000E+00  0.00000000000E+00  0.14999999963E+04  0.15000000000E+04  0.10566000000E+00 0.  1.
        994   -1    0    0    0    0 -0.00000000000E+00 -0.00000000000E+00  0.11368683772E-12  0.17120000000E+03  0.17120000000E+03 0.  0.
         13    1    1    2    0    0 -0.37423638468E+01 -0.14125637200E+02  0.57920928008E+02  0.59735952146E+02  0.10566000000E+00 0.  1.
        994    1    1    2    0    0 -0.16341472405E+01  0.84405923138E+01  0.20995941010E+01  0.17142859251E+03  0.17120000000E+03 0.  0.
        998    1    1    2    0    0  0.53765110873E+01  0.56850448863E+01  0.14399794742E+04  0.14400354553E+04  0.10000000000E+02 0.  1.
</event>
<event>
 5    1  0.1245771E-008  0.3815224E+03  0.7957747E-01  0.3444556E+00
         13   -1    0    0    0    0  0.00000000000E+00  0.00000000000E+00  0.14999999963E+04  0.15000000000E+04  0.10566000000E+00 0.  1.
        994   -1    0    0    0    0 -0.00000000000E+00 -0.00000000000E+00  0.11368683772E-12  0.17120000000E+03  0.17120000000E+03 0.  0.
         13    1    1    2    0    0 -0.83999742861E+01  0.17269160218E+02  0.52174827084E+02  0.55596827319E+02  0.10566000000E+00 0.  1.
        994    1    1    2    0    0  0.70746668724E+01 -0.17692674445E+02  0.45751974416E+01  0.17231788669E+03  0.17120000000E+03 0.  0.
        998    1    1    2    0    0  0.13253074137E+01  0.42351422638E+00  0.14432499718E+04  0.14432852860E+04  0.10000000000E+02 0.  1.
</event>
<event>
 5    1  0.1245771E-008  0.3849416E+03  0.7957747E-01  0.3429920E+00
         13   -1    0    0    0    0  0.00000000000E+00  0.00000000000E+00  0.14999999963E+04  0.15000000000E+04  0.10566000000E+00 0. -1.
        994   -1    0    0    0    0 -0.00000000000E+00 -0.00000000000E+00  0.11368683772E-12  0.17120000000E+03  0.17120000000E+03 0.  0.
         13    1    1    2    0    0  0.81533369924E+01  0.16739989149E+02  0.11234931389E+03  0.11388188458E+03  0.10566000000E+00 0. -1.
        994    1    1    2    0    0  0.78846629826E+01 -0.76087477637E+01  0.20541342223E+01  0.17156258456E+03  0.17120000000E+03 0.  0.
        998    1    1    2    0    0 -0.16037999975E+02 -0.91312413852E+01  0.13855965482E+04  0.13857555309E+04  0.10000000000E+02 0. -1.
</event>
<event>
 5    1  0.1245771E-008  0.3815848E+03  0.7957747E-01  0.3444287E+00
         13   -1    0    0    0    0  0.00000000000E+00  0.00000000000E+00  0.14999999963E+04  0.15000000000E+04  0.10566000000E+00 0.  1.
        994   -1    0    0    0    0 -0.00000000000E+00 -0.00000000000E+00  0.11368683772E-12  0.17120000000E+03  0.17120000000E+03 0.  0.
         13    1    1    2    0    0 -0.79673692195E+01 -0.89149161345E+01  0.19844662585E+02  0.23168437563E+02  0.10566000000E+00 0.  1.
        994    1    1    2    0    0  0.66636482699E+01  0.11087783743E+02  0.38919625010E+01  0.17173214763E+03  0.17120000000E+03 0.  0.
        998    1    1    2    0    0  0.13037209496E+01 -0.21728676081E+01  0.14762633712E+04  0.14762994148E+04  0.10000000000E+02 0.  1.
</event>
<event>
 5    1  0.1245771E-008  0.3847179E+03  0.7957747E-01  0.3430870E+00
         13   -1    0    0    0    0  0.00000000000E+00  0.00000000000E+00  0.14999999963E+04  0.15000000000E+04  0.10566000000E+00 0. -1.
        994   -1    0    0    0    0 -0.00000000000E+00 -0.00000000000E+00  0.11368683772E-12  0.17120000000E+03  0.17120000000E+03 0.  0.
         13    1    1    2    0    0 -0.12337958684E+02 -0.31179921053E+01  0.44754976261E+02  0.46529196892E+02  0.10566000000E+00 0. -1.
        994    1    1    2    0    0  0.12171282352E+02  0.41836959011E+00  0.22586232931E+01  0.17164747748E+03  0.17120000000E+03 0.  0.
        998    1    1    2    0    0  0.16667633239E+00  0.26996225152E+01  0.14529863967E+04  0.14530233256E+04  0.10000000000E+02 0. -1.
</event>
<event>
 5    1  0.1245771E-008  0.3819287E+03  0.7957747E-01  0.3442803E+00
         13   -1    0    0    0    0  0.00000000000E+00  0.00000000000E+00  0.14999999963E+04  0.15000000000E+04  0.10566000000E+00 0. -1.
        994   -1    0    0    0    0 -0.00000000000E+00 -0.00000000000E+00  0.11368683772E-12  0.17120000000E+03  0.17120000000E+03 0.  0.
         13    1    1    2    0    0 -0.10544883023E+02  0.59069614076E+01  0.21966020190E+02  0.25071975551E+02  0.10566000000E+00 0. -1.
        994    1    1    2    0    0  0.59471886063E+01 -0.33194127587E+01  0.33168185671E+01  0.17136752562E+03  0.17120000000E+03 0.  0.
        998    1    1    2    0    0  0.45976944164E+01 -0.25875486489E+01  0.14747171575E+04  0.14747604988E+04  0.10000000000E+02 0. -1.
</event>
<event>
 5    1  0.1245771E-008  0.3771201E+03  0.7957747E-01  0.3463795E+00
         13   -1    0    0    0    0  0.00000000000E+00  0.00000000000E+00  0.14999999963E+04  0.15000000000E+04  0.10566000000E+00 0.  1.
        994   -1    0    0    0    0 -0.00000000000E+00 -0.00000000000E+00  0.11368683772E-12  0.17120000000E+03  0.17120000000E+03 0.  0.
         13    1    1    2    0    0 -0.10420140014E+02 -0.62181874014E+02  0.35238637943E+03  0.35798231290E+03  0.10566000000E+00 0.  1.
        994    1    1    2    0    0  0.67930905893E+00  0.36638673151E+02  0.10139673748E+02  0.17537133978E+03  0.17120000000E+03 0.  0.
        998    1    1    2    0    0  0.97408309549E+01  0.25543200864E+02  0.11374739431E+04  0.11378463473E+04  0.10000000000E+02 0.  1.
</event>
<event>
 5    1  0.1245771E-008  0.3798678E+03  0.7957747E-01  0.3451734E+00
         13   -1    0    0    0    0  0.00000000000E+00  0.00000000000E+00  0.14999999963E+04  0.15000000000E+04  0.10566000000E+00 0.  1.
        994   -1    0    0    0    0 -0.00000000000E+00 -0.00000000000E+00  0.11368683772E-12  0.17120000000E+03  0.17120000000E+03 0.  0.
         13    1    1    2    0    0 -0.32881562161E+02  0.26962164956E+02  0.23774724451E+03  0.24152001761E+03  0.10566000000E+00 0.  1.
        994    1    1    2    0    0  0.95113170374E+01 -0.66063325575E+01  0.46485251529E+01  0.17165418016E+03  0.17120000000E+03 0.  0.
        998    1    1    2    0    0  0.23370245123E+02 -0.20355832398E+02  0.12576042266E+04  0.12580258022E+04  0.10000000000E+02 0.  1.
</event>
<event>
 5    1  0.1245771E-008  0.3817734E+03  0.7957747E-01  0.3443473E+00
         13   -1    0    0    0    0  0.00000000000E+00  0.00000000000E+00  0.14999999963E+04  0.15000000000E+04  0.10566000000E+00 0. -1.
        994   -1    0    0    0    0 -0.00000000000E+00 -0.00000000000E+00  0.11368683772E-12  0.17120000000E+03  0.17120000000E+03 0.  0.
         13    1    1    2    0    0 -0.16555452284E+02  0.39407860367E+01  0.40640166084E+02  0.44059585317E+02  0.10566000000E+00 0. -1.
        994    1    1    2    0    0  0.24976983623E+02 -0.22960377574E+02  0.70754310439E+01  0.17467263774E+03  0.17120000000E+03 0.  0.
        998    1    1    2    0    0 -0.84215313389E+01  0.19019591538E+02  0.14522843992E+04  0.14524677769E+04  0.10000000000E+02 0. -1.
</event>
<event>
 5    1  0.1245771E-008  0.3748923E+03  0.7957747E-01  0.3473705E+00
         13   -1    0    0    0    0  0.00000000000E+00  0.00000000000E+00  0.14999999963E+04  0.15000000000E+04  0.10566000000E+00 0.  1.
        994   -1    0    0    0    0 -0.00000000000E+00 -0.00000000000E+00  0.11368683772E-12  0.17120000000E+03  0.17120000000E+03 0.  0.
         13    1    1    2    0    0 -0.55159489590E+02  0.14225705602E+02  0.12112208198E+03  0.13384883227E+03  0.10566000000E+00 0.  1.
        994    1    1    2    0    0  0.30734335235E+02  0.28753211599E+02  0.19876727722E+02  0.17741440428E+03  0.17120000000E+03 0.  0.
        998    1    1    2    0    0  0.24425154355E+02 -0.42978917201E+02  0.13590011866E+04  0.13599367635E+04  0.10000000000E+02 0.  1.
</event>
<event>
 5    1  0.1245771E-008  0.3743765E+03  0.7957747E-01  0.3476016E+00
         13   -1    0    0    0    0  0.00000000000E+00  0.00000000000E+00  0.14999999963E+04  0.15000000000E+04  0.10566000000E+00 0. -1.
        994   -1    0    0    0    0 -0.00000000000E+00 -0.00000000000E+00  0.11368683772E-12  0.17120000000E+03  0.17120000000E+03 0.  0.
         13    1    1    2    0    0  0.29596593061E+02  0.88282436825E+02  0.46627502181E+03  0.47548097133E+03  0.10566000000E+00 0. -1.
        994    1    1    2    0    0 -0.34456210578E+02 -0.76260612062E+02  0.31241709583E+02  0.19310203473E+03  0.17120000000E+03 0.  0.
        998    1    1    2    0    0  0.48596175166E+01 -0.12021824762E+02  0.10024832649E+04  0.10026169939E+04  0.10000000000E+02 0. -1.
</event>
<event>
 5    1  0.1245771E-008  0.3740870E+03  0.7957747E-01  0.3477316E+00
         13   -1    0    0    0    0  0.00000000000E+00  0.00000000000E+00  0.14999999963E+04  0.15000000000E+04  0.10566000000E+00 0. -1.
        994   -1    0    0    0    0 -0.00000000000E+00 -0.00000000000E+00  0.11368683772E-12  0.17120000000E+03  0.17120000000E+03 0.  0.
         13    1    1    2    0    0  0.13044249162E+02  0.40941132260E+02  0.11886512638E+03  0.12639326794E+03  0.10566000000E+00 0. -1.
        994    1    1    2    0    0 -0.19293832389E+02 -0.36131829871E+02  0.12890571656E+02  0.17650316693E+03  0.17120000000E+03 0.  0.
        998    1    1    2    0    0  0.62495832274E+01 -0.48093023892E+01  0.13682442982E+04  0.13683035651E+04  0.10000000000E+02 0. -1.
</event>
<event>
 5    1  0.1245771E-008  0.3753741E+03  0.7957747E-01  0.3471552E+00
         13   -1    0    0    0    0  0.00000000000E+00  0.00000000000E+00  0.14999999963E+04  0.15000000000E+04  0.10566000000E+00 0. -1.
        994   -1    0    0    0    0 -0.00000000000E+00 -0.00000000000E+00  0.11368683772E-12  0.17120000000E+03  0.17120000000E+03 0.  0.
         13    1    1    2    0    0  0.35005245176E+02 -0.80689487667E+01  0.91031928945E+02  0.97863672399E+02  0.10566000000E+00 0. -1.
        994    1    1    2    0    0 -0.35967565222E+02  0.13409096245E+02  0.11505484460E+02  0.17582743183E+03  0.17120000000E+03 0.  0.
        998    1    1    2    0    0  0.96232004610E+00 -0.53401474787E+01  0.13974625829E+04  0.13975088958E+04  0.10000000000E+02 0. -1.
</event>
<event>
 5    1  0.1245771E-008  0.3838081E+03  0.7957747E-01  0.3434743E+00
         13   -1    0    0    0    0  0.00000000000E+00  0.00000000000E+00  0.14999999963E+04  0.15000000000E+04  0.10566000000E+00 0. -1.
        994   -1    0    0    0    0 -0.00000000000E+00 -0.00000000000E+00  0.11368683772E-12  0.17120000000E+03  0.17120000000E+03 0.  0.
         13    1    1    2    0    0  0.22803806381E+02  0.32600881305E+01  0.11741074665E+03  0.11964922212E+03  0.10566000000E+00 0. -1.
        994    1    1    2    0    0 -0.17184302137E+02  0.73103961806E+01  0.33752598810E+01  0.17224858348E+03  0.17120000000E+03 0.  0.
        998    1    1    2    0    0 -0.56195042435E+01 -0.10570484311E+02  0.13792139897E+04  0.13793021944E+04  0.10000000000E+02 0. -1.
</event>
<event>
 5    1  0.1245771E-008  0.3129536E+03  0.7957747E-01  0.3807673E+00
         13   -1    0    0    0    0  0.00000000000E+00  0.00000000000E+00  0.14999999963E+04  0.15000000000E+04  0.10566000000E+00 0. -1.
        994   -1    0    0    0    0 -0.00000000000E+00 -0.00000000000E+00  0.11368683772E-12  0.17120000000E+03  0.17120000000E+03 0.  0.
         13    1    1    2    0    0  0.12415482726E+03  0.14460369484E+03  0.77474328168E+03  0.79784197268E+03  0.10566000000E+00 0. -1.
        994    1    1    2    0    0 -0.12823039123E+03 -0.10350345088E+03  0.11925947076E+03  0.26587263670E+03  0.17120000000E+03 0.  0.
        998    1    1    2    0    0  0.40755639734E+01 -0.41100243959E+02  0.60599724384E+03  0.60748539062E+03  0.10000000000E+02 0.  0.
</event>
<event>
 5    1  0.1245771E-008  0.3784518E+03  0.7957747E-01  0.3457927E+00
         13   -1    0    0    0    0  0.00000000000E+00  0.00000000000E+00  0.14999999963E+04  0.15000000000E+04  0.10566000000E+00 0.  1.
        994   -1    0    0    0    0 -0.00000000000E+00 -0.00000000000E+00  0.11368683772E-12  0.17120000000E+03  0.17120000000E+03 0.  0.
         13    1    1    2    0    0 -0.57456960153E+01  0.26713215018E+02  0.71182100470E+02  0.76246386607E+02  0.10566000000E+00 0.  1.
        994    1    1    2    0    0  0.38061995970E+01 -0.26910941471E+02  0.74027448375E+01  0.17350194972E+03  0.17120000000E+03 0.  0.
        998    1    1    2    0    0  0.19394964183E+01  0.19772645379E+00  0.14214151510E+04  0.14214516637E+04  0.10000000000E+02 0.  1.
</event>
<event>
 5    1  0.1245771E-008  0.3746322E+03  0.7957747E-01  0.3474869E+00
         13   -1    0    0    0    0  0.00000000000E+00  0.00000000000E+00  0.14999999963E+04  0.15000000000E+04  0.10566000000E+00 0. -1.
        994   -1    0    0    0    0 -0.00000000000E+00 -0.00000000000E+00  0.11368683772E-12  0.17120000000E+03  0.17120000000E+03 0.  0.
         13    1    1    2    0    0  0.11557467461E+03  0.18128427702E+02  0.38968013435E+03  0.40686209405E+03  0.10566000000E+00 0. -1.
        994    1    1    2    0    0 -0.10740943910E+03 -0.12843313184E+02  0.56254548700E+02  0.21018028583E+03  0.17120000000E+03 0.  0.
        998    1    1    2    0    0 -0.81652355068E+01 -0.52851145183E+01  0.10540653132E+04  0.10541576201E+04  0.10000000000E+02 0. -1.
</event>
<event>
 5    1  0.1245771E-008  0.3738439E+03  0.7957747E-01  0.3478409E+00
         13   -1    0    0    0    0  0.00000000000E+00  0.00000000000E+00  0.14999999963E+04  0.15000000000E+04  0.10566000000E+00 0. -1.
        994   -1    0    0    0    0 -0.00000000000E+00 -0.00000000000E+00  0.11368683772E-12  0.17120000000E+03  0.17120000000E+03 0.  0.
         13    1    1    2    0    0  0.17698460023E+02 -0.13984190895E+01  0.18569037991E+02  0.25690687011E+02  0.10566000000E+00 0. -1.
        994    1    1    2    0    0 -0.11797768821E+02  0.22868510516E+00  0.77488884683E+01  0.17178103772E+03  0.17120000000E+03 0.  0.
        998    1    1    2    0    0 -0.59006912026E+01  0.11697339843E+01  0.14736820698E+04  0.14737282753E+04  0.10000000000E+02 0. -1.
</event>
<event>
 5    1  0.1245771E-008  0.3854638E+03  0.7957747E-01  0.3427708E+00
         13   -1    0    0    0    0  0.00000000000E+00  0.00000000000E+00  0.14999999963E+04  0.15000000000E+04  0.10566000000E+00 0.  1.
        994   -1    0    0    0    0 -0.00000000000E+00 -0.00000000000E+00  0.11368683772E-12  0.17120000000E+03  0.17120000000E+03 0.  0.
         13    1    1    2    0    0  0.89144032601E+01 -0.10075395766E+02  0.64441718684E+02  0.65831044776E+02  0.10566000000E+00 0.  1.
        994    1    1    2    0    0 -0.53530967277E+01  0.86777711001E+01  0.17414901278E+01  0.17151219241E+03  0.17120000000E+03 0.  0.
        998    1    1    2    0    0 -0.35613065323E+01  0.13976246654E+01  0.14338167875E+04  0.14338567628E+04  0.10000000000E+02 0.  1.
</event>
<event>
 5    1  0.1245771E-008  0.3794568E+03  0.7957747E-01  0.3453527E+00
         13   -1    0    0    0    0  0.00000000000E+00  0.00000000000E+00  0.14999999963E+04  0.15000000000E+04  0.10566000000E+00 0. -1.
        994   -1    0    0    0    0 -0.00000000000E+00 -0.00000000000E+00  0.11368683772E-12  0.17120000000E+03  0.17120000000E+03 0.  0.
         13    1    1    2    0    0 -0.17655091071E+02 -0.53431611077E+01  0.35351964381E+02  0.39875107034E+02  0.10566000000E+00 0. -1.
        994    1    1    2    0    0  0.25670768478E+02  0.32666836988E+01  0.66534701162E+01  0.17327252593E+03  0.17120000000E+03 0.  0.
        998    1    1    2    0    0 -0.80156774072E+01  0.20764774089E+01  0.14579945618E+04  0.14580523670E+04  0.10000000000E+02 0. -1.
</event>
<event>
 5    1  0.1245771E-008  0.3847536E+03  0.7957747E-01  0.3430718E+00
         13   -1    0    0    0    0  0.00000000000E+00  0.00000000000E+00  0.14999999963E+04  0.15000000000E+04  0.10566000000E+00 0. -1.
        994   -1    0    0    0    0 -0.00000000000E+00 -0.00000000000E+00  0.11368683772E-12  0.17120000000E+03  0.17120000000E+03 0.  0.
         13    1    1    2    0    0 -0.14455739752E+02 -0.60563942070E+01  0.78013361047E+02  0.79572256399E+02  0.10566000000E+00 0. -1.
        994    1    1    2    0    0  0.11432857319E+02 -0.36734534004E+02  0.66392901155E+01  0.17559514910E+03  0.17120000000E+03 0.  0.
        998    1    1    2    0    0  0.30228824326E+01  0.42790928211E+02  0.14153473451E+04  0.14160325945E+04  0.10000000000E+02 0. -1.
</event>
<event>
 5    1  0.2379966E-008  0.3863141E+03  0.7957747E-01  0.3424118E+00
         13   -1    0    0    0    0  0.00000000000E+00  0.00000000000E+00  0.14999999963E+04  0.15000000000E+04  0.10566000000E+00 0. -1.
        994   -1    0    0    0    0 -0.00000000000E+00 -0.00000000000E+00  0.11368683772E-12  0.17120000000E+03  0.17120000000E+03 0.  0.
         13    1    1    2    0    0  0.75530986188E+01 -0.77409522495E+01  0.58681425270E+02  0.59669862378E+02  0.10566000000E+00 0. -1.
        994    1    1    2    0    0 -0.88065045414E+01  0.79806475509E+01  0.14417997405E+01  0.17161807610E+03  0.17120000000E+03 0.  0.
        998    1    1    2    0    0  0.12534059226E+01 -0.23969530138E+00  0.14398767713E+04  0.14399120615E+04  0.10000000000E+02 0. -1.
</event>
<event>
 5    1  0.1245771E-008  0.3729471E+03  0.7957747E-01  0.3482455E+00
         13   -1    0    0    0    0  0.00000000000E+00  0.00000000000E+00  0.14999999963E+04  0.15000000000E+04  0.10566000000E+00 0.  1.
        994   -1    0    0    0    0 -0.00000000000E+00 -0.00000000000E+00  0.11368683772E-12  0.17120000000E+03  0.17120000000E+03 0.  0.
         13    1    1    2    0    0  0.37192995890E+01 -0.19388987160E+02  0.22555544664E+02  0.29975486179E+02  0.10566000000E+00 0.  1.
        994    1    1    2    0    0 -0.59665892662E+01  0.68846966303E+00  0.78602131002E+01  0.17148555953E+03  0.17120000000E+03 0.  0.
        998    1    1    2    0    0  0.22472896771E+01  0.18700517497E+02  0.14695842385E+04  0.14697389543E+04  0.10000000000E+02 0.  1.
</event>
<event>
 5    1  0.1245771E-008  0.3806522E+03  0.7957747E-01  0.3448324E+00
         13   -1    0    0    0    0  0.00000000000E+00  0.00000000000E+00  0.14999999963E+04  0.15000000000E+04  0.10566000000E+00 0.  1.
        994   -1    0    0    0    0 -0.00000000000E+00 -0.00000000000E+00  0.11368683772E-12  0.17120000000E+03  0.17120000000E+03 0.  0.
         13    1    1    2    0    0  0.62373257505E+01 -0.11968946198E+02  0.22621227527E+02  0.26341810957E+02  0.10566000000E+00 0.  1.
        994    1    1    2    0    0 -0.61554300481E+00  0.63494313652E+01  0.39400639170E+01  0.17136411023E+03  0.17120000000E+03 0.  0.
        998    1    1    2    0    0 -0.56217827457E+01  0.56195148328E+01  0.14734387048E+04  0.14734940788E+04  0.10000000000E+02 0.  1.
</event>
<event>
 5    1  0.1245771E-008  0.3689289E+03  0.7957747E-01  0.3500828E+00
         13   -1    0    0    0    0  0.00000000000E+00  0.00000000000E+00  0.14999999963E+04  0.15000000000E+04  0.10566000000E+00 0. -1.
        994   -1    0    0    0    0 -0.00000000000E+00 -0.00000000000E+00  0.11368683772E-12  0.17120000000E+03  0.17120000000E+03 0.  0.
         13    1    1    2    0    0  0.29601542622E+02 -0.42005674306E+02  0.12474247811E+03  0.13491265696E+03  0.10566000000E+00 0. -1.
        994    1    1    2    0    0 -0.15775145586E+02  0.42343477017E+02  0.16949700856E+02  0.17787230707E+03  0.17120000000E+03 0.  0.
        998    1    1    2    0    0 -0.13826397036E+02 -0.33780271107E+00  0.13583078173E+04  0.13584150360E+04  0.10000000000E+02 0. -1.
</event>
<event>
 5    1  0.1245771E-008  0.3782427E+03  0.7957747E-01  0.3458846E+00
         13   -1    0    0    0    0  0.00000000000E+00  0.00000000000E+00  0.14999999963E+04  0.15000000000E+04  0.10566000000E+00 0.  1.
        994   -1    0    0    0    0 -0.00000000000E+00 -0.00000000000E+00  0.11368683772E-12  0.17120000000E+03  0.17120000000E+03 0.  0.
         13    1    1    2    0    0 -0.60366300378E+01  0.13920661878E+02  0.20390749574E+02  0.25416914872E+02  0.10566000000E+00 0.  1.
        994    1    1    2    0    0  0.80035914397E+01 -0.16347126935E+02  0.61375940575E+01  0.17227418871E+03  0.17120000000E+03 0.  0.
        998    1    1    2    0    0 -0.19669614018E+01  0.24264650571E+01  0.14734716526E+04  0.14735088964E+04  0.10000000000E+02 0.  1.
</event>
<event>
 5    1  0.1245771E-008  0.3801277E+03  0.7957747E-01  0.3450603E+00
         13   -1    0    0    0    0  0.00000000000E+00  0.00000000000E+00  0.14999999963E+04  0.15000000000E+04  0.10566000000E+00 0.  1.
        994   -1    0    0    0    0 -0.00000000000E+00 -0.00000000000E+00  0.11368683772E-12  0.17120000000E+03  0.17120000000E+03 0.  0.
         13    1    1    2    0    0 -0.96492198091E+01  0.42596587593E+01  0.11868736976E+02  0.15878608790E+02  0.10566000000E+00 0.  1.
        994    1    1    2    0    0  0.12532155769E+02  0.76517887944E+01  0.47894701687E+01  0.17189526993E+03  0.17120000000E+03 0.  0.
        998    1    1    2    0    0 -0.28829359595E+01 -0.11911447554E+02  0.14833417891E+04  0.14834261213E+04  0.10000000000E+02 0.  1.
</event>
<event>
 5    1  0.1245771E-008  0.3855368E+03  0.7957747E-01  0.3427399E+00
         13   -1    0    0    0    0  0.00000000000E+00  0.00000000000E+00  0.14999999963E+04  0.15000000000E+04  0.10566000000E+00 0.  1.
        994   -1    0    0    0    0 -0.00000000000E+00 -0.00000000000E+00  0.11368683772E-12  0.17120000000E+03  0.17120000000E+03 0.  0.
         13    1    1    2    0    0 -0.10277481513E+02 -0.18489234817E+01  0.43138041920E+02  0.44384084636E+02  0.10566000000E+00 0.  1.
        994    1    1    2    0    0 -0.67460067710E+01  0.60482139955E+01  0.16333822215E+01  0.17144736054E+03  0.17120000000E+03 0.  0.
        998    1    1    2    0    0  0.17023488284E+02 -0.41992905138E+01  0.14552285721E+04  0.14553685548E+04  0.10000000000E+02 0.  1.
</event>
<event>
 5    1  0.1245771E-008  0.3777157E+03  0.7957747E-01  0.3461166E+00
         13   -1    0    0    0    0  0.00000000000E+00  0.00000000000E+00  0.14999999963E+04  0.15000000000E+04  0.10566000000E+00 0.  1.
        994   -1    0    0    0    0 -0.00000000000E+00 -0.00000000000E+00  0.11368683772E-12  0.17120000000E+03  0.17120000000E+03 0.  0.
         13    1    1    2    0    0 -0.21629243263E+02 -0.62664067880E+02  0.34910250390E+03  0.35534093342E+03  0.10566000000E+00 0.  1.
        994    1    1    2    0    0  0.11590258468E+02  0.56017864131E+02  0.16393507128E+02  0.18124713037E+03  0.17120000000E+03 0.  0.
        998    1    1    2    0    0  0.10038984795E+02  0.66462037490E+01  0.11345039852E+04  0.11346119362E+04  0.10000000000E+02 0.  1.
</event>
<event>
 5    1  0.1245771E-008  0.3771415E+03  0.7957747E-01  0.3463700E+00
         13   -1    0    0    0    0  0.00000000000E+00  0.00000000000E+00  0.14999999963E+04  0.15000000000E+04  0.10566000000E+00 0. -1.
        994   -1    0    0    0    0 -0.00000000000E+00 -0.00000000000E+00  0.11368683772E-12  0.17120000000E+03  0.17120000000E+03 0.  0.
         13    1    1    2    0    0 -0.55630410132E+02 -0.97681734851E+00  0.24705185079E+03  0.25323965892E+03  0.10566000000E+00 0. -1.
        994    1    1    2    0    0  0.47038033875E+02 -0.26716756420E+01  0.13111179806E+02  0.17804790793E+03  0.17120000000E+03 0.  0.
        998    1    1    2    0    0  0.85923762570E+01  0.36484929905E+01  0.12398369657E+04  0.12399124332E+04  0.10000000000E+02 0. -1.
</event>
<event>
 5    1  0.1245771E-008  0.3686607E+03  0.7957747E-01  0.3502069E+00
         13   -1    0    0    0    0  0.00000000000E+00  0.00000000000E+00  0.14999999963E+04  0.15000000000E+04  0.10566000000E+00 0. -1.
        994   -1    0    0    0    0 -0.00000000000E+00 -0.00000000000E+00  0.11368683772E-12  0.17120000000E+03  0.17120000000E+03 0.  0.
         13    1    1    2    0    0 -0.43496531930E+02  0.78285897987E+02  0.34288957783E+03  0.35439230221E+03  0.10566000000E+00 0. -1.
        994    1    1    2    0    0  0.50047839267E+02 -0.53069280006E+02  0.28984433458E+02  0.18833659251E+03  0.17120000000E+03 0.  0.
        998    1    1    2    0    0 -0.65513073374E+01 -0.25216617981E+02  0.11281259850E+04  0.11284711053E+04  0.10000000000E+02 0. -1.
</event>
<event>
 5    1  0.1245771E-008  0.3801146E+03  0.7957747E-01  0.3450660E+00
         13   -1    0    0    0    0  0.00000000000E+00  0.00000000000E+00  0.14999999963E+04  0.15000000000E+04  0.10566000000E+00 0. -1.
        994   -1    0    0    0    0 -0.00000000000E+00 -0.00000000000E+00  0.11368683772E-12  0.17120000000E+03  0.17120000000E+03 0.  0.
         13    1    1    2    0    0  0.69303449628E+01  0.31432422747E+02  0.11650569702E+03  0.12087024234E+03  0.10566000000E+00 0. -1.
        994    1    1    2    0    0 -0.11974007199E+02 -0.31203871235E+02  0.78171568872E+01  0.17460700550E+03  0.17120000000E+03 0.  0.
        998    1    1    2    0    0  0.50436622363E+01 -0.22855151204E+00  0.13756771424E+04  0.13757227522E+04  0.10000000000E+02 0. -1.
</event>
<event>
 5    1  0.1245771E-008  0.3816675E+03  0.7957747E-01  0.3443930E+00
         13   -1    0    0    0    0  0.00000000000E+00  0.00000000000E+00  0.14999999963E+04  0.15000000000E+04  0.10566000000E+00 0.  1.
        994   -1    0    0    0    0 -0.00000000000E+00 -0.00000000000E+00  0.11368683772E-12  0.17120000000E+03  0.17120000000E+03 0.  0.
         13    1    1    2    0    0 -0.32004529386E+02 -0.29489780738E+02  0.24329178805E+03  0.24715347938E+03  0.10566000000E+00 0.  1.
        994    1    1    2    0    0  0.38038080862E+02  0.22779830088E+02  0.98570457631E+01  0.17712260614E+03  0.17120000000E+03 0.  0.
        998    1    1    2    0    0 -0.60335514761E+01  0.67099506496E+01  0.12468511625E+04  0.12469239145E+04  0.10000000000E+02 0.  1.
</event>
<event>
 5    1  0.1245771E-008  0.3856333E+03  0.7957747E-01  0.3426991E+00
         13   -1    0    0    0    0  0.00000000000E+00  0.00000000000E+00  0.14999999963E+04  0.15000000000E+04  0.10566000000E+00 0. -1.
        994   -1    0    0    0    0 -0.00000000000E+00 -0.00000000000E+00  0.11368683772E-12  0.17120000000E+03  0.17120000000E+03 0.  0.
         13    1    1    2    0    0 -0.11716863606E+02  0.68678980556E+01  0.71343135083E+02  0.72624424294E+02  0.10566000000E+00 0. -1.
        994    1    1    2    0    0  0.10251325806E+02  0.26184220781E+01  0.16835019283E+01  0.17153489439E+03  0.17120000000E+03 0.  0.
        998    1    1    2    0    0  0.14655377991E+01 -0.94863201338E+01  0.14269733593E+04  0.14270406813E+04  0.10000000000E+02 0. -1.
</event>
<event>
 5    1  0.1245771E-008  0.3794432E+03  0.7957747E-01  0.3453587E+00
         13   -1    0    0    0    0  0.00000000000E+00  0.00000000000E+00  0.14999999963E+04  0.15000000000E+04  0.10566000000E+00 0.  1.
        994   -1    0    0    0    0 -0.00000000000E+00 -0.00000000000E+00  0.11368683772E-12  0.17120000000E+03  0.17120000000E+03 0.  0.
         13    1    1    2    0    0  0.92941156963E+02  0.41962044807E+02  0.59740408561E+03  0.60604498557E+03  0.10566000000E+00 0.  1.
        994    1    1    2    0    0 -0.12030668393E+03 -0.14932279461E+02  0.55320576165E+02  0.21694809820E+03  0.17120000000E+03 0.  0.
        998    1    1    2    0    0  0.27365526965E+02 -0.27029765346E+02  0.84727533450E+03  0.84820691623E+03  0.10000000000E+02 0. -1.
</event>
<event>
 5    1  0.1245771E-008  0.3726959E+03  0.7957747E-01  0.3483592E+00
         13   -1    0    0    0    0  0.00000000000E+00  0.00000000000E+00  0.14999999963E+04  0.15000000000E+04  0.10566000000E+00 0.  1.
        994   -1    0    0    0    0 -0.00000000000E+00 -0.00000000000E+00  0.11368683772E-12  0.17120000000E+03  0.17120000000E+03 0.  0.
         13    1    1    2    0    0  0.10251832110E+02 -0.42087657430E+02  0.11988634559E+03  0.12747242052E+03  0.10566000000E+00 0.  1.
        994    1    1    2    0    0 -0.16436203059E+02  0.16457225875E+02  0.97222601538E+01  0.17304609616E+03  0.17120000000E+03 0.  0.
        998    1    1    2    0    0  0.61843709495E+01  0.25630431555E+02  0.13703913905E+04  0.13706814833E+04  0.10000000000E+02 0.  1.
</event>
<event>
 5    1  0.1245771E-008  0.3725320E+03  0.7957747E-01  0.3484335E+00
         13   -1    0    0    0    0  0.00000000000E+00  0.00000000000E+00  0.14999999963E+04  0.15000000000E+04  0.10566000000E+00 0.  1.
        994   -1    0    0    0    0 -0.00000000000E+00 -0.00000000000E+00  0.11368683772E-12  0.17120000000E+03  0.17120000000E+03 0.  0.
         13    1    1    2    0    0  0.87901412403E+01  0.14433304284E+02  0.59815009317E+01  0.17926973337E+02  0.10566000000E+00 0.  1.
        994    1    1    2    0    0 -0.91520144545E+01 -0.17270234569E+02  0.13632537839E+02  0.17285053213E+03  0.17120000000E+03 0.  0.
        998    1    1    2    0    0  0.36187321424E+00  0.28369302845E+01  0.14803859575E+04  0.14804224945E+04  0.10000000000E+02 0.  1.
</event>
<event>
 5    1  0.1245771E-008  0.3768821E+03  0.7957747E-01  0.3464848E+00
         13   -1    0    0    0    0  0.00000000000E+00  0.00000000000E+00  0.14999999963E+04  0.15000000000E+04  0.10566000000E+00 0.  1.
        994   -1    0    0    0    0 -0.00000000000E+00 -0.00000000000E+00  0.11368683772E-12  0.17120000000E+03  0.17120000000E+03 0.  0.
         13    1    1    2    0    0 -0.64673778400E+02 -0.78975820358E+01  0.32844938880E+03  0.33484934162E+03  0.10566000000E+00 0.  1.
        994    1    1    2    0    0  0.55090157483E+02 -0.19760952479E+02  0.17374485555E+02  0.18176009860E+03  0.17120000000E+03 0.  0.
        998    1    1    2    0    0  0.95836209165E+01  0.27658534515E+02  0.11541761219E+04  0.11545905598E+04  0.10000000000E+02 0.  1.
</event>
<event>
 5    1  0.1245771E-008  0.3697028E+03  0.7957747E-01  0.3497258E+00
         13   -1    0    0    0    0  0.00000000000E+00  0.00000000000E+00  0.14999999963E+04  0.15000000000E+04  0.10566000000E+00 0. -1.
        994   -1    0    0    0    0 -0.00000000000E+00 -0.00000000000E+00  0.11368683772E-12  0.17120000000E+03  0.17120000000E+03 0.  0.
         13    1    1    2    0    0 -0.11015159465E+02  0.12837276843E+01  0.21835669872E+01  0.11303133354E+02  0.10566000000E+00 0. -1.
        994    1    1    2    0    0 -0.35430443409E+01 -0.36019866393E+02  0.13972174109E+02  0.17554100828E+03  0.17120000000E+03 0.  0.
        998    1    1    2    0    0  0.14558203806E+02  0.34736138709E+02  0.14838442552E+04  0.14843558584E+04  0.10000000000E+02 0. -1.
</event>
<event>
 5    1  0.1245771E-008  0.3789078E+03  0.7957747E-01  0.3455928E+00
         13   -1    0    0    0    0  0.00000000000E+00  0.00000000000E+00  0.14999999963E+04  0.15000000000E+04  0.10566000000E+00 0.  1.
        994   -1    0    0    0    0 -0.00000000000E+00 -0.00000000000E+00  0.11368683772E-12  0.17120000000E+03  0.17120000000E+03 0.  0.
         13    1    1    2    0    0  0.43832945952E+02  0.15453339659E+02  0.25069987982E+03  0.25497171169E+03  0.10566000000E+00 0.  1.
        994    1    1    2    0    0 -0.14692555170E+02 -0.44114221931E+01  0.54754298944E+01  0.17197311463E+03  0.17120000000E+03 0.  0.
        998    1    1    2    0    0 -0.29140390782E+02 -0.11041917465E+02  0.12438246866E+04  0.12442551737E+04  0.10000000000E+02 0.  1.
</event>
<event>
 5    1  0.1245771E-008  0.3723133E+03  0.7957747E-01  0.3485327E+00
         13   -1    0    0    0    0  0.00000000000E+00  0.00000000000E+00  0.14999999963E+04  0.15000000000E+04  0.10566000000E+00 0. -1.
        994   -1    0    0    0    0 -0.00000000000E+00 -0.00000000000E+00  0.11368683772E-12  0.17120000000E+03  0.17120000000E+03 0.  0.
         13    1    1    2    0    0  0.39833763383E+02  0.13853675803E+02  0.66727654532E+02  0.78938229533E+02  0.10566000000E+00 0. -1.
        994    1    1    2    0    0 -0.34751393243E+02 -0.15097031450E+02  0.17244013628E+02  0.17618846641E+03  0.17120000000E+03 0.  0.
        998    1    1    2    0    0 -0.50823701401E+01  0.12433556467E+01  0.14160283281E+04  0.14160733041E+04  0.10000000000E+02 0. -1.
</event>
<event>
 5    1  0.1245771E-008  0.3686753E+03  0.7957747E-01  0.3502001E+00
         13   -1    0    0    0    0  0.00000000000E+00  0.00000000000E+00  0.14999999963E+04  0.15000000000E+04  0.10566000000E+00 0.  1.
        994   -1    0    0    0    0 -0.00000000000E+00 -0.00000000000E+00  0.11368683772E-12  0.17120000000E+03  0.17120000000E+03 0.  0.
         13    1    1    2    0    0  0.52805851008E+02  0.25804181640E+02  0.18154644183E+03  0.19082304734E+03  0.10566000000E+00 0.  1.
        994    1    1    2    0    0 -0.26320864961E+02  0.41385187453E+01  0.12432973569E+02  0.17370645958E+03  0.17120000000E+03 0.  0.
        998    1    1    2    0    0 -0.26484986047E+02 -0.29942700385E+02  0.13060205809E+04  0.13066704931E+04  0.10000000000E+02 0.  1.
</event>
<event>
 5    1  0.1245771E-008  0.3846202E+03  0.7957747E-01  0.3431285E+00
         13   -1    0    0    0    0  0.00000000000E+00  0.00000000000E+00  0.14999999963E+04  0.15000000000E+04  0.10566000000E+00 0.  1.
        994   -1    0    0    0    0 -0.00000000000E+00 -0.00000000000E+00  0.11368683772E-12  0.17120000000E+03  0.17120000000E+03 0.  0.
         13    1    1    2    0    0  0.12231876110E+02 -0.92187430546E+01  0.65342558427E+02  0.67113822142E+02  0.10566000000E+00 0.  1.
        994    1    1    2    0    0 -0.31839615876E+01  0.81707007648E+01  0.20720768636E+01  0.17143696061E+03  0.17120000000E+03 0.  0.
        998    1    1    2    0    0 -0.90479145225E+01  0.10480422898E+01  0.14325853610E+04  0.14326492172E+04  0.10000000000E+02 0.  1.
</event>
<event>
 5    1  0.1245771E-008  0.3829706E+03  0.7957747E-01  0.3438325E+00
         13   -1    0    0    0    0  0.00000000000E+00  0.00000000000E+00  0.14999999963E+04  0.15000000000E+04  0.10566000000E+00 0. -1.
        994   -1    0    0    0    0 -0.00000000000E+00 -0.00000000000E+00  0.11368683772E-12  0.17120000000E+03  0.17120000000E+03 0.  0.
         13    1    1    2    0    0 -0.81234633968E+01 -0.78744029112E+01  0.23409079226E+02  0.25999866019E+02  0.10566000000E+00 0. -1.
        994    1    1    2    0    0  0.61375167041E+01  0.25454910147E+01  0.27872409371E+01  0.17135156068E+03  0.17120000000E+03 0.  0.
        998    1    1    2    0    0  0.19859466927E+01  0.53289118965E+01  0.14738036761E+04  0.14738485733E+04  0.10000000000E+02 0. -1.
</event>
<event>
 5    1  0.1245771E-008  0.3849769E+03  0.7957747E-01  0.3429770E+00
         13   -1    0    0    0    0  0.00000000000E+00  0.00000000000E+00  0.14999999963E+04  0.15000000000E+04  0.10566000000E+00 0.  1.
        994   -1    0    0    0    0 -0.00000000000E+00 -0.00000000000E+00  0.11368683772E-12  0.17120000000E+03  0.17120000000E+03 0.  0.
         13    1    1    2    0    0  0.10908652724E+02  0.35429995583E+01  0.40816579933E+02  0.42397593229E+02  0.10566000000E+00 0.  1.
        994    1    1    2    0    0 -0.49003197626E+01  0.39908197873E+01  0.17729535815E+01  0.17132578072E+03  0.17120000000E+03 0.  0.
        998    1    1    2    0    0 -0.60083329618E+01 -0.75338193455E+01  0.14574104628E+04  0.14574766260E+04  0.10000000000E+02 0.  1.
</event>
<event>
 5    1  0.1245771E-008  0.3797737E+03  0.7957747E-01  0.3452144E+00
         13   -1    0    0    0    0  0.00000000000E+00  0.00000000000E+00  0.14999999963E+04  0.15000000000E+04  0.10566000000E+00 0. -1.
        994   -1    0    0    0    0 -0.00000000000E+00 -0.00000000000E+00  0.11368683772E-12  0.17120000000E+03  0.17120000000E+03 0.  0.
         13    1    1    2    0    0  0.51021624940E+02  0.33266439589E+02  0.28371862392E+03  0.29018292668E+03  0.10566000000E+00 0. -1.
        994    1    1    2    0    0 -0.71735164207E+02 -0.47444411817E+02  0.29404078641E+02  0.19383226212E+03  0.17120000000E+03 0.  0.
        998    1    1    2    0    0  0.20713539267E+02  0.14177972228E+02  0.11868772937E+04  0.11871848112E+04  0.10000000000E+02 0. -1.
</event>
<event>
 5    1  0.1245771E-008  0.3764187E+03  0.7957747E-01  0.3466902E+00
         13   -1    0    0    0    0  0.00000000000E+00  0.00000000000E+00  0.14999999963E+04  0.15000000000E+04  0.10566000000E+00 0. -1.
        994   -1    0    0    0    0 -0.00000000000E+00 -0.00000000000E+00  0.11368683772E-12  0.17120000000E+03  0.17120000000E+03 0.  0.
         13    1    1    2    0    0  0.11455159262E+03 -0.57190961692E+02  0.51299155320E+03  0.52872792463E+03  0.10566000000E+00 0. -1.
        994    1    1    2    0    0 -0.70926132293E+02  0.55369901313E+02  0.43932165433E+02  0.19833259282E+03  0.17120000000E+03 0.  0.
        998    1    1    2    0    0 -0.43625460324E+02  0.18210603785E+01  0.94307627765E+03  0.94413948255E+03  0.10000000000E+02 0. -1.
</event>
<event>
 5    1  0.1245771E-008  0.3904775E+03  0.7957747E-01  0.3406768E+00
         13   -1    0    0    0    0  0.00000000000E+00  0.00000000000E+00  0.14999999963E+04  0.15000000000E+04  0.10566000000E+00 0. -1.
        994   -1    0    0    0    0 -0.00000000000E+00 -0.00000000000E+00  0.11368683772E-12  0.17120000000E+03  0.17120000000E+03 0.  0.
         13    1    1    2    0    0 -0.14860254686E+02 -0.76172706694E+02  0.14598265259E+03  0.16533013771E+03  0.10566000000E+00 0. -1.
        994    1    1    2    0    0  0.36099399314E+02  0.80580313391E+01  0.27379495787E+02  0.17727711440E+03  0.17120000000E+03 0.  0.
        998    1    1    2    0    0 -0.21239144628E+02  0.68114675354E+02  0.13266378479E+04  0.13285927479E+04  0.10000000000E+02 0. -1.
</event>
<event>
 5    1  0.1245771E-008  0.3849251E+03  0.7957747E-01  0.3429990E+00
         13   -1    0    0    0    0  0.00000000000E+00  0.00000000000E+00  0.14999999963E+04  0.15000000000E+04  0.10566000000E+00 0.  1.
        994   -1    0    0    0    0 -0.00000000000E+00 -0.00000000000E+00  0.11368683772E-12  0.17120000000E+03  0.17120000000E+03 0.  0.
         13    1    1    2    0    0  0.17784913199E+02  0.16868892427E+01  0.91101839305E+02  0.92836980894E+02  0.10566000000E+00 0.  1.
        994    1    1    2    0    0 -0.18764707610E+02  0.45884166815E+01  0.28957909349E+01  0.17231074669E+03  0.17120000000E+03 0.  0.
        998    1    1    2    0    0  0.97979441048E+00 -0.62753059242E+01  0.14060023660E+04  0.14060522724E+04  0.10000000000E+02 0.  1.
</event>
<event>
 5    1  0.1245771E-008  0.3851259E+03  0.7957747E-01  0.3429138E+00
         13   -1    0    0    0    0  0.00000000000E+00  0.00000000000E+00  0.14999999963E+04  0.15000000000E+04  0.10566000000E+00 0. -1.
        994   -1    0    0    0    0 -0.00000000000E+00 -0.00000000000E+00  0.11368683772E-12  0.17120000000E+03  0.17120000000E+03 0.  0.
         13    1    1    2    0    0  0.28183779291E+01  0.10388202926E+02  0.35833308320E+02  0.37415172903E+02  0.10566000000E+00 0. -1.
        994    1    1    2    0    0 -0.16341949406E+01 -0.13081852066E+02  0.21392045870E+01  0.17172018415E+03  0.17120000000E+03 0.  0.
        998    1    1    2    0    0 -0.11841829885E+01  0.26936491396E+01  0.14620274834E+04  0.14620646430E+04  0.10000000000E+02 0.  0.
</event>
<event>
 5    1  0.1245771E-008  0.3919651E+03  0.7957747E-01  0.3400659E+00
         13   -1    0    0    0    0  0.00000000000E+00  0.00000000000E+00  0.14999999963E+04  0.15000000000E+04  0.10566000000E+00 0. -1.
        994   -1    0    0    0    0 -0.00000000000E+00 -0.00000000000E+00  0.11368683772E-12  0.17120000000E+03  0.17120000000E+03 0.  0.
         13    1    1    2    0    0 -0.22262979952E+02  0.27839444779E+02  0.18977857658E+02  0.40383724534E+02  0.10566000000E+00 0. -1.
        994    1    1    2    0    0  0.44379682187E+00 -0.17752209912E+02  0.24258025476E+02  0.17381953202E+03  0.17120000000E+03 0.  0.
        998    1    1    2    0    0  0.21819183130E+02 -0.10087234867E+02  0.14567641131E+04  0.14569967434E+04  0.10000000000E+02 0. -1.
</event>
<event>
 5    1  0.1245771E-008  0.3778872E+03  0.7957747E-01  0.3460410E+00
         13   -1    0    0    0    0  0.00000000000E+00  0.00000000000E+00  0.14999999963E+04  0.15000000000E+04  0.10566000000E+00 0. -1.
        994   -1    0    0    0    0 -0.00000000000E+00 -0.00000000000E+00  0.11368683772E-12  0.17120000000E+03  0.17120000000E+03 0.  0.
         13    1    1    2    0    0 -0.78574084941E+02 -0.34990380895E+02  0.49282117328E+03  0.50027086022E+03  0.10566000000E+00 0. -1.
        994    1    1    2    0    0  0.60407212095E+02  0.84912593229E+02  0.42678123735E+02  0.20491471886E+03  0.17120000000E+03 0.  0.
        998    1    1    2    0    0  0.18166872846E+02 -0.49922212333E+02  0.96450069926E+03  0.96601442092E+03  0.10000000000E+02 0. -1.
</event>
<event>
 5    1  0.1245771E-008  0.3737878E+03  0.7957747E-01  0.3478662E+00
         13   -1    0    0    0    0  0.00000000000E+00  0.00000000000E+00  0.14999999963E+04  0.15000000000E+04  0.10566000000E+00 0. -1.
        994   -1    0    0    0    0 -0.00000000000E+00 -0.00000000000E+00  0.11368683772E-12  0.17120000000E+03  0.17120000000E+03 0.  0.
         13    1    1    2    0    0  0.23380115072E+01  0.37812168097E+02  0.99441571713E+02  0.10641364434E+03  0.10566000000E+00 0. -1.
        994    1    1    2    0    0 -0.76207191194E+01 -0.13474003240E+02  0.81208014610E+01  0.17209012621E+03  0.17120000000E+03 0.  0.
        998    1    1    2    0    0  0.52827076121E+01 -0.24338164857E+02  0.13924376231E+04  0.13926962294E+04  0.10000000000E+02 0. -1.
</event>
<event>
 5    1  0.1245771E-008  0.3796233E+03  0.7957747E-01  0.3452800E+00
         13   -1    0    0    0    0  0.00000000000E+00  0.00000000000E+00  0.14999999963E+04  0.15000000000E+04  0.10566000000E+00 0. -1.
        994   -1    0    0    0    0 -0.00000000000E+00 -0.00000000000E+00  0.11368683772E-12  0.17120000000E+03  0.17120000000E+03 0.  0.
         13    1    1    2    0    0 -0.51025950043E+02 -0.41782673878E+01  0.26412402584E+03  0.26904017858E+03  0.10566000000E+00 0. -1.
        994    1    1    2    0    0  0.45054287419E+02  0.33543156217E+01  0.11185736099E+02  0.17741392544E+03  0.17120000000E+03 0.  0.
        998    1    1    2    0    0  0.59716626238E+01  0.82395176611E+00  0.12246902343E+04  0.12247458960E+04  0.10000000000E+02 0. -1.
</event>
<event>
 5    1  0.1245771E-008  0.3810557E+03  0.7957747E-01  0.3446575E+00
         13   -1    0    0    0    0  0.00000000000E+00  0.00000000000E+00  0.14999999963E+04  0.15000000000E+04  0.10566000000E+00 0. -1.
        994   -1    0    0    0    0 -0.00000000000E+00 -0.00000000000E+00  0.11368683772E-12  0.17120000000E+03  0.17120000000E+03 0.  0.
         13    1    1    2    0    0 -0.52253873795E+00  0.11956793570E+02  0.18555328894E+02  0.22080519776E+02  0.10566000000E+00 0. -1.
        994    1    1    2    0    0 -0.18984371994E+01 -0.55276047162E+01  0.37150030013E+01  0.17134001204E+03  0.17120000000E+03 0.  0.
        998    1    1    2    0    0  0.24209759374E+01 -0.64291888534E+01  0.14777296644E+04  0.14777794682E+04  0.10000000000E+02 0. -1.
</event>
<event>
 5    1  0.1245771E-008  0.3687666E+03  0.7957747E-01  0.3501578E+00
         13   -1    0    0    0    0  0.00000000000E+00  0.00000000000E+00  0.14999999963E+04  0.15000000000E+04  0.10566000000E+00 0. -1.
        994   -1    0    0    0    0 -0.00000000000E+00 -0.00000000000E+00  0.11368683772E-12  0.17120000000E+03  0.17120000000E+03 0.  0.
         13    1    1    2    0    0  0.47010662239E+02  0.76539992640E+02  0.39035901525E+03  0.40056028858E+03  0.10566000000E+00 0. -1.
        994    1    1    2    0    0  0.35553403621E+01 -0.70909499755E+02  0.27629241481E+02  0.18738626573E+03  0.17120000000E+03 0.  0.
        998    1    1    2    0    0 -0.50566002602E+02 -0.56304928850E+01  0.10820117395E+04  0.10832534457E+04  0.10000000000E+02 0. -1.
</event>
<event>
 5    1  0.1245771E-008  0.3847409E+03  0.7957747E-01  0.3430772E+00
         13   -1    0    0    0    0  0.00000000000E+00  0.00000000000E+00  0.14999999963E+04  0.15000000000E+04  0.10566000000E+00 0. -1.
        994   -1    0    0    0    0 -0.00000000000E+00 -0.00000000000E+00  0.11368683772E-12  0.17120000000E+03  0.17120000000E+03 0.  0.
         13    1    1    2    0    0  0.25247777533E+02 -0.49504951443E+01  0.15429516391E+03  0.15642559395E+03  0.10566000000E+00 0. -1.
        994    1    1    2    0    0 -0.33684153207E+02  0.24635526171E+02  0.75120586774E+01  0.17637290708E+03  0.17120000000E+03 0.  0.
        998    1    1    2    0    0  0.84363756739E+01 -0.19685031027E+02  0.13381927737E+04  0.13384014990E+04  0.10000000000E+02 0. -1.
</event>
<event>
 5    1  0.1245771E-008  0.3836362E+03  0.7957747E-01  0.3435477E+00
         13   -1    0    0    0    0  0.00000000000E+00  0.00000000000E+00  0.14999999963E+04  0.15000000000E+04  0.10566000000E+00 0. -1.
        994   -1    0    0    0    0 -0.00000000000E+00 -0.00000000000E+00  0.11368683772E-12  0.17120000000E+03  0.17120000000E+03 0.  0.
         13    1    1    2    0    0 -0.16390145705E+02 -0.19833527541E+02  0.12350681310E+03  0.12615843110E+03  0.10566000000E+00 0. -1.
        994    1    1    2    0    0 -0.24074935304E+01  0.50410172655E+02  0.10767973609E+02  0.17880819553E+03  0.17120000000E+03 0.  0.
        998    1    1    2    0    0  0.18797639235E+02 -0.30576645113E+02  0.13657252096E+04  0.13662333734E+04  0.10000000000E+02 0. -1.
</event>
<event>
 5    1  0.1245771E-008  0.3854194E+03  0.7957747E-01  0.3427896E+00
         13   -1    0    0    0    0  0.00000000000E+00  0.00000000000E+00  0.14999999963E+04  0.15000000000E+04  0.10566000000E+00 0. -1.
        994   -1    0    0    0    0 -0.00000000000E+00 -0.00000000000E+00  0.11368683772E-12  0.17120000000E+03  0.17120000000E+03 0.  0.
         13    1    1    2    0    0 -0.88363276143E+01  0.12683195453E+02  0.89869652608E+02  0.91189416911E+02  0.10566000000E+00 0. -1.
        994    1    1    2    0    0  0.81296239443E+01  0.28562852927E+01  0.16659626301E+01  0.17142480737E+03  0.17120000000E+03 0.  0.
        998    1    1    2    0    0  0.70670367008E+00 -0.15539480746E+02  0.14084643810E+04  0.14085857757E+04  0.10000000000E+02 0. -1.
</event>
<event>
 5    1  0.1245771E-008  0.3794772E+03  0.7957747E-01  0.3453438E+00
         13   -1    0    0    0    0  0.00000000000E+00  0.00000000000E+00  0.14999999963E+04  0.15000000000E+04  0.10566000000E+00 0.  1.
        994   -1    0    0    0    0 -0.00000000000E+00 -0.00000000000E+00  0.11368683772E-12  0.17120000000E+03  0.17120000000E+03 0.  0.
         13    1    1    2    0    0  0.12648633102E+02  0.25399121920E+02  0.86159508337E+02  0.90711495162E+02  0.10566000000E+00 0.  1.
        994    1    1    2    0    0 -0.17574742712E+02 -0.21257176948E+02  0.69489723946E+01  0.17354672965E+03  0.17120000000E+03 0.  0.
        998    1    1    2    0    0  0.49261096105E+01 -0.41419449725E+01  0.14068915155E+04  0.14069417752E+04  0.10000000000E+02 0.  1.
</event>
<event>
 5    1  0.1245771E-008  0.3737450E+03  0.7957747E-01  0.3478855E+00
         13   -1    0    0    0    0  0.00000000000E+00  0.00000000000E+00  0.14999999963E+04  0.15000000000E+04  0.10566000000E+00 0. -1.
        994   -1    0    0    0    0 -0.00000000000E+00 -0.00000000000E+00  0.11368683772E-12  0.17120000000E+03  0.17120000000E+03 0.  0.
         13    1    1    2    0    0  0.11108201711E+02  0.14425919569E+02  0.19253784935E+02  0.26499409409E+02  0.10566000000E+00 0. -1.
        994    1    1    2    0    0 -0.73935387972E+01 -0.16825239456E+02  0.84784413718E+01  0.17239221870E+03  0.17120000000E+03 0.  0.
        998    1    1    2    0    0 -0.37146629134E+01  0.23993198872E+01  0.14722677700E+04  0.14723083719E+04  0.10000000000E+02 0. -1.
</event>
<event>
 5    1  0.1245771E-008  0.3751597E+03  0.7957747E-01  0.3472509E+00
         13   -1    0    0    0    0  0.00000000000E+00  0.00000000000E+00  0.14999999963E+04  0.15000000000E+04  0.10566000000E+00 0. -1.
        994   -1    0    0    0    0 -0.00000000000E+00 -0.00000000000E+00  0.11368683772E-12  0.17120000000E+03  0.17120000000E+03 0.  0.
         13    1    1    2    0    0 -0.11596735733E+03  0.24317413835E+02  0.66723378610E+03  0.67767300452E+03  0.10566000000E+00 0. -1.
        994    1    1    2    0    0  0.10462704330E+03 -0.23749926401E+02  0.46767324261E+02  0.20738249640E+03  0.17120000000E+03 0.  0.
        998    1    1    2    0    0  0.11340314028E+02 -0.56748743330E+00  0.78599888592E+03  0.78614449908E+03  0.10000000000E+02 0.  0.
</event>
<event>
 5    1  0.1245771E-008  0.3799084E+03  0.7957747E-01  0.3451558E+00
         13   -1    0    0    0    0  0.00000000000E+00  0.00000000000E+00  0.14999999963E+04  0.15000000000E+04  0.10566000000E+00 0. -1.
        994   -1    0    0    0    0 -0.00000000000E+00 -0.00000000000E+00  0.11368683772E-12  0.17120000000E+03  0.17120000000E+03 0.  0.
         13    1    1    2    0    0  0.26990552161E+02 -0.12405383031E+02  0.94579739327E+02  0.99134866164E+02  0.10566000000E+00 0. -1.
        994    1    1    2    0    0 -0.38370228955E+02  0.65997110392E+01  0.92649356953E+01  0.17581555588E+03  0.17120000000E+03 0.  0.
        998    1    1    2    0    0  0.11379676794E+02  0.58056719918E+01  0.13961553213E+04  0.13962495780E+04  0.10000000000E+02 0. -1.
</event>
<event>
 5    1  0.1245771E-008  0.3842015E+03  0.7957747E-01  0.3433066E+00
         13   -1    0    0    0    0  0.00000000000E+00  0.00000000000E+00  0.14999999963E+04  0.15000000000E+04  0.10566000000E+00 0. -1.
        994   -1    0    0    0    0 -0.00000000000E+00 -0.00000000000E+00  0.11368683772E-12  0.17120000000E+03  0.17120000000E+03 0.  0.
         13    1    1    2    0    0 -0.14058614198E+01  0.28248844638E+02  0.15721725028E+03  0.15974119262E+03  0.10566000000E+00 0. -1.
        994    1    1    2    0    0 -0.17336988597E+02 -0.44664404151E+02  0.96327420320E+01  0.17803850676E+03  0.17120000000E+03 0.  0.
        998    1    1    2    0    0  0.18742850016E+02  0.16415559513E+02  0.13331500040E+04  0.13334203006E+04  0.10000000000E+02 0. -1.
</event>
<event>
 5    1  0.1245771E-008  0.3758454E+03  0.7957747E-01  0.3469450E+00
         13   -1    0    0    0    0  0.00000000000E+00  0.00000000000E+00  0.14999999963E+04  0.15000000000E+04  0.10566000000E+00 0.  1.
        994   -1    0    0    0    0 -0.00000000000E+00 -0.00000000000E+00  0.11368683772E-12  0.17120000000E+03  0.17120000000E+03 0.  0.
         13    1    1    2    0    0 -0.15371696865E+02 -0.15108433959E+02  0.33257269623E+02  0.39630934735E+02  0.10566000000E+00 0.  1.
        994    1    1    2    0    0  0.15778431122E+02  0.25580523968E+02  0.93131527321E+01  0.17406750676E+03  0.17120000000E+03 0.  0.
        998    1    1    2    0    0 -0.40673425713E+00 -0.10472090010E+02  0.14574295739E+04  0.14575015585E+04  0.10000000000E+02 0.  1.
</event>
<event>
 5    1  0.1245771E-008  0.3800624E+03  0.7957747E-01  0.3450887E+00
         13   -1    0    0    0    0  0.00000000000E+00  0.00000000000E+00  0.14999999963E+04  0.15000000000E+04  0.10566000000E+00 0. -1.
        994   -1    0    0    0    0 -0.00000000000E+00 -0.00000000000E+00  0.11368683772E-12  0.17120000000E+03  0.17120000000E+03 0.  0.
         13    1    1    2    0    0  0.37937377550E+02  0.87531789163E+01  0.20454404796E+03  0.20821657350E+03  0.10566000000E+00 0. -1.
        994    1    1    2    0    0 -0.52389124799E+01 -0.15282873568E+02  0.49745111995E+01  0.17203254980E+03  0.17120000000E+03 0.  0.
        998    1    1    2    0    0 -0.32698465070E+02  0.65296946518E+01  0.12904814371E+04  0.12909508767E+04  0.10000000000E+02 0. -1.
</event>
<event>
 5    1  0.1245771E-008  0.3751615E+03  0.7957747E-01  0.3472501E+00
         13   -1    0    0    0    0  0.00000000000E+00  0.00000000000E+00  0.14999999963E+04  0.15000000000E+04  0.10566000000E+00 0.  1.
        994   -1    0    0    0    0 -0.00000000000E+00 -0.00000000000E+00  0.11368683772E-12  0.17120000000E+03  0.17120000000E+03 0.  0.
         13    1    1    2    0    0 -0.15137366913E+02  0.93851689657E+01  0.22389467587E+02  0.28609800706E+02  0.10566000000E+00 0.  1.
        994    1    1    2    0    0  0.18114229575E+01  0.20135470918E+02  0.79856249626E+01  0.17257441481E+03  0.17120000000E+03 0.  0.
        998    1    1    2    0    0  0.13325943955E+02 -0.29520639883E+02  0.14696249037E+04  0.14700157845E+04  0.10000000000E+02 0.  1.
</event>
<event>
 5    1  0.1245771E-008  0.3845733E+03  0.7957747E-01  0.3431484E+00
         13   -1    0    0    0    0  0.00000000000E+00  0.00000000000E+00  0.14999999963E+04  0.15000000000E+04  0.10566000000E+00 0. -1.
        994   -1    0    0    0    0 -0.00000000000E+00 -0.00000000000E+00  0.11368683772E-12  0.17120000000E+03  0.17120000000E+03 0.  0.
         13    1    1    2    0    0  0.11002594706E+02  0.10539339019E+02  0.60784126709E+02  0.62664631021E+02  0.10566000000E+00 0. -1.
        994    1    1    2    0    0 -0.56831178707E+01 -0.16858809885E+02  0.28851677774E+01  0.17214610508E+03  0.17120000000E+03 0.  0.
        998    1    1    2    0    0 -0.53194768356E+01  0.63194708659E+01  0.14363307018E+04  0.14363892639E+04  0.10000000000E+02 0. -1.
</event>
<event>
 5    1  0.1245771E-008  0.3809717E+03  0.7957747E-01  0.3446938E+00
         13   -1    0    0    0    0  0.00000000000E+00  0.00000000000E+00  0.14999999963E+04  0.15000000000E+04  0.10566000000E+00 0. -1.
        994   -1    0    0    0    0 -0.00000000000E+00 -0.00000000000E+00  0.11368683772E-12  0.17120000000E+03  0.17120000000E+03 0.  0.
         13    1    1    2    0    0 -0.14802505691E+02 -0.19436690659E+02  0.76486006206E+02  0.80293333645E+02  0.10566000000E+00 0. -1.
        994    1    1    2    0    0  0.90594403362E+01  0.26423494418E+02  0.62478102715E+01  0.17357635107E+03  0.17120000000E+03 0.  0.
        998    1    1    2    0    0  0.57430653544E+01 -0.69868037591E+01  0.14172661798E+04  0.14173303153E+04  0.10000000000E+02 0. -1.
</event>
<event>
 5    1  0.1245771E-008  0.3828828E+03  0.7957747E-01  0.3438701E+00
         13   -1    0    0    0    0  0.00000000000E+00  0.00000000000E+00  0.14999999963E+04  0.15000000000E+04  0.10566000000E+00 0. -1.
        994   -1    0    0    0    0 -0.00000000000E+00 -0.00000000000E+00  0.11368683772E-12  0.17120000000E+03  0.17120000000E+03 0.  0.
         13    1    1    2    0    0  0.10294342267E+02  0.16098872349E+02  0.64417409375E+02  0.67191971010E+02  0.10566000000E+00 0. -1.
        994    1    1    2    0    0 -0.99233589609E+01 -0.18319353546E+02  0.41236219695E+01  0.17251236485E+03  0.17120000000E+03 0.  0.
        998    1    1    2    0    0 -0.37098330648E+00  0.22204811974E+01  0.14314589649E+04  0.14314956641E+04  0.10000000000E+02 0. -1.
</event>
<event>
 5    1  0.1245771E-008  0.3829712E+03  0.7957747E-01  0.3438322E+00
         13   -1    0    0    0    0  0.00000000000E+00  0.00000000000E+00  0.14999999963E+04  0.15000000000E+04  0.10566000000E+00 0. -1.
        994   -1    0    0    0    0 -0.00000000000E+00 -0.00000000000E+00  0.11368683772E-12  0.17120000000E+03  0.17120000000E+03 0.  0.
         13    1    1    2    0    0  0.10376035249E+02  0.26102078904E+02  0.14771419962E+03  0.15036115377E+03  0.10566000000E+00 0. -1.
        994    1    1    2    0    0 -0.76033024303E+01 -0.15881526591E+02  0.36677687836E+01  0.17214216689E+03  0.17120000000E+03 0.  0.
        998    1    1    2    0    0 -0.27727328185E+01 -0.10220552313E+02  0.13486180279E+04  0.13486966793E+04  0.10000000000E+02 0. -1.
</event>
<event>
 5    1  0.1245771E-008  0.3780531E+03  0.7957747E-01  0.3459680E+00
         13   -1    0    0    0    0  0.00000000000E+00  0.00000000000E+00  0.14999999963E+04  0.15000000000E+04  0.10566000000E+00 0. -1.
        994   -1    0    0    0    0 -0.00000000000E+00 -0.00000000000E+00  0.11368683772E-12  0.17120000000E+03  0.17120000000E+03 0.  0.
         13    1    1    2    0    0  0.12424176197E+02  0.11801553247E+02  0.27501372632E+02  0.32403294183E+02  0.10566000000E+00 0. -1.
        994    1    1    2    0    0  0.75457817646E+01 -0.70752944789E+01  0.54792350806E+01  0.17159971046E+03  0.17120000000E+03 0.  0.
        998    1    1    2    0    0 -0.19969957962E+02 -0.47262587684E+01  0.14670193886E+04  0.14671969954E+04  0.10000000000E+02 0. -1.
</event>
<event>
 5    1  0.1245771E-008  0.3850776E+03  0.7957747E-01  0.3429343E+00
         13   -1    0    0    0    0  0.00000000000E+00  0.00000000000E+00  0.14999999963E+04  0.15000000000E+04  0.10566000000E+00 0.  1.
        994   -1    0    0    0    0 -0.00000000000E+00 -0.00000000000E+00  0.11368683772E-12  0.17120000000E+03  0.17120000000E+03 0.  0.
         13    1    1    2    0    0  0.13889888332E+02 -0.12082131001E+02  0.10698855276E+03  0.10856089753E+03  0.10566000000E+00 0.  1.
        994    1    1    2    0    0 -0.16497306226E+02 -0.14579140551E+01  0.24939473042E+01  0.17201728518E+03  0.17120000000E+03 0.  0.
        998    1    1    2    0    0  0.26074178932E+01  0.13540045056E+02  0.13905174962E+04  0.13906218173E+04  0.10000000000E+02 0.  1.
</event>
<event>
 5    1  0.1245771E-008  0.3849429E+03  0.7957747E-01  0.3429914E+00
         13   -1    0    0    0    0  0.00000000000E+00  0.00000000000E+00  0.14999999963E+04  0.15000000000E+04  0.10566000000E+00 0. -1.
        994   -1    0    0    0    0 -0.00000000000E+00 -0.00000000000E+00  0.11368683772E-12  0.17120000000E+03  0.17120000000E+03 0.  0.
         13    1    1    2    0    0  0.39610629828E+01 -0.11136736604E+02  0.41308598546E+02  0.42966596328E+02  0.10566000000E+00 0. -1.
        994    1    1    2    0    0 -0.68900668175E+01  0.94085036164E+01  0.21059287305E+01  0.17160963812E+03  0.17120000000E+03 0.  0.
        998    1    1    2    0    0  0.29290038347E+01  0.17282329873E+01  0.14565854690E+04  0.14566237655E+04  0.10000000000E+02 0. -1.
</event>
<event>
 5    1  0.1245771E-008  0.3849107E+03  0.7957747E-01  0.3430051E+00
         13   -1    0    0    0    0  0.00000000000E+00  0.00000000000E+00  0.14999999963E+04  0.15000000000E+04  0.10566000000E+00 0. -1.
        994   -1    0    0    0    0 -0.00000000000E+00 -0.00000000000E+00  0.11368683772E-12  0.17120000000E+03  0.17120000000E+03 0.  0.
         13    1    1    2    0    0  0.17228603087E+01  0.14342695718E+02  0.63562893922E+02  0.65183846280E+02  0.10566000000E+00 0. -1.
        994    1    1    2    0    0 -0.92234301256E+01 -0.52488806880E+01  0.20450371412E+01  0.17154079570E+03  0.17120000000E+03 0.  0.
        998    1    1    2    0    0  0.75005698169E+01 -0.90938150296E+01  0.14343920652E+04  0.14344753580E+04  0.10000000000E+02 0. -1.
</event>
<event>
 5    1  0.1245771E-008  0.3861777E+03  0.7957747E-01  0.3424693E+00
         13   -1    0    0    0    0  0.00000000000E+00  0.00000000000E+00  0.14999999963E+04  0.15000000000E+04  0.10566000000E+00 0.  1.
        994   -1    0    0    0    0 -0.00000000000E+00 -0.00000000000E+00  0.11368683772E-12  0.17120000000E+03  0.17120000000E+03 0.  0.
         13    1    1    2    0    0 -0.86590392902E+01 -0.61027568938E+01  0.52933121436E+02  0.53982859429E+02  0.10566000000E+00 0.  1.
        994    1    1    2    0    0  0.11980055320E+02  0.22640502296E+01  0.15336723452E+01  0.17164043754E+03  0.17120000000E+03 0.  0.
        998    1    1    2    0    0 -0.33210160295E+01  0.38387066642E+01  0.14455332025E+04  0.14455767030E+04  0.10000000000E+02 0.  1.
</event>
<event>
 5    1  0.1245771E-008  0.3735422E+03  0.7957747E-01  0.3479768E+00
         13   -1    0    0    0    0  0.00000000000E+00  0.00000000000E+00  0.14999999963E+04  0.15000000000E+04  0.10566000000E+00 0. -1.
        994   -1    0    0    0    0 -0.00000000000E+00 -0.00000000000E+00  0.11368683772E-12  0.17120000000E+03  0.17120000000E+03 0.  0.
         13    1    1    2    0    0 -0.16852241043E+02  0.60148286834E+02  0.23993734831E+03  0.24793498486E+03  0.10566000000E+00 0. -1.
        994    1    1    2    0    0  0.15128413542E+02 -0.46600336335E+02  0.15673971276E+02  0.17876121956E+03  0.17120000000E+03 0.  0.
        998    1    1    2    0    0  0.17238275008E+01 -0.13547950498E+02  0.12443886767E+04  0.12445037956E+04  0.10000000000E+02 0. -1.
</event>
<event>
 5    1  0.1245771E-008  0.3705052E+03  0.7957747E-01  0.3493572E+00
         13   -1    0    0    0    0  0.00000000000E+00  0.00000000000E+00  0.14999999963E+04  0.15000000000E+04  0.10566000000E+00 0.  1.
        994   -1    0    0    0    0 -0.00000000000E+00 -0.00000000000E+00  0.11368683772E-12  0.17120000000E+03  0.17120000000E+03 0.  0.
         13    1    1    2    0    0 -0.80663147431E+02  0.56614782339E+02  0.38049317955E+03  0.39304814945E+03  0.10566000000E+00 0.  1.
        994    1    1    2    0    0  0.83162844538E+02 -0.60672760355E+02  0.46524926110E+02  0.20511277705E+03  0.17120000000E+03 0.  0.
        998    1    1    2    0    0 -0.24996971065E+01  0.40579780163E+01  0.10729818906E+04  0.10730390735E+04  0.10000000000E+02 0.  1.
</event>
<event>
 5    1  0.1245771E-008  0.3760880E+03  0.7957747E-01  0.3468371E+00
         13   -1    0    0    0    0  0.00000000000E+00  0.00000000000E+00  0.14999999963E+04  0.15000000000E+04  0.10566000000E+00 0. -1.
        994   -1    0    0    0    0 -0.00000000000E+00 -0.00000000000E+00  0.11368683772E-12  0.17120000000E+03  0.17120000000E+03 0.  0.
         13    1    1    2    0    0  0.15697849602E+02 -0.47258495018E+02  0.21618030508E+03  0.22184166268E+03  0.10566000000E+00 0. -1.
        994    1    1    2    0    0  0.26599495949E+00  0.18319674325E+02  0.72587945531E+01  0.17233052927E+03  0.17120000000E+03 0.  0.
        998    1    1    2    0    0 -0.15963844562E+02  0.28938820693E+02  0.12765608966E+04  0.12770278080E+04  0.10000000000E+02 0. -1.
</event>
<event>
 5    1  0.1245771E-008  0.3831978E+03  0.7957747E-01  0.3437352E+00
         13   -1    0    0    0    0  0.00000000000E+00  0.00000000000E+00  0.14999999963E+04  0.15000000000E+04  0.10566000000E+00 0.  1.
        994   -1    0    0    0    0 -0.00000000000E+00 -0.00000000000E+00  0.11368683772E-12  0.17120000000E+03  0.17120000000E+03 0.  0.
         13    1    1    2    0    0  0.20845005532E+02  0.24415905637E+02  0.17165090153E+03  0.17462729988E+03  0.10566000000E+00 0.  1.
        994    1    1    2    0    0 -0.25809716745E+02 -0.29630771887E+02  0.76523142467E+01  0.17581843485E+03  0.17120000000E+03 0.  0.
        998    1    1    2    0    0  0.49647112135E+01  0.52148662500E+01  0.13206967805E+04  0.13207542653E+04  0.10000000000E+02 0.  1.
</event>
<event>
 5    1  0.1245771E-008  0.3734080E+03  0.7957747E-01  0.3480374E+00
         13   -1    0    0    0    0  0.00000000000E+00  0.00000000000E+00  0.14999999963E+04  0.15000000000E+04  0.10566000000E+00 0. -1.
        994   -1    0    0    0    0 -0.00000000000E+00 -0.00000000000E+00  0.11368683772E-12  0.17120000000E+03  0.17120000000E+03 0.  0.
         13    1    1    2    0    0  0.16034947515E+02 -0.13739390455E+01  0.15013254750E+02  0.22009457798E+02  0.10566000000E+00 0. -1.
        994    1    1    2    0    0  0.19472216706E+02 -0.12016705034E+02  0.92899120786E+01  0.17297199452E+03  0.17120000000E+03 0.  0.
        998    1    1    2    0    0 -0.35507164221E+02  0.13390644079E+02  0.14756968294E+04  0.14762185477E+04  0.10000000000E+02 0. -1.
</event>
<event>
 5    1  0.1245771E-008  0.3858872E+03  0.7957747E-01  0.3425918E+00
         13   -1    0    0    0    0  0.00000000000E+00  0.00000000000E+00  0.14999999963E+04  0.15000000000E+04  0.10566000000E+00 0. -1.
        994   -1    0    0    0    0 -0.00000000000E+00 -0.00000000000E+00  0.11368683772E-12  0.17120000000E+03  0.17120000000E+03 0.  0.
         13    1    1    2    0    0 -0.17877201359E+02 -0.65968222669E+01  0.41206720111E+00  0.19060255924E+02  0.10566000000E+00 0. -1.
        994    1    1    2    0    0  0.21787341664E+02  0.83309260826E+01  0.21616966501E+02  0.17412876220E+03  0.17120000000E+03 0.  0.
        998    1    1    2    0    0 -0.39101403044E+01 -0.17341038157E+01  0.14779709626E+04  0.14780109819E+04  0.10000000000E+02 0. -1.
</event>
<event>
 5    1  0.1245771E-008  0.3796166E+03  0.7957747E-01  0.3452830E+00
         13   -1    0    0    0    0  0.00000000000E+00  0.00000000000E+00  0.14999999963E+04  0.15000000000E+04  0.10566000000E+00 0.  1.
        994   -1    0    0    0    0 -0.00000000000E+00 -0.00000000000E+00  0.11368683772E-12  0.17120000000E+03  0.17120000000E+03 0.  0.
         13    1    1    2    0    0  0.29400580484E+01  0.21169579069E+02  0.51320485415E+02  0.55593150717E+02  0.10566000000E+00 0.  1.
        994    1    1    2    0    0 -0.78738131539E+01 -0.12138533550E+02  0.50278287436E+01  0.17188385611E+03  0.17120000000E+03 0.  0.
        998    1    1    2    0    0  0.49337551055E+01 -0.90310455191E+01  0.14436516821E+04  0.14437229932E+04  0.10000000000E+02 0.  1.
</event>
<event>
 5    1  0.1245771E-008  0.3834026E+03  0.7957747E-01  0.3436475E+00
         13   -1    0    0    0    0  0.00000000000E+00  0.00000000000E+00  0.14999999963E+04  0.15000000000E+04  0.10566000000E+00 0.  1.
        994   -1    0    0    0    0 -0.00000000000E+00 -0.00000000000E+00  0.11368683772E-12  0.17120000000E+03  0.17120000000E+03 0.  0.
         13    1    1    2    0    0 -0.12017330421E+01  0.18260729024E+02  0.68890341407E+02  0.71279651303E+02  0.10566000000E+00 0.  1.
        994    1    1    2    0    0 -0.76988393987E+01 -0.11103535889E+02  0.30290507626E+01  0.17175906318E+03  0.17120000000E+03 0.  0.
        998    1    1    2    0    0  0.89005724408E+01 -0.71571931344E+01  0.14280806041E+04  0.14281612855E+04  0.10000000000E+02 0.  1.
</event>
<event>
 5    1  0.1245771E-008  0.3860712E+03  0.7957747E-01  0.3425142E+00
         13   -1    0    0    0    0  0.00000000000E+00  0.00000000000E+00  0.14999999963E+04  0.15000000000E+04  0.10566000000E+00 0.  1.
        994   -1    0    0    0    0 -0.00000000000E+00 -0.00000000000E+00  0.11368683772E-12  0.17120000000E+03  0.17120000000E+03 0.  0.
         13    1    1    2    0    0  0.10421681737E+02  0.71489213708E+01  0.69036476402E+02  0.70183792752E+02  0.10566000000E+00 0.  1.
        994    1    1    2    0    0 -0.13559157302E+02 -0.94800169851E+01  0.19968010189E+01  0.17200915290E+03  0.17120000000E+03 0.  0.
        998    1    1    2    0    0  0.31374755655E+01  0.23310956143E+01  0.14289667189E+04  0.14290070543E+04  0.10000000000E+02 0.  1.
</event>
<event>
 5    1  0.1245771E-008  0.3844097E+03  0.7957747E-01  0.3432180E+00
         13   -1    0    0    0    0  0.00000000000E+00  0.00000000000E+00  0.14999999963E+04  0.15000000000E+04  0.10566000000E+00 0.  1.
        994   -1    0    0    0    0 -0.00000000000E+00 -0.00000000000E+00  0.11368683772E-12  0.17120000000E+03  0.17120000000E+03 0.  0.
         13    1    1    2    0    0  0.20260787375E+02  0.92711477083E+01  0.11935131546E+03  0.12141334915E+03  0.10566000000E+00 0.  1.
        994    1    1    2    0    0 -0.23233973975E+02 -0.57098367112E+01  0.38118869263E+01  0.17290572652E+03  0.17120000000E+03 0.  0.
        998    1    1    2    0    0  0.29731865999E+01 -0.35613109971E+01  0.13768367939E+04  0.13768809243E+04  0.10000000000E+02 0.  1.
</event>
<event>
 5    1  0.1245771E-008  0.3848629E+03  0.7957747E-01  0.3430254E+00
         13   -1    0    0    0    0  0.00000000000E+00  0.00000000000E+00  0.14999999963E+04  0.15000000000E+04  0.10566000000E+00 0. -1.
        994   -1    0    0    0    0 -0.00000000000E+00 -0.00000000000E+00  0.11368683772E-12  0.17120000000E+03  0.17120000000E+03 0.  0.
         13    1    1    2    0    0 -0.13434297821E+02 -0.90890025632E+01  0.72672178004E+02  0.74460371644E+02  0.10566000000E+00 0. -1.
        994    1    1    2    0    0  0.15126260135E+02  0.13944931075E+02  0.30920395391E+01  0.17245946062E+03  0.17120000000E+03 0.  0.
        998    1    1    2    0    0 -0.16919623142E+01 -0.48559285120E+01  0.14242357787E+04  0.14242801677E+04  0.10000000000E+02 0. -1.
</event>
<event>
 5    1  0.1245771E-008  0.3850366E+03  0.7957747E-01  0.3429517E+00
         13   -1    0    0    0    0  0.00000000000E+00  0.00000000000E+00  0.14999999963E+04  0.15000000000E+04  0.10566000000E+00 0.  1.
        994   -1    0    0    0    0 -0.00000000000E+00 -0.00000000000E+00  0.11368683772E-12  0.17120000000E+03  0.17120000000E+03 0.  0.
         13    1    1    2    0    0  0.32913057359E+01 -0.11595986301E+02  0.43703190729E+02  0.45335192022E+02  0.10566000000E+00 0.  1.
        994    1    1    2    0    0 -0.11943094645E+02  0.10874905937E+02  0.24703433084E+01  0.17197803256E+03  0.17120000000E+03 0.  0.
        998    1    1    2    0    0  0.86517889088E+01  0.72108036455E+00  0.14538264622E+04  0.14538867754E+04  0.10000000000E+02 0.  1.
</event>
<event>
 5    1  0.1245771E-008  0.3846562E+03  0.7957747E-01  0.3431132E+00
         13   -1    0    0    0    0  0.00000000000E+00  0.00000000000E+00  0.14999999963E+04  0.15000000000E+04  0.10566000000E+00 0.  1.
        994   -1    0    0    0    0 -0.00000000000E+00 -0.00000000000E+00  0.11368683772E-12  0.17120000000E+03  0.17120000000E+03 0.  0.
         13    1    1    2    0    0 -0.62706289645E+02  0.14923500817E+03  0.31520495699E+03  0.35434071527E+03  0.10566000000E+00 0.  1.
        994    1    1    2    0    0  0.16844733396E+02 -0.24065558218E+03  0.28352623270E+03  0.40975043490E+03  0.17120000000E+03 0.  0.
        998    1    1    2    0    0  0.45861556249E+02  0.91420574008E+02  0.90126880660E+03  0.90710884983E+03  0.10000000000E+02 0.  1.
</event>
<event>
 5    1  0.1245771E-008  0.4073247E+03  0.7957747E-01  0.3340178E+00
         13   -1    0    0    0    0  0.00000000000E+00  0.00000000000E+00  0.14999999963E+04  0.15000000000E+04  0.10566000000E+00 0.  1.
        994   -1    0    0    0    0 -0.00000000000E+00 -0.00000000000E+00  0.11368683772E-12  0.17120000000E+03  0.17120000000E+03 0.  0.
         13    1    1    2    0    0 -0.18991160853E+02 -0.65209749256E+02  0.66263046418E+02  0.94888239910E+02  0.10566000000E+00 0.  1.
        994    1    1    2    0    0  0.18749618681E+02  0.16974542676E+02  0.34818289657E+02  0.17652602243E+03  0.17120000000E+03 0.  0.
        998    1    1    2    0    0  0.24154217192E+00  0.48235206580E+02  0.13989186602E+04  0.13997857377E+04  0.10000000000E+02 0.  1.
</event>
<event>
 5    1  0.1315697E-008  0.3852193E+03  0.7957747E-01  0.3428743E+00
         13   -1    0    0    0    0  0.00000000000E+00  0.00000000000E+00  0.14999999963E+04  0.15000000000E+04  0.10566000000E+00 0. -1.
        994   -1    0    0    0    0 -0.00000000000E+00 -0.00000000000E+00  0.11368683772E-12  0.17120000000E+03  0.17120000000E+03 0.  0.
         13    1    1    2    0    0 -0.13027308743E+02 -0.77726516330E+01  0.77635588031E+02  0.79103859447E+02  0.10566000000E+00 0. -1.
        994    1    1    2    0    0  0.46696073872E+01  0.50848964093E+01  0.16779440612E+01  0.17134735744E+03  0.17120000000E+03 0.  0.
        998    1    1    2    0    0  0.83577013558E+01  0.26877552237E+01  0.14206864642E+04  0.14207487831E+04  0.10000000000E+02 0. -1.
</event>
<event>
 5    1  0.1245771E-008  0.3855144E+03  0.7957747E-01  0.3427494E+00
         13   -1    0    0    0    0  0.00000000000E+00  0.00000000000E+00  0.14999999963E+04  0.15000000000E+04  0.10566000000E+00 0.  1.
        994   -1    0    0    0    0 -0.00000000000E+00 -0.00000000000E+00  0.11368683772E-12  0.17120000000E+03  0.17120000000E+03 0.  0.
         13    1    1    2    0    0  0.19682771547E+01 -0.13731528993E+02  0.69669444727E+02  0.71037114919E+02  0.10566000000E+00 0.  1.
        994    1    1    2    0    0  0.41838098127E+01  0.11267052829E+02  0.18493639823E+01  0.17163132258E+03  0.17120000000E+03 0.  0.
        998    1    1    2    0    0 -0.61520869674E+01  0.24644761639E+01  0.14284811876E+04  0.14285315625E+04  0.10000000000E+02 0.  1.
</event>
<event>
 5    1  0.1245771E-008  0.3833386E+03  0.7957747E-01  0.3436749E+00
         13   -1    0    0    0    0  0.00000000000E+00  0.00000000000E+00  0.14999999963E+04  0.15000000000E+04  0.10566000000E+00 0.  1.
        994   -1    0    0    0    0 -0.00000000000E+00 -0.00000000000E+00  0.11368683772E-12  0.17120000000E+03  0.17120000000E+03 0.  0.
         13    1    1    2    0    0  0.30120535476E+02  0.13722193574E+01  0.17414293462E+03  0.17673398792E+03  0.10566000000E+00 0.  1.
        994    1    1    2    0    0 -0.24481332766E+02  0.11485576726E+01  0.44458097784E+01  0.17300248571E+03  0.17120000000E+03 0.  0.
        998    1    1    2    0    0 -0.56392027106E+01 -0.25207770300E+01  0.13214112519E+04  0.13214635264E+04  0.10000000000E+02 0.  1.
</event>
<event>
 5    1  0.1245771E-008  0.3745023E+03  0.7957747E-01  0.3475452E+00
         13   -1    0    0    0    0  0.00000000000E+00  0.00000000000E+00  0.14999999963E+04  0.15000000000E+04  0.10566000000E+00 0.  1.
        994   -1    0    0    0    0 -0.00000000000E+00 -0.00000000000E+00  0.11368683772E-12  0.17120000000E+03  0.17120000000E+03 0.  0.
         13    1    1    2    0    0 -0.27403313351E+02 -0.45045462292E+02  0.23720076076E+03  0.24299022064E+03  0.10566000000E+00 0.  1.
        994    1    1    2    0    0 -0.98495385902E+01  0.10229111305E+02  0.76214181396E+01  0.17195689618E+03  0.17120000000E+03 0.  0.
        998    1    1    2    0    0  0.37252851941E+02  0.34816350987E+02  0.12551778174E+04  0.12562528832E+04  0.10000000000E+02 0.  1.
</event>
<event>
 5    1  0.1245771E-008  0.3772729E+03  0.7957747E-01  0.3463119E+00
         13   -1    0    0    0    0  0.00000000000E+00  0.00000000000E+00  0.14999999963E+04  0.15000000000E+04  0.10566000000E+00 0. -1.
        994   -1    0    0    0    0 -0.00000000000E+00 -0.00000000000E+00  0.11368683772E-12  0.17120000000E+03  0.17120000000E+03 0.  0.
         13    1    1    2    0    0  0.97573857290E+01 -0.23501697869E+02  0.54589671030E+02  0.60229392544E+02  0.10566000000E+00 0. -1.
        994    1    1    2    0    0 -0.10652343722E+02  0.24549011591E+02  0.79356487588E+01  0.17346048806E+03  0.17120000000E+03 0.  0.
        998    1    1    2    0    0  0.89495799272E+00 -0.10473137216E+01  0.14374746765E+04  0.14375101194E+04  0.10000000000E+02 0. -1.
</event>
<event>
 5    1  0.1245771E-008  0.3827565E+03  0.7957747E-01  0.3439243E+00
         13   -1    0    0    0    0  0.00000000000E+00  0.00000000000E+00  0.14999999963E+04  0.15000000000E+04  0.10566000000E+00 0.  1.
        994   -1    0    0    0    0 -0.00000000000E+00 -0.00000000000E+00  0.11368683772E-12  0.17120000000E+03  0.17120000000E+03 0.  0.
         13    1    1    2    0    0  0.16281255658E+02 -0.68954687086E+01  0.52771873545E+02  0.55655265483E+02  0.10566000000E+00 0.  1.
        994    1    1    2    0    0 -0.22712345286E+02  0.10087129988E+02  0.47967448139E+01  0.17306082625E+03  0.17120000000E+03 0.  0.
        998    1    1    2    0    0  0.64310896279E+01 -0.31916612798E+01  0.14424313779E+04  0.14424839083E+04  0.10000000000E+02 0.  1.
</event>
<event>
 5    1  0.1245771E-008  0.3821808E+03  0.7957747E-01  0.3441718E+00
         13   -1    0    0    0    0  0.00000000000E+00  0.00000000000E+00  0.14999999963E+04  0.15000000000E+04  0.10566000000E+00 0. -1.
        994   -1    0    0    0    0 -0.00000000000E+00 -0.00000000000E+00  0.11368683772E-12  0.17120000000E+03  0.17120000000E+03 0.  0.
         13    1    1    2    0    0  0.30840109960E+02 -0.21071371419E+02  0.19680157913E+03  0.20031472185E+03  0.10566000000E+00 0. -1.
        994    1    1    2    0    0 -0.33263975986E+02  0.22162142540E+02  0.83571356629E+01  0.17600265446E+03  0.17120000000E+03 0.  0.
        998    1    1    2    0    0  0.24238660260E+01 -0.10907711208E+01  0.12948412815E+04  0.12948826237E+04  0.10000000000E+02 0. -1.
</event>
<event>
 5    1  0.1245771E-008  0.3854717E+03  0.7957747E-01  0.3427674E+00
         13   -1    0    0    0    0  0.00000000000E+00  0.00000000000E+00  0.14999999963E+04  0.15000000000E+04  0.10566000000E+00 0.  1.
        994   -1    0    0    0    0 -0.00000000000E+00 -0.00000000000E+00  0.11368683772E-12  0.17120000000E+03  0.17120000000E+03 0.  0.
         13    1    1    2    0    0 -0.10973214236E+02 -0.85832514566E+01  0.67507539935E+02  0.68930129467E+02  0.10566000000E+00 0.  1.
        994    1    1    2    0    0  0.12499879067E+02  0.69537053856E+01  0.20682425582E+01  0.17180895967E+03  0.17120000000E+03 0.  0.
        998    1    1    2    0    0 -0.15266648307E+01  0.16295460711E+01  0.14304242138E+04  0.14304609109E+04  0.10000000000E+02 0.  1.
</event>
<event>
 5    1  0.1245771E-008  0.3734234E+03  0.7957747E-01  0.3480304E+00
         13   -1    0    0    0    0  0.00000000000E+00  0.00000000000E+00  0.14999999963E+04  0.15000000000E+04  0.10566000000E+00 0. -1.
        994   -1    0    0    0    0 -0.00000000000E+00 -0.00000000000E+00  0.11368683772E-12  0.17120000000E+03  0.17120000000E+03 0.  0.
         13    1    1    2    0    0 -0.61298266212E+02  0.11744701072E+03  0.58674952640E+03  0.60151998775E+03  0.10566000000E+00 0. -1.
        994    1    1    2    0    0  0.68575740328E+02 -0.12604088847E+03  0.81484062855E+02  0.23777727021E+03  0.17120000000E+03 0.  0.
        998    1    1    2    0    0 -0.72774741158E+01  0.85938777531E+01  0.83176640702E+03  0.83190274204E+03  0.10000000000E+02 0.  0.
</event>
<event>
 5    1  0.1245771E-008  0.3784117E+03  0.7957747E-01  0.3458103E+00
         13   -1    0    0    0    0  0.00000000000E+00  0.00000000000E+00  0.14999999963E+04  0.15000000000E+04  0.10566000000E+00 0.  1.
        994   -1    0    0    0    0 -0.00000000000E+00 -0.00000000000E+00  0.11368683772E-12  0.17120000000E+03  0.17120000000E+03 0.  0.
         13    1    1    2    0    0 -0.16654505169E+02 -0.11162532033E+02  0.38108486599E+02  0.43060917068E+02  0.10566000000E+00 0.  1.
        994    1    1    2    0    0  0.13618987835E+02  0.13402095010E+02  0.61649163130E+01  0.17237325539E+03  0.17120000000E+03 0.  0.
        998    1    1    2    0    0  0.30355173336E+01 -0.22395629773E+01  0.14557265934E+04  0.14557658275E+04  0.10000000000E+02 0.  1.
</event>
<event>
 5    1  0.1245771E-008  0.3856276E+03  0.7957747E-01  0.3427015E+00
         13   -1    0    0    0    0  0.00000000000E+00  0.00000000000E+00  0.14999999963E+04  0.15000000000E+04  0.10566000000E+00 0.  1.
        994   -1    0    0    0    0 -0.00000000000E+00 -0.00000000000E+00  0.11368683772E-12  0.17120000000E+03  0.17120000000E+03 0.  0.
         13    1    1    2    0    0  0.11315984163E+02  0.62209557937E+01  0.60225724938E+02  0.61594649905E+02  0.10566000000E+00 0.  1.
        994    1    1    2    0    0 -0.21468468170E+02  0.36261650560E+01  0.28762099920E+01  0.17260288753E+03  0.17120000000E+03 0.  0.
        998    1    1    2    0    0  0.10152484006E+02 -0.98471208497E+01  0.14368980613E+04  0.14370024626E+04  0.10000000000E+02 0.  1.
</event>
<event>
 5    1  0.1245771E-008  0.3701695E+03  0.7957747E-01  0.3495112E+00
         13   -1    0    0    0    0  0.00000000000E+00  0.00000000000E+00  0.14999999963E+04  0.15000000000E+04  0.10566000000E+00 0. -1.
        994   -1    0    0    0    0 -0.00000000000E+00 -0.00000000000E+00  0.11368683772E-12  0.17120000000E+03  0.17120000000E+03 0.  0.
         13    1    1    2    0    0  0.36927128348E+01 -0.37854101023E+02  0.73574725489E+02  0.82824033270E+02  0.10566000000E+00 0. -1.
        994    1    1    2    0    0 -0.81572450142E+01  0.31341719157E+02  0.12813538034E+02  0.17470681373E+03  0.17120000000E+03 0.  0.
        998    1    1    2    0    0  0.44645321794E+01  0.65123818660E+01  0.14136117328E+04  0.14136691530E+04  0.10000000000E+02 0. -1.
</event>
<event>
 5    1  0.1245771E-008  0.3801683E+03  0.7957747E-01  0.3450426E+00
         13   -1    0    0    0    0  0.00000000000E+00  0.00000000000E+00  0.14999999963E+04  0.15000000000E+04  0.10566000000E+00 0.  1.
        994   -1    0    0    0    0 -0.00000000000E+00 -0.00000000000E+00  0.11368683772E-12  0.17120000000E+03  0.17120000000E+03 0.  0.
         13    1    1    2    0    0 -0.20681681128E+02 -0.22221593641E+02  0.11837199519E+03  0.12220258413E+03  0.10566000000E+00 0.  1.
        994    1    1    2    0    0 -0.11211691702E+01  0.13753043011E+02  0.46845929151E+01  0.17181905780E+03  0.17120000000E+03 0.  0.
        998    1    1    2    0    0  0.21802850298E+02  0.84685506296E+01  0.13769434082E+04  0.13771783581E+04  0.10000000000E+02 0.  1.
</event>
<event>
 5    1  0.1245771E-008  0.3833544E+03  0.7957747E-01  0.3436682E+00
         13   -1    0    0    0    0  0.00000000000E+00  0.00000000000E+00  0.14999999963E+04  0.15000000000E+04  0.10566000000E+00 0.  1.
        994   -1    0    0    0    0 -0.00000000000E+00 -0.00000000000E+00  0.11368683772E-12  0.17120000000E+03  0.17120000000E+03 0.  0.
         13    1    1    2    0    0 -0.51553828097E+01  0.90324431451E+01  0.20926786458E+02  0.23368880088E+02  0.10566000000E+00 0.  1.
        994    1    1    2    0    0  0.60255402514E+01 -0.97572725311E+01  0.28842929041E+01  0.17160789798E+03  0.17120000000E+03 0.  0.
        998    1    1    2    0    0 -0.87015744168E+00  0.72482938601E+00  0.14761889169E+04  0.14762232219E+04  0.10000000000E+02 0.  1.
</event>
<event>
 5    1  0.1245771E-008  0.3691759E+03  0.7957747E-01  0.3499687E+00
         13   -1    0    0    0    0  0.00000000000E+00  0.00000000000E+00  0.14999999963E+04  0.15000000000E+04  0.10566000000E+00 0. -1.
        994   -1    0    0    0    0 -0.00000000000E+00 -0.00000000000E+00  0.11368683772E-12  0.17120000000E+03  0.17120000000E+03 0.  0.
         13    1    1    2    0    0 -0.10065179034E+02  0.28145121287E+02  0.41800858253E+02  0.51388506458E+02  0.10566000000E+00 0. -1.
        994    1    1    2    0    0  0.14459226816E+02 -0.20467099635E+02  0.11881012624E+02  0.17343174412E+03  0.17120000000E+03 0.  0.
        998    1    1    2    0    0 -0.43940477816E+01 -0.76780216524E+01  0.14463181254E+04  0.14463797494E+04  0.10000000000E+02 0. -1.
</event>
<event>
 5    1  0.1245771E-008  0.3841551E+03  0.7957747E-01  0.3433263E+00
         13   -1    0    0    0    0  0.00000000000E+00  0.00000000000E+00  0.14999999963E+04  0.15000000000E+04  0.10566000000E+00 0.  1.
        994   -1    0    0    0    0 -0.00000000000E+00 -0.00000000000E+00  0.11368683772E-12  0.17120000000E+03  0.17120000000E+03 0.  0.
         13    1    1    2    0    0 -0.63935959941E+01 -0.12274697806E+02  0.46545154795E+02  0.48559333551E+02  0.10566000000E+00 0.  1.
        994    1    1    2    0    0  0.61517694998E+01  0.59235358555E+01  0.22907249969E+01  0.17142817728E+03  0.17120000000E+03 0.  0.
        998    1    1    2    0    0  0.24182649433E+00  0.63511619505E+01  0.14511641165E+04  0.14512124892E+04  0.10000000000E+02 0.  1.
</event>
<event>
 5    1  0.1245771E-008  0.3772482E+03  0.7957747E-01  0.3463229E+00
         13   -1    0    0    0    0  0.00000000000E+00  0.00000000000E+00  0.14999999963E+04  0.15000000000E+04  0.10566000000E+00 0. -1.
        994   -1    0    0    0    0 -0.00000000000E+00 -0.00000000000E+00  0.11368683772E-12  0.17120000000E+03  0.17120000000E+03 0.  0.
         13    1    1    2    0    0  0.88498526473E+02 -0.63949361565E+02  0.56177925820E+03  0.57229140841E+03  0.10566000000E+00 0. -1.
        994    1    1    2    0    0 -0.94090398168E+02  0.75969162435E+02  0.56572696810E+02  0.21710418396E+03  0.17120000000E+03 0.  0.
        998    1    1    2    0    0  0.55918716959E+01 -0.12019800870E+02  0.88164804127E+03  0.88180440763E+03  0.10000000000E+02 0. -1.
</event>
<event>
 5    1  0.1245771E-008  0.3688504E+03  0.7957747E-01  0.3501191E+00
         13   -1    0    0    0    0  0.00000000000E+00  0.00000000000E+00  0.14999999963E+04  0.15000000000E+04  0.10566000000E+00 0.  1.
        994   -1    0    0    0    0 -0.00000000000E+00 -0.00000000000E+00  0.11368683772E-12  0.17120000000E+03  0.17120000000E+03 0.  0.
         13    1    1    2    0    0 -0.15033197880E+02  0.10155389713E+02  0.11188391833E+02  0.21314789573E+02  0.10566000000E+00 0.  1.
        994    1    1    2    0    0  0.16034126780E+02 -0.11703266394E+02  0.11705475604E+02  0.17274408188E+03  0.17120000000E+03 0.  0.
        998    1    1    2    0    0 -0.10009289002E+01  0.15478766816E+01  0.14771061288E+04  0.14771411285E+04  0.10000000000E+02 0.  1.
</event>
<event>
 5    1  0.1245771E-008  0.3812892E+03  0.7957747E-01  0.3445564E+00
         13   -1    0    0    0    0  0.00000000000E+00  0.00000000000E+00  0.14999999963E+04  0.15000000000E+04  0.10566000000E+00 0. -1.
        994   -1    0    0    0    0 -0.00000000000E+00 -0.00000000000E+00  0.11368683772E-12  0.17120000000E+03  0.17120000000E+03 0.  0.
         13    1    1    2    0    0 -0.16630645032E+02 -0.72664157754E+01  0.50702484187E+02  0.53852875682E+02  0.10566000000E+00 0. -1.
        994    1    1    2    0    0 -0.12177566042E+02 -0.17134247244E+01  0.39873554035E+01  0.17168741346E+03  0.17120000000E+03 0.  0.
        998    1    1    2    0    0  0.28808211074E+02  0.89798404998E+01  0.14453101567E+04  0.14456597109E+04  0.10000000000E+02 0. -1.
</event>
<event>
 5    1  0.1245771E-008  0.3928946E+03  0.7957747E-01  0.3396865E+00
         13   -1    0    0    0    0  0.00000000000E+00  0.00000000000E+00  0.14999999963E+04  0.15000000000E+04  0.10566000000E+00 0. -1.
        994   -1    0    0    0    0 -0.00000000000E+00 -0.00000000000E+00  0.11368683772E-12  0.17120000000E+03  0.17120000000E+03 0.  0.
         13    1    1    2    0    0  0.59459682333E+02  0.56761069828E+01  0.60472441969E+02  0.84997643587E+02  0.10566000000E+00 0. -1.
        994    1    1    2    0    0 -0.81307098098E+02 -0.26396106372E+02  0.51977254568E+02  0.19828936841E+03  0.17120000000E+03 0.  0.
        998    1    1    2    0    0  0.21847415765E+02  0.20719999389E+02  0.13875502997E+04  0.13879129880E+04  0.10000000000E+02 0. -1.
</event>
<event>
 5    1  0.1346856E-008  0.3855344E+03  0.7957747E-01  0.3427409E+00
         13   -1    0    0    0    0  0.00000000000E+00  0.00000000000E+00  0.14999999963E+04  0.15000000000E+04  0.10566000000E+00 0. -1.
        994   -1    0    0    0    0 -0.00000000000E+00 -0.00000000000E+00  0.11368683772E-12  0.17120000000E+03  0.17120000000E+03 0.  0.
         13    1    1    2    0    0 -0.94310846306E+01  0.10106749025E+02  0.73378774457E+02  0.74669588442E+02  0.10566000000E+00 0. -1.
        994    1    1    2    0    0  0.60927975096E+01  0.90928328462E+00  0.14896513683E+01  0.17131727303E+03  0.17120000000E+03 0.  0.
        998    1    1    2    0    0  0.33382871210E+01 -0.11016032309E+02  0.14251315705E+04  0.14252131385E+04  0.10000000000E+02 0. -1.
</event>
<event>
 5    1  0.1245771E-008  0.3757320E+03  0.7957747E-01  0.3469956E+00
         13   -1    0    0    0    0  0.00000000000E+00  0.00000000000E+00  0.14999999963E+04  0.15000000000E+04  0.10566000000E+00 0. -1.
        994   -1    0    0    0    0 -0.00000000000E+00 -0.00000000000E+00  0.11368683772E-12  0.17120000000E+03  0.17120000000E+03 0.  0.
         13    1    1    2    0    0  0.11261830332E+02  0.49461736773E+01  0.94393363039E+01  0.15505021456E+02  0.10566000000E+00 0. -1.
        994    1    1    2    0    0  0.67241173299E+01 -0.40146234518E+01  0.65113262464E+01  0.17150267731E+03  0.17120000000E+03 0.  0.
        998    1    1    2    0    0 -0.17985947662E+02 -0.93155022547E+00  0.14840493337E+04  0.14841923012E+04  0.10000000000E+02 0. -1.
</event>
<event>
 5    1  0.1245771E-008  0.3850551E+03  0.7957747E-01  0.3429439E+00
         13   -1    0    0    0    0  0.00000000000E+00  0.00000000000E+00  0.14999999963E+04  0.15000000000E+04  0.10566000000E+00 0.  1.
        994   -1    0    0    0    0 -0.00000000000E+00 -0.00000000000E+00  0.11368683772E-12  0.17120000000E+03  0.17120000000E+03 0.  0.
         13    1    1    2    0    0  0.10740616713E+02  0.13416105773E+02  0.96422280300E+02  0.97941921789E+02  0.10566000000E+00 0.  1.
        994    1    1    2    0    0  0.39915927881E+01 -0.10278629554E+02  0.20026570532E+01  0.17156641185E+03  0.17120000000E+03 0.  0.
        998    1    1    2    0    0 -0.14732209501E+02 -0.31374762187E+01  0.14015750589E+04  0.14016916664E+04  0.10000000000E+02 0.  1.
</event>
<event>
 5    1  0.1245771E-008  0.3837216E+03  0.7957747E-01  0.3435112E+00
         13   -1    0    0    0    0  0.00000000000E+00  0.00000000000E+00  0.14999999963E+04  0.15000000000E+04  0.10566000000E+00 0. -1.
        994   -1    0    0    0    0 -0.00000000000E+00 -0.00000000000E+00  0.11368683772E-12  0.17120000000E+03  0.17120000000E+03 0.  0.
         13    1    1    2    0    0  0.14502526976E+02 -0.26502249028E+01  0.47620847881E+02  0.49850810401E+02  0.10566000000E+00 0. -1.
        994    1    1    2    0    0 -0.93225587091E+01 -0.24066896278E+01  0.25723405238E+01  0.17148982241E+03  0.17120000000E+03 0.  0.
        998    1    1    2    0    0 -0.51799682668E+01  0.50569145306E+01  0.14498068079E+04  0.14498593672E+04  0.10000000000E+02 0. -1.
</event>
<event>
 5    1  0.1245771E-008  0.3688939E+03  0.7957747E-01  0.3500990E+00
         13   -1    0    0    0    0  0.00000000000E+00  0.00000000000E+00  0.14999999963E+04  0.15000000000E+04  0.10566000000E+00 0. -1.
        994   -1    0    0    0    0 -0.00000000000E+00 -0.00000000000E+00  0.11368683772E-12  0.17120000000E+03  0.17120000000E+03 0.  0.
         13    1    1    2    0    0 -0.49393046369E+02  0.32422785691E+01  0.10848542915E+03  0.11924464307E+03  0.10566000000E+00 0. -1.
        994    1    1    2    0    0  0.60157510852E+02  0.88411659043E+01  0.22792556310E+02  0.18310115497E+03  0.17120000000E+03 0.  0.
        998    1    1    2    0    0 -0.10764464483E+02 -0.12083444473E+02  0.13687220108E+04  0.13688542020E+04  0.10000000000E+02 0. -1.
</event>
<event>
 5    1  0.1245771E-008  0.3792742E+03  0.7957747E-01  0.3454325E+00
         13   -1    0    0    0    0  0.00000000000E+00  0.00000000000E+00  0.14999999963E+04  0.15000000000E+04  0.10566000000E+00 0.  1.
        994   -1    0    0    0    0 -0.00000000000E+00 -0.00000000000E+00  0.11368683772E-12  0.17120000000E+03  0.17120000000E+03 0.  0.
         13    1    1    2    0    0  0.39108533363E+02 -0.17339509459E+02  0.21219537817E+03  0.21646483698E+03  0.10566000000E+00 0.  1.
        994    1    1    2    0    0 -0.25158673558E+02 -0.11146890786E+02  0.70414813224E+01  0.17354029644E+03  0.17120000000E+03 0.  0.
        998    1    1    2    0    0 -0.13949859805E+02  0.28486400244E+02  0.12807631368E+04  0.12811948666E+04  0.10000000000E+02 0.  1.
</event>
<event>
 5    1  0.1245771E-008  0.3837247E+03  0.7957747E-01  0.3435099E+00
         13   -1    0    0    0    0  0.00000000000E+00  0.00000000000E+00  0.14999999963E+04  0.15000000000E+04  0.10566000000E+00 0.  1.
        994   -1    0    0    0    0 -0.00000000000E+00 -0.00000000000E+00  0.11368683772E-12  0.17120000000E+03  0.17120000000E+03 0.  0.
         13    1    1    2    0    0  0.13833807292E+02 -0.76169322159E+01  0.53113432429E+02  0.55411548877E+02  0.10566000000E+00 0.  1.
        994    1    1    2    0    0 -0.12806056927E+02  0.92365162716E+01  0.30883313820E+01  0.17195431404E+03  0.17120000000E+03 0.  0.
        998    1    1    2    0    0 -0.10277503642E+01 -0.16195840556E+01  0.14437982325E+04  0.14438341371E+04  0.10000000000E+02 0.  1.
</event>
<event>
 5    1  0.1245771E-008  0.3916016E+03  0.7957747E-01  0.3402148E+00
         13   -1    0    0    0    0  0.00000000000E+00  0.00000000000E+00  0.14999999963E+04  0.15000000000E+04  0.10566000000E+00 0.  1.
        994   -1    0    0    0    0 -0.00000000000E+00 -0.00000000000E+00  0.11368683772E-12  0.17120000000E+03  0.17120000000E+03 0.  0.
         13    1    1    2    0    0  0.17162655706E+02 -0.52629611083E+02  0.63795602422E+02  0.84464920328E+02  0.10566000000E+00 0.  1.
        994    1    1    2    0    0  0.26345020036E+02  0.19850801306E+02  0.26981589747E+02  0.17642437637E+03  0.17120000000E+03 0.  0.
        998    1    1    2    0    0 -0.43507675742E+02  0.32778809777E+02  0.14092228041E+04  0.14103107033E+04  0.10000000000E+02 0.  1.
</event>
<event>
 5    1  0.1245771E-008  0.3846111E+03  0.7957747E-01  0.3431323E+00
         13   -1    0    0    0    0  0.00000000000E+00  0.00000000000E+00  0.14999999963E+04  0.15000000000E+04  0.10566000000E+00 0. -1.
        994   -1    0    0    0    0 -0.00000000000E+00 -0.00000000000E+00  0.11368683772E-12  0.17120000000E+03  0.17120000000E+03 0.  0.
         13    1    1    2    0    0  0.78894793927E+01 -0.15743882005E+02  0.80671163134E+02  0.82570947863E+02  0.10566000000E+00 0. -1.
        994    1    1    2    0    0 -0.11514988088E+02  0.15524601665E+02  0.30545067167E+01  0.17231476495E+03  0.17120000000E+03 0.  0.
        998    1    1    2    0    0  0.36255086954E+01  0.21928034006E+00  0.14162743264E+04  0.14163142872E+04  0.10000000000E+02 0. -1.
</event>
<event>
 5    1  0.1245771E-008  0.3745600E+03  0.7957747E-01  0.3475193E+00
         13   -1    0    0    0    0  0.00000000000E+00  0.00000000000E+00  0.14999999963E+04  0.15000000000E+04  0.10566000000E+00 0.  1.
        994   -1    0    0    0    0 -0.00000000000E+00 -0.00000000000E+00  0.11368683772E-12  0.17120000000E+03  0.17120000000E+03 0.  0.
         13    1    1    2    0    0 -0.16342679929E+03 -0.93689078901E+02  0.89630354564E+03  0.91588537455E+03  0.10566000000E+00 0.  1.
        994    1    1    2    0    0  0.15768470653E+03  0.95892024328E+02  0.13344254012E+03  0.28491419501E+03  0.17120000000E+03 0.  0.
        998    1    1    2    0    0  0.57420927652E+01 -0.22029454265E+01  0.47025391052E+03  0.47040043044E+03  0.10000000000E+02 0.  0.
</event>
<event>
 5    1  0.1245771E-008  0.3853908E+03  0.7957747E-01  0.3428016E+00
         13   -1    0    0    0    0  0.00000000000E+00  0.00000000000E+00  0.14999999963E+04  0.15000000000E+04  0.10566000000E+00 0. -1.
        994   -1    0    0    0    0 -0.00000000000E+00 -0.00000000000E+00  0.11368683772E-12  0.17120000000E+03  0.17120000000E+03 0.  0.
         13    1    1    2    0    0  0.48862383831E+01  0.16032121646E+02  0.86766282712E+02  0.88370262134E+02  0.10566000000E+00 0. -1.
        994    1    1    2    0    0  0.11349548040E+01 -0.28797066763E+02  0.41689421741E+01  0.17365880126E+03  0.17120000000E+03 0.  0.
        998    1    1    2    0    0 -0.60211931871E+01  0.12764945117E+02  0.14090647714E+04  0.14091709366E+04  0.10000000000E+02 0. -1.
</event>
<event>
 5    1  0.1245771E-008  0.3780317E+03  0.7957747E-01  0.3459774E+00
         13   -1    0    0    0    0  0.00000000000E+00  0.00000000000E+00  0.14999999963E+04  0.15000000000E+04  0.10566000000E+00 0.  1.
        994   -1    0    0    0    0 -0.00000000000E+00 -0.00000000000E+00  0.11368683772E-12  0.17120000000E+03  0.17120000000E+03 0.  0.
         13    1    1    2    0    0 -0.17980231205E+01  0.13420494224E+02  0.15657420831E+02  0.20700447905E+02  0.10566000000E+00 0.  1.
        994    1    1    2    0    0  0.71345435416E-01 -0.93583821815E+01  0.54248213778E+01  0.17154140344E+03  0.17120000000E+03 0.  0.
        998    1    1    2    0    0  0.17266776851E+01 -0.40621120420E+01  0.14789177541E+04  0.14789581487E+04  0.10000000000E+02 0.  1.
</event>
<event>
 5    1  0.1245771E-008  0.3768936E+03  0.7957747E-01  0.3464797E+00
         13   -1    0    0    0    0  0.00000000000E+00  0.00000000000E+00  0.14999999963E+04  0.15000000000E+04  0.10566000000E+00 0.  1.
        994   -1    0    0    0    0 -0.00000000000E+00 -0.00000000000E+00  0.11368683772E-12  0.17120000000E+03  0.17120000000E+03 0.  0.
         13    1    1    2    0    0  0.60976932647E+01  0.12512670010E+02  0.14389327338E+02  0.20020306671E+02  0.10566000000E+00 0.  1.
        994    1    1    2    0    0 -0.67160217067E+01 -0.10284816089E+02  0.62193154327E+01  0.17175273586E+03  0.17120000000E+03 0.  0.
        998    1    1    2    0    0  0.61832844201E+00 -0.22278539215E+01  0.14793913535E+04  0.14794269575E+04  0.10000000000E+02 0.  1.
</event>
<event>
 5    1  0.1245771E-008  0.3798770E+03  0.7957747E-01  0.3451694E+00
         13   -1    0    0    0    0  0.00000000000E+00  0.00000000000E+00  0.14999999963E+04  0.15000000000E+04  0.10566000000E+00 0.  1.
        994   -1    0    0    0    0 -0.00000000000E+00 -0.00000000000E+00  0.11368683772E-12  0.17120000000E+03  0.17120000000E+03 0.  0.
         13    1    1    2    0    0  0.33532537391E+02 -0.15493409927E+02  0.15605517613E+03  0.16036740933E+03  0.10566000000E+00 0.  1.
        994    1    1    2    0    0 -0.22395753670E+02  0.15271078102E+02  0.66564463259E+01  0.17346043897E+03  0.17120000000E+03 0.  0.
        998    1    1    2    0    0 -0.11136783721E+02  0.22233182411E+00  0.13372883738E+04  0.13373721517E+04  0.10000000000E+02 0.  1.
</event>
<event>
 5    1  0.1245771E-008  0.3857463E+03  0.7957747E-01  0.3426513E+00
         13   -1    0    0    0    0  0.00000000000E+00  0.00000000000E+00  0.14999999963E+04  0.15000000000E+04  0.10566000000E+00 0.  1.
        994   -1    0    0    0    0 -0.00000000000E+00 -0.00000000000E+00  0.11368683772E-12  0.17120000000E+03  0.17120000000E+03 0.  0.
         13    1    1    2    0    0 -0.10658635623E+02 -0.13593590288E+01  0.59233927022E+02  0.60200694721E+02  0.10566000000E+00 0.  1.
        994    1    1    2    0    0 -0.28872186486E+02  0.12300191713E+02  0.44979182511E+01  0.17411079558E+03  0.17120000000E+03 0.  0.
        998    1    1    2    0    0  0.39530822109E+02 -0.10940832684E+02  0.14362681510E+04  0.14368885097E+04  0.10000000000E+02 0.  1.
</event>
<event>
 5    1  0.1245771E-008  0.3709157E+03  0.7957747E-01  0.3491693E+00
         13   -1    0    0    0    0  0.00000000000E+00  0.00000000000E+00  0.14999999963E+04  0.15000000000E+04  0.10566000000E+00 0. -1.
        994   -1    0    0    0    0 -0.00000000000E+00 -0.00000000000E+00  0.11368683772E-12  0.17120000000E+03  0.17120000000E+03 0.  0.
         13    1    1    2    0    0  0.24477133062E+02 -0.74336273399E+02  0.32476676684E+03  0.33406358017E+03  0.10566000000E+00 0. -1.
        994    1    1    2    0    0 -0.56844358503E+01  0.12870328175E+02  0.12118416738E+02  0.17220410617E+03  0.17120000000E+03 0.  0.
        998    1    1    2    0    0 -0.18792697211E+02  0.61465945224E+02  0.11631148127E+04  0.11649323137E+04  0.10000000000E+02 0. -1.
</event>
<event>
 5    1  0.1245771E-008  0.3852476E+03  0.7957747E-01  0.3428623E+00
         13   -1    0    0    0    0  0.00000000000E+00  0.00000000000E+00  0.14999999963E+04  0.15000000000E+04  0.10566000000E+00 0.  1.
        994   -1    0    0    0    0 -0.00000000000E+00 -0.00000000000E+00  0.11368683772E-12  0.17120000000E+03  0.17120000000E+03 0.  0.
         13    1    1    2    0    0 -0.30730895790E+01 -0.11444094197E+02  0.43332691280E+02  0.44923762856E+02  0.10566000000E+00 0.  1.
        994    1    1    2    0    0 -0.24038501096E+01  0.23118088250E+02  0.32844426019E+01  0.17280177101E+03  0.17120000000E+03 0.  0.
        998    1    1    2    0    0  0.54769396886E+01 -0.11673994053E+02  0.14533828624E+04  0.14534744661E+04  0.10000000000E+02 0.  1.
</event>
<event>
 5    1  0.1245771E-008  0.3783523E+03  0.7957747E-01  0.3458365E+00
         13   -1    0    0    0    0  0.00000000000E+00  0.00000000000E+00  0.14999999963E+04  0.15000000000E+04  0.10566000000E+00 0. -1.
        994   -1    0    0    0    0 -0.00000000000E+00 -0.00000000000E+00  0.11368683772E-12  0.17120000000E+03  0.17120000000E+03 0.  0.
         13    1    1    2    0    0  0.32667328547E+02 -0.10338521913E+02  0.11179210228E+03  0.11692529532E+03  0.10566000000E+00 0. -1.
        994    1    1    2    0    0 -0.34023238279E+02 -0.11185835259E+02  0.92907769870E+01  0.17515268251E+03  0.17120000000E+03 0.  0.
        998    1    1    2    0    0  0.13559097317E+01  0.21524357172E+02  0.13789171170E+04  0.13791220222E+04  0.10000000000E+02 0. -1.
</event>
<event>
 5    1  0.1245771E-008  0.3722363E+03  0.7957747E-01  0.3485676E+00
         13   -1    0    0    0    0  0.00000000000E+00  0.00000000000E+00  0.14999999963E+04  0.15000000000E+04  0.10566000000E+00 0. -1.
        994   -1    0    0    0    0 -0.00000000000E+00 -0.00000000000E+00  0.11368683772E-12  0.17120000000E+03  0.17120000000E+03 0.  0.
         13    1    1    2    0    0 -0.13234168551E+02  0.64401979391E+02  0.18467608107E+03  0.19603067171E+03  0.10566000000E+00 0. -1.
        994    1    1    2    0    0 -0.29958245969E+02 -0.34560430701E+02  0.19533870910E+02  0.17827768224E+03  0.17120000000E+03 0.  0.
        998    1    1    2    0    0  0.43192414520E+02 -0.29841548691E+02  0.12957900443E+04  0.12968916461E+04  0.10000000000E+02 0. -1.
</event>
<event>
 5    1  0.1245771E-008  0.3838704E+03  0.7957747E-01  0.3434477E+00
         13   -1    0    0    0    0  0.00000000000E+00  0.00000000000E+00  0.14999999963E+04  0.15000000000E+04  0.10566000000E+00 0. -1.
        994   -1    0    0    0    0 -0.00000000000E+00 -0.00000000000E+00  0.11368683772E-12  0.17120000000E+03  0.17120000000E+03 0.  0.
         13    1    1    2    0    0  0.17945294853E+02  0.83463049768E+01  0.84086378682E+02  0.86384169024E+02  0.10566000000E+00 0. -1.
        994    1    1    2    0    0 -0.19261366983E+02 -0.95295652173E+01  0.37178318904E+01  0.17258353092E+03  0.17120000000E+03 0.  0.
        998    1    1    2    0    0  0.13160721307E+01  0.11832602405E+01  0.14121957857E+04  0.14122323001E+04  0.10000000000E+02 0. -1.
</event>
<event>
 5    1  0.1245771E-008  0.3789271E+03  0.7957747E-01  0.3455843E+00
         13   -1    0    0    0    0  0.00000000000E+00  0.00000000000E+00  0.14999999963E+04  0.15000000000E+04  0.10566000000E+00 0. -1.
        994   -1    0    0    0    0 -0.00000000000E+00 -0.00000000000E+00  0.11368683772E-12  0.17120000000E+03  0.17120000000E+03 0.  0.
         13    1    1    2    0    0 -0.25802558231E+02  0.10782694903E+02  0.77144751612E+02  0.82057067861E+02  0.10566000000E+00 0. -1.
        994    1    1    2    0    0  0.28779290473E+02 -0.12620012292E+02  0.79957239547E+01  0.17424374844E+03  0.17120000000E+03 0.  0.
        998    1    1    2    0    0 -0.29767322421E+01  0.18373173885E+01  0.14148595207E+04  0.14148991837E+04  0.10000000000E+02 0. -1.
</event>
<event>
 5    1  0.1245771E-008  0.3792116E+03  0.7957747E-01  0.3454599E+00
         13   -1    0    0    0    0  0.00000000000E+00  0.00000000000E+00  0.14999999963E+04  0.15000000000E+04  0.10566000000E+00 0. -1.
        994   -1    0    0    0    0 -0.00000000000E+00 -0.00000000000E+00  0.11368683772E-12  0.17120000000E+03  0.17120000000E+03 0.  0.
         13    1    1    2    0    0 -0.97091614852E+01 -0.10580539425E+02  0.20834335648E+02  0.25304077482E+02  0.10566000000E+00 0. -1.
        994    1    1    2    0    0  0.13204711579E+02  0.19717075136E+01  0.51293384290E+01  0.17179639738E+03  0.17120000000E+03 0.  0.
        998    1    1    2    0    0 -0.34955500939E+01  0.86088319115E+01  0.14740363222E+04  0.14740995251E+04  0.10000000000E+02 0. -1.
</event>
<event>
 5    1  0.1245771E-008  0.3767312E+03  0.7957747E-01  0.3465516E+00
         13   -1    0    0    0    0  0.00000000000E+00  0.00000000000E+00  0.14999999963E+04  0.15000000000E+04  0.10566000000E+00 0. -1.
        994   -1    0    0    0    0 -0.00000000000E+00 -0.00000000000E+00  0.11368683772E-12  0.17120000000E+03  0.17120000000E+03 0.  0.
         13    1    1    2    0    0 -0.32913932443E+02 -0.13411743504E+02  0.10391222034E+03  0.10982241353E+03  0.10566000000E+00 0. -1.
        994    1    1    2    0    0  0.31191856601E+02 -0.20449980196E+01  0.91015921339E+01  0.17426816380E+03  0.17120000000E+03 0.  0.
        998    1    1    2    0    0  0.17220758416E+01  0.15456741524E+02  0.13869861838E+04  0.13871094227E+04  0.10000000000E+02 0. -1.
</event>
<event>
 5    1  0.1245771E-008  0.3839937E+03  0.7957747E-01  0.3433951E+00
         13   -1    0    0    0    0  0.00000000000E+00  0.00000000000E+00  0.14999999963E+04  0.15000000000E+04  0.10566000000E+00 0.  1.
        994   -1    0    0    0    0 -0.00000000000E+00 -0.00000000000E+00  0.11368683772E-12  0.17120000000E+03  0.17120000000E+03 0.  0.
         13    1    1    2    0    0 -0.18294518402E+02  0.11153656989E+02  0.10847017965E+03  0.11056619965E+03  0.10566000000E+00 0.  1.
        994    1    1    2    0    0  0.10125766181E+02 -0.61880855677E+01  0.25953257846E+01  0.17163041473E+03  0.17120000000E+03 0.  0.
        998    1    1    2    0    0  0.81687522215E+01 -0.49655714209E+01  0.13889344908E+04  0.13890033856E+04  0.10000000000E+02 0.  1.
</event>
<event>
 5    1  0.1245771E-008  0.3801828E+03  0.7957747E-01  0.3450363E+00
         13   -1    0    0    0    0  0.00000000000E+00  0.00000000000E+00  0.14999999963E+04  0.15000000000E+04  0.10566000000E+00 0.  1.
        994   -1    0    0    0    0 -0.00000000000E+00 -0.00000000000E+00  0.11368683772E-12  0.17120000000E+03  0.17120000000E+03 0.  0.
         13    1    1    2    0    0 -0.30230950416E+02  0.15941711889E+02  0.96845620017E+02  0.10269923963E+03  0.10566000000E+00 0.  1.
        994    1    1    2    0    0  0.10642059609E+03 -0.12655743629E+02  0.43418936351E+02  0.20659175964E+03  0.17120000000E+03 0.  0.
        998    1    1    2    0    0 -0.76189645675E+02 -0.32859682602E+01  0.13597354399E+04  0.13619090007E+04  0.10000000000E+02 0.  1.
</event>
<event>
 5    1  0.1245771E-008  0.3689306E+03  0.7957747E-01  0.3500820E+00
         13   -1    0    0    0    0  0.00000000000E+00  0.00000000000E+00  0.14999999963E+04  0.15000000000E+04  0.10566000000E+00 0.  1.
        994   -1    0    0    0    0 -0.00000000000E+00 -0.00000000000E+00  0.11368683772E-12  0.17120000000E+03  0.17120000000E+03 0.  0.
         13    1    1    2    0    0  0.11385052494E+03  0.12376273325E+03  0.91729033344E+03  0.93257746228E+03  0.10566000000E+00 0.  1.
        994    1    1    2    0    0 -0.12770534802E+03 -0.72809752074E+02  0.89917203485E+02  0.24290833537E+03  0.17120000000E+03 0.  0.
        998    1    1    2    0    0  0.13854823075E+02 -0.50952981179E+02  0.49279245935E+03  0.49571420235E+03  0.10000000000E+02 0.  1.
</event>
<event>
 5    1  0.1245771E-008  0.3856130E+03  0.7957747E-01  0.3427076E+00
         13   -1    0    0    0    0  0.00000000000E+00  0.00000000000E+00  0.14999999963E+04  0.15000000000E+04  0.10566000000E+00 0.  1.
        994   -1    0    0    0    0 -0.00000000000E+00 -0.00000000000E+00  0.11368683772E-12  0.17120000000E+03  0.17120000000E+03 0.  0.
         13    1    1    2    0    0 -0.84767114833E+01 -0.11651366278E+02  0.75186562953E+02  0.76554812954E+02  0.10566000000E+00 0.  1.
        994    1    1    2    0    0  0.10174282039E+02  0.12030793143E+02  0.21413066822E+01  0.17193685234E+03  0.17120000000E+03 0.  0.
        998    1    1    2    0    0 -0.16975705558E+01 -0.37942686518E+00  0.14226721266E+04  0.14227083347E+04  0.10000000000E+02 0.  1.
</event>
<event>
 5    1  0.1245771E-008  0.3841129E+03  0.7957747E-01  0.3433443E+00
         13   -1    0    0    0    0  0.00000000000E+00  0.00000000000E+00  0.14999999963E+04  0.15000000000E+04  0.10566000000E+00 0. -1.
        994   -1    0    0    0    0 -0.00000000000E+00 -0.00000000000E+00  0.11368683772E-12  0.17120000000E+03  0.17120000000E+03 0.  0.
         13    1    1    2    0    0 -0.11587945359E+02  0.10903609589E+02  0.71509355678E+02  0.73258230208E+02  0.10566000000E+00 0. -1.
        994    1    1    2    0    0 -0.13012784207E+02  0.10038093113E+02  0.29625172886E+01  0.17201253552E+03  0.17120000000E+03 0.  0.
        998    1    1    2    0    0  0.24600729566E+02 -0.20941702702E+02  0.14255281233E+04  0.14259292343E+04  0.10000000000E+02 0. -1.
</event>
<event>
 5    1  0.1245771E-008  0.3788705E+03  0.7957747E-01  0.3456091E+00
         13   -1    0    0    0    0  0.00000000000E+00  0.00000000000E+00  0.14999999963E+04  0.15000000000E+04  0.10566000000E+00 0.  1.
        994   -1    0    0    0    0 -0.00000000000E+00 -0.00000000000E+00  0.11368683772E-12  0.17120000000E+03  0.17120000000E+03 0.  0.
         13    1    1    2    0    0  0.14858873173E+02  0.64447475676E+01  0.25782982246E+02  0.30448221963E+02  0.10566000000E+00 0.  1.
        994    1    1    2    0    0 -0.10284091718E+02 -0.10040143341E+02  0.53978084998E+01  0.17188700753E+03  0.17120000000E+03 0.  0.
        998    1    1    2    0    0 -0.45747814552E+01  0.35953957729E+01  0.14688192055E+04  0.14688647705E+04  0.10000000000E+02 0.  1.
</event>
<event>
 5    1  0.1245771E-008  0.3815182E+03  0.7957747E-01  0.3444575E+00
         13   -1    0    0    0    0  0.00000000000E+00  0.00000000000E+00  0.14999999963E+04  0.15000000000E+04  0.10566000000E+00 0. -1.
        994   -1    0    0    0    0 -0.00000000000E+00 -0.00000000000E+00  0.11368683772E-12  0.17120000000E+03  0.17120000000E+03 0.  0.
         13    1    1    2    0    0 -0.17332838528E+02  0.35146697778E+01  0.46274588296E+02  0.49539165123E+02  0.10566000000E+00 0. -1.
        994    1    1    2    0    0  0.70288716669E+01  0.51217590233E+01  0.36203643077E+01  0.17145898778E+03  0.17120000000E+03 0.  0.
        998    1    1    2    0    0  0.10303966861E+02 -0.86364288012E+01  0.14501050437E+04  0.14502018471E+04  0.10000000000E+02 0. -1.
</event>
<event>
 5    1  0.1378684E-008  0.3857320E+03  0.7957747E-01  0.3426574E+00
         13   -1    0    0    0    0  0.00000000000E+00  0.00000000000E+00  0.14999999963E+04  0.15000000000E+04  0.10566000000E+00 0.  1.
        994   -1    0    0    0    0 -0.00000000000E+00 -0.00000000000E+00  0.11368683772E-12  0.17120000000E+03  0.17120000000E+03 0.  0.
         13    1    1    2    0    0 -0.75980459139E+01 -0.12449315609E+02  0.77107792942E+02  0.78475083034E+02  0.10566000000E+00 0.  1.
        994    1    1    2    0    0  0.16377209069E+02  0.15424989485E+02  0.29294978641E+01  0.17269674356E+03  0.17120000000E+03 0.  0.
        998    1    1    2    0    0 -0.87791631553E+01 -0.29756738756E+01  0.14199627055E+04  0.14200281734E+04  0.10000000000E+02 0.  1.
</event>
<event>
 5    1  0.1245771E-008  0.3716998E+03  0.7957747E-01  0.3488115E+00
         13   -1    0    0    0    0  0.00000000000E+00  0.00000000000E+00  0.14999999963E+04  0.15000000000E+04  0.10566000000E+00 0. -1.
        994   -1    0    0    0    0 -0.00000000000E+00 -0.00000000000E+00  0.11368683772E-12  0.17120000000E+03  0.17120000000E+03 0.  0.
         13    1    1    2    0    0  0.27229419057E+02  0.48725161334E+02  0.17138318151E+03  0.18024369248E+03  0.10566000000E+00 0. -1.
        994    1    1    2    0    0 -0.15048518484E+02 -0.44578022457E+02  0.16031419244E+02  0.17826975177E+03  0.17120000000E+03 0.  0.
        998    1    1    2    0    0 -0.12180900573E+02 -0.41471388768E+01  0.13125853955E+04  0.13126865557E+04  0.10000000000E+02 0. -1.
</event>
<event>
 5    1  0.1245771E-008  0.3803548E+03  0.7957747E-01  0.3449615E+00
         13   -1    0    0    0    0  0.00000000000E+00  0.00000000000E+00  0.14999999963E+04  0.15000000000E+04  0.10566000000E+00 0.  1.
        994   -1    0    0    0    0 -0.00000000000E+00 -0.00000000000E+00  0.11368683772E-12  0.17120000000E+03  0.17120000000E+03 0.  0.
         13    1    1    2    0    0  0.40983892762E+02 -0.78763265341E+01  0.19484349483E+03  0.19926292838E+03  0.10566000000E+00 0.  1.
        994    1    1    2    0    0 -0.41596283815E+02 -0.32913525732E+01  0.97896258067E+01  0.17648331537E+03  0.17120000000E+03 0.  0.
        998    1    1    2    0    0  0.61239105306E+00  0.11167679107E+02  0.12953668756E+04  0.12954537563E+04  0.10000000000E+02 0.  1.
</event>
<event>
 5    1  0.1245771E-008  0.3839136E+03  0.7957747E-01  0.3434293E+00
         13   -1    0    0    0    0  0.00000000000E+00  0.00000000000E+00  0.14999999963E+04  0.15000000000E+04  0.10566000000E+00 0.  1.
        994   -1    0    0    0    0 -0.00000000000E+00 -0.00000000000E+00  0.11368683772E-12  0.17120000000E+03  0.17120000000E+03 0.  0.
         13    1    1    2    0    0  0.12361227818E+02 -0.15828538626E+02  0.95079144189E+02  0.97177144493E+02  0.10566000000E+00 0.  1.
        994    1    1    2    0    0 -0.33729593253E+01  0.81917544947E+01  0.24295106307E+01  0.17144627210E+03  0.17120000000E+03 0.  0.
        998    1    1    2    0    0 -0.89882684927E+01  0.76367841309E+01  0.14024913415E+04  0.14025765834E+04  0.10000000000E+02 0.  1.
</event>
<event>
 5    1  0.1245771E-008  0.3857199E+03  0.7957747E-01  0.3426625E+00
         13   -1    0    0    0    0  0.00000000000E+00  0.00000000000E+00  0.14999999963E+04  0.15000000000E+04  0.10566000000E+00 0.  1.
        994   -1    0    0    0    0 -0.00000000000E+00 -0.00000000000E+00  0.11368683772E-12  0.17120000000E+03  0.17120000000E+03 0.  0.
         13    1    1    2    0    0 -0.83388932357E+01  0.73230172487E+01  0.48971742581E+02  0.50213608290E+02  0.10566000000E+00 0.  1.
        994    1    1    2    0    0  0.82362813330E+01 -0.72541310146E+00  0.14974552810E+01  0.17140608194E+03  0.17120000000E+03 0.  0.
        998    1    1    2    0    0  0.10261190273E+00 -0.65976041473E+01  0.14495307984E+04  0.14495803098E+04  0.10000000000E+02 0.  1.
</event>
<event>
 5    1  0.1245771E-008  0.3829337E+03  0.7957747E-01  0.3438483E+00
         13   -1    0    0    0    0  0.00000000000E+00  0.00000000000E+00  0.14999999963E+04  0.15000000000E+04  0.10566000000E+00 0.  1.
        994   -1    0    0    0    0 -0.00000000000E+00 -0.00000000000E+00  0.11368683772E-12  0.17120000000E+03  0.17120000000E+03 0.  0.
         13    1    1    2    0    0  0.14330718963E+01  0.10718002622E+02  0.20888473232E+02  0.23521665614E+02  0.10566000000E+00 0.  1.
        994    1    1    2    0    0 -0.26797168121E+01 -0.89751077989E+01  0.29500314635E+01  0.17148141628E+03  0.17120000000E+03 0.  0.
        998    1    1    2    0    0  0.12466449158E+01 -0.17428948228E+01  0.14761614916E+04  0.14761969181E+04  0.10000000000E+02 0.  1.
</event>
<event>
 5    1  0.1245771E-008  0.3838559E+03  0.7957747E-01  0.3434539E+00
         13   -1    0    0    0    0  0.00000000000E+00  0.00000000000E+00  0.14999999963E+04  0.15000000000E+04  0.10566000000E+00 0. -1.
        994   -1    0    0    0    0 -0.00000000000E+00 -0.00000000000E+00  0.11368683772E-12  0.17120000000E+03  0.17120000000E+03 0.  0.
         13    1    1    2    0    0  0.70674862040E+01  0.13969983110E+02  0.57354240699E+02  0.59452753338E+02  0.10566000000E+00 0. -1.
        994    1    1    2    0    0 -0.14143078178E+02  0.35333841782E+01  0.29010322872E+01  0.17184402071E+03  0.17120000000E+03 0.  0.
        998    1    1    2    0    0  0.70755919742E+01 -0.17503367288E+02  0.14397447233E+04  0.14399032260E+04  0.10000000000E+02 0. -1.
</event>
<event>
 5    1  0.1245771E-008  0.3766498E+03  0.7957747E-01  0.3465877E+00
         13   -1    0    0    0    0  0.00000000000E+00  0.00000000000E+00  0.14999999963E+04  0.15000000000E+04  0.10566000000E+00 0.  1.
        994   -1    0    0    0    0 -0.00000000000E+00 -0.00000000000E+00  0.11368683772E-12  0.17120000000E+03  0.17120000000E+03 0.  0.
         13    1    1    2    0    0 -0.51216557903E+02  0.68918252052E+02  0.30993429445E+03  0.32160867418E+03  0.10566000000E+00 0.  1.
        994    1    1    2    0    0 -0.13733721768E+01 -0.17823684844E+02  0.15643786738E+02  0.17284020932E+03  0.17120000000E+03 0.  0.
        998    1    1    2    0    0  0.52589930080E+02 -0.51094567207E+02  0.11744219151E+04  0.11767511165E+04  0.10000000000E+02 0. -1.
</event>
<event>
 5    1  0.1245771E-008  0.3854186E+03  0.7957747E-01  0.3427899E+00
         13   -1    0    0    0    0  0.00000000000E+00  0.00000000000E+00  0.14999999963E+04  0.15000000000E+04  0.10566000000E+00 0.  1.
        994   -1    0    0    0    0 -0.00000000000E+00 -0.00000000000E+00  0.11368683772E-12  0.17120000000E+03  0.17120000000E+03 0.  0.
         13    1    1    2    0    0 -0.39214581416E+01 -0.10944559712E+02  0.42809590293E+02  0.44360268331E+02  0.10566000000E+00 0.  1.
        994    1    1    2    0    0  0.20962429534E+02  0.21902014068E+02  0.44468398812E+01  0.17392048774E+03  0.17120000000E+03 0.  0.
        998    1    1    2    0    0 -0.17040971392E+02 -0.10957454356E+02  0.14527435661E+04  0.14529192439E+04  0.10000000000E+02 0.  1.
</event>
<event>
 5    1  0.1245771E-008  0.3825571E+03  0.7957747E-01  0.3440099E+00
         13   -1    0    0    0    0  0.00000000000E+00  0.00000000000E+00  0.14999999963E+04  0.15000000000E+04  0.10566000000E+00 0. -1.
        994   -1    0    0    0    0 -0.00000000000E+00 -0.00000000000E+00  0.11368683772E-12  0.17120000000E+03  0.17120000000E+03 0.  0.
         13    1    1    2    0    0 -0.14557859024E+02 -0.16568448591E+02  0.85849612958E+02  0.88637531312E+02  0.10566000000E+00 0. -1.
        994    1    1    2    0    0  0.15098614582E+02  0.16336045853E+01  0.36127614759E+01  0.17191023492E+03  0.17120000000E+03 0.  0.
        998    1    1    2    0    0 -0.54075555786E+00  0.14934844006E+02  0.14105376218E+04  0.14106522338E+04  0.10000000000E+02 0. -1.
</event>
<event>
 5    1  0.1245771E-008  0.3893983E+03  0.7957747E-01  0.3411230E+00
         13   -1    0    0    0    0  0.00000000000E+00  0.00000000000E+00  0.14999999963E+04  0.15000000000E+04  0.10566000000E+00 0. -1.
        994   -1    0    0    0    0 -0.00000000000E+00 -0.00000000000E+00  0.11368683772E-12  0.17120000000E+03  0.17120000000E+03 0.  0.
         13    1    1    2    0    0 -0.17310625547E+02  0.33013438203E+02  0.22699309391E+02  0.43644182541E+02  0.10566000000E+00 0. -1.
        994    1    1    2    0    0 -0.20220883751E+01 -0.50222786651E+02  0.31132850606E+02  0.18112181406E+03  0.17120000000E+03 0.  0.
        998    1    1    2    0    0  0.19332713922E+02  0.17209348448E+02  0.14461678363E+04  0.14464340034E+04  0.10000000000E+02 0. -1.
</event>
<event>
 5    1  0.1245771E-008  0.3793242E+03  0.7957747E-01  0.3454107E+00
         13   -1    0    0    0    0  0.00000000000E+00  0.00000000000E+00  0.14999999963E+04  0.15000000000E+04  0.10566000000E+00 0.  1.
        994   -1    0    0    0    0 -0.00000000000E+00 -0.00000000000E+00  0.11368683772E-12  0.17120000000E+03  0.17120000000E+03 0.  0.
         13    1    1    2    0    0 -0.30165179023E+02  0.31650060293E+01  0.12800695987E+03  0.13155131405E+03  0.10566000000E+00 0.  1.
        994    1    1    2    0    0 -0.24141046912E+02 -0.30044104830E+02  0.94676198956E+01  0.17573990499E+03  0.17120000000E+03 0.  0.
        998    1    1    2    0    0  0.54306225934E+02  0.26879098800E+02  0.13625254165E+04  0.13639087810E+04  0.10000000000E+02 0.  1.
</event>
<event>
 5    1  0.1245771E-008  0.3745577E+03  0.7957747E-01  0.3475203E+00
         13   -1    0    0    0    0  0.00000000000E+00  0.00000000000E+00  0.14999999963E+04  0.15000000000E+04  0.10566000000E+00 0.  1.
        994   -1    0    0    0    0 -0.00000000000E+00 -0.00000000000E+00  0.11368683772E-12  0.17120000000E+03  0.17120000000E+03 0.  0.
         13    1    1    2    0    0  0.65378511534E+01 -0.81530181107E+01  0.47080929683E+01  0.11462656998E+02  0.10566000000E+00 0.  1.
        994    1    1    2    0    0 -0.89937093535E+01  0.31692001570E+01  0.72156536505E+01  0.17161712122E+03  0.17120000000E+03 0.  0.
        998    1    1    2    0    0  0.24558582002E+01  0.49838179537E+01  0.14880762497E+04  0.14881202218E+04  0.10000000000E+02 0.  1.
</event>
<event>
 5    1  0.1245771E-008  0.3759622E+03  0.7957747E-01  0.3468931E+00
         13   -1    0    0    0    0  0.00000000000E+00  0.00000000000E+00  0.14999999963E+04  0.15000000000E+04  0.10566000000E+00 0. -1.
        994   -1    0    0    0    0 -0.00000000000E+00 -0.00000000000E+00  0.11368683772E-12  0.17120000000E+03  0.17120000000E+03 0.  0.
         13    1    1    2    0    0 -0.16320511950E+02  0.17788870740E+02  0.43067735217E+02  0.49372502603E+02  0.10566000000E+00 0. -1.
        994    1    1    2    0    0  0.19444810343E+02 -0.20005552154E+02  0.88270562371E+01  0.17368269830E+03  0.17120000000E+03 0.  0.
        998    1    1    2    0    0 -0.31242983926E+01  0.22166814139E+01  0.14481052048E+04  0.14481447991E+04  0.10000000000E+02 0. -1.
</event>
<event>
 5    1  0.1245771E-008  0.3734822E+03  0.7957747E-01  0.3480039E+00
         13   -1    0    0    0    0  0.00000000000E+00  0.00000000000E+00  0.14999999963E+04  0.15000000000E+04  0.10566000000E+00 0.  1.
        994   -1    0    0    0    0 -0.00000000000E+00 -0.00000000000E+00  0.11368683772E-12  0.17120000000E+03  0.17120000000E+03 0.  0.
         13    1    1    2    0    0  0.40786094661E+01 -0.18532046095E+02  0.20616635489E+02  0.28020146512E+02  0.10566000000E+00 0.  1.
        994    1    1    2    0    0 -0.30169605863E+01  0.19809590173E+02  0.88333166421E+01  0.17259487071E+03  0.17120000000E+03 0.  0.
        998    1    1    2    0    0 -0.10616488798E+01 -0.12775440785E+01  0.14705500441E+04  0.14705849828E+04  0.10000000000E+02 0.  1.
</event>
<event>
 5    1  0.1245771E-008  0.3809071E+03  0.7957747E-01  0.3447218E+00
         13   -1    0    0    0    0  0.00000000000E+00  0.00000000000E+00  0.14999999963E+04  0.15000000000E+04  0.10566000000E+00 0. -1.
        994   -1    0    0    0    0 -0.00000000000E+00 -0.00000000000E+00  0.11368683772E-12  0.17120000000E+03  0.17120000000E+03 0.  0.
         13    1    1    2    0    0 -0.16635905039E+02  0.12843093583E+02  0.61038462175E+02  0.64555429036E+02  0.10566000000E+00 0. -1.
        994    1    1    2    0    0  0.99204696926E+01  0.50186145117E+01  0.40879947438E+01  0.17160930602E+03  0.17120000000E+03 0.  0.
        998    1    1    2    0    0  0.67154353465E+01 -0.17861708095E+02  0.14348735394E+04  0.14350352649E+04  0.10000000000E+02 0. -1.
</event>
<event>
 5    1  0.1245771E-008  0.3813658E+03  0.7957747E-01  0.3445233E+00
         13   -1    0    0    0    0  0.00000000000E+00  0.00000000000E+00  0.14999999963E+04  0.15000000000E+04  0.10566000000E+00 0.  1.
        994   -1    0    0    0    0 -0.00000000000E+00 -0.00000000000E+00  0.11368683772E-12  0.17120000000E+03  0.17120000000E+03 0.  0.
         13    1    1    2    0    0  0.41714994245E+02  0.27223117152E+02  0.27390491299E+03  0.27839747014E+03  0.10566000000E+00 0.  1.
        994    1    1    2    0    0 -0.53756473682E+02 -0.23838414712E+02  0.15040029265E+02  0.18164160030E+03  0.17120000000E+03 0.  0.
        998    1    1    2    0    0  0.12041479438E+02 -0.33847024405E+01  0.12110550540E+04  0.12111609296E+04  0.10000000000E+02 0.  1.
</event>
<event>
 5    1  0.1245771E-008  0.3851458E+03  0.7957747E-01  0.3429054E+00
         13   -1    0    0    0    0  0.00000000000E+00  0.00000000000E+00  0.14999999963E+04  0.15000000000E+04  0.10566000000E+00 0.  1.
        994   -1    0    0    0    0 -0.00000000000E+00 -0.00000000000E+00  0.11368683772E-12  0.17120000000E+03  0.17120000000E+03 0.  0.
         13    1    1    2    0    0 -0.12442290348E+02 -0.91490537953E+01  0.77348706485E+02  0.78875530638E+02  0.10566000000E+00 0.  1.
        994    1    1    2    0    0 -0.62202675879E+01  0.24791504178E+02  0.37082198485E+01  0.17313723257E+03  0.17120000000E+03 0.  0.
        998    1    1    2    0    0  0.18662557936E+02 -0.15642450382E+02  0.14189430699E+04  0.14191872368E+04  0.10000000000E+02 0.  1.
</event>
<event>
 5    1  0.1245771E-008  0.3825029E+03  0.7957747E-01  0.3440332E+00
         13   -1    0    0    0    0  0.00000000000E+00  0.00000000000E+00  0.14999999963E+04  0.15000000000E+04  0.10566000000E+00 0. -1.
        994   -1    0    0    0    0 -0.00000000000E+00 -0.00000000000E+00  0.11368683772E-12  0.17120000000E+03  0.17120000000E+03 0.  0.
         13    1    1    2    0    0 -0.11272379023E+02  0.24097936323E+02  0.11433084010E+03  0.11738538762E+03  0.10566000000E+00 0. -1.
        994    1    1    2    0    0  0.11410476374E+02 -0.23982715141E+02  0.52171381015E+01  0.17332636305E+03  0.17120000000E+03 0.  0.
        998    1    1    2    0    0 -0.13809735153E+00 -0.11522118183E+00  0.13804520181E+04  0.13804882493E+04  0.10000000000E+02 0.  0.
</event>
<event>
 5    1  0.1245771E-008  0.3829634E+03  0.7957747E-01  0.3438356E+00
         13   -1    0    0    0    0  0.00000000000E+00  0.00000000000E+00  0.14999999963E+04  0.15000000000E+04  0.10566000000E+00 0. -1.
        994   -1    0    0    0    0 -0.00000000000E+00 -0.00000000000E+00  0.11368683772E-12  0.17120000000E+03  0.17120000000E+03 0.  0.
         13    1    1    2    0    0 -0.80464749527E+01  0.13853056083E+02  0.47620445561E+02  0.50243118150E+02  0.10566000000E+00 0. -1.
        994    1    1    2    0    0  0.11145566709E+02 -0.63339228237E+01  0.31889045684E+01  0.17170891458E+03  0.17120000000E+03 0.  0.
        998    1    1    2    0    0 -0.30990917560E+01 -0.75191332591E+01  0.14491906461E+04  0.14492479673E+04  0.10000000000E+02 0. -1.
</event>
<event>
 5    1  0.1245771E-008  0.3831161E+03  0.7957747E-01  0.3437701E+00
         13   -1    0    0    0    0  0.00000000000E+00  0.00000000000E+00  0.14999999963E+04  0.15000000000E+04  0.10566000000E+00 0. -1.
        994   -1    0    0    0    0 -0.00000000000E+00 -0.00000000000E+00  0.11368683772E-12  0.17120000000E+03  0.17120000000E+03 0.  0.
         13    1    1    2    0    0 -0.17251562473E+01  0.19963340832E+02  0.73912242605E+02  0.76580297154E+02  0.10566000000E+00 0. -1.
        994    1    1    2    0    0  0.16500533417E+01 -0.21292771092E+02  0.40789868128E+01  0.17257515149E+03  0.17120000000E+03 0.  0.
        998    1    1    2    0    0  0.75102905635E-01  0.13294302602E+01  0.14220087669E+04  0.14220445514E+04  0.10000000000E+02 0.  0.
</event>
<event>
 5    1  0.1245771E-008  0.3799915E+03  0.7957747E-01  0.3451195E+00
         13   -1    0    0    0    0  0.00000000000E+00  0.00000000000E+00  0.14999999963E+04  0.15000000000E+04  0.10566000000E+00 0. -1.
        994   -1    0    0    0    0 -0.00000000000E+00 -0.00000000000E+00  0.11368683772E-12  0.17120000000E+03  0.17120000000E+03 0.  0.
         13    1    1    2    0    0  0.49172302908E+01  0.35215256576E+02  0.12578394787E+03  0.13071306804E+03  0.10566000000E+00 0. -1.
        994    1    1    2    0    0 -0.72201018783E+02 -0.48178993418E+02  0.29750019668E+02  0.19423878652E+03  0.17120000000E+03 0.  0.
        998    1    1    2    0    0  0.67283788492E+02  0.12963736842E+02  0.13444660287E+04  0.13462481454E+04  0.10000000000E+02 0. -1.
</event>
<event>
 5    1  0.1245771E-008  0.3744576E+03  0.7957747E-01  0.3475652E+00
         13   -1    0    0    0    0  0.00000000000E+00  0.00000000000E+00  0.14999999963E+04  0.15000000000E+04  0.10566000000E+00 0.  1.
        994   -1    0    0    0    0 -0.00000000000E+00 -0.00000000000E+00  0.11368683772E-12  0.17120000000E+03  0.17120000000E+03 0.  0.
         13    1    1    2    0    0  0.86532331626E+01 -0.10339031800E+03  0.48255666014E+03  0.49358421542E+03  0.10566000000E+00 0.  1.
        994    1    1    2    0    0 -0.11722079077E+02  0.10861706066E+03  0.48756154778E+02  0.20885802746E+03  0.17120000000E+03 0.  0.
        998    1    1    2    0    0  0.30688459144E+01 -0.52267426586E+01  0.96868718136E+03  0.96875775713E+03  0.10000000000E+02 0.  1.
</event>
<event>
 5    1  0.1245771E-008  0.3842181E+03  0.7957747E-01  0.3432995E+00
         13   -1    0    0    0    0  0.00000000000E+00  0.00000000000E+00  0.14999999963E+04  0.15000000000E+04  0.10566000000E+00 0.  1.
        994   -1    0    0    0    0 -0.00000000000E+00 -0.00000000000E+00  0.11368683772E-12  0.17120000000E+03  0.17120000000E+03 0.  0.
         13    1    1    2    0    0 -0.11560659845E+02  0.88485914178E+01  0.50518910021E+02  0.52574878601E+02  0.10566000000E+00 0.  1.
        994    1    1    2    0    0  0.33394919814E+01 -0.21894743364E+02  0.36377835867E+01  0.17266500938E+03  0.17120000000E+03 0.  0.
        998    1    1    2    0    0  0.82211678634E+01  0.13046151946E+02  0.14458433027E+04  0.14459601120E+04  0.10000000000E+02 0.  1.
</event>
<event>
 5    1  0.1245771E-008  0.3841424E+03  0.7957747E-01  0.3433318E+00
         13   -1    0    0    0    0  0.00000000000E+00  0.00000000000E+00  0.14999999963E+04  0.15000000000E+04  0.10566000000E+00 0. -1.
        994   -1    0    0    0    0 -0.00000000000E+00 -0.00000000000E+00  0.11368683772E-12  0.17120000000E+03  0.17120000000E+03 0.  0.
         13    1    1    2    0    0  0.11224094366E+02 -0.32365342376E+01  0.32151131142E+02  0.34207628476E+02  0.10566000000E+00 0. -1.
        994    1    1    2    0    0 -0.10980897680E+02  0.42347530989E+01  0.25134406779E+01  0.17162246541E+03  0.17120000000E+03 0.  0.
        998    1    1    2    0    0 -0.24319668532E+00 -0.99821886125E+00  0.14653354245E+04  0.14653699061E+04  0.10000000000E+02 0. -1.
</event>
<event>
 5    1  0.1245771E-008  0.3787966E+03  0.7957747E-01  0.3456415E+00
         13   -1    0    0    0    0  0.00000000000E+00  0.00000000000E+00  0.14999999963E+04  0.15000000000E+04  0.10566000000E+00 0. -1.
        994   -1    0    0    0    0 -0.00000000000E+00 -0.00000000000E+00  0.11368683772E-12  0.17120000000E+03  0.17120000000E+03 0.  0.
         13    1    1    2    0    0  0.29643416656E+02 -0.30385051530E+01  0.99620298139E+02  0.10398163121E+03  0.10566000000E+00 0. -1.
        994    1    1    2    0    0 -0.22250707360E+01 -0.36545382061E+01  0.48033137958E+01  0.17132080555E+03  0.17120000000E+03 0.  0.
        998    1    1    2    0    0 -0.27418345920E+02  0.66930433592E+01  0.13955763843E+04  0.13958975632E+04  0.10000000000E+02 0. -1.
</event>
<event>
 5    1  0.1245771E-008  0.3852571E+03  0.7957747E-01  0.3428582E+00
         13   -1    0    0    0    0  0.00000000000E+00  0.00000000000E+00  0.14999999963E+04  0.15000000000E+04  0.10566000000E+00 0. -1.
        994   -1    0    0    0    0 -0.00000000000E+00 -0.00000000000E+00  0.11368683772E-12  0.17120000000E+03  0.17120000000E+03 0.  0.
         13    1    1    2    0    0 -0.12417657832E+02  0.10728793272E+02  0.87162100366E+02  0.88693563100E+02  0.10566000000E+00 0. -1.
        994    1    1    2    0    0  0.11324847945E+02 -0.92726557406E+01  0.22067943742E+01  0.17183871586E+03  0.17120000000E+03 0.  0.
        998    1    1    2    0    0  0.10928098871E+01 -0.14561375313E+01  0.14106311015E+04  0.14106677210E+04  0.10000000000E+02 0. -1.
</event>
<event>
 5    1  0.1245771E-008  0.3807569E+03  0.7957747E-01  0.3447869E+00
         13   -1    0    0    0    0  0.00000000000E+00  0.00000000000E+00  0.14999999963E+04  0.15000000000E+04  0.10566000000E+00 0.  1.
        994   -1    0    0    0    0 -0.00000000000E+00 -0.00000000000E+00  0.11368683772E-12  0.17120000000E+03  0.17120000000E+03 0.  0.
         13    1    1    2    0    0 -0.75515306261E+01 -0.65769323569E+01  0.11640250983E+02  0.15355398432E+02  0.10566000000E+00 0.  1.
        994    1    1    2    0    0  0.83360234482E+01  0.65878978678E+01  0.41280893565E+01  0.17157905119E+03  0.17120000000E+03 0.  0.
        998    1    1    2    0    0 -0.78449282212E+00 -0.10965510863E-01  0.14842316559E+04  0.14842655504E+04  0.10000000000E+02 0.  1.
</event>
<event>
 5    1  0.1245771E-008  0.3843254E+03  0.7957747E-01  0.3432538E+00
         13   -1    0    0    0    0  0.00000000000E+00  0.00000000000E+00  0.14999999963E+04  0.15000000000E+04  0.10566000000E+00 0. -1.
        994   -1    0    0    0    0 -0.00000000000E+00 -0.00000000000E+00  0.11368683772E-12  0.17120000000E+03  0.17120000000E+03 0.  0.
         13    1    1    2    0    0 -0.80909884253E+01  0.18781718993E+02  0.10677819244E+03  0.10871895238E+03  0.10566000000E+00 0. -1.
        994    1    1    2    0    0  0.19072871101E+02 -0.52173267635E+01  0.32551704111E+01  0.17236888073E+03  0.17120000000E+03 0.  0.
        998    1    1    2    0    0 -0.10981882676E+02 -0.13564392230E+02  0.13899666334E+04  0.13901121669E+04  0.10000000000E+02 0. -1.
</event>
<event>
 5    1  0.1245771E-008  0.3852371E+03  0.7957747E-01  0.3428667E+00
         13   -1    0    0    0    0  0.00000000000E+00  0.00000000000E+00  0.14999999963E+04  0.15000000000E+04  0.10566000000E+00 0.  1.
        994   -1    0    0    0    0 -0.00000000000E+00 -0.00000000000E+00  0.11368683772E-12  0.17120000000E+03  0.17120000000E+03 0.  0.
         13    1    1    2    0    0  0.10454995066E+01  0.10132544222E+02  0.34001009945E+02  0.35494244081E+02  0.10566000000E+00 0.  1.
        994    1    1    2    0    0 -0.31331523033E+01 -0.79661957323E+01  0.17533107598E+01  0.17142284275E+03  0.17120000000E+03 0.  0.
        998    1    1    2    0    0  0.20876527967E+01 -0.21663484895E+01  0.14642456756E+04  0.14642829132E+04  0.10000000000E+02 0.  1.
</event>
<event>
 5    1  0.1245771E-008  0.3756454E+03  0.7957747E-01  0.3470341E+00
         13   -1    0    0    0    0  0.00000000000E+00  0.00000000000E+00  0.14999999963E+04  0.15000000000E+04  0.10566000000E+00 0. -1.
        994   -1    0    0    0    0 -0.00000000000E+00 -0.00000000000E+00  0.11368683772E-12  0.17120000000E+03  0.17120000000E+03 0.  0.
         13    1    1    2    0    0  0.78977549726E+02 -0.11229054824E+02  0.37853150523E+03  0.38684577889E+03  0.10566000000E+00 0. -1.
        994    1    1    2    0    0 -0.77868613004E+02  0.53436562232E+01  0.27299402074E+02  0.19012304675E+03  0.17120000000E+03 0.  0.
        998    1    1    2    0    0 -0.11089367220E+01  0.58853986005E+01  0.10941690890E+04  0.10942311744E+04  0.10000000000E+02 0. -1.
</event>
<event>
 5    1  0.1245771E-008  0.3771873E+03  0.7957747E-01  0.3463498E+00
         13   -1    0    0    0    0  0.00000000000E+00  0.00000000000E+00  0.14999999963E+04  0.15000000000E+04  0.10566000000E+00 0. -1.
        994   -1    0    0    0    0 -0.00000000000E+00 -0.00000000000E+00  0.11368683772E-12  0.17120000000E+03  0.17120000000E+03 0.  0.
         13    1    1    2    0    0 -0.16068455645E+02  0.32468086087E+02  0.14936375304E+03  0.15369422164E+03  0.10566000000E+00 0. -1.
        994    1    1    2    0    0  0.12706606687E+02  0.30452125538E+02  0.92424659993E+01  0.17459568431E+03  0.17120000000E+03 0.  0.
        998    1    1    2    0    0  0.33618489584E+01 -0.62920211626E+02  0.13413937772E+04  0.13429100940E+04  0.10000000000E+02 0. -1.
</event>
<event>
 5    1  0.1245771E-008  0.3853926E+03  0.7957747E-01  0.3428009E+00
         13   -1    0    0    0    0  0.00000000000E+00  0.00000000000E+00  0.14999999963E+04  0.15000000000E+04  0.10566000000E+00 0.  1.
        994   -1    0    0    0    0 -0.00000000000E+00 -0.00000000000E+00  0.11368683772E-12  0.17120000000E+03  0.17120000000E+03 0.  0.
         13    1    1    2    0    0 -0.12756416238E+02  0.92565173104E+01  0.83038078540E+02  0.84520665637E+02  0.10566000000E+00 0.  1.
        994    1    1    2    0    0  0.15451949320E+02 -0.63797326593E+01  0.23537793798E+01  0.17203035780E+03  0.17120000000E+03 0.  0.
        998    1    1    2    0    0 -0.26955330826E+01 -0.28767846510E+01  0.14146081384E+04  0.14146489766E+04  0.10000000000E+02 0.  1.
</event>
<event>
 5    1  0.1245771E-008  0.3830994E+03  0.7957747E-01  0.3437773E+00
         13   -1    0    0    0    0  0.00000000000E+00  0.00000000000E+00  0.14999999963E+04  0.15000000000E+04  0.10566000000E+00 0. -1.
        994   -1    0    0    0    0 -0.00000000000E+00 -0.00000000000E+00  0.11368683772E-12  0.17120000000E+03  0.17120000000E+03 0.  0.
         13    1    1    2    0    0  0.22926390117E+02  0.11259568717E+02  0.13096099179E+03  0.13342859434E+03  0.10566000000E+00 0. -1.
        994    1    1    2    0    0 -0.10064200746E+02 -0.23835294647E+01  0.29307425398E+01  0.17153716391E+03  0.17120000000E+03 0.  0.
        998    1    1    2    0    0 -0.12862189371E+02 -0.88760392527E+01  0.13661082619E+04  0.13662342418E+04  0.10000000000E+02 0.  1.
</event>
<event>
 5    1  0.1245771E-008  0.3900188E+03  0.7957747E-01  0.3408662E+00
         13   -1    0    0    0    0  0.00000000000E+00  0.00000000000E+00  0.14999999963E+04  0.15000000000E+04  0.10566000000E+00 0. -1.
        994   -1    0    0    0    0 -0.00000000000E+00 -0.00000000000E+00  0.11368683772E-12  0.17120000000E+03  0.17120000000E+03 0.  0.
         13    1    1    2    0    0  0.12078231992E+03 -0.28190498017E+02  0.34809013166E+03  0.36952648606E+03  0.10566000000E+00 0. -1.
        994    1    1    2    0    0 -0.82052141154E+02 -0.24734074407E+02  0.50140450774E+02  0.19790864839E+03  0.17120000000E+03 0.  0.
        998    1    1    2    0    0 -0.38730178765E+02  0.52924572424E+02  0.11017694138E+04  0.11037648655E+04  0.10000000000E+02 0. -1.
</event>
<event>
 5    1  0.1245771E-008  0.2739777E+03  0.7957747E-01  0.4101305E+00
         13   -1    0    0    0    0  0.00000000000E+00  0.00000000000E+00  0.14999999963E+04  0.15000000000E+04  0.10566000000E+00 0. -1.
        994   -1    0    0    0    0 -0.00000000000E+00 -0.00000000000E+00  0.11368683772E-12  0.17120000000E+03  0.17120000000E+03 0.  0.
         13    1    1    2    0    0 -0.13656717397E+03 -0.84094245896E+02  0.53980035499E+03  0.56312242861E+03  0.10566000000E+00 0. -1.
        994    1    1    2    0    0  0.10496520599E+03  0.64367447493E+02  0.77705472724E+02  0.22474083576E+03  0.17120000000E+03 0.  0.
        998    1    1    2    0    0  0.31601967976E+02  0.19726798403E+02  0.88249416857E+03  0.88333673563E+03  0.10000000000E+02 0. -1.
</event>
<event>
 5    1  0.1245771E-008  0.3834259E+03  0.7957747E-01  0.3436376E+00
         13   -1    0    0    0    0  0.00000000000E+00  0.00000000000E+00  0.14999999963E+04  0.15000000000E+04  0.10566000000E+00 0.  1.
        994   -1    0    0    0    0 -0.00000000000E+00 -0.00000000000E+00  0.11368683772E-12  0.17120000000E+03  0.17120000000E+03 0.  0.
         13    1    1    2    0    0 -0.10230854295E+00 -0.12528587222E+02  0.31892209247E+02  0.34265144674E+02  0.10566000000E+00 0.  1.
        994    1    1    2    0    0  0.58321384990E+00  0.74891236086E+01  0.26002385570E+01  0.17138444606E+03  0.17120000000E+03 0.  0.
        998    1    1    2    0    0 -0.48090530695E+00  0.50394636138E+01  0.14655075485E+04  0.14655504093E+04  0.10000000000E+02 0.  1.
</event>
<event>
 5    1  0.1245771E-008  0.3862516E+03  0.7957747E-01  0.3424381E+00
         13   -1    0    0    0    0  0.00000000000E+00  0.00000000000E+00  0.14999999963E+04  0.15000000000E+04  0.10566000000E+00 0. -1.
        994   -1    0    0    0    0 -0.00000000000E+00 -0.00000000000E+00  0.11368683772E-12  0.17120000000E+03  0.17120000000E+03 0.  0.
         13    1    1    2    0    0  0.12737383938E+02  0.25178890467E+01  0.77228835520E+02  0.78312737882E+02  0.10566000000E+00 0. -1.
        994    1    1    2    0    0 -0.19900482836E+02  0.34179060635E+00  0.23085827354E+01  0.17236854583E+03  0.17120000000E+03 0.  0.
        998    1    1    2    0    0  0.71630988972E+01 -0.28596796531E+01  0.14204625780E+04  0.14205187163E+04  0.10000000000E+02 0. -1.
</event>
<event>
 5    1  0.1245771E-008  0.3856480E+03  0.7957747E-01  0.3426929E+00
         13   -1    0    0    0    0  0.00000000000E+00  0.00000000000E+00  0.14999999963E+04  0.15000000000E+04  0.10566000000E+00 0.  1.
        994   -1    0    0    0    0 -0.00000000000E+00 -0.00000000000E+00  0.11368683772E-12  0.17120000000E+03  0.17120000000E+03 0.  0.
         13    1    1    2    0    0 -0.48762862116E+01  0.96908175917E+01  0.45386928489E+02  0.46665560690E+02  0.10566000000E+00 0.  1.
        994    1    1    2    0    0  0.11620609093E+02 -0.17806898913E+01  0.17624540719E+01  0.17161222467E+03  0.17120000000E+03 0.  0.
        998    1    1    2    0    0 -0.67443228816E+01 -0.79101277004E+01  0.14528506137E+04  0.14529222146E+04  0.10000000000E+02 0.  1.
</event>
<event>
 5    1  0.1245771E-008  0.3809531E+03  0.7957747E-01  0.3447019E+00
         13   -1    0    0    0    0  0.00000000000E+00  0.00000000000E+00  0.14999999963E+04  0.15000000000E+04  0.10566000000E+00 0. -1.
        994   -1    0    0    0    0 -0.00000000000E+00 -0.00000000000E+00  0.11368683772E-12  0.17120000000E+03  0.17120000000E+03 0.  0.
         13    1    1    2    0    0 -0.19157870439E+01 -0.13565581316E+02  0.23857586250E+02  0.27511648845E+02  0.10566000000E+00 0. -1.
        994    1    1    2    0    0 -0.42036087663E+00  0.14982788215E+02  0.44018146117E+01  0.17191124634E+03  0.17120000000E+03 0.  0.
        998    1    1    2    0    0  0.23361479206E+01 -0.14172068990E+01  0.14717405954E+04  0.14717771048E+04  0.10000000000E+02 0. -1.
</event>
<event>
 5    1  0.1245771E-008  0.3807418E+03  0.7957747E-01  0.3447935E+00
         13   -1    0    0    0    0  0.00000000000E+00  0.00000000000E+00  0.14999999963E+04  0.15000000000E+04  0.10566000000E+00 0.  1.
        994   -1    0    0    0    0 -0.00000000000E+00 -0.00000000000E+00  0.11368683772E-12  0.17120000000E+03  0.17120000000E+03 0.  0.
         13    1    1    2    0    0 -0.13264186111E+02  0.39620136710E+02  0.24366906775E+03  0.24722524063E+03  0.10566000000E+00 0.  1.
        994    1    1    2    0    0 -0.23189965436E+01 -0.19675280966E+02  0.50691130510E+01  0.17241702449E+03  0.17120000000E+03 0.  0.
        998    1    1    2    0    0  0.15583182654E+02 -0.19944855745E+02  0.12512618155E+04  0.12515577349E+04  0.10000000000E+02 0.  1.
</event>
<event>
 5    1  0.1245771E-008  0.3855543E+03  0.7957747E-01  0.3427325E+00
         13   -1    0    0    0    0  0.00000000000E+00  0.00000000000E+00  0.14999999963E+04  0.15000000000E+04  0.10566000000E+00 0. -1.
        994   -1    0    0    0    0 -0.00000000000E+00 -0.00000000000E+00  0.11368683772E-12  0.17120000000E+03  0.17120000000E+03 0.  0.
         13    1    1    2    0    0  0.74586918580E+02 -0.81081820116E+02  0.57258081099E+03  0.58308341277E+03  0.10566000000E+00 0. -1.
        994    1    1    2    0    0 -0.61611968520E+01 -0.17316418171E+02  0.20662848639E+02  0.17341918002E+03  0.17120000000E+03 0.  0.
        998    1    1    2    0    0 -0.68425721728E+02  0.98398238287E+02  0.90675633665E+03  0.91469740721E+03  0.10000000000E+02 0. -1.
</event>
<event>
 5    1  0.1245771E-008  0.3892340E+03  0.7957747E-01  0.3411911E+00
         13   -1    0    0    0    0  0.00000000000E+00  0.00000000000E+00  0.14999999963E+04  0.15000000000E+04  0.10566000000E+00 0. -1.
        994   -1    0    0    0    0 -0.00000000000E+00 -0.00000000000E+00  0.11368683772E-12  0.17120000000E+03  0.17120000000E+03 0.  0.
         13    1    1    2    0    0 -0.51779824918E+02 -0.13261706374E+03  0.46049252808E+03  0.48199773386E+03  0.10566000000E+00 0. -1.
        994    1    1    2    0    0  0.11476676126E+02  0.89221984407E+02  0.52534673343E+02  0.20040361399E+03  0.17120000000E+03 0.  0.
        998    1    1    2    0    0  0.40303148792E+02  0.43395079335E+02  0.98697279486E+03  0.98879865216E+03  0.10000000000E+02 0. -1.
</event>
<event>
 5    1  0.1245771E-008  0.3842028E+03  0.7957747E-01  0.3433060E+00
         13   -1    0    0    0    0  0.00000000000E+00  0.00000000000E+00  0.14999999963E+04  0.15000000000E+04  0.10566000000E+00 0. -1.
        994   -1    0    0    0    0 -0.00000000000E+00 -0.00000000000E+00  0.11368683772E-12  0.17120000000E+03  0.17120000000E+03 0.  0.
         13    1    1    2    0    0 -0.15460010016E+01  0.14545409332E+02  0.50005087078E+02  0.52100661699E+02  0.10566000000E+00 0. -1.
        994    1    1    2    0    0  0.31549246614E+00 -0.19103114586E+02  0.32309180966E+01  0.17229308562E+03  0.17120000000E+03 0.  0.
        998    1    1    2    0    0  0.12305085355E+01  0.45577052538E+01  0.14467639911E+04  0.14468062527E+04  0.10000000000E+02 0. -1.
</event>
<event>
 5    1  0.1245771E-008  0.3703049E+03  0.7957747E-01  0.3494491E+00
         13   -1    0    0    0    0  0.00000000000E+00  0.00000000000E+00  0.14999999963E+04  0.15000000000E+04  0.10566000000E+00 0. -1.
        994   -1    0    0    0    0 -0.00000000000E+00 -0.00000000000E+00  0.11368683772E-12  0.17120000000E+03  0.17120000000E+03 0.  0.
         13    1    1    2    0    0  0.15323221644E+02 -0.52249564739E+02  0.17349087818E+03  0.18183485396E+03  0.10566000000E+00 0. -1.
        994    1    1    2    0    0 -0.13062598693E+02  0.12515239020E+02  0.10240948471E+02  0.17245747220E+03  0.17120000000E+03 0.  0.
        998    1    1    2    0    0 -0.22606229510E+01  0.39734325719E+02  0.13162681696E+04  0.13169076738E+04  0.10000000000E+02 0. -1.
</event>
<event>
 5    1  0.1245771E-008  0.3811072E+03  0.7957747E-01  0.3446352E+00
         13   -1    0    0    0    0  0.00000000000E+00  0.00000000000E+00  0.14999999963E+04  0.15000000000E+04  0.10566000000E+00 0.  1.
        994   -1    0    0    0    0 -0.00000000000E+00 -0.00000000000E+00  0.11368683772E-12  0.17120000000E+03  0.17120000000E+03 0.  0.
         13    1    1    2    0    0  0.18497572841E+02  0.61514598291E+01  0.51059933755E+02  0.54654630710E+02  0.10566000000E+00 0.  1.
        994    1    1    2    0    0 -0.15118920261E+02 -0.71838627844E+01  0.45090816413E+01  0.17207545279E+03  0.17120000000E+03 0.  0.
        998    1    1    2    0    0 -0.33786525804E+01  0.10324029553E+01  0.14444309809E+04  0.14444699165E+04  0.10000000000E+02 0.  1.
</event>
<event>
 5    1  0.1245771E-008  0.3806136E+03  0.7957747E-01  0.3448491E+00
         13   -1    0    0    0    0  0.00000000000E+00  0.00000000000E+00  0.14999999963E+04  0.15000000000E+04  0.10566000000E+00 0. -1.
        994   -1    0    0    0    0 -0.00000000000E+00 -0.00000000000E+00  0.11368683772E-12  0.17120000000E+03  0.17120000000E+03 0.  0.
         13    1    1    2    0    0  0.73754607347E+01 -0.19427126148E+02  0.52869952131E+02  0.56807161994E+02  0.10566000000E+00 0. -1.
        994    1    1    2    0    0 -0.89550660187E+01  0.22074774614E+02  0.57192236297E+01  0.17294403257E+03  0.17120000000E+03 0.  0.
        998    1    1    2    0    0  0.15796052840E+01 -0.26476484654E+01  0.14414108205E+04  0.14414488054E+04  0.10000000000E+02 0. -1.
</event>
<event>
 5    1  0.1245771E-008  0.3830727E+03  0.7957747E-01  0.3437887E+00
         13   -1    0    0    0    0  0.00000000000E+00  0.00000000000E+00  0.14999999963E+04  0.15000000000E+04  0.10566000000E+00 0. -1.
        994   -1    0    0    0    0 -0.00000000000E+00 -0.00000000000E+00  0.11368683772E-12  0.17120000000E+03  0.17120000000E+03 0.  0.
         13    1    1    2    0    0 -0.21089850179E+02 -0.12982331994E+01  0.94938865884E+02  0.97261845600E+02  0.10566000000E+00 0. -1.
        994    1    1    2    0    0 -0.30601989219E+01 -0.62519963407E+01  0.27504066853E+01  0.17136352299E+03  0.17120000000E+03 0.  0.
        998    1    1    2    0    0  0.24150049101E+02  0.75502295401E+01  0.14023107237E+04  0.14025746314E+04  0.10000000000E+02 0. -1.
</event>
<event>
 5    1  0.1245771E-008  0.3740966E+03  0.7957747E-01  0.3477273E+00
         13   -1    0    0    0    0  0.00000000000E+00  0.00000000000E+00  0.14999999963E+04  0.15000000000E+04  0.10566000000E+00 0. -1.
        994   -1    0    0    0    0 -0.00000000000E+00 -0.00000000000E+00  0.11368683772E-12  0.17120000000E+03  0.17120000000E+03 0.  0.
         13    1    1    2    0    0 -0.23214234819E+02 -0.21750011588E+02  0.66812142377E+02  0.73998900230E+02  0.10566000000E+00 0. -1.
        994    1    1    2    0    0  0.18486236666E+02  0.18484570987E+02  0.94770461853E+01  0.17344357790E+03  0.17120000000E+03 0.  0.
        998    1    1    2    0    0  0.47279981530E+01  0.32654406010E+01  0.14237108077E+04  0.14237575219E+04  0.10000000000E+02 0. -1.
</event>
<event>
 5    1  0.1245771E-008  0.3712570E+03  0.7957747E-01  0.3490134E+00
         13   -1    0    0    0    0  0.00000000000E+00  0.00000000000E+00  0.14999999963E+04  0.15000000000E+04  0.10566000000E+00 0. -1.
        994   -1    0    0    0    0 -0.00000000000E+00 -0.00000000000E+00  0.11368683772E-12  0.17120000000E+03  0.17120000000E+03 0.  0.
         13    1    1    2    0    0  0.51307544425E+02 -0.54501323183E+02  0.36901913273E+03  0.37653418149E+03  0.10566000000E+00 0. -1.
        994    1    1    2    0    0 -0.40100806805E+02 -0.43490675173E+00  0.14170662599E+02  0.17640439770E+03  0.17120000000E+03 0.  0.
        998    1    1    2    0    0 -0.11206737620E+02  0.54936229935E+02  0.11168102010E+04  0.11182614208E+04  0.10000000000E+02 0. -1.
</event>
<event>
 5    1  0.1245771E-008  0.3813858E+03  0.7957747E-01  0.3445147E+00
         13   -1    0    0    0    0  0.00000000000E+00  0.00000000000E+00  0.14999999963E+04  0.15000000000E+04  0.10566000000E+00 0.  1.
        994   -1    0    0    0    0 -0.00000000000E+00 -0.00000000000E+00  0.11368683772E-12  0.17120000000E+03  0.17120000000E+03 0.  0.
         13    1    1    2    0    0  0.25031741141E+02 -0.14933351996E+01  0.10242940806E+03  0.10545431671E+03  0.10566000000E+00 0.  1.
        994    1    1    2    0    0  0.66652968890E+01  0.62365782081E+01  0.37125559468E+01  0.17148336410E+03  0.17120000000E+03 0.  0.
        998    1    1    2    0    0 -0.31697038030E+02 -0.47432430085E+01  0.13938580323E+04  0.13942623192E+04  0.10000000000E+02 0.  1.
</event>
<event>
 5    1  0.1245771E-008  0.3812148E+03  0.7957747E-01  0.3445886E+00
         13   -1    0    0    0    0  0.00000000000E+00  0.00000000000E+00  0.14999999963E+04  0.15000000000E+04  0.10566000000E+00 0. -1.
        994   -1    0    0    0    0 -0.00000000000E+00 -0.00000000000E+00  0.11368683772E-12  0.17120000000E+03  0.17120000000E+03 0.  0.
         13    1    1    2    0    0 -0.33681106211E+02  0.11646925197E+02  0.20212081209E+03  0.20523864555E+03  0.10566000000E+00 0. -1.
        994    1    1    2    0    0  0.84505133413E+01  0.58849130058E+01  0.38743262699E+01  0.17155318062E+03  0.17120000000E+03 0.  0.
        998    1    1    2    0    0  0.25230592869E+02 -0.17531838203E+02  0.12940048579E+04  0.12944081738E+04  0.10000000000E+02 0. -1.
</event>
<event>
 5    1  0.1245771E-008  0.3813281E+03  0.7957747E-01  0.3445396E+00
         13   -1    0    0    0    0  0.00000000000E+00  0.00000000000E+00  0.14999999963E+04  0.15000000000E+04  0.10566000000E+00 0.  1.
        994   -1    0    0    0    0 -0.00000000000E+00 -0.00000000000E+00  0.11368683772E-12  0.17120000000E+03  0.17120000000E+03 0.  0.
         13    1    1    2    0    0 -0.15786523372E+02 -0.46911941664E+01  0.37842534837E+02  0.41270936866E+02  0.10566000000E+00 0.  1.
        994    1    1    2    0    0  0.11418027241E+02  0.97596541232E+00  0.39014209078E+01  0.17162745975E+03  0.17120000000E+03 0.  0.
        998    1    1    2    0    0  0.43684961312E+01  0.37152287541E+01  0.14582560405E+04  0.14583016034E+04  0.10000000000E+02 0.  1.
</event>
<event>
 5    1  0.1245771E-008  0.3709979E+03  0.7957747E-01  0.3491317E+00
         13   -1    0    0    0    0  0.00000000000E+00  0.00000000000E+00  0.14999999963E+04  0.15000000000E+04  0.10566000000E+00 0. -1.
        994   -1    0    0    0    0 -0.00000000000E+00 -0.00000000000E+00  0.11368683772E-12  0.17120000000E+03  0.17120000000E+03 0.  0.
         13    1    1    2    0    0 -0.89296276698E+02  0.11747717602E+03  0.58944405371E+03  0.60763394864E+03  0.10566000000E+00 0. -1.
        994    1    1    2    0    0  0.96131523758E+02 -0.10113048101E+03  0.83275993145E+02  0.23603596142E+03  0.17120000000E+03 0.  0.
        998    1    1    2    0    0 -0.68352470601E+01 -0.16346695013E+02  0.82727994942E+03  0.82753008994E+03  0.10000000000E+02 0.  1.
</event>
<event>
 5    1  0.1245771E-008  0.3847596E+03  0.7957747E-01  0.3430693E+00
         13   -1    0    0    0    0  0.00000000000E+00  0.00000000000E+00  0.14999999963E+04  0.15000000000E+04  0.10566000000E+00 0. -1.
        994   -1    0    0    0    0 -0.00000000000E+00 -0.00000000000E+00  0.11368683772E-12  0.17120000000E+03  0.17120000000E+03 0.  0.
         13    1    1    2    0    0  0.41043871898E+01 -0.93106258858E+01  0.28712165980E+02  0.30461999079E+02  0.10566000000E+00 0. -1.
        994    1    1    2    0    0 -0.16185848453E+01  0.11738554435E+02  0.22118225478E+01  0.17162384926E+03  0.17120000000E+03 0.  0.
        998    1    1    2    0    0 -0.24858023445E+01 -0.24279285497E+01  0.14690760078E+04  0.14691141517E+04  0.10000000000E+02 0. -1.
</event>
<event>
 5    1  0.1245771E-008  0.3840175E+03  0.7957747E-01  0.3433850E+00
         13   -1    0    0    0    0  0.00000000000E+00  0.00000000000E+00  0.14999999963E+04  0.15000000000E+04  0.10566000000E+00 0. -1.
        994   -1    0    0    0    0 -0.00000000000E+00 -0.00000000000E+00  0.11368683772E-12  0.17120000000E+03  0.17120000000E+03 0.  0.
         13    1    1    2    0    0  0.19637804924E+02  0.87800713841E+01  0.10602061302E+03  0.10818093448E+03  0.10566000000E+00 0. -1.
        994    1    1    2    0    0 -0.16810638667E+02 -0.41270266573E+01  0.31078478967E+01  0.17210092574E+03  0.17120000000E+03 0.  0.
        998    1    1    2    0    0 -0.28271662566E+01 -0.46530447267E+01  0.13908715354E+04  0.13909181398E+04  0.10000000000E+02 0. -1.
</event>
<event>
 5    1  0.1245771E-008  0.3722224E+03  0.7957747E-01  0.3485739E+00
         13   -1    0    0    0    0  0.00000000000E+00  0.00000000000E+00  0.14999999963E+04  0.15000000000E+04  0.10566000000E+00 0.  1.
        994   -1    0    0    0    0 -0.00000000000E+00 -0.00000000000E+00  0.11368683772E-12  0.17120000000E+03  0.17120000000E+03 0.  0.
         13    1    1    2    0    0 -0.93454005962E+02 -0.26453669411E+02  0.30437555425E+03  0.31949638033E+03  0.10566000000E+00 0.  1.
        994    1    1    2    0    0  0.80836551750E+02  0.78683420218E+02  0.58418235783E+02  0.21318480009E+03  0.17120000000E+03 0.  0.
        998    1    1    2    0    0  0.12617454212E+02 -0.52229750807E+02  0.11372062062E+04  0.11385188196E+04  0.10000000000E+02 0.  1.
</event>
<event>
 5    1  0.1245771E-008  0.3826014E+03  0.7957747E-01  0.3439909E+00
         13   -1    0    0    0    0  0.00000000000E+00  0.00000000000E+00  0.14999999963E+04  0.15000000000E+04  0.10566000000E+00 0. -1.
        994   -1    0    0    0    0 -0.00000000000E+00 -0.00000000000E+00  0.11368683772E-12  0.17120000000E+03  0.17120000000E+03 0.  0.
         13    1    1    2    0    0 -0.20357974238E+02  0.56461542512E+00  0.69290414592E+02  0.72221455427E+02  0.10566000000E+00 0. -1.
        994    1    1    2    0    0  0.22035912067E+02  0.64356520574E+00  0.44381830113E+01  0.17267059120E+03  0.17120000000E+03 0.  0.
        998    1    1    2    0    0 -0.16779378286E+01 -0.12081806309E+01  0.14262713987E+04  0.14263079534E+04  0.10000000000E+02 0. -1.
</event>
<event>
 5    1  0.1245771E-008  0.3859696E+03  0.7957747E-01  0.3425570E+00
         13   -1    0    0    0    0  0.00000000000E+00  0.00000000000E+00  0.14999999963E+04  0.15000000000E+04  0.10566000000E+00 0.  1.
        994   -1    0    0    0    0 -0.00000000000E+00 -0.00000000000E+00  0.11368683772E-12  0.17120000000E+03  0.17120000000E+03 0.  0.
         13    1    1    2    0    0 -0.10454570441E+02 -0.62752956851E+00  0.47476480844E+02  0.48618095745E+02  0.10566000000E+00 0.  1.
        994    1    1    2    0    0  0.94602406125E+01  0.19839254787E+01  0.14558802319E+01  0.17147883747E+03  0.17120000000E+03 0.  0.
        998    1    1    2    0    0  0.99432982830E+00 -0.13563959102E+01  0.14510676352E+04  0.14511030668E+04  0.10000000000E+02 0.  1.
</event>
<event>
 5    1  0.1245771E-008  0.3822574E+03  0.7957747E-01  0.3441388E+00
         13   -1    0    0    0    0  0.00000000000E+00  0.00000000000E+00  0.14999999963E+04  0.15000000000E+04  0.10566000000E+00 0. -1.
        994   -1    0    0    0    0 -0.00000000000E+00 -0.00000000000E+00  0.11368683772E-12  0.17120000000E+03  0.17120000000E+03 0.  0.
         13    1    1    2    0    0 -0.37884066833E+01  0.13002709366E+02  0.32498411012E+02  0.35207674708E+02  0.10566000000E+00 0. -1.
        994    1    1    2    0    0  0.93355180258E+01  0.21256595663E+02  0.47884413144E+01  0.17283334148E+03  0.17120000000E+03 0.  0.
        998    1    1    2    0    0 -0.55471113426E+01 -0.34259305029E+02  0.14627131440E+04  0.14631589838E+04  0.10000000000E+02 0. -1.
</event>
<event>
 5    1  0.1245771E-008  0.3778537E+03  0.7957747E-01  0.3460558E+00
         13   -1    0    0    0    0  0.00000000000E+00  0.00000000000E+00  0.14999999963E+04  0.15000000000E+04  0.10566000000E+00 0.  1.
        994   -1    0    0    0    0 -0.00000000000E+00 -0.00000000000E+00  0.11368683772E-12  0.17120000000E+03  0.17120000000E+03 0.  0.
         13    1    1    2    0    0  0.12901310988E+02  0.25898061424E+00  0.13582404696E+02  0.18735094810E+02  0.10566000000E+00 0.  1.
        994    1    1    2    0    0 -0.11610614124E+02  0.28233082137E+01  0.57013861980E+01  0.17171116223E+03  0.17120000000E+03 0.  0.
        998    1    1    2    0    0 -0.12906968645E+01 -0.30822888279E+01  0.14807162054E+04  0.14807537430E+04  0.10000000000E+02 0.  1.
</event>
<event>
 5    1  0.1245771E-008  0.3745799E+03  0.7957747E-01  0.3475104E+00
         13   -1    0    0    0    0  0.00000000000E+00  0.00000000000E+00  0.14999999963E+04  0.15000000000E+04  0.10566000000E+00 0. -1.
        994   -1    0    0    0    0 -0.00000000000E+00 -0.00000000000E+00  0.11368683772E-12  0.17120000000E+03  0.17120000000E+03 0.  0.
         13    1    1    2    0    0  0.24713130630E+02 -0.16495334346E+02  0.27282776168E+02  0.40338516584E+02  0.10566000000E+00 0. -1.
        994    1    1    2    0    0 -0.22811804296E+02  0.11734758243E+02  0.15722928752E+02  0.17382385755E+03  0.17120000000E+03 0.  0.
        998    1    1    2    0    0 -0.19013263336E+01  0.47605761030E+01  0.14569942914E+04  0.14570376259E+04  0.10000000000E+02 0. -1.
</event>
<event>
 5    1  0.1245771E-008  0.3846230E+03  0.7957747E-01  0.3431272E+00
         13   -1    0    0    0    0  0.00000000000E+00  0.00000000000E+00  0.14999999963E+04  0.15000000000E+04  0.10566000000E+00 0.  1.
        994   -1    0    0    0    0 -0.00000000000E+00 -0.00000000000E+00  0.11368683772E-12  0.17120000000E+03  0.17120000000E+03 0.  0.
         13    1    1    2    0    0 -0.16286247074E+02 -0.60700507001E+01  0.95356785007E+02  0.96927885411E+02  0.10566000000E+00 0.  1.
        994    1    1    2    0    0 -0.68377991431E+01 -0.29802395769E+01  0.20006234547E+01  0.17137409320E+03  0.17120000000E+03 0.  0.
        998    1    1    2    0    0  0.23124046217E+02  0.90502902771E+01  0.14026425878E+04  0.14028980214E+04  0.10000000000E+02 0.  1.
</event>
<event>
 5    1  0.1245771E-008  0.3836807E+03  0.7957747E-01  0.3435287E+00
         13   -1    0    0    0    0  0.00000000000E+00  0.00000000000E+00  0.14999999963E+04  0.15000000000E+04  0.10566000000E+00 0. -1.
        994   -1    0    0    0    0 -0.00000000000E+00 -0.00000000000E+00  0.11368683772E-12  0.17120000000E+03  0.17120000000E+03 0.  0.
         13    1    1    2    0    0 -0.17182673447E+02  0.10470804683E+02  0.84596839806E+02  0.86956992167E+02  0.10566000000E+00 0. -1.
        994    1    1    2    0    0  0.13244802104E+02 -0.15207272022E+02  0.36308949617E+01  0.17242189334E+03  0.17120000000E+03 0.  0.
        998    1    1    2    0    0  0.39378713435E+01  0.47364673396E+01  0.14117722615E+04  0.14118211145E+04  0.10000000000E+02 0. -1.
</event>
<event>
 5    1  0.1245771E-008  0.3794337E+03  0.7957747E-01  0.3453628E+00
         13   -1    0    0    0    0  0.00000000000E+00  0.00000000000E+00  0.14999999963E+04  0.15000000000E+04  0.10566000000E+00 0.  1.
        994   -1    0    0    0    0 -0.00000000000E+00 -0.00000000000E+00  0.11368683772E-12  0.17120000000E+03  0.17120000000E+03 0.  0.
         13    1    1    2    0    0 -0.42196740623E+02  0.32639852377E+02  0.79630287777E+02  0.95848415625E+02  0.10566000000E+00 0.  1.
        994    1    1    2    0    0  0.25577317895E+02 -0.50580504898E+02  0.27726330874E+02  0.18245760080E+03  0.17120000000E+03 0.  0.
        998    1    1    2    0    0  0.16619422728E+02  0.17940652521E+02  0.13926433776E+04  0.13928939836E+04  0.10000000000E+02 0.  1.
</event>
<event>
 5    1  0.1245771E-008  0.3842952E+03  0.7957747E-01  0.3432667E+00
         13   -1    0    0    0    0  0.00000000000E+00  0.00000000000E+00  0.14999999963E+04  0.15000000000E+04  0.10566000000E+00 0.  1.
        994   -1    0    0    0    0 -0.00000000000E+00 -0.00000000000E+00  0.11368683772E-12  0.17120000000E+03  0.17120000000E+03 0.  0.
         13    1    1    2    0    0  0.22940513996E+01  0.19678535508E+02  0.10816016592E+03  0.10995972030E+03  0.10566000000E+00 0.  1.
        994    1    1    2    0    0  0.98304725075E+01 -0.18502558774E+01  0.23103374326E+01  0.17150754880E+03  0.17120000000E+03 0.  0.
        998    1    1    2    0    0 -0.12124523907E+02 -0.17828279631E+02  0.13895294929E+04  0.13897327309E+04  0.10000000000E+02 0.  1.
</event>
<event>
 5    1  0.1245771E-008  0.3856139E+03  0.7957747E-01  0.3427073E+00
         13   -1    0    0    0    0  0.00000000000E+00  0.00000000000E+00  0.14999999963E+04  0.15000000000E+04  0.10566000000E+00 0. -1.
        994   -1    0    0    0    0 -0.00000000000E+00 -0.00000000000E+00  0.11368683772E-12  0.17120000000E+03  0.17120000000E+03 0.  0.
         13    1    1    2    0    0 -0.10338311402E+01  0.14556477024E+02  0.81686337585E+02  0.82979688733E+02  0.10566000000E+00 0. -1.
        994    1    1    2    0    0  0.69902049228E+01 -0.77850175235E+01  0.16850379998E+01  0.17152769110E+03  0.17120000000E+03 0.  0.
        998    1    1    2    0    0 -0.59563737826E+01 -0.67714595001E+01  0.14166286207E+04  0.14166926202E+04  0.10000000000E+02 0. -1.
</event>
<event>
 5    1  0.1245771E-008  0.3697648E+03  0.7957747E-01  0.3496972E+00
         13   -1    0    0    0    0  0.00000000000E+00  0.00000000000E+00  0.14999999963E+04  0.15000000000E+04  0.10566000000E+00 0.  1.
        994   -1    0    0    0    0 -0.00000000000E+00 -0.00000000000E+00  0.11368683772E-12  0.17120000000E+03  0.17120000000E+03 0.  0.
         13    1    1    2    0    0 -0.31753115961E+02  0.15724891346E+02  0.53359132211E+02  0.64052640347E+02  0.10566000000E+00 0.  1.
        994    1    1    2    0    0  0.21186192634E+02 -0.19656344160E+02  0.13737581925E+02  0.17416482935E+03  0.17120000000E+03 0.  0.
        998    1    1    2    0    0  0.10566923327E+02  0.39314528145E+01  0.14329032821E+04  0.14329825303E+04  0.10000000000E+02 0.  1.
</event>
<event>
 5    1  0.1245771E-008  0.3796067E+03  0.7957747E-01  0.3452873E+00
         13   -1    0    0    0    0  0.00000000000E+00  0.00000000000E+00  0.14999999963E+04  0.15000000000E+04  0.10566000000E+00 0. -1.
        994   -1    0    0    0    0 -0.00000000000E+00 -0.00000000000E+00  0.11368683772E-12  0.17120000000E+03  0.17120000000E+03 0.  0.
         13    1    1    2    0    0 -0.38508942488E+01 -0.27533677156E+02  0.82153466624E+02  0.86730248510E+02  0.10566000000E+00 0. -1.
        994    1    1    2    0    0  0.14295830746E+02  0.29814690224E+02  0.79999806096E+01  0.17454720341E+03  0.17120000000E+03 0.  0.
        998    1    1    2    0    0 -0.10444936497E+02 -0.22810130681E+01  0.14098465490E+04  0.14099225481E+04  0.10000000000E+02 0. -1.
</event>
<event>
 5    1  0.1245771E-008  0.3849744E+03  0.7957747E-01  0.3429781E+00
         13   -1    0    0    0    0  0.00000000000E+00  0.00000000000E+00  0.14999999963E+04  0.15000000000E+04  0.10566000000E+00 0. -1.
        994   -1    0    0    0    0 -0.00000000000E+00 -0.00000000000E+00  0.11368683772E-12  0.17120000000E+03  0.17120000000E+03 0.  0.
         13    1    1    2    0    0  0.10486259661E+02  0.10045360926E+02  0.64354991115E+02  0.65973077564E+02  0.10566000000E+00 0. -1.
        994    1    1    2    0    0 -0.89170283355E+01 -0.39131202665E+01  0.19547931629E+01  0.17148786290E+03  0.17120000000E+03 0.  0.
        998    1    1    2    0    0 -0.15692313250E+01 -0.61322406594E+01  0.14336902120E+04  0.14337390595E+04  0.10000000000E+02 0. -1.
</event>
<event>
 5    1  0.1245771E-008  0.3833672E+03  0.7957747E-01  0.3436627E+00
         13   -1    0    0    0    0  0.00000000000E+00  0.00000000000E+00  0.14999999963E+04  0.15000000000E+04  0.10566000000E+00 0. -1.
        994   -1    0    0    0    0 -0.00000000000E+00 -0.00000000000E+00  0.11368683772E-12  0.17120000000E+03  0.17120000000E+03 0.  0.
         13    1    1    2    0    0  0.54620538315E-02 -0.22552154319E+02  0.11142415453E+03  0.11368356553E+03  0.10566000000E+00 0. -1.
        994    1    1    2    0    0  0.11473391762E+02  0.34826483159E+01  0.29184187268E+01  0.17164418058E+03  0.17120000000E+03 0.  0.
        998    1    1    2    0    0 -0.11478853816E+02  0.19069506003E+02  0.13856574230E+04  0.13858722539E+04  0.10000000000E+02 0. -1.
</event>
<event>
 5    1  0.1245771E-008  0.3850314E+03  0.7957747E-01  0.3429539E+00
         13   -1    0    0    0    0  0.00000000000E+00  0.00000000000E+00  0.14999999963E+04  0.15000000000E+04  0.10566000000E+00 0.  1.
        994   -1    0    0    0    0 -0.00000000000E+00 -0.00000000000E+00  0.11368683772E-12  0.17120000000E+03  0.17120000000E+03 0.  0.
         13    1    1    2    0    0 -0.54124386673E+01  0.17069419035E+02  0.88052314767E+02  0.89854776491E+02  0.10566000000E+00 0.  1.
        994    1    1    2    0    0  0.18388305997E+02 -0.23948629797E+02  0.46181338673E+01  0.17390351873E+03  0.17120000000E+03 0.  0.
        998    1    1    2    0    0 -0.12975867329E+02  0.68792107613E+01  0.14073295476E+04  0.14074417048E+04  0.10000000000E+02 0.  1.
</event>
<event>
 5    1  0.1245771E-008  0.3754394E+03  0.7957747E-01  0.3471260E+00
         13   -1    0    0    0    0  0.00000000000E+00  0.00000000000E+00  0.14999999963E+04  0.15000000000E+04  0.10566000000E+00 0.  1.
        994   -1    0    0    0    0 -0.00000000000E+00 -0.00000000000E+00  0.11368683772E-12  0.17120000000E+03  0.17120000000E+03 0.  0.
         13    1    1    2    0    0 -0.43563280712E+02  0.40169485554E+02  0.12251639461E+03  0.13609417735E+03  0.10566000000E+00 0.  1.
        994    1    1    2    0    0  0.24365157292E+02 -0.28490745170E+02  0.18869772545E+02  0.17626937274E+03  0.17120000000E+03 0.  0.
        998    1    1    2    0    0  0.19198123421E+02 -0.11678740384E+02  0.13586138291E+04  0.13588364499E+04  0.10000000000E+02 0.  1.
</event>
<event>
 5    1  0.1245771E-008  0.3848941E+03  0.7957747E-01  0.3430121E+00
         13   -1    0    0    0    0  0.00000000000E+00  0.00000000000E+00  0.14999999963E+04  0.15000000000E+04  0.10566000000E+00 0. -1.
        994   -1    0    0    0    0 -0.00000000000E+00 -0.00000000000E+00  0.11368683772E-12  0.17120000000E+03  0.17120000000E+03 0.  0.
         13    1    1    2    0    0 -0.18856004711E+02 -0.24671478004E+01  0.11101081648E+03  0.11262791959E+03  0.10566000000E+00 0. -1.
        994    1    1    2    0    0  0.77309544605E+01  0.31492937010E+01  0.19119902400E+01  0.17141406423E+03  0.17120000000E+03 0.  0.
        998    1    1    2    0    0  0.11125050251E+02 -0.68214590063E+00  0.13870771896E+04  0.13871580162E+04  0.10000000000E+02 0. -1.
</event>
<event>
 5    1  0.1245771E-008  0.3787120E+03  0.7957747E-01  0.3456786E+00
         13   -1    0    0    0    0  0.00000000000E+00  0.00000000000E+00  0.14999999963E+04  0.15000000000E+04  0.10566000000E+00 0. -1.
        994   -1    0    0    0    0 -0.00000000000E+00 -0.00000000000E+00  0.11368683772E-12  0.17120000000E+03  0.17120000000E+03 0.  0.
         13    1    1    2    0    0  0.59435380504E+01 -0.12258608233E+02  0.17220652238E+02  0.21958168137E+02  0.10566000000E+00 0. -1.
        994    1    1    2    0    0 -0.37625913724E+01  0.12082983659E+02  0.53225746698E+01  0.17174960084E+03  0.17120000000E+03 0.  0.
        998    1    1    2    0    0 -0.21809466781E+01  0.17562457431E+00  0.14774567694E+04  0.14774922310E+04  0.10000000000E+02 0. -1.
</event>
<event>
 5    1  0.1245771E-008  0.3847142E+03  0.7957747E-01  0.3430885E+00
         13   -1    0    0    0    0  0.00000000000E+00  0.00000000000E+00  0.14999999963E+04  0.15000000000E+04  0.10566000000E+00 0. -1.
        994   -1    0    0    0    0 -0.00000000000E+00 -0.00000000000E+00  0.11368683772E-12  0.17120000000E+03  0.17120000000E+03 0.  0.
         13    1    1    2    0    0  0.10619473839E+02  0.14047174197E+02  0.84472317050E+02  0.86288352861E+02  0.10566000000E+00 0. -1.
        994    1    1    2    0    0 -0.26284998775E+02 -0.12096751665E+01  0.40544941385E+01  0.17325773690E+03  0.17120000000E+03 0.  0.
        998    1    1    2    0    0  0.15665524936E+02 -0.12837499031E+02  0.14114731851E+04  0.14116539102E+04  0.10000000000E+02 0. -1.
</event>
<event>
 5    1  0.1245771E-008  0.3844826E+03  0.7957747E-01  0.3431869E+00
         13   -1    0    0    0    0  0.00000000000E+00  0.00000000000E+00  0.14999999963E+04  0.15000000000E+04  0.10566000000E+00 0.  1.
        994   -1    0    0    0    0 -0.00000000000E+00 -0.00000000000E+00  0.11368683772E-12  0.17120000000E+03  0.17120000000E+03 0.  0.
         13    1    1    2    0    0 -0.11356921014E+02  0.53392235275E+02  0.68766383636E+02  0.87798275182E+02  0.10566000000E+00 0.  1.
        994    1    1    2    0    0  0.17386989758E+02 -0.55814432674E+02  0.31512927155E+02  0.18363023413E+03  0.17120000000E+03 0.  0.
        998    1    1    2    0    0 -0.60300687447E+01  0.24221973990E+01  0.13997206855E+04  0.13997714907E+04  0.10000000000E+02 0.  1.
</event>
<event>
 5    1  0.1245771E-008  0.3849327E+03  0.7957747E-01  0.3429957E+00
         13   -1    0    0    0    0  0.00000000000E+00  0.00000000000E+00  0.14999999963E+04  0.15000000000E+04  0.10566000000E+00 0. -1.
        994   -1    0    0    0    0 -0.00000000000E+00 -0.00000000000E+00  0.11368683772E-12  0.17120000000E+03  0.17120000000E+03 0.  0.
         13    1    1    2    0    0  0.16046755166E+02 -0.58348526397E+01  0.85166067698E+02  0.86860889403E+02  0.10566000000E+00 0. -1.
        994    1    1    2    0    0 -0.14917481110E+02  0.30018989710E+01  0.24255284733E+01  0.17189201793E+03  0.17120000000E+03 0.  0.
        998    1    1    2    0    0 -0.11292740560E+01  0.28329536687E+01  0.14124084001E+04  0.14124470927E+04  0.10000000000E+02 0. -1.
</event>
<event>
 5    1  0.1245771E-008  0.3857343E+03  0.7957747E-01  0.3426564E+00
         13   -1    0    0    0    0  0.00000000000E+00  0.00000000000E+00  0.14999999963E+04  0.15000000000E+04  0.10566000000E+00 0.  1.
        994   -1    0    0    0    0 -0.00000000000E+00 -0.00000000000E+00  0.11368683772E-12  0.17120000000E+03  0.17120000000E+03 0.  0.
         13    1    1    2    0    0 -0.34141515893E+01 -0.12954387515E+02  0.67795605170E+02  0.69106641007E+02  0.10566000000E+00 0.  1.
        994    1    1    2    0    0  0.46790661996E+01  0.15422286229E+02  0.21186495200E+01  0.17196996612E+03  0.17120000000E+03 0.  0.
        998    1    1    2    0    0 -0.12649146103E+01 -0.24678987147E+01  0.14300857416E+04  0.14301233929E+04  0.10000000000E+02 0.  1.
</event>
<event>
 5    1  0.1245771E-008  0.3860171E+03  0.7957747E-01  0.3425370E+00
         13   -1    0    0    0    0  0.00000000000E+00  0.00000000000E+00  0.14999999963E+04  0.15000000000E+04  0.10566000000E+00 0.  1.
        994   -1    0    0    0    0 -0.00000000000E+00 -0.00000000000E+00  0.11368683772E-12  0.17120000000E+03  0.17120000000E+03 0.  0.
         13    1    1    2    0    0  0.88320944245E+01  0.62156448873E+01  0.52888837612E+02  0.53980370889E+02  0.10566000000E+00 0.  1.
        994    1    1    2    0    0 -0.26383627198E+01 -0.66399762795E+01  0.12933517261E+01  0.17135391154E+03  0.17120000000E+03 0.  0.
        998    1    1    2    0    0 -0.61937317047E+01  0.42433139215E+00  0.14458178069E+04  0.14458657176E+04  0.10000000000E+02 0.  1.
</event>
<event>
 5    1  0.1245771E-008  0.3826420E+03  0.7957747E-01  0.3439735E+00
         13   -1    0    0    0    0  0.00000000000E+00  0.00000000000E+00  0.14999999963E+04  0.15000000000E+04  0.10566000000E+00 0. -1.
        994   -1    0    0    0    0 -0.00000000000E+00 -0.00000000000E+00  0.11368683772E-12  0.17120000000E+03  0.17120000000E+03 0.  0.
         13    1    1    2    0    0 -0.17378703220E+02  0.33917469349E+00  0.53206104526E+02  0.55973521310E+02  0.10566000000E+00 0. -1.
        994    1    1    2    0    0  0.10215957299E+02 -0.16067552627E+02  0.40077308689E+01  0.17230215883E+03  0.17120000000E+03 0.  0.
        998    1    1    2    0    0  0.71627459210E+01  0.15728377933E+02  0.14427861609E+04  0.14429243199E+04  0.10000000000E+02 0. -1.
</event>
<event>
 5    1  0.1245771E-008  0.3726065E+03  0.7957747E-01  0.3483997E+00
         13   -1    0    0    0    0  0.00000000000E+00  0.00000000000E+00  0.14999999963E+04  0.15000000000E+04  0.10566000000E+00 0. -1.
        994   -1    0    0    0    0 -0.00000000000E+00 -0.00000000000E+00  0.11368683772E-12  0.17120000000E+03  0.17120000000E+03 0.  0.
         13    1    1    2    0    0  0.59221400451E+02  0.12498083112E+02  0.32944822899E+03  0.33496197262E+03  0.10566000000E+00 0. -1.
        994    1    1    2    0    0  0.17239633650E+02 -0.81338129559E+02  0.31988191739E+02  0.19299165966E+03  0.17120000000E+03 0.  0.
        998    1    1    2    0    0 -0.76461034101E+02  0.68840046447E+02  0.11385635755E+04  0.11432463677E+04  0.10000000000E+02 0. -1.
</event>
<event>
 5    1  0.1245771E-008  0.3821528E+03  0.7957747E-01  0.3441838E+00
         13   -1    0    0    0    0  0.00000000000E+00  0.00000000000E+00  0.14999999963E+04  0.15000000000E+04  0.10566000000E+00 0. -1.
        994   -1    0    0    0    0 -0.00000000000E+00 -0.00000000000E+00  0.11368683772E-12  0.17120000000E+03  0.17120000000E+03 0.  0.
         13    1    1    2    0    0 -0.41259235661E+02 -0.14593434861E+01  0.23966497767E+03  0.24319491544E+03  0.10566000000E+00 0. -1.
        994    1    1    2    0    0  0.39916140371E+02  0.53690605734E+01  0.84534605651E+01  0.17607676187E+03  0.17120000000E+03 0.  0.
        998    1    1    2    0    0  0.13430952900E+01 -0.39097170873E+01  0.12518815580E+04  0.12519283227E+04  0.10000000000E+02 0. -1.
</event>
<event>
 5    1  0.1245771E-008  0.3849185E+03  0.7957747E-01  0.3430018E+00
         13   -1    0    0    0    0  0.00000000000E+00  0.00000000000E+00  0.14999999963E+04  0.15000000000E+04  0.10566000000E+00 0. -1.
        994   -1    0    0    0    0 -0.00000000000E+00 -0.00000000000E+00  0.11368683772E-12  0.17120000000E+03  0.17120000000E+03 0.  0.
         13    1    1    2    0    0  0.12107486965E+02  0.98865790056E+01  0.70283598712E+02  0.72000910390E+02  0.10566000000E+00 0. -1.
        994    1    1    2    0    0 -0.13752171382E+02 -0.90079295390E+01  0.25601278741E+01  0.17200656751E+03  0.17120000000E+03 0.  0.
        998    1    1    2    0    0  0.16446844173E+01 -0.87864946661E+00  0.14271562697E+04  0.14271925221E+04  0.10000000000E+02 0. -1.
</event>
<event>
 5    1  0.1245771E-008  0.3844511E+03  0.7957747E-01  0.3432004E+00
         13   -1    0    0    0    0  0.00000000000E+00  0.00000000000E+00  0.14999999963E+04  0.15000000000E+04  0.10566000000E+00 0.  1.
        994   -1    0    0    0    0 -0.00000000000E+00 -0.00000000000E+00  0.11368683772E-12  0.17120000000E+03  0.17120000000E+03 0.  0.
         13    1    1    2    0    0 -0.14761436864E+03 -0.16927112829E+03  0.11653044769E+04  0.11867507117E+04  0.10566000000E+00 0.  1.
        994    1    1    2    0    0  0.14427921311E+03  0.17749740636E+03  0.19920707362E+03  0.34830262528E+03  0.17120000000E+03 0.  0.
        998    1    1    2    0    0  0.33351555274E+01 -0.82262780718E+01  0.13548844577E+03  0.13614666302E+03  0.10000000000E+02 0.  0.
</event>
<event>
 5    1  0.1245771E-008  0.3781978E+03  0.7957747E-01  0.3459043E+00
         13   -1    0    0    0    0  0.00000000000E+00  0.00000000000E+00  0.14999999963E+04  0.15000000000E+04  0.10566000000E+00 0.  1.
        994   -1    0    0    0    0 -0.00000000000E+00 -0.00000000000E+00  0.11368683772E-12  0.17120000000E+03  0.17120000000E+03 0.  0.
         13    1    1    2    0    0  0.62905314826E+02 -0.82627896850E+02  0.26928305223E+03  0.28861361949E+03  0.10566000000E+00 0.  1.
        994    1    1    2    0    0 -0.73287730030E+02  0.84472215517E+02  0.61863566143E+02  0.21364266283E+03  0.17120000000E+03 0.  0.
        998    1    1    2    0    0  0.10382415204E+02 -0.18443186668E+01  0.11688533779E+04  0.11689437177E+04  0.10000000000E+02 0.  0.
</event>
<event>
 5    1  0.1245771E-008  0.3838764E+03  0.7957747E-01  0.3434451E+00
         13   -1    0    0    0    0  0.00000000000E+00  0.00000000000E+00  0.14999999963E+04  0.15000000000E+04  0.10566000000E+00 0.  1.
        994   -1    0    0    0    0 -0.00000000000E+00 -0.00000000000E+00  0.11368683772E-12  0.17120000000E+03  0.17120000000E+03 0.  0.
         13    1    1    2    0    0  0.20090883446E+02  0.11179818262E+02  0.12365894634E+03  0.12577828949E+03  0.10566000000E+00 0.  1.
        994    1    1    2    0    0 -0.25680690850E+02  0.21328332945E+02  0.58759532635E+01  0.17452324342E+03  0.17120000000E+03 0.  0.
        998    1    1    2    0    0  0.55898074033E+01 -0.32508151207E+02  0.13704650967E+04  0.13708984671E+04  0.10000000000E+02 0.  1.
</event>
<event>
 5    1  0.1245771E-008  0.3759722E+03  0.7957747E-01  0.3468886E+00
         13   -1    0    0    0    0  0.00000000000E+00  0.00000000000E+00  0.14999999963E+04  0.15000000000E+04  0.10566000000E+00 0.  1.
        994   -1    0    0    0    0 -0.00000000000E+00 -0.00000000000E+00  0.11368683772E-12  0.17120000000E+03  0.17120000000E+03 0.  0.
         13    1    1    2    0    0  0.19081035506E+02  0.14507073470E+02  0.43142512461E+02  0.49354114744E+02  0.10566000000E+00 0.  1.
        994    1    1    2    0    0 -0.15765751201E+02 -0.16647531251E+02  0.79634704521E+01  0.17291198937E+03  0.17120000000E+03 0.  0.
        998    1    1    2    0    0 -0.33152843051E+01  0.21404577804E+01  0.14488940134E+04  0.14489338959E+04  0.10000000000E+02 0.  1.
</event>
<event>
 5    1  0.1245771E-008  0.3711853E+03  0.7957747E-01  0.3490461E+00
         13   -1    0    0    0    0  0.00000000000E+00  0.00000000000E+00  0.14999999963E+04  0.15000000000E+04  0.10566000000E+00 0.  1.
        994   -1    0    0    0    0 -0.00000000000E+00 -0.00000000000E+00  0.11368683772E-12  0.17120000000E+03  0.17120000000E+03 0.  0.
         13    1    1    2    0    0  0.13975294759E+03  0.10017012982E+03  0.69796823605E+03  0.71883559384E+03  0.10566000000E+00 0.  1.
        994    1    1    2    0    0 -0.13493539376E+03 -0.86776099384E+02  0.10829296089E+03  0.25840754109E+03  0.17120000000E+03 0.  0.
        998    1    1    2    0    0 -0.48175538272E+01 -0.13394030436E+02  0.69373879933E+03  0.69395686507E+03  0.10000000000E+02 0.  1.
</event>
<event>
 5    1  0.1245771E-008  0.3780713E+03  0.7957747E-01  0.3459600E+00
         13   -1    0    0    0    0  0.00000000000E+00  0.00000000000E+00  0.14999999963E+04  0.15000000000E+04  0.10566000000E+00 0.  1.
        994   -1    0    0    0    0 -0.00000000000E+00 -0.00000000000E+00  0.11368683772E-12  0.17120000000E+03  0.17120000000E+03 0.  0.
         13    1    1    2    0    0  0.11478742659E+01  0.14713579724E+02  0.19431731306E+02  0.24401032544E+02  0.10566000000E+00 0.  1.
        994    1    1    2    0    0 -0.27060869382E+01 -0.41162983985E+01  0.51915912910E+01  0.17134952419E+03  0.17120000000E+03 0.  0.
        998    1    1    2    0    0  0.15582126722E+01 -0.10597281326E+02  0.14753766737E+04  0.14754494433E+04  0.10000000000E+02 0.  1.
</event>
<event>
 5    1  0.1245771E-008  0.3742001E+03  0.7957747E-01  0.3476808E+00
         13   -1    0    0    0    0  0.00000000000E+00  0.00000000000E+00  0.14999999963E+04  0.15000000000E+04  0.10566000000E+00 0.  1.
        994   -1    0    0    0    0 -0.00000000000E+00 -0.00000000000E+00  0.11368683772E-12  0.17120000000E+03  0.17120000000E+03 0.  0.
         13    1    1    2    0    0  0.41767168947E+02  0.34983186789E+02  0.19165612713E+03  0.19924959722E+03  0.10566000000E+00 0.  1.
        994    1    1    2    0    0 -0.35386128949E+02 -0.28363357933E+02  0.14132498334E+02  0.17766773963E+03  0.17120000000E+03 0.  0.
        998    1    1    2    0    0 -0.63810399981E+01 -0.66198288561E+01  0.12942113708E+04  0.12942826632E+04  0.10000000000E+02 0.  1.
</event>
<event>
 5    1  0.1245771E-008  0.3841543E+03  0.7957747E-01  0.3433267E+00
         13   -1    0    0    0    0  0.00000000000E+00  0.00000000000E+00  0.14999999963E+04  0.15000000000E+04  0.10566000000E+00 0. -1.
        994   -1    0    0    0    0 -0.00000000000E+00 -0.00000000000E+00  0.11368683772E-12  0.17120000000E+03  0.17120000000E+03 0.  0.
         13    1    1    2    0    0  0.18069828177E+02 -0.59004234383E+01  0.83788577993E+02  0.85917813364E+02  0.10566000000E+00 0. -1.
        994    1    1    2    0    0 -0.71232489138E+01  0.47828425906E+02  0.98000287060E+01  0.17816784099E+03  0.17120000000E+03 0.  0.
        998    1    1    2    0    0 -0.10946579263E+02 -0.41928002468E+02  0.14064113896E+04  0.14071143456E+04  0.10000000000E+02 0. -1.
</event>
<event>
 5    1  0.1245771E-008  0.3802663E+03  0.7957747E-01  0.3450000E+00
         13   -1    0    0    0    0  0.00000000000E+00  0.00000000000E+00  0.14999999963E+04  0.15000000000E+04  0.10566000000E+00 0. -1.
        994   -1    0    0    0    0 -0.00000000000E+00 -0.00000000000E+00  0.11368683772E-12  0.17120000000E+03  0.17120000000E+03 0.  0.
         13    1    1    2    0    0  0.47536749645E+02 -0.73481171141E+02  0.31935305790E+03  0.33112778777E+03  0.10566000000E+00 0. -1.
        994    1    1    2    0    0  0.32933372217E+02  0.13465337922E+02  0.21078929923E+02  0.17612405746E+03  0.17120000000E+03 0.  0.
        998    1    1    2    0    0 -0.80470121862E+02  0.60015833220E+02  0.11595680085E+04  0.11639481548E+04  0.10000000000E+02 0. -1.
</event>
<event>
 5    1  0.1245771E-008  0.3688754E+03  0.7957747E-01  0.3501076E+00
         13   -1    0    0    0    0  0.00000000000E+00  0.00000000000E+00  0.14999999963E+04  0.15000000000E+04  0.10566000000E+00 0.  1.
        994   -1    0    0    0    0 -0.00000000000E+00 -0.00000000000E+00  0.11368683772E-12  0.17120000000E+03  0.17120000000E+03 0.  0.
         13    1    1    2    0    0 -0.59183848658E+02  0.49061472079E+02  0.26018255220E+03  0.27130191230E+03  0.10566000000E+00 0.  1.
        994    1    1    2    0    0  0.55790912129E+02 -0.38091061264E+02  0.25870361339E+02  0.18585550952E+03  0.17120000000E+03 0.  0.
        998    1    1    2    0    0  0.33929365285E+01 -0.10970410815E+02  0.12139470827E+04  0.12140425782E+04  0.10000000000E+02 0.  1.
</event>
<event>
 5    1  0.1245771E-008  0.3780958E+03  0.7957747E-01  0.3459492E+00
         13   -1    0    0    0    0  0.00000000000E+00  0.00000000000E+00  0.14999999963E+04  0.15000000000E+04  0.10566000000E+00 0.  1.
        994   -1    0    0    0    0 -0.00000000000E+00 -0.00000000000E+00  0.11368683772E-12  0.17120000000E+03  0.17120000000E+03 0.  0.
         13    1    1    2    0    0  0.11571802465E+02 -0.26056960588E+00  0.10893801254E+02  0.15895300519E+02  0.10566000000E+00 0.  1.
        994    1    1    2    0    0 -0.75278379312E+01 -0.26237666425E+01  0.53112945676E+01  0.17146778807E+03  0.17120000000E+03 0.  0.
        998    1    1    2    0    0 -0.40439645336E+01  0.28843362484E+01  0.14837949005E+04  0.14838369114E+04  0.10000000000E+02 0.  1.
</event>
<event>
 5    1  0.1245771E-008  0.3711824E+03  0.7957747E-01  0.3490474E+00
         13   -1    0    0    0    0  0.00000000000E+00  0.00000000000E+00  0.14999999963E+04  0.15000000000E+04  0.10566000000E+00 0.  1.
        994   -1    0    0    0    0 -0.00000000000E+00 -0.00000000000E+00  0.11368683772E-12  0.17120000000E+03  0.17120000000E+03 0.  0.
         13    1    1    2    0    0 -0.36231051559E+02  0.62076041517E+02  0.24160908172E+03  0.25207356775E+03  0.10566000000E+00 0.  1.
        994    1    1    2    0    0  0.13456818429E+02 -0.81287660413E+02  0.32406421876E+02  0.19273916539E+03  0.17120000000E+03 0.  0.
        998    1    1    2    0    0  0.22774233131E+02  0.19211618896E+02  0.12259844927E+04  0.12263872669E+04  0.10000000000E+02 0.  1.
</event>
<event>
 5    1  0.1245771E-008  0.3851506E+03  0.7957747E-01  0.3429034E+00
         13   -1    0    0    0    0  0.00000000000E+00  0.00000000000E+00  0.14999999963E+04  0.15000000000E+04  0.10566000000E+00 0.  1.
        994   -1    0    0    0    0 -0.00000000000E+00 -0.00000000000E+00  0.11368683772E-12  0.17120000000E+03  0.17120000000E+03 0.  0.
         13    1    1    2    0    0  0.15108278124E+02  0.10059980194E+01  0.83775028340E+02  0.85132476983E+02  0.10566000000E+00 0.  1.
        994    1    1    2    0    0  0.70704694976E+01 -0.28330076121E+01  0.17460921508E+01  0.17137825506E+03  0.17120000000E+03 0.  0.
        998    1    1    2    0    0 -0.22178747622E+02  0.18270095927E+01  0.14144788758E+04  0.14146892680E+04  0.10000000000E+02 0.  1.
</event>
<event>
 5    1  0.1245771E-008  0.3822920E+03  0.7957747E-01  0.3441239E+00
         13   -1    0    0    0    0  0.00000000000E+00  0.00000000000E+00  0.14999999963E+04  0.15000000000E+04  0.10566000000E+00 0. -1.
        994   -1    0    0    0    0 -0.00000000000E+00 -0.00000000000E+00  0.11368683772E-12  0.17120000000E+03  0.17120000000E+03 0.  0.
         13    1    1    2    0    0  0.14806201397E+02 -0.81587771964E+01  0.46420337141E+02  0.49402916002E+02  0.10566000000E+00 0. -1.
        994    1    1    2    0    0 -0.12869775730E+02  0.54128210891E+01  0.36276144637E+01  0.17180666269E+03  0.17120000000E+03 0.  0.
        998    1    1    2    0    0 -0.19364256670E+01  0.27459561073E+01  0.14499520447E+04  0.14499904213E+04  0.10000000000E+02 0. -1.
</event>
<event>
 5    1  0.1245771E-008  0.3857655E+03  0.7957747E-01  0.3426432E+00
         13   -1    0    0    0    0  0.00000000000E+00  0.00000000000E+00  0.14999999963E+04  0.15000000000E+04  0.10566000000E+00 0. -1.
        994   -1    0    0    0    0 -0.00000000000E+00 -0.00000000000E+00  0.11368683772E-12  0.17120000000E+03  0.17120000000E+03 0.  0.
         13    1    1    2    0    0  0.12699527247E+02  0.42597337900E+00  0.69543907188E+02  0.70695301376E+02  0.10566000000E+00 0. -1.
        994    1    1    2    0    0  0.52600439478E+00 -0.12458063948E+02  0.17607791014E+01  0.17166251886E+03  0.17120000000E+03 0.  0.
        998    1    1    2    0    0 -0.13225531642E+02  0.12032090569E+02  0.14286953100E+04  0.14288421798E+04  0.10000000000E+02 0. -1.
</event>
<event>
 5    1  0.1245771E-008  0.3755892E+03  0.7957747E-01  0.3470592E+00
         13   -1    0    0    0    0  0.00000000000E+00  0.00000000000E+00  0.14999999963E+04  0.15000000000E+04  0.10566000000E+00 0.  1.
        994   -1    0    0    0    0 -0.00000000000E+00 -0.00000000000E+00  0.11368683772E-12  0.17120000000E+03  0.17120000000E+03 0.  0.
         13    1    1    2    0    0 -0.19073606708E+02 -0.32186758676E+02  0.10254859352E+03  0.10916050158E+03  0.10566000000E+00 0.  1.
        994    1    1    2    0    0  0.19319703523E+02  0.27704407691E+02  0.10256288437E+02  0.17480107723E+03  0.17120000000E+03 0.  0.
        998    1    1    2    0    0 -0.24609681508E+00  0.44823509843E+01  0.13871951143E+04  0.13872384212E+04  0.10000000000E+02 0.  1.
</event>
<event>
 5    1  0.1245771E-008  0.3824681E+03  0.7957747E-01  0.3440482E+00
         13   -1    0    0    0    0  0.00000000000E+00  0.00000000000E+00  0.14999999963E+04  0.15000000000E+04  0.10566000000E+00 0.  1.
        994   -1    0    0    0    0 -0.00000000000E+00 -0.00000000000E+00  0.11368683772E-12  0.17120000000E+03  0.17120000000E+03 0.  0.
         13    1    1    2    0    0 -0.47293328133E+01  0.98910437303E+01  0.19552804649E+02  0.22417017388E+02  0.10566000000E+00 0.  1.
        994    1    1    2    0    0  0.37640522825E+01 -0.87455612956E+01  0.31930967940E+01  0.17149428212E+03  0.17120000000E+03 0.  0.
        998    1    1    2    0    0  0.96528053081E+00 -0.11454824347E+01  0.14772540948E+04  0.14772887005E+04  0.10000000000E+02 0.  1.
</event>
<event>
 5    1  0.1245771E-008  0.3825062E+03  0.7957747E-01  0.3440318E+00
         13   -1    0    0    0    0  0.00000000000E+00  0.00000000000E+00  0.14999999963E+04  0.15000000000E+04  0.10566000000E+00 0.  1.
        994   -1    0    0    0    0 -0.00000000000E+00 -0.00000000000E+00  0.11368683772E-12  0.17120000000E+03  0.17120000000E+03 0.  0.
         13    1    1    2    0    0 -0.92703067396E+01  0.45964006216E+01  0.17219249263E+02  0.20089280598E+02  0.10566000000E+00 0.  1.
        994    1    1    2    0    0  0.12381627657E+02 -0.41488416700E+01  0.34388851093E+01  0.17173171961E+03  0.17120000000E+03 0.  0.
        998    1    1    2    0    0 -0.31113209176E+01 -0.44755895162E+00  0.14793418619E+04  0.14793789998E+04  0.10000000000E+02 0.  1.
</event>
<event>
 5    1  0.1245771E-008  0.3815664E+03  0.7957747E-01  0.3444366E+00
         13   -1    0    0    0    0  0.00000000000E+00  0.00000000000E+00  0.14999999963E+04  0.15000000000E+04  0.10566000000E+00 0. -1.
        994   -1    0    0    0    0 -0.00000000000E+00 -0.00000000000E+00  0.11368683772E-12  0.17120000000E+03  0.17120000000E+03 0.  0.
         13    1    1    2    0    0 -0.21567667627E+02 -0.12780785296E+02  0.11392299258E+03  0.11664892697E+03  0.10566000000E+00 0. -1.
        994    1    1    2    0    0  0.11082827797E+02 -0.47797885340E+02  0.11392777518E+02  0.17845644369E+03  0.17120000000E+03 0.  0.
        998    1    1    2    0    0  0.10484839830E+02  0.60578670637E+02  0.13746842262E+04  0.13760946293E+04  0.10000000000E+02 0. -1.
</event>
<event>
 5    1  0.1245771E-008  0.3698543E+03  0.7957747E-01  0.3496561E+00
         13   -1    0    0    0    0  0.00000000000E+00  0.00000000000E+00  0.14999999963E+04  0.15000000000E+04  0.10566000000E+00 0. -1.
        994   -1    0    0    0    0 -0.00000000000E+00 -0.00000000000E+00  0.11368683772E-12  0.17120000000E+03  0.17120000000E+03 0.  0.
         13    1    1    2    0    0 -0.37878611765E+02  0.38852773898E+02  0.14290228309E+03  0.15285745302E+03  0.10566000000E+00 0. -1.
        994    1    1    2    0    0  0.18587108895E+02 -0.17426607202E+01  0.12080512190E+02  0.17263804986E+03  0.17120000000E+03 0.  0.
        998    1    1    2    0    0  0.19291502870E+02 -0.37110113177E+02  0.13450172010E+04  0.13457044971E+04  0.10000000000E+02 0. -1.
</event>
<event>
 5    1  0.1245771E-008  0.3827082E+03  0.7957747E-01  0.3439451E+00
         13   -1    0    0    0    0  0.00000000000E+00  0.00000000000E+00  0.14999999963E+04  0.15000000000E+04  0.10566000000E+00 0.  1.
        994   -1    0    0    0    0 -0.00000000000E+00 -0.00000000000E+00  0.11368683772E-12  0.17120000000E+03  0.17120000000E+03 0.  0.
         13    1    1    2    0    0 -0.11518403693E+02  0.36741894389E-01  0.22696061504E+02  0.25451863300E+02  0.10566000000E+00 0.  1.
        994    1    1    2    0    0  0.10894622688E+02  0.13425632629E+02  0.37633635698E+01  0.17211200807E+03  0.17120000000E+03 0.  0.
        998    1    1    2    0    0  0.62378100456E+00 -0.13462374524E+02  0.14735405712E+04  0.14736361286E+04  0.10000000000E+02 0.  1.
</event>
<event>
 5    1  0.1245771E-008  0.3762637E+03  0.7957747E-01  0.3467590E+00
         13   -1    0    0    0    0  0.00000000000E+00  0.00000000000E+00  0.14999999963E+04  0.15000000000E+04  0.10566000000E+00 0. -1.
        994   -1    0    0    0    0 -0.00000000000E+00 -0.00000000000E+00  0.11368683772E-12  0.17120000000E+03  0.17120000000E+03 0.  0.
         13    1    1    2    0    0  0.40237334702E+02 -0.13941953614E+02  0.15138219678E+03  0.15725775605E+03  0.10566000000E+00 0. -1.
        994    1    1    2    0    0 -0.26216132290E+02 -0.98518623751E+01  0.86906052314E+01  0.17369315301E+03  0.17120000000E+03 0.  0.
        998    1    1    2    0    0 -0.14021202413E+02  0.23793815989E+02  0.13399271943E+04  0.13402490909E+04  0.10000000000E+02 0. -1.
</event>
<event>
 5    1  0.1245771E-008  0.3862555E+03  0.7957747E-01  0.3424365E+00
         13   -1    0    0    0    0  0.00000000000E+00  0.00000000000E+00  0.14999999963E+04  0.15000000000E+04  0.10566000000E+00 0. -1.
        994   -1    0    0    0    0 -0.00000000000E+00 -0.00000000000E+00  0.11368683772E-12  0.17120000000E+03  0.17120000000E+03 0.  0.
         13    1    1    2    0    0  0.76871909162E+01 -0.90325556963E+01  0.66799470610E+02  0.67844383735E+02  0.10566000000E+00 0. -1.
        994    1    1    2    0    0 -0.47503833961E+01  0.16201769915E+02  0.19423061602E+01  0.17204149512E+03  0.17120000000E+03 0.  0.
        998    1    1    2    0    0 -0.29368075201E+01 -0.71692142183E+01  0.14312582195E+04  0.14313141211E+04  0.10000000000E+02 0. -1.
</event>
<event>
 5    1  0.1245771E-008  0.3830544E+03  0.7957747E-01  0.3437966E+00
         13   -1    0    0    0    0  0.00000000000E+00  0.00000000000E+00  0.14999999963E+04  0.15000000000E+04  0.10566000000E+00 0.  1.
        994   -1    0    0    0    0 -0.00000000000E+00 -0.00000000000E+00  0.11368683772E-12  0.17120000000E+03  0.17120000000E+03 0.  0.
         13    1    1    2    0    0  0.19436259439E+00 -0.12024020756E+02  0.26907152914E+02  0.29472375098E+02  0.10566000000E+00 0.  1.
        994    1    1    2    0    0 -0.22406144742E+01  0.84048750892E+01  0.28496219274E+01  0.17144451762E+03  0.17120000000E+03 0.  0.
        998    1    1    2    0    0  0.20462518798E+01  0.36191456666E+01  0.14702432214E+04  0.14702831073E+04  0.10000000000E+02 0.  1.
</event>
<event>
 5    1  0.1245771E-008  0.3834307E+03  0.7957747E-01  0.3436355E+00
         13   -1    0    0    0    0  0.00000000000E+00  0.00000000000E+00  0.14999999963E+04  0.15000000000E+04  0.10566000000E+00 0.  1.
        994   -1    0    0    0    0 -0.00000000000E+00 -0.00000000000E+00  0.11368683772E-12  0.17120000000E+03  0.17120000000E+03 0.  0.
         13    1    1    2    0    0  0.95447401721E+01  0.25008345144E+02  0.14007048853E+03  0.14260530254E+03  0.10566000000E+00 0.  1.
        994    1    1    2    0    0 -0.99617863492E+01 -0.21013750053E+02  0.42009681480E+01  0.17282332890E+03  0.17120000000E+03 0.  0.
        998    1    1    2    0    0  0.41704617711E+00 -0.39945950902E+01  0.13557285396E+04  0.13557713686E+04  0.10000000000E+02 0.  1.
</event>
<event>
 5    1  0.1245771E-008  0.3858364E+03  0.7957747E-01  0.3426132E+00
         13   -1    0    0    0    0  0.00000000000E+00  0.00000000000E+00  0.14999999963E+04  0.15000000000E+04  0.10566000000E+00 0. -1.
        994   -1    0    0    0    0 -0.00000000000E+00 -0.00000000000E+00  0.11368683772E-12  0.17120000000E+03  0.17120000000E+03 0.  0.
         13    1    1    2    0    0  0.12312329356E+02 -0.65013513709E+01  0.77451793932E+02  0.78693408690E+02  0.10566000000E+00 0. -1.
        994    1    1    2    0    0 -0.13779427084E+02  0.38773135553E+01  0.18877562035E+01  0.17180776989E+03  0.17120000000E+03 0.  0.
        998    1    1    2    0    0  0.14670977282E+01  0.26240378156E+01  0.14206604461E+04  0.14206988214E+04  0.10000000000E+02 0. -1.
</event>
<event>
 5    1  0.1245771E-008  0.3844244E+03  0.7957747E-01  0.3432117E+00
         13   -1    0    0    0    0  0.00000000000E+00  0.00000000000E+00  0.14999999963E+04  0.15000000000E+04  0.10566000000E+00 0.  1.
        994   -1    0    0    0    0 -0.00000000000E+00 -0.00000000000E+00  0.11368683772E-12  0.17120000000E+03  0.17120000000E+03 0.  0.
         13    1    1    2    0    0 -0.21112784748E+02  0.18373423183E+01  0.12393804167E+03  0.12573692713E+03  0.10566000000E+00 0.  1.
        994    1    1    2    0    0  0.54356527712E+01 -0.97014989159E+01  0.23237633182E+01  0.17157652893E+03  0.17120000000E+03 0.  0.
        998    1    1    2    0    0  0.15677131977E+02  0.78641565977E+01  0.13737381913E+04  0.13738865439E+04  0.10000000000E+02 0.  1.
</event>
<event>
 5    1  0.1245771E-008  0.3684784E+03  0.7957747E-01  0.3502913E+00
         13   -1    0    0    0    0  0.00000000000E+00  0.00000000000E+00  0.14999999963E+04  0.15000000000E+04  0.10566000000E+00 0.  1.
        994   -1    0    0    0    0 -0.00000000000E+00 -0.00000000000E+00  0.11368683772E-12  0.17120000000E+03  0.17120000000E+03 0.  0.
         13    1    1    2    0    0  0.42894214354E+02 -0.26182554474E+02  0.14914735090E+03  0.15738609604E+03  0.10566000000E+00 0.  1.
        994    1    1    2    0    0  0.36534425455E+02  0.34115145066E+02  0.18802286702E+02  0.17933648082E+03  0.17120000000E+03 0.  0.
        998    1    1    2    0    0 -0.79428639809E+02 -0.79325905925E+01  0.13320503587E+04  0.13344774231E+04  0.10000000000E+02 0.  1.
</event>
<event>
 5    1  0.1245771E-008  0.3835129E+03  0.7957747E-01  0.3436004E+00
         13   -1    0    0    0    0  0.00000000000E+00  0.00000000000E+00  0.14999999963E+04  0.15000000000E+04  0.10566000000E+00 0.  1.
        994   -1    0    0    0    0 -0.00000000000E+00 -0.00000000000E+00  0.11368683772E-12  0.17120000000E+03  0.17120000000E+03 0.  0.
         13    1    1    2    0    0 -0.44625813516E+01 -0.11211322041E+02  0.29653519144E+02  0.32014851802E+02  0.10566000000E+00 0.  1.
        994    1    1    2    0    0  0.45063046983E+01  0.10173108016E+02  0.27794611912E+01  0.17158369478E+03  0.17120000000E+03 0.  0.
        998    1    1    2    0    0 -0.43723346655E-01  0.10382140243E+01  0.14675670159E+04  0.14676014534E+04  0.10000000000E+02 0.  1.
</event>
<event>
 5    1  0.1245771E-008  0.3850787E+03  0.7957747E-01  0.3429339E+00
         13   -1    0    0    0    0  0.00000000000E+00  0.00000000000E+00  0.14999999963E+04  0.15000000000E+04  0.10566000000E+00 0. -1.
        994   -1    0    0    0    0 -0.00000000000E+00 -0.00000000000E+00  0.11368683772E-12  0.17120000000E+03  0.17120000000E+03 0.  0.
         13    1    1    2    0    0  0.14904951105E+02  0.10458314135E+02  0.10918188709E+03  0.11068978966E+03  0.10566000000E+00 0. -1.
        994    1    1    2    0    0 -0.77803867933E+01  0.33809488446E+00  0.17905117220E+01  0.17138638995E+03  0.17120000000E+03 0.  0.
        998    1    1    2    0    0 -0.71245643121E+01 -0.10796409020E+02  0.13890275975E+04  0.13891238204E+04  0.10000000000E+02 0. -1.
</event>
<event>
 5    1  0.1245771E-008  0.3846562E+03  0.7957747E-01  0.3431132E+00
         13   -1    0    0    0    0  0.00000000000E+00  0.00000000000E+00  0.14999999963E+04  0.15000000000E+04  0.10566000000E+00 0.  1.
        994   -1    0    0    0    0 -0.00000000000E+00 -0.00000000000E+00  0.11368683772E-12  0.17120000000E+03  0.17120000000E+03 0.  0.
         13    1    1    2    0    0 -0.84094087611E+01 -0.12049595133E+02  0.60721393879E+02  0.62474072520E+02  0.10566000000E+00 0.  1.
        994    1    1    2    0    0  0.23235817267E+01  0.69299518063E+01  0.19768206683E+01  0.17136735711E+03  0.17120000000E+03 0.  0.
        998    1    1    2    0    0  0.60858270344E+01  0.51196433268E+01  0.14373017817E+04  0.14373585704E+04  0.10000000000E+02 0.  1.
</event>
<event>
 5    1  0.1245771E-008  0.3857349E+03  0.7957747E-01  0.3426561E+00
         13   -1    0    0    0    0  0.00000000000E+00  0.00000000000E+00  0.14999999963E+04  0.15000000000E+04  0.10566000000E+00 0.  1.
        994   -1    0    0    0    0 -0.00000000000E+00 -0.00000000000E+00  0.11368683772E-12  0.17120000000E+03  0.17120000000E+03 0.  0.
         13    1    1    2    0    0 -0.71228432148E+01 -0.10108171314E+02  0.60792655021E+02  0.62037634476E+02  0.10566000000E+00 0.  1.
        994    1    1    2    0    0  0.79873441536E+01  0.47412144028E+01  0.15488184211E+01  0.17145878694E+03  0.17120000000E+03 0.  0.
        998    1    1    2    0    0 -0.86450093873E+00  0.53669569111E+01  0.14376585228E+04  0.14377035786E+04  0.10000000000E+02 0.  1.
</event>
<event>
 5    1  0.1245771E-008  0.3703346E+03  0.7957747E-01  0.3494354E+00
         13   -1    0    0    0    0  0.00000000000E+00  0.00000000000E+00  0.14999999963E+04  0.15000000000E+04  0.10566000000E+00 0. -1.
        994   -1    0    0    0    0 -0.00000000000E+00 -0.00000000000E+00  0.11368683772E-12  0.17120000000E+03  0.17120000000E+03 0.  0.
         13    1    1    2    0    0  0.25868553127E+02  0.97014340710E+00  0.32657013771E+02  0.41672712073E+02  0.10566000000E+00 0. -1.
        994    1    1    2    0    0 -0.23602531539E+02 -0.26772781117E+01  0.11045426130E+02  0.17319263481E+03  0.17120000000E+03 0.  0.
        998    1    1    2    0    0 -0.22660215873E+01  0.17071347046E+01  0.14562975564E+04  0.14563346531E+04  0.10000000000E+02 0. -1.
</event>
<event>
 5    1  0.1245771E-008  0.3809667E+03  0.7957747E-01  0.3446960E+00
         13   -1    0    0    0    0  0.00000000000E+00  0.00000000000E+00  0.14999999963E+04  0.15000000000E+04  0.10566000000E+00 0. -1.
        994   -1    0    0    0    0 -0.00000000000E+00 -0.00000000000E+00  0.11368683772E-12  0.17120000000E+03  0.17120000000E+03 0.  0.
         13    1    1    2    0    0  0.68890782509E+01 -0.84047866971E+01  0.14561397065E+02  0.18169900580E+02  0.10566000000E+00 0. -1.
        994    1    1    2    0    0 -0.78249527601E+01  0.67234219641E+01  0.40007210647E+01  0.17155722094E+03  0.17120000000E+03 0.  0.
        998    1    1    2    0    0  0.93587450914E+00  0.16813647330E+01  0.14814378781E+04  0.14814728785E+04  0.10000000000E+02 0. -1.
</event>
<event>
 5    1  0.1245771E-008  0.3770161E+03  0.7957747E-01  0.3464255E+00
         13   -1    0    0    0    0  0.00000000000E+00  0.00000000000E+00  0.14999999963E+04  0.15000000000E+04  0.10566000000E+00 0.  1.
        994   -1    0    0    0    0 -0.00000000000E+00 -0.00000000000E+00  0.11368683772E-12  0.17120000000E+03  0.17120000000E+03 0.  0.
         13    1    1    2    0    0 -0.50348126163E+02  0.65338832090E+02  0.25917960956E+03  0.27198929752E+03  0.10566000000E+00 0.  1.
        994    1    1    2    0    0  0.73783050861E+01 -0.24042076799E+02  0.16967940158E+02  0.17386722473E+03  0.17120000000E+03 0.  0.
        998    1    1    2    0    0  0.42969821077E+02 -0.41296755291E+02  0.12238524466E+04  0.12253434777E+04  0.10000000000E+02 0.  1.
</event>
<event>
 5    1  0.1245771E-008  0.3811782E+03  0.7957747E-01  0.3446045E+00
         13   -1    0    0    0    0  0.00000000000E+00  0.00000000000E+00  0.14999999963E+04  0.15000000000E+04  0.10566000000E+00 0. -1.
        994   -1    0    0    0    0 -0.00000000000E+00 -0.00000000000E+00  0.11368683772E-12  0.17120000000E+03  0.17120000000E+03 0.  0.
         13    1    1    2    0    0 -0.11244318335E+02  0.86176298682E+01  0.26628752217E+02  0.30162888589E+02  0.10566000000E+00 0. -1.
        994    1    1    2    0    0  0.43997578001E+01 -0.16959997323E+02  0.45625558132E+01  0.17215474520E+03  0.17120000000E+03 0.  0.
        998    1    1    2    0    0  0.68445605348E+01  0.83423674548E+01  0.14688086882E+04  0.14688823662E+04  0.10000000000E+02 0. -1.
</event>
<event>
 5    1  0.1245771E-008  0.3805728E+03  0.7957747E-01  0.3448668E+00
         13   -1    0    0    0    0  0.00000000000E+00  0.00000000000E+00  0.14999999963E+04  0.15000000000E+04  0.10566000000E+00 0. -1.
        994   -1    0    0    0    0 -0.00000000000E+00 -0.00000000000E+00  0.11368683772E-12  0.17120000000E+03  0.17120000000E+03 0.  0.
         13    1    1    2    0    0 -0.37861564534E+02 -0.55842685648E-01  0.16435873928E+03  0.16866329633E+03  0.10566000000E+00 0. -1.
        994    1    1    2    0    0  0.39856298675E+02 -0.75626932015E+01  0.93549452416E+01  0.17618931260E+03  0.17120000000E+03 0.  0.
        998    1    1    2    0    0 -0.19947341407E+01  0.76185358872E+01  0.13262863118E+04  0.13263473911E+04  0.10000000000E+02 0. -1.
</event>
<event>
 5    1  0.1245771E-008  0.3769016E+03  0.7957747E-01  0.3464762E+00
         13   -1    0    0    0    0  0.00000000000E+00  0.00000000000E+00  0.14999999963E+04  0.15000000000E+04  0.10566000000E+00 0.  1.
        994   -1    0    0    0    0 -0.00000000000E+00 -0.00000000000E+00  0.11368683772E-12  0.17120000000E+03  0.17120000000E+03 0.  0.
         13    1    1    2    0    0 -0.14681142963E+02 -0.92405533764E+02  0.47786476934E+03  0.48693846384E+03  0.10566000000E+00 0.  1.
        994    1    1    2    0    0  0.26781943046E+02  0.97207062409E+02  0.40853041406E+02  0.20284204803E+03  0.17120000000E+03 0.  0.
        998    1    1    2    0    0 -0.12100800083E+02 -0.48015286448E+01  0.98128218553E+03  0.98141948813E+03  0.10000000000E+02 0.  1.
</event>
<event>
 5    1  0.1245771E-008  0.3854858E+03  0.7957747E-01  0.3427614E+00
         13   -1    0    0    0    0  0.00000000000E+00  0.00000000000E+00  0.14999999963E+04  0.15000000000E+04  0.10566000000E+00 0. -1.
        994   -1    0    0    0    0 -0.00000000000E+00 -0.00000000000E+00  0.11368683772E-12  0.17120000000E+03  0.17120000000E+03 0.  0.
         13    1    1    2    0    0  0.11382443486E+02  0.54410100509E+01  0.57955691802E+02  0.59313050726E+02  0.10566000000E+00 0. -1.
        994    1    1    2    0    0 -0.10405923924E+02  0.45100583867E+01  0.18115850938E+01  0.17158480620E+03  0.17120000000E+03 0.  0.
        998    1    1    2    0    0 -0.97651956272E+00 -0.99510684377E+01  0.14402327194E+04  0.14403021431E+04  0.10000000000E+02 0. -1.
</event>
<event>
 5    1  0.1245771E-008  0.3778576E+03  0.7957747E-01  0.3460540E+00
         13   -1    0    0    0    0  0.00000000000E+00  0.00000000000E+00  0.14999999963E+04  0.15000000000E+04  0.10566000000E+00 0. -1.
        994   -1    0    0    0    0 -0.00000000000E+00 -0.00000000000E+00  0.11368683772E-12  0.17120000000E+03  0.17120000000E+03 0.  0.
         13    1    1    2    0    0  0.42842998524E+02 -0.28911286252E+01  0.15551358161E+03  0.16133309139E+03  0.10566000000E+00 0. -1.
        994    1    1    2    0    0 -0.45192712297E+02  0.80055669954E+01  0.12343557681E+02  0.17767462893E+03  0.17120000000E+03 0.  0.
        998    1    1    2    0    0  0.23497137731E+01 -0.51144383703E+01  0.13321428570E+04  0.13321922797E+04  0.10000000000E+02 0. -1.
</event>
<event>
 5    1  0.1245771E-008  0.3791161E+03  0.7957747E-01  0.3455016E+00
         13   -1    0    0    0    0  0.00000000000E+00  0.00000000000E+00  0.14999999963E+04  0.15000000000E+04  0.10566000000E+00 0. -1.
        994   -1    0    0    0    0 -0.00000000000E+00 -0.00000000000E+00  0.11368683772E-12  0.17120000000E+03  0.17120000000E+03 0.  0.
         13    1    1    2    0    0  0.31188229809E+02 -0.16850915843E+02  0.13040487115E+03  0.13513733987E+03  0.10566000000E+00 0. -1.
        994    1    1    2    0    0 -0.19659970138E+02  0.22824464076E+02  0.76284895102E+01  0.17399742653E+03  0.17120000000E+03 0.  0.
        998    1    1    2    0    0 -0.11528259671E+02 -0.59735482337E+01  0.13619666356E+04  0.13620652336E+04  0.10000000000E+02 0. -1.
</event>
<event>
 5    1  0.1245771E-008  0.3709380E+03  0.7957747E-01  0.3491591E+00
         13   -1    0    0    0    0  0.00000000000E+00  0.00000000000E+00  0.14999999963E+04  0.15000000000E+04  0.10566000000E+00 0.  1.
        994   -1    0    0    0    0 -0.00000000000E+00 -0.00000000000E+00  0.11368683772E-12  0.17120000000E+03  0.17120000000E+03 0.  0.
         13    1    1    2    0    0 -0.22979263743E+02 -0.15910681549E+02  0.39874517084E+02  0.48694811081E+02  0.10566000000E+00 0.  1.
        994    1    1    2    0    0  0.25461087659E+02  0.14437260036E+02  0.11737897212E+02  0.17408021052E+03  0.17120000000E+03 0.  0.
        998    1    1    2    0    0 -0.24818239157E+01  0.14734215125E+01  0.14483875820E+04  0.14484249784E+04  0.10000000000E+02 0.  1.
</event>
<event>
 5    1  0.1245771E-008  0.3843959E+03  0.7957747E-01  0.3432238E+00
         13   -1    0    0    0    0  0.00000000000E+00  0.00000000000E+00  0.14999999963E+04  0.15000000000E+04  0.10566000000E+00 0. -1.
        994   -1    0    0    0    0 -0.00000000000E+00 -0.00000000000E+00  0.11368683772E-12  0.17120000000E+03  0.17120000000E+03 0.  0.
         13    1    1    2    0    0  0.25333679239E+02 -0.36004343250E+01  0.14829153665E+03  0.15048305365E+03  0.10566000000E+00 0. -1.
        994    1    1    2    0    0 -0.28270900526E+02  0.25394480850E+02  0.67034634074E+01  0.17549501388E+03  0.17120000000E+03 0.  0.
        998    1    1    2    0    0  0.29372212870E+01 -0.21794046525E+02  0.13450049962E+04  0.13452219325E+04  0.10000000000E+02 0. -1.
</event>
<event>
 5    1  0.1245771E-008  0.3775594E+03  0.7957747E-01  0.3461855E+00
         13   -1    0    0    0    0  0.00000000000E+00  0.00000000000E+00  0.14999999963E+04  0.15000000000E+04  0.10566000000E+00 0.  1.
        994   -1    0    0    0    0 -0.00000000000E+00 -0.00000000000E+00  0.11368683772E-12  0.17120000000E+03  0.17120000000E+03 0.  0.
         13    1    1    2    0    0  0.99762304985E+01 -0.10641049413E+02  0.17116008735E+02  0.22488353132E+02  0.10566000000E+00 0.  1.
        994    1    1    2    0    0 -0.18699034152E+02  0.87345457029E+01  0.68070334197E+01  0.17257381572E+03  0.17120000000E+03 0.  0.
        998    1    1    2    0    0  0.87228036538E+01  0.19065037097E+01  0.14760769541E+04  0.14761378312E+04  0.10000000000E+02 0.  1.
</event>
<event>
 5    1  0.1245771E-008  0.3785786E+03  0.7957747E-01  0.3457371E+00
         13   -1    0    0    0    0  0.00000000000E+00  0.00000000000E+00  0.14999999963E+04  0.15000000000E+04  0.10566000000E+00 0.  1.
        994   -1    0    0    0    0 -0.00000000000E+00 -0.00000000000E+00  0.11368683772E-12  0.17120000000E+03  0.17120000000E+03 0.  0.
         13    1    1    2    0    0  0.24419689933E+02  0.59373568485E+01  0.61418448696E+02  0.66361212067E+02  0.10566000000E+00 0.  1.
        994    1    1    2    0    0 -0.22436248875E+02 -0.83580000551E+01  0.67800917256E+01  0.17299899154E+03  0.17120000000E+03 0.  0.
        998    1    1    2    0    0 -0.19834410585E+01  0.24206432066E+01  0.14318014559E+04  0.14318397964E+04  0.10000000000E+02 0.  1.
</event>
<event>
 5    1  0.1245771E-008  0.3816423E+03  0.7957747E-01  0.3444039E+00
         13   -1    0    0    0    0  0.00000000000E+00  0.00000000000E+00  0.14999999963E+04  0.15000000000E+04  0.10566000000E+00 0. -1.
        994   -1    0    0    0    0 -0.00000000000E+00 -0.00000000000E+00  0.11368683772E-12  0.17120000000E+03  0.17120000000E+03 0.  0.
         13    1    1    2    0    0 -0.10511538985E+01  0.10568440895E+02  0.15650579848E+02  0.18914245454E+02  0.10566000000E+00 0. -1.
        994    1    1    2    0    0 -0.83019748523E+00 -0.86018642325E+01  0.35547547220E+01  0.17145482664E+03  0.17120000000E+03 0.  0.
        998    1    1    2    0    0  0.18813513837E+01 -0.19665766624E+01  0.14807946617E+04  0.14808309279E+04  0.10000000000E+02 0. -1.
</event>
<event>
 5    1  0.1245771E-008  0.3702430E+03  0.7957747E-01  0.3494775E+00
         13   -1    0    0    0    0  0.00000000000E+00  0.00000000000E+00  0.14999999963E+04  0.15000000000E+04  0.10566000000E+00 0. -1.
        994   -1    0    0    0    0 -0.00000000000E+00 -0.00000000000E+00  0.11368683772E-12  0.17120000000E+03  0.17120000000E+03 0.  0.
         13    1    1    2    0    0 -0.54563190277E+02  0.29735504721E+02  0.35364682606E+03  0.35906466092E+03  0.10566000000E+00 0. -1.
        994    1    1    2    0    0 -0.21476016921E+02  0.23576225534E+02  0.12663885503E+02  0.17460490173E+03  0.17120000000E+03 0.  0.
        998    1    1    2    0    0  0.76039207198E+02 -0.53311730256E+02  0.11336892847E+04  0.11375304373E+04  0.10000000000E+02 0. -1.
</event>
<event>
 5    1  0.1245771E-008  0.3856931E+03  0.7957747E-01  0.3426738E+00
         13   -1    0    0    0    0  0.00000000000E+00  0.00000000000E+00  0.14999999963E+04  0.15000000000E+04  0.10566000000E+00 0.  1.
        994   -1    0    0    0    0 -0.00000000000E+00 -0.00000000000E+00  0.11368683772E-12  0.17120000000E+03  0.17120000000E+03 0.  0.
         13    1    1    2    0    0 -0.12744706110E+02 -0.73309996167E+01  0.81458157060E+02  0.82774474356E+02  0.10566000000E+00 0.  1.
        994    1    1    2    0    0  0.16523777113E+02  0.42852450903E+00  0.21834347341E+01  0.17200995968E+03  0.17120000000E+03 0.  0.
        998    1    1    2    0    0 -0.37790710028E+01  0.69024751077E+01  0.14163584045E+04  0.14164155660E+04  0.10000000000E+02 0.  1.
</event>
<event>
 5    1  0.1245771E-008  0.3827619E+03  0.7957747E-01  0.3439220E+00
         13   -1    0    0    0    0  0.00000000000E+00  0.00000000000E+00  0.14999999963E+04  0.15000000000E+04  0.10566000000E+00 0.  1.
        994   -1    0    0    0    0 -0.00000000000E+00 -0.00000000000E+00  0.11368683772E-12  0.17120000000E+03  0.17120000000E+03 0.  0.
         13    1    1    2    0    0  0.21579970615E+02  0.52549238117E+01  0.86782560364E+02  0.89579759452E+02  0.10566000000E+00 0.  1.
        994    1    1    2    0    0 -0.17417889237E+02 -0.61016565965E+01  0.38745662249E+01  0.17223549385E+03  0.17120000000E+03 0.  0.
        998    1    1    2    0    0 -0.41620813782E+01  0.84673278477E+00  0.14093428697E+04  0.14093847467E+04  0.10000000000E+02 0.  1.
</event>
<event>
 5    1  0.1245771E-008  0.3775568E+03  0.7957747E-01  0.3461866E+00
         13   -1    0    0    0    0  0.00000000000E+00  0.00000000000E+00  0.14999999963E+04  0.15000000000E+04  0.10566000000E+00 0.  1.
        994   -1    0    0    0    0 -0.00000000000E+00 -0.00000000000E+00  0.11368683772E-12  0.17120000000E+03  0.17120000000E+03 0.  0.
         13    1    1    2    0    0 -0.23255482743E+02 -0.20231078930E+02  0.84485726588E+02  0.89933103991E+02  0.10566000000E+00 0.  1.
        994    1    1    2    0    0  0.16080047248E+02  0.19013724795E+02  0.74641691024E+01  0.17316247709E+03  0.17120000000E+03 0.  0.
        998    1    1    2    0    0  0.71754354942E+01  0.12173541355E+01  0.14080501006E+04  0.14081044189E+04  0.10000000000E+02 0.  1.
</event>
<event>
 5    1  0.1245771E-008  0.3824369E+03  0.7957747E-01  0.3440616E+00
         13   -1    0    0    0    0  0.00000000000E+00  0.00000000000E+00  0.14999999963E+04  0.15000000000E+04  0.10566000000E+00 0.  1.
        994   -1    0    0    0    0 -0.00000000000E+00 -0.00000000000E+00  0.11368683772E-12  0.17120000000E+03  0.17120000000E+03 0.  0.
         13    1    1    2    0    0  0.89532426558E+01  0.84809171701E+01  0.24969793808E+02  0.27849385576E+02  0.10566000000E+00 0.  1.
        994    1    1    2    0    0 -0.66662025149E+01 -0.71717720944E+01  0.32260346001E+01  0.17151011594E+03  0.17120000000E+03 0.  0.
        998    1    1    2    0    0 -0.22870401409E+01 -0.13091450757E+01  0.14718041679E+04  0.14718404985E+04  0.10000000000E+02 0.  1.
</event>
<event>
 5    1  0.1245771E-008  0.4166388E+03  0.7957747E-01  0.3305656E+00
         13   -1    0    0    0    0  0.00000000000E+00  0.00000000000E+00  0.14999999963E+04  0.15000000000E+04  0.10566000000E+00 0.  1.
        994   -1    0    0    0    0 -0.00000000000E+00 -0.00000000000E+00  0.11368683772E-12  0.17120000000E+03  0.17120000000E+03 0.  0.
         13    1    1    2    0    0 -0.89669108849E+02 -0.12169827986E+03  0.22569280937E+03  0.27163997454E+03  0.10566000000E+00 0.  1.
        994    1    1    2    0    0  0.96845388378E+02  0.12675653761E+03  0.15613207228E+03  0.28130572883E+03  0.17120000000E+03 0.  0.
        998    1    1    2    0    0 -0.71762795293E+01 -0.50582577549E+01  0.11181751146E+04  0.11182542966E+04  0.10000000000E+02 0.  1.
</event>
<event>
 5    1  0.1245771E-008  0.3850731E+03  0.7957747E-01  0.3429362E+00
         13   -1    0    0    0    0  0.00000000000E+00  0.00000000000E+00  0.14999999963E+04  0.15000000000E+04  0.10566000000E+00 0. -1.
        994   -1    0    0    0    0 -0.00000000000E+00 -0.00000000000E+00  0.11368683772E-12  0.17120000000E+03  0.17120000000E+03 0.  0.
         13    1    1    2    0    0  0.74257052422E+01  0.12573528553E+02  0.68989151470E+02  0.70517720491E+02  0.10566000000E+00 0. -1.
        994    1    1    2    0    0  0.16523280168E+01 -0.69300806115E+01  0.17607371416E+01  0.17135721870E+03  0.17120000000E+03 0.  0.
        998    1    1    2    0    0 -0.90780332590E+01 -0.56434479419E+01  0.14292501077E+04  0.14293250608E+04  0.10000000000E+02 0. -1.
</event>
<event>
 5    1  0.1245771E-008  0.2624019E+03  0.7957747E-01  0.4207352E+00
         13   -1    0    0    0    0  0.00000000000E+00  0.00000000000E+00  0.14999999963E+04  0.15000000000E+04  0.10566000000E+00 0. -1.
        994   -1    0    0    0    0 -0.00000000000E+00 -0.00000000000E+00  0.11368683772E-12  0.17120000000E+03  0.17120000000E+03 0.  0.
         13    1    1    2    0    0 -0.78647623436E+02 -0.10893850941E+03  0.68352902066E+03  0.69660963298E+03  0.10566000000E+00 0. -1.
        994    1    1    2    0    0 -0.39262829792E+02 -0.20422143149E+02  0.43654152213E+02  0.18213664853E+03  0.17120000000E+03 0.  0.
        998    1    1    2    0    0  0.11791045323E+03  0.12936065256E+03  0.77281682340E+03  0.79245371849E+03  0.10000000000E+02 0. -1.
</event>
<event>
 5    1  0.1245771E-008  0.3828820E+03  0.7957747E-01  0.3438705E+00
         13   -1    0    0    0    0  0.00000000000E+00  0.00000000000E+00  0.14999999963E+04  0.15000000000E+04  0.10566000000E+00 0.  1.
        994   -1    0    0    0    0 -0.00000000000E+00 -0.00000000000E+00  0.11368683772E-12  0.17120000000E+03  0.17120000000E+03 0.  0.
         13    1    1    2    0    0 -0.65710457721E+01  0.10311978317E+02  0.26304505100E+02  0.29007821220E+02  0.10566000000E+00 0.  1.
        994    1    1    2    0    0  0.39044717092E+01 -0.15200390158E+02  0.35013369076E+01  0.17195347080E+03  0.17120000000E+03 0.  0.
        998    1    1    2    0    0  0.26665740629E+01  0.48884118412E+01  0.14701941543E+04  0.14702387080E+04  0.10000000000E+02 0.  1.
</event>
<event>
 5    1  0.1245771E-008  0.3784473E+03  0.7957747E-01  0.3457947E+00
         13   -1    0    0    0    0  0.00000000000E+00  0.00000000000E+00  0.14999999963E+04  0.15000000000E+04  0.10566000000E+00 0.  1.
        994   -1    0    0    0    0 -0.00000000000E+00 -0.00000000000E+00  0.11368683772E-12  0.17120000000E+03  0.17120000000E+03 0.  0.
         13    1    1    2    0    0  0.34895733848E+01 -0.15995921403E+02  0.25381598225E+02  0.30204028149E+02  0.10566000000E+00 0.  1.
        994    1    1    2    0    0 -0.35830689595E+01  0.83117618977E+01  0.51943145719E+01  0.17151776781E+03  0.17120000000E+03 0.  0.
        998    1    1    2    0    0  0.93495574750E-01  0.76841595057E+01  0.14694240835E+04  0.14694782040E+04  0.10000000000E+02 0.  1.
</event>
<event>
 5    1  0.1245771E-008  0.3819675E+03  0.7957747E-01  0.3442636E+00
         13   -1    0    0    0    0  0.00000000000E+00  0.00000000000E+00  0.14999999963E+04  0.15000000000E+04  0.10566000000E+00 0.  1.
        994   -1    0    0    0    0 -0.00000000000E+00 -0.00000000000E+00  0.11368683772E-12  0.17120000000E+03  0.17120000000E+03 0.  0.
         13    1    1    2    0    0  0.10596658548E+02 -0.61484439591E+01  0.22926639390E+02  0.25994893599E+02  0.10566000000E+00 0.  1.
        994    1    1    2    0    0 -0.99842777525E+00  0.75469053451E+01  0.33357285794E+01  0.17140163279E+03  0.17120000000E+03 0.  0.
        998    1    1    2    0    0 -0.95982307726E+01 -0.13984613860E+01  0.14737376283E+04  0.14738034736E+04  0.10000000000E+02 0.  1.
</event>
<event>
 5    1  0.1245771E-008  0.3703914E+03  0.7957747E-01  0.3494094E+00
         13   -1    0    0    0    0  0.00000000000E+00  0.00000000000E+00  0.14999999963E+04  0.15000000000E+04  0.10566000000E+00 0. -1.
        994   -1    0    0    0    0 -0.00000000000E+00 -0.00000000000E+00  0.11368683772E-12  0.17120000000E+03  0.17120000000E+03 0.  0.
         13    1    1    2    0    0  0.15786774085E+03  0.11241202569E+03  0.60484797672E+03  0.63513760181E+03  0.10566000000E+00 0. -1.
        994    1    1    2    0    0 -0.18663270575E+03 -0.11811906789E+03  0.20837746445E+03  0.34858928375E+03  0.17120000000E+03 0.  0.
        998    1    1    2    0    0  0.28764964907E+02  0.57070422050E+01  0.68677455511E+03  0.68747311444E+03  0.10000000000E+02 0. -1.
</event>
<event>
 5    1  0.1245771E-008  0.3857441E+03  0.7957747E-01  0.3426523E+00
         13   -1    0    0    0    0  0.00000000000E+00  0.00000000000E+00  0.14999999963E+04  0.15000000000E+04  0.10566000000E+00 0. -1.
        994   -1    0    0    0    0 -0.00000000000E+00 -0.00000000000E+00  0.11368683772E-12  0.17120000000E+03  0.17120000000E+03 0.  0.
         13    1    1    2    0    0 -0.13478242973E+02 -0.57846638810E+00  0.73692448799E+02  0.74917193160E+02  0.10566000000E+00 0. -1.
        994    1    1    2    0    0  0.69652062763E+01  0.65105403715E+01  0.15594375634E+01  0.17147236827E+03  0.17120000000E+03 0.  0.
        998    1    1    2    0    0  0.65130366966E+01 -0.59320739835E+01  0.14247481099E+04  0.14248104386E+04  0.10000000000E+02 0. -1.
</event>
<event>
 5    1  0.3115075E-008  0.3865394E+03  0.7957747E-01  0.3423170E+00
         13   -1    0    0    0    0  0.00000000000E+00  0.00000000000E+00  0.14999999963E+04  0.15000000000E+04  0.10566000000E+00 0. -1.
        994   -1    0    0    0    0 -0.00000000000E+00 -0.00000000000E+00  0.11368683772E-12  0.17120000000E+03  0.17120000000E+03 0.  0.
         13    1    1    2    0    0  0.96476952917E+00 -0.10281736430E+02  0.54937744332E+02  0.55900016106E+02  0.10566000000E+00 0. -1.
        994    1    1    2    0    0 -0.72495724303E+01  0.23899120127E+02  0.29114491482E+01  0.17303653019E+03  0.17120000000E+03 0.  0.
        998    1    1    2    0    0  0.62848029012E+01 -0.13617383697E+02  0.14421508028E+04  0.14422634537E+04  0.10000000000E+02 0. -1.
</event>
<event>
 5    1  0.1245771E-008  0.3775262E+03  0.7957747E-01  0.3462001E+00
         13   -1    0    0    0    0  0.00000000000E+00  0.00000000000E+00  0.14999999963E+04  0.15000000000E+04  0.10566000000E+00 0. -1.
        994   -1    0    0    0    0 -0.00000000000E+00 -0.00000000000E+00  0.11368683772E-12  0.17120000000E+03  0.17120000000E+03 0.  0.
         13    1    1    2    0    0 -0.50463375755E+01  0.51662474774E+02  0.21804283428E+03  0.22413648870E+03  0.10566000000E+00 0. -1.
        994    1    1    2    0    0  0.11667227951E+02 -0.48168568999E+02  0.13711362113E+02  0.17875619345E+03  0.17120000000E+03 0.  0.
        998    1    1    2    0    0 -0.66208903756E+01 -0.34939057747E+01  0.12682457999E+04  0.12683073178E+04  0.10000000000E+02 0. -1.
</event>
<event>
 5    1  0.1245771E-008  0.3808047E+03  0.7957747E-01  0.3447662E+00
         13   -1    0    0    0    0  0.00000000000E+00  0.00000000000E+00  0.14999999963E+04  0.15000000000E+04  0.10566000000E+00 0.  1.
        994   -1    0    0    0    0 -0.00000000000E+00 -0.00000000000E+00  0.11368683772E-12  0.17120000000E+03  0.17120000000E+03 0.  0.
         13    1    1    2    0    0 -0.26689972688E+02 -0.36375782752E+00  0.89383073355E+02  0.93283610180E+02  0.10566000000E+00 0.  1.
        994    1    1    2    0    0  0.26954414429E+02  0.35201209589E+01  0.61950322137E+01  0.17345532604E+03  0.17120000000E+03 0.  0.
        998    1    1    2    0    0 -0.26444174158E+00 -0.31563631314E+01  0.14044218907E+04  0.14044610638E+04  0.10000000000E+02 0.  1.
</event>
<event>
 5    1  0.1245771E-008  0.3743125E+03  0.7957747E-01  0.3476303E+00
         13   -1    0    0    0    0  0.00000000000E+00  0.00000000000E+00  0.14999999963E+04  0.15000000000E+04  0.10566000000E+00 0. -1.
        994   -1    0    0    0    0 -0.00000000000E+00 -0.00000000000E+00  0.11368683772E-12  0.17120000000E+03  0.17120000000E+03 0.  0.
         13    1    1    2    0    0  0.31749634516E+02 -0.66111331935E+02  0.29102152175E+03  0.30012045046E+03  0.10566000000E+00 0. -1.
        994    1    1    2    0    0 -0.34604411654E+02  0.72243648558E+02  0.29219189471E+02  0.19125849287E+03  0.17120000000E+03 0.  0.
        998    1    1    2    0    0  0.28547771383E+01 -0.61323166227E+01  0.11797592851E+04  0.11798210567E+04  0.10000000000E+02 0. -1.
</event>
<event>
 5    1  0.1245771E-008  0.3843044E+03  0.7957747E-01  0.3432628E+00
         13   -1    0    0    0    0  0.00000000000E+00  0.00000000000E+00  0.14999999963E+04  0.15000000000E+04  0.10566000000E+00 0. -1.
        994   -1    0    0    0    0 -0.00000000000E+00 -0.00000000000E+00  0.11368683772E-12  0.17120000000E+03  0.17120000000E+03 0.  0.
         13    1    1    2    0    0  0.10061592530E+02 -0.10744288993E+02  0.52926974500E+02  0.54935882481E+02  0.10566000000E+00 0. -1.
        994    1    1    2    0    0 -0.88059174443E+01  0.12727967141E+02  0.27658636913E+01  0.17192043314E+03  0.17120000000E+03 0.  0.
        998    1    1    2    0    0 -0.12556750860E+01 -0.19836781486E+01  0.14443071581E+04  0.14443436844E+04  0.10000000000E+02 0. -1.
</event>
<event>
 5    1  0.1245771E-008  0.3836731E+03  0.7957747E-01  0.3435319E+00
         13   -1    0    0    0    0  0.00000000000E+00  0.00000000000E+00  0.14999999963E+04  0.15000000000E+04  0.10566000000E+00 0.  1.
        994   -1    0    0    0    0 -0.00000000000E+00 -0.00000000000E+00  0.11368683772E-12  0.17120000000E+03  0.17120000000E+03 0.  0.
         13    1    1    2    0    0  0.12687788483E+02 -0.74263687903E+01  0.46104711230E+02  0.48392008551E+02  0.10566000000E+00 0.  1.
        994    1    1    2    0    0 -0.73226912454E+01  0.11385488222E+02  0.28958477017E+01  0.17175877585E+03  0.17120000000E+03 0.  0.
        998    1    1    2    0    0 -0.53650972379E+01 -0.39591194314E+01  0.14509994373E+04  0.14510492156E+04  0.10000000000E+02 0.  1.
</event>
<event>
 5    1  0.1245771E-008  0.3838895E+03  0.7957747E-01  0.3434396E+00
         13   -1    0    0    0    0  0.00000000000E+00  0.00000000000E+00  0.14999999963E+04  0.15000000000E+04  0.10566000000E+00 0.  1.
        994   -1    0    0    0    0 -0.00000000000E+00 -0.00000000000E+00  0.11368683772E-12  0.17120000000E+03  0.17120000000E+03 0.  0.
         13    1    1    2    0    0 -0.10161559170E+02  0.30166092006E+01  0.24631890361E+02  0.26816010192E+02  0.10566000000E+00 0.  1.
        994    1    1    2    0    0  0.10957089472E+02 -0.59677400928E+01  0.26964636696E+01  0.17167522433E+03  0.17120000000E+03 0.  0.
        998    1    1    2    0    0 -0.79553030244E+00  0.29511308921E+01  0.14726716422E+04  0.14727087655E+04  0.10000000000E+02 0.  1.
</event>
<event>
 5    1  0.1245771E-008  0.3831797E+03  0.7957747E-01  0.3437429E+00
         13   -1    0    0    0    0  0.00000000000E+00  0.00000000000E+00  0.14999999963E+04  0.15000000000E+04  0.10566000000E+00 0.  1.
        994   -1    0    0    0    0 -0.00000000000E+00 -0.00000000000E+00  0.11368683772E-12  0.17120000000E+03  0.17120000000E+03 0.  0.
         13    1    1    2    0    0  0.16244178990E+02 -0.26694176613E+02  0.17789340324E+03  0.18061707144E+03  0.10566000000E+00 0.  1.
        994    1    1    2    0    0 -0.23579460029E+02  0.17692933196E+02  0.54167834269E+01  0.17380394807E+03  0.17120000000E+03 0.  0.
        998    1    1    2    0    0  0.73352810390E+01  0.90012434173E+01  0.13166898096E+04  0.13167789805E+04  0.10000000000E+02 0.  1.
</event>
<event>
 5    1  0.1245771E-008  0.3856927E+03  0.7957747E-01  0.3426740E+00
         13   -1    0    0    0    0  0.00000000000E+00  0.00000000000E+00  0.14999999963E+04  0.15000000000E+04  0.10566000000E+00 0. -1.
        994   -1    0    0    0    0 -0.00000000000E+00 -0.00000000000E+00  0.11368683772E-12  0.17120000000E+03  0.17120000000E+03 0.  0.
         13    1    1    2    0    0  0.13422133095E+02  0.19957996146E+01  0.67418500194E+02  0.68770649301E+02  0.10566000000E+00 0. -1.
        994    1    1    2    0    0 -0.18569348402E+02  0.10908324801E-01  0.24188893157E+01  0.17222111324E+03  0.17120000000E+03 0.  0.
        998    1    1    2    0    0  0.51472153072E+01 -0.20067079394E+01  0.14301626068E+04  0.14302082375E+04  0.10000000000E+02 0. -1.
</event>
<event>
 5    1  0.1245771E-008  0.3844048E+03  0.7957747E-01  0.3432200E+00
         13   -1    0    0    0    0  0.00000000000E+00  0.00000000000E+00  0.14999999963E+04  0.15000000000E+04  0.10566000000E+00 0.  1.
        994   -1    0    0    0    0 -0.00000000000E+00 -0.00000000000E+00  0.11368683772E-12  0.17120000000E+03  0.17120000000E+03 0.  0.
         13    1    1    2    0    0 -0.12032918028E+02 -0.85808216650E+01  0.53647228694E+02  0.55645825785E+02  0.10566000000E+00 0.  1.
        994    1    1    2    0    0  0.55763878542E+01  0.25778423349E+02  0.42213776793E+01  0.17327112639E+03  0.17120000000E+03 0.  0.
        998    1    1    2    0    0  0.64565301734E+01 -0.17197601684E+02  0.14421313899E+04  0.14422830478E+04  0.10000000000E+02 0.  1.
</event>
<event>
 5    1  0.1245771E-008  0.3937843E+03  0.7957747E-01  0.3393250E+00
         13   -1    0    0    0    0  0.00000000000E+00  0.00000000000E+00  0.14999999963E+04  0.15000000000E+04  0.10566000000E+00 0. -1.
        994   -1    0    0    0    0 -0.00000000000E+00 -0.00000000000E+00  0.11368683772E-12  0.17120000000E+03  0.17120000000E+03 0.  0.
         13    1    1    2    0    0 -0.89659591275E+02 -0.82835126794E+02  0.24055516139E+03  0.26975414246E+03  0.10566000000E+00 0. -1.
        994    1    1    2    0    0  0.99760163503E+02  0.82029058140E+02  0.91078317221E+02  0.23299261033E+03  0.17120000000E+03 0.  0.
        998    1    1    2    0    0 -0.10100572228E+02  0.80606865417E+00  0.11683665177E+04  0.11684532472E+04  0.10000000000E+02 0. -1.
</event>
<event>
 5    1  0.1245771E-008  0.3829177E+03  0.7957747E-01  0.3438552E+00
         13   -1    0    0    0    0  0.00000000000E+00  0.00000000000E+00  0.14999999963E+04  0.15000000000E+04  0.10566000000E+00 0. -1.
        994   -1    0    0    0    0 -0.00000000000E+00 -0.00000000000E+00  0.11368683772E-12  0.17120000000E+03  0.17120000000E+03 0.  0.
         13    1    1    2    0    0 -0.10955400815E+02  0.52600727673E+01  0.26463812482E+02  0.29121018314E+02  0.10566000000E+00 0. -1.
        994    1    1    2    0    0  0.10987141218E+02 -0.36246552580E+01  0.31107985896E+01  0.17161868332E+03  0.17120000000E+03 0.  0.
        998    1    1    2    0    0 -0.31740403261E-01 -0.16354175092E+01  0.14704253852E+04  0.14704602984E+04  0.10000000000E+02 0. -1.
</event>
<event>
 5    1  0.1245771E-008  0.3841015E+03  0.7957747E-01  0.3433492E+00
         13   -1    0    0    0    0  0.00000000000E+00  0.00000000000E+00  0.14999999963E+04  0.15000000000E+04  0.10566000000E+00 0. -1.
        994   -1    0    0    0    0 -0.00000000000E+00 -0.00000000000E+00  0.11368683772E-12  0.17120000000E+03  0.17120000000E+03 0.  0.
         13    1    1    2    0    0  0.51888894268E+01  0.18093175077E+02  0.90986895535E+02  0.92913475239E+02  0.10566000000E+00 0. -1.
        994    1    1    2    0    0 -0.76779629303E+01  0.27703964862E+00  0.22716207053E+01  0.17138736280E+03  0.17120000000E+03 0.  0.
        998    1    1    2    0    0  0.24890735035E+01 -0.18370214725E+02  0.14067414800E+04  0.14068991620E+04  0.10000000000E+02 0. -1.
</event>
<event>
 5    1  0.1245771E-008  0.3817183E+03  0.7957747E-01  0.3443710E+00
         13   -1    0    0    0    0  0.00000000000E+00  0.00000000000E+00  0.14999999963E+04  0.15000000000E+04  0.10566000000E+00 0.  1.
        994   -1    0    0    0    0 -0.00000000000E+00 -0.00000000000E+00  0.11368683772E-12  0.17120000000E+03  0.17120000000E+03 0.  0.
         13    1    1    2    0    0 -0.92468572212E+01 -0.27794782396E+02  0.17329570690E+03  0.17575399708E+03  0.10566000000E+00 0.  1.
        994    1    1    2    0    0  0.20472433982E+02 -0.24746146313E+02  0.67045466066E+01  0.17431547050E+03  0.17120000000E+03 0.  0.
        998    1    1    2    0    0 -0.11225576761E+02  0.52540928710E+02  0.13199997428E+04  0.13211305324E+04  0.10000000000E+02 0.  1.
</event>
<event>
 5    1  0.1245771E-008  0.3803276E+03  0.7957747E-01  0.3449733E+00
         13   -1    0    0    0    0  0.00000000000E+00  0.00000000000E+00  0.14999999963E+04  0.15000000000E+04  0.10566000000E+00 0.  1.
        994   -1    0    0    0    0 -0.00000000000E+00 -0.00000000000E+00  0.11368683772E-12  0.17120000000E+03  0.17120000000E+03 0.  0.
         13    1    1    2    0    0 -0.19550962933E+02 -0.46987878858E+02  0.28069515755E+03  0.28527159611E+03  0.10566000000E+00 0.  1.
        994    1    1    2    0    0  0.17876701296E+02  0.41740003520E+02  0.10883739411E+02  0.17745337451E+03  0.17120000000E+03 0.  0.
        998    1    1    2    0    0  0.16742616378E+01  0.52478753376E+01  0.12084210993E+04  0.12084750294E+04  0.10000000000E+02 0.  1.
</event>
<event>
 5    1  0.1245771E-008  0.3843923E+03  0.7957747E-01  0.3432254E+00
         13   -1    0    0    0    0  0.00000000000E+00  0.00000000000E+00  0.14999999963E+04  0.15000000000E+04  0.10566000000E+00 0.  1.
        994   -1    0    0    0    0 -0.00000000000E+00 -0.00000000000E+00  0.11368683772E-12  0.17120000000E+03  0.17120000000E+03 0.  0.
         13    1    1    2    0    0  0.10641896466E+02 -0.30536822618E+01  0.33264575479E+02  0.35058780378E+02  0.10566000000E+00 0.  1.
        994    1    1    2    0    0  0.19782095935E+02  0.50095917699E+02  0.11550324292E+02  0.17984377187E+03  0.17120000000E+03 0.  0.
        998    1    1    2    0    0 -0.30423992401E+02 -0.47042235437E+02  0.14551850965E+04  0.14562974478E+04  0.10000000000E+02 0.  1.
</event>
<event>
 5    1  0.1245771E-008  0.3797702E+03  0.7957747E-01  0.3452160E+00
         13   -1    0    0    0    0  0.00000000000E+00  0.00000000000E+00  0.14999999963E+04  0.15000000000E+04  0.10566000000E+00 0. -1.
        994   -1    0    0    0    0 -0.00000000000E+00 -0.00000000000E+00  0.11368683772E-12  0.17120000000E+03  0.17120000000E+03 0.  0.
         13    1    1    2    0    0 -0.96131491182E+01  0.47634990264E+01  0.11698455165E+02  0.15873518080E+02  0.10566000000E+00 0. -1.
        994    1    1    2    0    0  0.68993637233E+01 -0.18944760737E+01  0.44204580716E+01  0.17140644885E+03  0.17120000000E+03 0.  0.
        998    1    1    2    0    0  0.27137853949E+01 -0.28690229527E+01  0.14838810830E+04  0.14839200331E+04  0.10000000000E+02 0. -1.
</event>
<event>
 5    1  0.1245771E-008  0.3794540E+03  0.7957747E-01  0.3453539E+00
         13   -1    0    0    0    0  0.00000000000E+00  0.00000000000E+00  0.14999999963E+04  0.15000000000E+04  0.10566000000E+00 0. -1.
        994   -1    0    0    0    0 -0.00000000000E+00 -0.00000000000E+00  0.11368683772E-12  0.17120000000E+03  0.17120000000E+03 0.  0.
         13    1    1    2    0    0  0.10304794892E+02 -0.56837684722E+01  0.13250346153E+02  0.17722213716E+02  0.10566000000E+00 0. -1.
        994    1    1    2    0    0 -0.22235169787E+02  0.10901584372E+02  0.64654509955E+01  0.17310254006E+03  0.17120000000E+03 0.  0.
        998    1    1    2    0    0  0.11930374895E+02 -0.52178158998E+01  0.14802841991E+04  0.14803752462E+04  0.10000000000E+02 0. -1.
</event>
<event>
 5    1  0.1245771E-008  0.3763605E+03  0.7957747E-01  0.3467160E+00
         13   -1    0    0    0    0  0.00000000000E+00  0.00000000000E+00  0.14999999963E+04  0.15000000000E+04  0.10566000000E+00 0.  1.
        994   -1    0    0    0    0 -0.00000000000E+00 -0.00000000000E+00  0.11368683772E-12  0.17120000000E+03  0.17120000000E+03 0.  0.
         13    1    1    2    0    0 -0.75339061595E+00 -0.24449577159E+02  0.46397877133E+02  0.52451154298E+02  0.10566000000E+00 0.  1.
        994    1    1    2    0    0 -0.85971476786E+01  0.24901651463E+02  0.83335586214E+01  0.17341537242E+03  0.17120000000E+03 0.  0.
        998    1    1    2    0    0  0.93505382945E+01 -0.45207430325E+00  0.14452685605E+04  0.14453334733E+04  0.10000000000E+02 0.  1.
</event>
<event>
 5    1  0.1245771E-008  0.3827011E+03  0.7957747E-01  0.3439481E+00
         13   -1    0    0    0    0  0.00000000000E+00  0.00000000000E+00  0.14999999963E+04  0.15000000000E+04  0.10566000000E+00 0.  1.
        994   -1    0    0    0    0 -0.00000000000E+00 -0.00000000000E+00  0.11368683772E-12  0.17120000000E+03  0.17120000000E+03 0.  0.
         13    1    1    2    0    0 -0.31407306737E+02 -0.27084353949E+02  0.24786692931E+03  0.25131256824E+03  0.10566000000E+00 0.  1.
        994    1    1    2    0    0  0.40282235216E+02  0.24970786560E+02  0.10254187985E+02  0.17793478307E+03  0.17120000000E+03 0.  0.
        998    1    1    2    0    0 -0.88749284787E+01  0.21135673889E+01  0.12418788790E+04  0.12419526487E+04  0.10000000000E+02 0.  1.
</event>
<event>
 5    1  0.1245771E-008  0.3829744E+03  0.7957747E-01  0.3438309E+00
         13   -1    0    0    0    0  0.00000000000E+00  0.00000000000E+00  0.14999999963E+04  0.15000000000E+04  0.10566000000E+00 0.  1.
        994   -1    0    0    0    0 -0.00000000000E+00 -0.00000000000E+00  0.11368683772E-12  0.17120000000E+03  0.17120000000E+03 0.  0.
         13    1    1    2    0    0 -0.17931230389E+02 -0.87707708020E+01  0.76424967806E+02  0.78988874608E+02  0.10566000000E+00 0.  1.
        994    1    1    2    0    0  0.11138694509E+02 -0.29781861139E+01  0.30793767766E+01  0.17161544997E+03  0.17120000000E+03 0.  0.
        998    1    1    2    0    0  0.67925358794E+01  0.11748956916E+02  0.14204956517E+04  0.14205956754E+04  0.10000000000E+02 0.  1.
</event>
<event>
 5    1  0.1245771E-008  0.3813772E+03  0.7957747E-01  0.3445184E+00
         13   -1    0    0    0    0  0.00000000000E+00  0.00000000000E+00  0.14999999963E+04  0.15000000000E+04  0.10566000000E+00 0.  1.
        994   -1    0    0    0    0 -0.00000000000E+00 -0.00000000000E+00  0.11368683772E-12  0.17120000000E+03  0.17120000000E+03 0.  0.
         13    1    1    2    0    0  0.25317924891E+02 -0.26825126721E+01  0.89851273019E+02  0.93388733914E+02  0.10566000000E+00 0.  1.
        994    1    1    2    0    0 -0.21096490407E+02  0.14759023214E+02  0.56486310785E+01  0.17321731353E+03  0.17120000000E+03 0.  0.
        998    1    1    2    0    0 -0.42214344843E+01 -0.12076510541E+02  0.14045000922E+04  0.14045939526E+04  0.10000000000E+02 0.  1.
</event>
<event>
 5    1  0.1245771E-008  0.3753007E+03  0.7957747E-01  0.3471879E+00
         13   -1    0    0    0    0  0.00000000000E+00  0.00000000000E+00  0.14999999963E+04  0.15000000000E+04  0.10566000000E+00 0.  1.
        994   -1    0    0    0    0 -0.00000000000E+00 -0.00000000000E+00  0.11368683772E-12  0.17120000000E+03  0.17120000000E+03 0.  0.
         13    1    1    2    0    0 -0.77516983354E+02  0.34204981949E+02  0.39445216706E+03  0.40344936084E+03  0.10566000000E+00 0.  1.
        994    1    1    2    0    0  0.77942171909E+02 -0.37553128756E+02  0.32382614735E+02  0.19453352765E+03  0.17120000000E+03 0.  0.
        998    1    1    2    0    0 -0.42518855497E+00  0.33481468071E+01  0.10731652145E+04  0.10732171115E+04  0.10000000000E+02 0.  0.
</event>
<event>
 5    1  0.1245771E-008  0.3776562E+03  0.7957747E-01  0.3461428E+00
         13   -1    0    0    0    0  0.00000000000E+00  0.00000000000E+00  0.14999999963E+04  0.15000000000E+04  0.10566000000E+00 0. -1.
        994   -1    0    0    0    0 -0.00000000000E+00 -0.00000000000E+00  0.11368683772E-12  0.17120000000E+03  0.17120000000E+03 0.  0.
         13    1    1    2    0    0  0.24221546376E+02  0.88670495552E+00  0.54785139828E+02  0.59907364026E+02  0.10566000000E+00 0. -1.
        994    1    1    2    0    0 -0.75353819712E+01  0.63817645538E+01  0.56495826341E+01  0.17157758211E+03  0.17120000000E+03 0.  0.
        998    1    1    2    0    0 -0.16686164405E+02 -0.72684695093E+01  0.14395652738E+04  0.14397150539E+04  0.10000000000E+02 0. -1.
</event>
<event>
 5    1  0.1245771E-008  0.2822522E+03  0.7957747E-01  0.4031479E+00
         13   -1    0    0    0    0  0.00000000000E+00  0.00000000000E+00  0.14999999963E+04  0.15000000000E+04  0.10566000000E+00 0. -1.
        994   -1    0    0    0    0 -0.00000000000E+00 -0.00000000000E+00  0.11368683772E-12  0.17120000000E+03  0.17120000000E+03 0.  0.
         13    1    1    2    0    0 -0.74634177742E+02  0.98979287978E+02  0.70526670287E+03  0.71607841280E+03  0.10566000000E+00 0. -1.
        994    1    1    2    0    0 -0.26434019318E+02 -0.60393280714E+02  0.33887565037E+02  0.18655806816E+03  0.17120000000E+03 0.  0.
        998    1    1    2    0    0  0.10106819706E+03 -0.38586007263E+02  0.76084572837E+03  0.76856351904E+03  0.10000000000E+02 0. -1.
</event>
<event>
 5    1  0.1245771E-008  0.3805210E+03  0.7957747E-01  0.3448893E+00
         13   -1    0    0    0    0  0.00000000000E+00  0.00000000000E+00  0.14999999963E+04  0.15000000000E+04  0.10566000000E+00 0.  1.
        994   -1    0    0    0    0 -0.00000000000E+00 -0.00000000000E+00  0.11368683772E-12  0.17120000000E+03  0.17120000000E+03 0.  0.
         13    1    1    2    0    0 -0.15335389978E+02  0.21961155387E+02  0.68679818318E+02  0.73718350090E+02  0.10566000000E+00 0.  1.
        994    1    1    2    0    0  0.41180897038E+02 -0.71217663281E+02  0.26796179899E+02  0.19182100276E+03  0.17120000000E+03 0.  0.
        998    1    1    2    0    0 -0.25845507060E+02  0.49256507894E+02  0.14045239981E+04  0.14056606471E+04  0.10000000000E+02 0.  1.
</event>
<event>
 5    1  0.1245771E-008  0.3735251E+03  0.7957747E-01  0.3479846E+00
         13   -1    0    0    0    0  0.00000000000E+00  0.00000000000E+00  0.14999999963E+04  0.15000000000E+04  0.10566000000E+00 0.  1.
        994   -1    0    0    0    0 -0.00000000000E+00 -0.00000000000E+00  0.11368683772E-12  0.17120000000E+03  0.17120000000E+03 0.  0.
         13    1    1    2    0    0  0.27724087789E+02 -0.96932389949E+01  0.27878912311E+02  0.40494800180E+02  0.10566000000E+00 0.  1.
        994    1    1    2    0    0 -0.27242024347E+02  0.11163999729E+02  0.15889194603E+02  0.17443815318E+03  0.17120000000E+03 0.  0.
        998    1    1    2    0    0 -0.48206344238E+00 -0.14707607338E+01  0.14562318894E+04  0.14562670466E+04  0.10000000000E+02 0.  1.
</event>
<event>
 5    1  0.1245771E-008  0.4063350E+03  0.7957747E-01  0.3343939E+00
         13   -1    0    0    0    0  0.00000000000E+00  0.00000000000E+00  0.14999999963E+04  0.15000000000E+04  0.10566000000E+00 0.  1.
        994   -1    0    0    0    0 -0.00000000000E+00 -0.00000000000E+00  0.11368683772E-12  0.17120000000E+03  0.17120000000E+03 0.  0.
         13    1    1    2    0    0 -0.62145197603E+02 -0.11292635019E+03  0.21518658576E+03  0.25083792379E+03  0.10566000000E+00 0.  1.
        994    1    1    2    0    0  0.18383535751E+02  0.13364727890E+03  0.10934639007E+03  0.24385574130E+03  0.17120000000E+03 0.  0.
        998    1    1    2    0    0  0.43761661852E+02 -0.20720928709E+02  0.11754670204E+04  0.11765063349E+04  0.10000000000E+02 0.  1.
</event>
<event>
 5    1  0.1245771E-008  0.3768115E+03  0.7957747E-01  0.3465161E+00
         13   -1    0    0    0    0  0.00000000000E+00  0.00000000000E+00  0.14999999963E+04  0.15000000000E+04  0.10566000000E+00 0. -1.
        994   -1    0    0    0    0 -0.00000000000E+00 -0.00000000000E+00  0.11368683772E-12  0.17120000000E+03  0.17120000000E+03 0.  0.
         13    1    1    2    0    0 -0.82153798746E+01 -0.33875101551E+02  0.99338357353E+02  0.10527647115E+03  0.10566000000E+00 0. -1.
        994    1    1    2    0    0  0.10011167735E+02  0.29103652526E+02  0.89583985512E+01  0.17417502397E+03  0.17120000000E+03 0.  0.
        998    1    1    2    0    0 -0.17957878603E+01  0.47714490247E+01  0.13917032404E+04  0.13917485049E+04  0.10000000000E+02 0. -1.
</event>
<event>
 5    1  0.1245771E-008  0.3957640E+03  0.7957747E-01  0.3385265E+00
         13   -1    0    0    0    0  0.00000000000E+00  0.00000000000E+00  0.14999999963E+04  0.15000000000E+04  0.10566000000E+00 0.  1.
        994   -1    0    0    0    0 -0.00000000000E+00 -0.00000000000E+00  0.11368683772E-12  0.17120000000E+03  0.17120000000E+03 0.  0.
         13    1    1    2    0    0 -0.45612794493E+01  0.24850364872E+02  0.18354524324E+01  0.25332310478E+02  0.10566000000E+00 0.  1.
        994    1    1    2    0    0  0.63320097161E+00 -0.18359344336E+02  0.26571348615E+02  0.17422096038E+03  0.17120000000E+03 0.  0.
        998    1    1    2    0    0  0.39280784776E+01 -0.64910205359E+01  0.14715931952E+04  0.14716467291E+04  0.10000000000E+02 0.  1.
</event>
<event>
 5    1  0.1245771E-008  0.2962927E+03  0.7957747E-01  0.3922846E+00
         13   -1    0    0    0    0  0.00000000000E+00  0.00000000000E+00  0.14999999963E+04  0.15000000000E+04  0.10566000000E+00 0.  1.
        994   -1    0    0    0    0 -0.00000000000E+00 -0.00000000000E+00  0.11368683772E-12  0.17120000000E+03  0.17120000000E+03 0.  0.
         13    1    1    2    0    0  0.10839152201E+03  0.14310143187E+03  0.78710850698E+03  0.80732060223E+03  0.10566000000E+00 0.  1.
        994    1    1    2    0    0 -0.54065097506E+02 -0.55072711910E+02  0.51987344413E+02  0.19485420792E+03  0.17120000000E+03 0.  0.
        998    1    1    2    0    0 -0.54326424508E+02 -0.88028719957E+02  0.66090414488E+03  0.66902518985E+03  0.10000000000E+02 0. -1.
</event>
<event>
 5    1  0.1245771E-008  0.3795362E+03  0.7957747E-01  0.3453181E+00
         13   -1    0    0    0    0  0.00000000000E+00  0.00000000000E+00  0.14999999963E+04  0.15000000000E+04  0.10566000000E+00 0.  1.
        994   -1    0    0    0    0 -0.00000000000E+00 -0.00000000000E+00  0.11368683772E-12  0.17120000000E+03  0.17120000000E+03 0.  0.
         13    1    1    2    0    0  0.42473603213E+02  0.16243366143E+02  0.22609313869E+03  0.23062084130E+03  0.10566000000E+00 0.  1.
        994    1    1    2    0    0 -0.34889541397E+02  0.27899992910E+01  0.84799507094E+01  0.17494688839E+03  0.17120000000E+03 0.  0.
        998    1    1    2    0    0 -0.75840618154E+01 -0.19033365434E+02  0.12654269069E+04  0.12656322703E+04  0.10000000000E+02 0.  1.
</event>
<event>
 5    1  0.1245771E-008  0.3699001E+03  0.7957747E-01  0.3496350E+00
         13   -1    0    0    0    0  0.00000000000E+00  0.00000000000E+00  0.14999999963E+04  0.15000000000E+04  0.10566000000E+00 0. -1.
        994   -1    0    0    0    0 -0.00000000000E+00 -0.00000000000E+00  0.11368683772E-12  0.17120000000E+03  0.17120000000E+03 0.  0.
         13    1    1    2    0    0  0.53215129221E+02 -0.46934022187E+02  0.26338669064E+03  0.27277685457E+03  0.10566000000E+00 0. -1.
        994    1    1    2    0    0 -0.41327026086E+01  0.64149138793E+02  0.23752844091E+02  0.18440669413E+03  0.17120000000E+03 0.  0.
        998    1    1    2    0    0 -0.49082426613E+02 -0.17215116606E+02  0.12128604615E+04  0.12140164513E+04  0.10000000000E+02 0. -1.
</event>
<event>
 5    1  0.1245771E-008  0.3855919E+03  0.7957747E-01  0.3427166E+00
         13   -1    0    0    0    0  0.00000000000E+00  0.00000000000E+00  0.14999999963E+04  0.15000000000E+04  0.10566000000E+00 0. -1.
        994   -1    0    0    0    0 -0.00000000000E+00 -0.00000000000E+00  0.11368683772E-12  0.17120000000E+03  0.17120000000E+03 0.  0.
         13    1    1    2    0    0 -0.12960550336E+02 -0.63783802706E+01  0.81743245884E+02  0.83009812743E+02  0.10566000000E+00 0. -1.
        994    1    1    2    0    0  0.81083676264E+01 -0.62831614123E+01  0.16820363871E+01  0.17151528500E+03  0.17120000000E+03 0.  0.
        998    1    1    2    0    0  0.48521827092E+01  0.12661541683E+02  0.14165747140E+04  0.14166749023E+04  0.10000000000E+02 0. -1.
</event>
<event>
 5    1  0.1245771E-008  0.3857394E+03  0.7957747E-01  0.3426542E+00
         13   -1    0    0    0    0  0.00000000000E+00  0.00000000000E+00  0.14999999963E+04  0.15000000000E+04  0.10566000000E+00 0. -1.
        994   -1    0    0    0    0 -0.00000000000E+00 -0.00000000000E+00  0.11368683772E-12  0.17120000000E+03  0.17120000000E+03 0.  0.
         13    1    1    2    0    0 -0.66030658634E+02  0.32834340895E+02  0.11545882301E+03  0.13699960874E+03  0.10566000000E+00 0. -1.
        994    1    1    2    0    0  0.89294622059E+02 -0.27300446576E+02  0.52560499410E+02  0.20196754692E+03  0.17120000000E+03 0.  0.
        998    1    1    2    0    0 -0.23263963425E+02 -0.55338943190E+01  0.13319806739E+04  0.13322328443E+04  0.10000000000E+02 0. -1.
</event>
<event>
 5    1  0.1245771E-008  0.2323536E+03  0.7957747E-01  0.4540557E+00
         13   -1    0    0    0    0  0.00000000000E+00  0.00000000000E+00  0.14999999963E+04  0.15000000000E+04  0.10566000000E+00 0. -1.
        994   -1    0    0    0    0 -0.00000000000E+00 -0.00000000000E+00  0.11368683772E-12  0.17120000000E+03  0.17120000000E+03 0.  0.
         13    1    1    2    0    0 -0.20923798764E+03  0.78535776619E+02  0.31671902319E+03  0.38763301523E+03  0.10566000000E+00 0. -1.
        994    1    1    2    0    0  0.70178071368E+02 -0.50331613508E+02  0.15797933426E+03  0.24844545291E+03  0.17120000000E+03 0.  0.
        998    1    1    2    0    0  0.13905991627E+03 -0.28204163111E+02  0.10253016388E+04  0.10351215319E+04  0.10000000000E+02 0.  1.
</event>
<event>
 5    1  0.1245771E-008  0.3849312E+03  0.7957747E-01  0.3429964E+00
         13   -1    0    0    0    0  0.00000000000E+00  0.00000000000E+00  0.14999999963E+04  0.15000000000E+04  0.10566000000E+00 0.  1.
        994   -1    0    0    0    0 -0.00000000000E+00 -0.00000000000E+00  0.11368683772E-12  0.17120000000E+03  0.17120000000E+03 0.  0.
         13    1    1    2    0    0  0.64526650935E+00 -0.11362684604E+02  0.37910415338E+02  0.39582037914E+02  0.10566000000E+00 0.  1.
        994    1    1    2    0    0  0.48896925211E+00  0.12213721380E+02  0.21559130392E+01  0.17164935783E+03  0.17120000000E+03 0.  0.
        998    1    1    2    0    0 -0.11342357615E+01 -0.85103677533E+00  0.14599336679E+04  0.14599686043E+04  0.10000000000E+02 0.  1.
</event>
<event>
 5    1  0.1245771E-008  0.3744269E+03  0.7957747E-01  0.3475790E+00
         13   -1    0    0    0    0  0.00000000000E+00  0.00000000000E+00  0.14999999963E+04  0.15000000000E+04  0.10566000000E+00 0. -1.
        994   -1    0    0    0    0 -0.00000000000E+00 -0.00000000000E+00  0.11368683772E-12  0.17120000000E+03  0.17120000000E+03 0.  0.
         13    1    1    2    0    0  0.22804364988E+02 -0.15484848692E+02  0.48845229396E+02  0.56086426168E+02  0.10566000000E+00 0. -1.
        994    1    1    2    0    0 -0.26352342164E+02  0.26707956491E+02  0.11782924161E+02  0.17565886877E+03  0.17120000000E+03 0.  0.
        998    1    1    2    0    0  0.35479771762E+01 -0.11223107799E+02  0.14393718427E+04  0.14394547051E+04  0.10000000000E+02 0. -1.
</event>
<event>
 5    1  0.1245771E-008  0.3860130E+03  0.7957747E-01  0.3425387E+00
         13   -1    0    0    0    0  0.00000000000E+00  0.00000000000E+00  0.14999999963E+04  0.15000000000E+04  0.10566000000E+00 0. -1.
        994   -1    0    0    0    0 -0.00000000000E+00 -0.00000000000E+00  0.11368683772E-12  0.17120000000E+03  0.17120000000E+03 0.  0.
         13    1    1    2    0    0 -0.13004216998E+02  0.10603826893E+02  0.88024800651E+02  0.89609862728E+02  0.10566000000E+00 0. -1.
        994    1    1    2    0    0  0.33643091578E+02 -0.45620738045E+02  0.11731870869E+02  0.18072129411E+03  0.17120000000E+03 0.  0.
        998    1    1    2    0    0 -0.20638874580E+02  0.35016911153E+02  0.14002433248E+04  0.14008688432E+04  0.10000000000E+02 0. -1.
</event>
<event>
 5    1  0.1245771E-008  0.3852285E+03  0.7957747E-01  0.3428704E+00
         13   -1    0    0    0    0  0.00000000000E+00  0.00000000000E+00  0.14999999963E+04  0.15000000000E+04  0.10566000000E+00 0.  1.
        994   -1    0    0    0    0 -0.00000000000E+00 -0.00000000000E+00  0.11368683772E-12  0.17120000000E+03  0.17120000000E+03 0.  0.
         13    1    1    2    0    0 -0.24502525914E+01 -0.11665777812E+02  0.46495584744E+02  0.47999423689E+02  0.10566000000E+00 0.  1.
        994    1    1    2    0    0 -0.46815006113E+01  0.10724392484E+02  0.19668205616E+01  0.17161071477E+03  0.17120000000E+03 0.  0.
        998    1    1    2    0    0  0.71317532028E+01  0.94138532763E+00  0.14515375910E+04  0.14515898615E+04  0.10000000000E+02 0.  1.
</event>
<event>
 5    1  0.1245771E-008  0.3821783E+03  0.7957747E-01  0.3441728E+00
         13   -1    0    0    0    0  0.00000000000E+00  0.00000000000E+00  0.14999999963E+04  0.15000000000E+04  0.10566000000E+00 0.  1.
        994   -1    0    0    0    0 -0.00000000000E+00 -0.00000000000E+00  0.11368683772E-12  0.17120000000E+03  0.17120000000E+03 0.  0.
         13    1    1    2    0    0 -0.14301888362E+02 -0.10736873119E+02  0.49882392903E+02  0.52991402518E+02  0.10566000000E+00 0.  1.
        994    1    1    2    0    0  0.30925589200E+02 -0.76575128735E+01  0.64138077569E+01  0.17425729971E+03  0.17120000000E+03 0.  0.
        998    1    1    2    0    0 -0.16623700838E+02  0.18394385992E+02  0.14437037956E+04  0.14439512978E+04  0.10000000000E+02 0.  1.
</event>
<event>
 5    1  0.1245771E-008  0.3797164E+03  0.7957747E-01  0.3452394E+00
         13   -1    0    0    0    0  0.00000000000E+00  0.00000000000E+00  0.14999999963E+04  0.15000000000E+04  0.10566000000E+00 0.  1.
        994   -1    0    0    0    0 -0.00000000000E+00 -0.00000000000E+00  0.11368683772E-12  0.17120000000E+03  0.17120000000E+03 0.  0.
         13    1    1    2    0    0  0.86366867838E+01 -0.11945315352E+02  0.23060598632E+02  0.27369422551E+02  0.10566000000E+00 0.  1.
        994    1    1    2    0    0 -0.11252581164E+02  0.15572938788E+02  0.55124832653E+01  0.17236288602E+03  0.17120000000E+03 0.  0.
        998    1    1    2    0    0  0.26158943803E+01 -0.36276234360E+01  0.14714269144E+04  0.14714676914E+04  0.10000000000E+02 0.  1.
</event>
<event>
 5    1  0.1245771E-008  0.3825550E+03  0.7957747E-01  0.3440108E+00
         13   -1    0    0    0    0  0.00000000000E+00  0.00000000000E+00  0.14999999963E+04  0.15000000000E+04  0.10566000000E+00 0. -1.
        994   -1    0    0    0    0 -0.00000000000E+00 -0.00000000000E+00  0.11368683772E-12  0.17120000000E+03  0.17120000000E+03 0.  0.
         13    1    1    2    0    0  0.50927492562E+01  0.92874215282E+01  0.18154955605E+02  0.21019178640E+02  0.10566000000E+00 0. -1.
        994    1    1    2    0    0 -0.61273796877E+01 -0.14214280965E+02  0.36435406557E+01  0.17193692435E+03  0.17120000000E+03 0.  0.
        998    1    1    2    0    0  0.10346304315E+01  0.49268594367E+01  0.14782015000E+04  0.14782438970E+04  0.10000000000E+02 0. -1.
</event>
<event>
 5    1  0.1245771E-008  0.3726951E+03  0.7957747E-01  0.3483596E+00
         13   -1    0    0    0    0  0.00000000000E+00  0.00000000000E+00  0.14999999963E+04  0.15000000000E+04  0.10566000000E+00 0.  1.
        994   -1    0    0    0    0 -0.00000000000E+00 -0.00000000000E+00  0.11368683772E-12  0.17120000000E+03  0.17120000000E+03 0.  0.
         13    1    1    2    0    0  0.24512699985E+02 -0.47753823321E+02  0.10742237637E+03  0.12008696104E+03  0.10566000000E+00 0.  1.
        994    1    1    2    0    0 -0.21405852414E+02  0.41547537854E+02  0.20120594425E+02  0.17860203453E+03  0.17120000000E+03 0.  0.
        998    1    1    2    0    0 -0.31068475707E+01  0.62062854663E+01  0.13724570255E+04  0.13725110044E+04  0.10000000000E+02 0.  1.
</event>
<event>
 5    1  0.1245771E-008  0.3823336E+03  0.7957747E-01  0.3441060E+00
         13   -1    0    0    0    0  0.00000000000E+00  0.00000000000E+00  0.14999999963E+04  0.15000000000E+04  0.10566000000E+00 0. -1.
        994   -1    0    0    0    0 -0.00000000000E+00 -0.00000000000E+00  0.11368683772E-12  0.17120000000E+03  0.17120000000E+03 0.  0.
         13    1    1    2    0    0  0.87958769419E+01  0.89191824166E+01  0.25038551687E+02  0.27997490973E+02  0.10566000000E+00 0. -1.
        994    1    1    2    0    0 -0.70159441740E+01 -0.11563921205E+02  0.35668866728E+01  0.17177051676E+03  0.17120000000E+03 0.  0.
        998    1    1    2    0    0 -0.17799327679E+01  0.26447387886E+01  0.14713945579E+04  0.14714319923E+04  0.10000000000E+02 0. -1.
</event>
<event>
 5    1  0.1245771E-008  0.3745616E+03  0.7957747E-01  0.3475186E+00
         13   -1    0    0    0    0  0.00000000000E+00  0.00000000000E+00  0.14999999963E+04  0.15000000000E+04  0.10566000000E+00 0. -1.
        994   -1    0    0    0    0 -0.00000000000E+00 -0.00000000000E+00  0.11368683772E-12  0.17120000000E+03  0.17120000000E+03 0.  0.
         13    1    1    2    0    0 -0.98523750080E+02  0.12742511307E+03  0.94526295770E+03  0.95888798049E+03  0.10566000000E+00 0. -1.
        994    1    1    2    0    0  0.10856922395E+03 -0.98973706754E+02  0.84342467720E+02  0.24084468622E+03  0.17120000000E+03 0.  0.
        998    1    1    2    0    0 -0.10045473871E+02 -0.28451406313E+02  0.47039457086E+03  0.47146733329E+03  0.10000000000E+02 0.  1.
</event>
<event>
 5    1  0.1245771E-008  0.3802389E+03  0.7957747E-01  0.3450119E+00
         13   -1    0    0    0    0  0.00000000000E+00  0.00000000000E+00  0.14999999963E+04  0.15000000000E+04  0.10566000000E+00 0.  1.
        994   -1    0    0    0    0 -0.00000000000E+00 -0.00000000000E+00  0.11368683772E-12  0.17120000000E+03  0.17120000000E+03 0.  0.
         13    1    1    2    0    0 -0.14280682291E+02  0.88908206607E+00  0.23594418176E+02  0.27594131381E+02  0.10566000000E+00 0.  1.
        994    1    1    2    0    0  0.14291713788E+02  0.25935306159E+01  0.47176330583E+01  0.17187982879E+03  0.17120000000E+03 0.  0.
        998    1    1    2    0    0 -0.11031497498E-01 -0.34826126819E+01  0.14716879450E+04  0.14717260398E+04  0.10000000000E+02 0.  1.
</event>
<event>
 5    1  0.1245771E-008  0.3773712E+03  0.7957747E-01  0.3462685E+00
         13   -1    0    0    0    0  0.00000000000E+00  0.00000000000E+00  0.14999999963E+04  0.15000000000E+04  0.10566000000E+00 0.  1.
        994   -1    0    0    0    0 -0.00000000000E+00 -0.00000000000E+00  0.11368683772E-12  0.17120000000E+03  0.17120000000E+03 0.  0.
         13    1    1    2    0    0 -0.20826355921E+02 -0.54687005337E+02  0.27498893061E+03  0.28114645432E+03  0.10566000000E+00 0.  1.
        994    1    1    2    0    0  0.30583019932E+02  0.41690964750E+02  0.14535243445E+02  0.17942734171E+03  0.17120000000E+03 0.  0.
        998    1    1    2    0    0 -0.97566640108E+01  0.12996040588E+02  0.12104758222E+04  0.12106262040E+04  0.10000000000E+02 0.  1.
</event>
<event>
 5    1  0.1245771E-008  0.3779690E+03  0.7957747E-01  0.3460050E+00
         13   -1    0    0    0    0  0.00000000000E+00  0.00000000000E+00  0.14999999963E+04  0.15000000000E+04  0.10566000000E+00 0.  1.
        994   -1    0    0    0    0 -0.00000000000E+00 -0.00000000000E+00  0.11368683772E-12  0.17120000000E+03  0.17120000000E+03 0.  0.
         13    1    1    2    0    0 -0.14613784589E+02 -0.36508900805E+02  0.14904258958E+03  0.15414333333E+03  0.10566000000E+00 0.  1.
        994    1    1    2    0    0  0.41435203910E+02  0.83433610896E+01  0.11198029284E+02  0.17669556774E+03  0.17120000000E+03 0.  0.
        998    1    1    2    0    0 -0.26821419321E+02  0.28165539716E+02  0.13397593774E+04  0.13403610989E+04  0.10000000000E+02 0.  1.
</event>
<event>
 5    1  0.1245771E-008  0.3838447E+03  0.7957747E-01  0.3434587E+00
         13   -1    0    0    0    0  0.00000000000E+00  0.00000000000E+00  0.14999999963E+04  0.15000000000E+04  0.10566000000E+00 0.  1.
        994   -1    0    0    0    0 -0.00000000000E+00 -0.00000000000E+00  0.11368683772E-12  0.17120000000E+03  0.17120000000E+03 0.  0.
         13    1    1    2    0    0  0.14007762106E+02 -0.12914810131E+01  0.43258343017E+02  0.45488248230E+02  0.10566000000E+00 0.  1.
        994    1    1    2    0    0 -0.15166220998E+02 -0.34187055395E+01  0.30030715711E+01  0.17193068442E+03  0.17120000000E+03 0.  0.
        998    1    1    2    0    0  0.11584588916E+01  0.47101865526E+01  0.14537385817E+04  0.14537810673E+04  0.10000000000E+02 0.  1.
</event>
<event>
 5    1  0.1245771E-008  0.3852002E+03  0.7957747E-01  0.3428824E+00
         13   -1    0    0    0    0  0.00000000000E+00  0.00000000000E+00  0.14999999963E+04  0.15000000000E+04  0.10566000000E+00 0.  1.
        994   -1    0    0    0    0 -0.00000000000E+00 -0.00000000000E+00  0.11368683772E-12  0.17120000000E+03  0.17120000000E+03 0.  0.
         13    1    1    2    0    0  0.75471548872E+01 -0.11937286996E+02  0.64127992131E+02  0.65664822443E+02  0.10566000000E+00 0.  1.
        994    1    1    2    0    0 -0.18019672246E+01  0.13207292668E+02  0.21149362441E+01  0.17173116380E+03  0.17120000000E+03 0.  0.
        998    1    1    2    0    0 -0.57451876626E+01 -0.12700056718E+01  0.14337570679E+04  0.14338040138E+04  0.10000000000E+02 0.  1.
</event>
<event>
 5    1  0.1245771E-008  0.3760614E+03  0.7957747E-01  0.3468490E+00
         13   -1    0    0    0    0  0.00000000000E+00  0.00000000000E+00  0.14999999963E+04  0.15000000000E+04  0.10566000000E+00 0.  1.
        994   -1    0    0    0    0 -0.00000000000E+00 -0.00000000000E+00  0.11368683772E-12  0.17120000000E+03  0.17120000000E+03 0.  0.
         13    1    1    2    0    0 -0.14279505663E+01 -0.20679091914E+02  0.33901748049E+02  0.39736677894E+02  0.10566000000E+00 0.  1.
        994    1    1    2    0    0  0.52893771594E+01 -0.97559659753E+00  0.62327040637E+01  0.17139782933E+03  0.17120000000E+03 0.  0.
        998    1    1    2    0    0 -0.38614265931E+01  0.21654688512E+02  0.14598655442E+04  0.14600654928E+04  0.10000000000E+02 0.  1.
</event>
<event>
 5    1  0.1245771E-008  0.3777897E+03  0.7957747E-01  0.3460840E+00
         13   -1    0    0    0    0  0.00000000000E+00  0.00000000000E+00  0.14999999963E+04  0.15000000000E+04  0.10566000000E+00 0.  1.
        994   -1    0    0    0    0 -0.00000000000E+00 -0.00000000000E+00  0.11368683772E-12  0.17120000000E+03  0.17120000000E+03 0.  0.
         13    1    1    2    0    0 -0.62823069837E+02  0.10480689603E+02  0.34148930462E+03  0.34737809270E+03  0.10566000000E+00 0.  1.
        994    1    1    2    0    0  0.51643942537E+02  0.64697715873E+01  0.14430426308E+02  0.17951777614E+03  0.17120000000E+03 0.  0.
        998    1    1    2    0    0  0.11179127300E+02 -0.16950461191E+02  0.11440802654E+04  0.11443041312E+04  0.10000000000E+02 0.  1.
</event>
<event>
 5    1  0.1245771E-008  0.3794652E+03  0.7957747E-01  0.3453490E+00
         13   -1    0    0    0    0  0.00000000000E+00  0.00000000000E+00  0.14999999963E+04  0.15000000000E+04  0.10566000000E+00 0. -1.
        994   -1    0    0    0    0 -0.00000000000E+00 -0.00000000000E+00  0.11368683772E-12  0.17120000000E+03  0.17120000000E+03 0.  0.
         13    1    1    2    0    0  0.13541877918E+02 -0.16100309400E+02  0.48790750740E+02  0.53133331743E+02  0.10566000000E+00 0. -1.
        994    1    1    2    0    0 -0.94521450201E+01  0.85654673757E+01  0.49484083051E+01  0.17174585009E+03  0.17120000000E+03 0.  0.
        998    1    1    2    0    0 -0.40897328984E+01  0.75348420247E+01  0.14462608372E+04  0.14463208182E+04  0.10000000000E+02 0. -1.
</event>
<event>
 5    1  0.1245771E-008  0.3828107E+03  0.7957747E-01  0.3439010E+00
         13   -1    0    0    0    0  0.00000000000E+00  0.00000000000E+00  0.14999999963E+04  0.15000000000E+04  0.10566000000E+00 0. -1.
        994   -1    0    0    0    0 -0.00000000000E+00 -0.00000000000E+00  0.11368683772E-12  0.17120000000E+03  0.17120000000E+03 0.  0.
         13    1    1    2    0    0  0.26508502662E+02 -0.66819060353E+01  0.13935483657E+03  0.14201102148E+03  0.10566000000E+00 0. -1.
        994    1    1    2    0    0 -0.17146078022E+02 -0.10949622696E+02  0.40930259539E+01  0.17245310983E+03  0.17120000000E+03 0.  0.
        998    1    1    2    0    0 -0.93624246400E+01  0.17631528731E+02  0.13565521338E+04  0.13567358687E+04  0.10000000000E+02 0. -1.
</event>
<event>
 5    1  0.1245771E-008  0.3734473E+03  0.7957747E-01  0.3480196E+00
         13   -1    0    0    0    0  0.00000000000E+00  0.00000000000E+00  0.14999999963E+04  0.15000000000E+04  0.10566000000E+00 0.  1.
        994   -1    0    0    0    0 -0.00000000000E+00 -0.00000000000E+00  0.11368683772E-12  0.17120000000E+03  0.17120000000E+03 0.  0.
         13    1    1    2    0    0  0.68808309922E+02 -0.16635533372E+00  0.34680434450E+03  0.35356452837E+03  0.10566000000E+00 0.  1.
        994    1    1    2    0    0 -0.27004179466E+02  0.64201420683E+01  0.10115417280E+02  0.17373026679E+03  0.17120000000E+03 0.  0.
        998    1    1    2    0    0 -0.41804130455E+02 -0.62537867346E+01  0.11430802345E+04  0.11439052048E+04  0.10000000000E+02 0.  1.
</event>
<event>
 5    1  0.1245771E-008  0.3742250E+03  0.7957747E-01  0.3476696E+00
         13   -1    0    0    0    0  0.00000000000E+00  0.00000000000E+00  0.14999999963E+04  0.15000000000E+04  0.10566000000E+00 0. -1.
        994   -1    0    0    0    0 -0.00000000000E+00 -0.00000000000E+00  0.11368683772E-12  0.17120000000E+03  0.17120000000E+03 0.  0.
         13    1    1    2    0    0  0.16573409496E+02 -0.54807424280E+02  0.22119421770E+03  0.22848506464E+03  0.10566000000E+00 0. -1.
        994    1    1    2    0    0  0.75653751325E+01  0.43412129156E+02  0.13724213594E+02  0.17731227227E+03  0.17120000000E+03 0.  0.
        998    1    1    2    0    0 -0.24138784629E+02  0.11395295124E+02  0.12650815650E+04  0.12654026631E+04  0.10000000000E+02 0. -1.
</event>
<event>
 5    1  0.1245771E-008  0.3765759E+03  0.7957747E-01  0.3466205E+00
         13   -1    0    0    0    0  0.00000000000E+00  0.00000000000E+00  0.14999999963E+04  0.15000000000E+04  0.10566000000E+00 0. -1.
        994   -1    0    0    0    0 -0.00000000000E+00 -0.00000000000E+00  0.11368683772E-12  0.17120000000E+03  0.17120000000E+03 0.  0.
         13    1    1    2    0    0 -0.48635677624E+01  0.11437525470E+02  0.10426947873E+02  0.16223553440E+02  0.10566000000E+00 0. -1.
        994    1    1    2    0    0 -0.12726410046E+01 -0.14713624199E+02  0.66095229579E+01  0.17196289177E+03  0.17120000000E+03 0.  0.
        998    1    1    2    0    0  0.61362087670E+01  0.32760987287E+01  0.14829635254E+04  0.14830135548E+04  0.10000000000E+02 0. -1.
</event>
<event>
 5    1  0.1245771E-008  0.3827304E+03  0.7957747E-01  0.3439355E+00
         13   -1    0    0    0    0  0.00000000000E+00  0.00000000000E+00  0.14999999963E+04  0.15000000000E+04  0.10566000000E+00 0.  1.
        994   -1    0    0    0    0 -0.00000000000E+00 -0.00000000000E+00  0.11368683772E-12  0.17120000000E+03  0.17120000000E+03 0.  0.
         13    1    1    2    0    0 -0.10761768196E+02 -0.56726105068E+01  0.26554253044E+02  0.29208452261E+02  0.10566000000E+00 0.  1.
        994    1    1    2    0    0  0.73280574693E+01 -0.13956681066E+02  0.35848502149E+01  0.17196156700E+03  0.17120000000E+03 0.  0.
        998    1    1    2    0    0  0.34337107271E+01  0.19629291573E+02  0.14698608930E+04  0.14700299807E+04  0.10000000000E+02 0.  1.
</event>
<event>
 5    1  0.1245771E-008  0.3813140E+03  0.7957747E-01  0.3445457E+00
         13   -1    0    0    0    0  0.00000000000E+00  0.00000000000E+00  0.14999999963E+04  0.15000000000E+04  0.10566000000E+00 0.  1.
        994   -1    0    0    0    0 -0.00000000000E+00 -0.00000000000E+00  0.11368683772E-12  0.17120000000E+03  0.17120000000E+03 0.  0.
         13    1    1    2    0    0 -0.55309971442E+01  0.19128240810E+02  0.53789815060E+02  0.57357099771E+02  0.10566000000E+00 0.  1.
        994    1    1    2    0    0  0.15335607879E+02 -0.18667707719E+02  0.54164622025E+01  0.17298104591E+03  0.17120000000E+03 0.  0.
        998    1    1    2    0    0 -0.98046107348E+01 -0.46053309085E+00  0.14407937190E+04  0.14408618543E+04  0.10000000000E+02 0.  1.
</event>
<event>
 5    1  0.1245771E-008  0.3842757E+03  0.7957747E-01  0.3432750E+00
         13   -1    0    0    0    0  0.00000000000E+00  0.00000000000E+00  0.14999999963E+04  0.15000000000E+04  0.10566000000E+00 0.  1.
        994   -1    0    0    0    0 -0.00000000000E+00 -0.00000000000E+00  0.11368683772E-12  0.17120000000E+03  0.17120000000E+03 0.  0.
         13    1    1    2    0    0  0.31977101620E+01  0.22587919905E+02  0.11862507279E+03  0.12079883498E+03  0.10566000000E+00 0.  1.
        994    1    1    2    0    0  0.39228257023E+01 -0.27344458276E+02  0.45097102565E+01  0.17347301071E+03  0.17120000000E+03 0.  0.
        998    1    1    2    0    0 -0.71205358644E+01  0.47565383709E+01  0.13768652132E+04  0.13769281543E+04  0.10000000000E+02 0.  1.
</event>
<event>
 5    1  0.1245771E-008  0.3835660E+03  0.7957747E-01  0.3435777E+00
         13   -1    0    0    0    0  0.00000000000E+00  0.00000000000E+00  0.14999999963E+04  0.15000000000E+04  0.10566000000E+00 0. -1.
        994   -1    0    0    0    0 -0.00000000000E+00 -0.00000000000E+00  0.11368683772E-12  0.17120000000E+03  0.17120000000E+03 0.  0.
         13    1    1    2    0    0  0.13466140539E+02 -0.17291050114E+02  0.10510335264E+03  0.10736406873E+03  0.10566000000E+00 0. -1.
        994    1    1    2    0    0 -0.18795598320E+02 -0.26533891132E+01  0.35351697933E+01  0.17228538074E+03  0.17120000000E+03 0.  0.
        998    1    1    2    0    0  0.53294577806E+01  0.19944439227E+02  0.13913614738E+04  0.13915505505E+04  0.10000000000E+02 0. -1.
</event>
<event>
 5    1  0.1245771E-008  0.3703009E+03  0.7957747E-01  0.3494509E+00
         13   -1    0    0    0    0  0.00000000000E+00  0.00000000000E+00  0.14999999963E+04  0.15000000000E+04  0.10566000000E+00 0. -1.
        994   -1    0    0    0    0 -0.00000000000E+00 -0.00000000000E+00  0.11368683772E-12  0.17120000000E+03  0.17120000000E+03 0.  0.
         13    1    1    2    0    0  0.56440441659E+00 -0.30297831452E+02  0.45460963463E+02  0.54635039179E+02  0.10566000000E+00 0. -1.
        994    1    1    2    0    0 -0.32385349814E+01  0.30874926731E+02  0.12447978226E+02  0.17443663999E+03  0.17120000000E+03 0.  0.
        998    1    1    2    0    0  0.26741305648E+01 -0.57709527911E+00  0.14420910546E+04  0.14421283208E+04  0.10000000000E+02 0.  0.
</event>
<event>
 5    1  0.1245771E-008  0.3789707E+03  0.7957747E-01  0.3455653E+00
         13   -1    0    0    0    0  0.00000000000E+00  0.00000000000E+00  0.14999999963E+04  0.15000000000E+04  0.10566000000E+00 0.  1.
        994   -1    0    0    0    0 -0.00000000000E+00 -0.00000000000E+00  0.11368683772E-12  0.17120000000E+03  0.17120000000E+03 0.  0.
         13    1    1    2    0    0  0.32089176420E+02  0.29225054905E+02  0.21634116264E+03  0.22065205391E+03  0.10566000000E+00 0.  1.
        994    1    1    2    0    0  0.68600326953E-01 -0.22881900998E+02  0.64118953272E+01  0.17284136803E+03  0.17120000000E+03 0.  0.
        998    1    1    2    0    0 -0.32157776747E+02 -0.63431539069E+01  0.12772469383E+04  0.12777065781E+04  0.10000000000E+02 0.  1.
</event>
<event>
 5    1  0.1245771E-008  0.3716477E+03  0.7957747E-01  0.3488352E+00
         13   -1    0    0    0    0  0.00000000000E+00  0.00000000000E+00  0.14999999963E+04  0.15000000000E+04  0.10566000000E+00 0.  1.
        994   -1    0    0    0    0 -0.00000000000E+00 -0.00000000000E+00  0.11368683772E-12  0.17120000000E+03  0.17120000000E+03 0.  0.
         13    1    1    2    0    0 -0.83211247899E+01 -0.16585297935E+02  0.16809583352E+02  0.25037701209E+02  0.10566000000E+00 0.  1.
        994    1    1    2    0    0  0.57313505349E+01  0.12450521168E+02  0.90565126667E+01  0.17198640725E+03  0.17120000000E+03 0.  0.
        998    1    1    2    0    0  0.25897742550E+01  0.41347767673E+01  0.14741339003E+04  0.14741758915E+04  0.10000000000E+02 0.  1.
</event>
<event>
 5    1  0.1245771E-008  0.3860940E+03  0.7957747E-01  0.3425046E+00
         13   -1    0    0    0    0  0.00000000000E+00  0.00000000000E+00  0.14999999963E+04  0.15000000000E+04  0.10566000000E+00 0. -1.
        994   -1    0    0    0    0 -0.00000000000E+00 -0.00000000000E+00  0.11368683772E-12  0.17120000000E+03  0.17120000000E+03 0.  0.
         13    1    1    2    0    0  0.15626693718E+01  0.12141538329E+02  0.66926745310E+02  0.68037190495E+02  0.10566000000E+00 0. -1.
        994    1    1    2    0    0 -0.38037745367E+01 -0.13158214852E+02  0.17029754428E+01  0.17175548738E+03  0.17120000000E+03 0.  0.
        998    1    1    2    0    0  0.22411051649E+01  0.10166765230E+01  0.14313702755E+04  0.14314073221E+04  0.10000000000E+02 0. -1.
</event>
<event>
 5    1  0.1245771E-008  0.3730925E+03  0.7957747E-01  0.3481798E+00
         13   -1    0    0    0    0  0.00000000000E+00  0.00000000000E+00  0.14999999963E+04  0.15000000000E+04  0.10566000000E+00 0. -1.
        994   -1    0    0    0    0 -0.00000000000E+00 -0.00000000000E+00  0.11368683772E-12  0.17120000000E+03  0.17120000000E+03 0.  0.
         13    1    1    2    0    0  0.31211707900E+02  0.50038798517E+02  0.19782168490E+03  0.20642548837E+03  0.10566000000E+00 0. -1.
        994    1    1    2    0    0 -0.35581210369E+02 -0.45216072451E+02  0.19073578703E+02  0.18161430875E+03  0.17120000000E+03 0.  0.
        998    1    1    2    0    0  0.43695024683E+01 -0.48227260655E+01  0.12831047327E+04  0.12831602029E+04  0.10000000000E+02 0. -1.
</event>
<event>
 5    1  0.1245771E-008  0.3843973E+03  0.7957747E-01  0.3432232E+00
         13   -1    0    0    0    0  0.00000000000E+00  0.00000000000E+00  0.14999999963E+04  0.15000000000E+04  0.10566000000E+00 0. -1.
        994   -1    0    0    0    0 -0.00000000000E+00 -0.00000000000E+00  0.11368683772E-12  0.17120000000E+03  0.17120000000E+03 0.  0.
         13    1    1    2    0    0 -0.87590573242E+01 -0.77810785050E+01  0.37398151165E+02  0.39190549148E+02  0.10566000000E+00 0. -1.
        994    1    1    2    0    0 -0.77545039346E+01  0.30070162414E+00  0.21281456078E+01  0.17138900711E+03  0.17120000000E+03 0.  0.
        998    1    1    2    0    0  0.16513561259E+02  0.74803768808E+01  0.14604736995E+04  0.14606204437E+04  0.10000000000E+02 0. -1.
</event>
<event>
 5    1  0.1245771E-008  0.3807570E+03  0.7957747E-01  0.3447869E+00
         13   -1    0    0    0    0  0.00000000000E+00  0.00000000000E+00  0.14999999963E+04  0.15000000000E+04  0.10566000000E+00 0.  1.
        994   -1    0    0    0    0 -0.00000000000E+00 -0.00000000000E+00  0.11368683772E-12  0.17120000000E+03  0.17120000000E+03 0.  0.
         13    1    1    2    0    0  0.38551222356E+01  0.10177235303E+02  0.14236320659E+02  0.17919879347E+02  0.10566000000E+00 0.  1.
        994    1    1    2    0    0 -0.19469069927E+01 -0.60580788096E+01  0.38865435169E+01  0.17136229453E+03  0.17120000000E+03 0.  0.
        998    1    1    2    0    0 -0.19082152429E+01 -0.41191564934E+01  0.14818771321E+04  0.14819178261E+04  0.10000000000E+02 0.  1.
</event>
<event>
 5    1  0.1245771E-008  0.3888246E+03  0.7957747E-01  0.3413612E+00
         13   -1    0    0    0    0  0.00000000000E+00  0.00000000000E+00  0.14999999963E+04  0.15000000000E+04  0.10566000000E+00 0. -1.
        994   -1    0    0    0    0 -0.00000000000E+00 -0.00000000000E+00  0.11368683772E-12  0.17120000000E+03  0.17120000000E+03 0.  0.
         13    1    1    2    0    0  0.71173644068E+02  0.61984193851E+02  0.17787949918E+03  0.20136746334E+03  0.10566000000E+00 0. -1.
        994    1    1    2    0    0 -0.77178593363E+02 -0.56631045539E+02  0.56463816454E+02  0.20411078649E+03  0.17120000000E+03 0.  0.
        998    1    1    2    0    0  0.60049492945E+01 -0.53531483118E+01  0.12656566806E+04  0.12657217502E+04  0.10000000000E+02 0. -1.
</event>
<event>
 5    1  0.1245771E-008  0.4181605E+03  0.7957747E-01  0.3300160E+00
         13   -1    0    0    0    0  0.00000000000E+00  0.00000000000E+00  0.14999999963E+04  0.15000000000E+04  0.10566000000E+00 0. -1.
        994   -1    0    0    0    0 -0.00000000000E+00 -0.00000000000E+00  0.11368683772E-12  0.17120000000E+03  0.17120000000E+03 0.  0.
         13    1    1    2    0    0  0.71184811246E+01  0.94595335093E+02  0.11068094807E+03  0.14577116870E+03  0.10566000000E+00 0. -1.
        994    1    1    2    0    0 -0.11751161421E+03 -0.30648326317E+02  0.10490308367E+03  0.23465377973E+03  0.17120000000E+03 0.  0.
        998    1    1    2    0    0  0.11039313309E+03 -0.63947008776E+02  0.12844159645E+04  0.12907750516E+04  0.10000000000E+02 0. -1.
</event>
<event>
 5    1  0.1245771E-008  0.3749590E+03  0.7957747E-01  0.3473406E+00
         13   -1    0    0    0    0  0.00000000000E+00  0.00000000000E+00  0.14999999963E+04  0.15000000000E+04  0.10566000000E+00 0.  1.
        994   -1    0    0    0    0 -0.00000000000E+00 -0.00000000000E+00  0.11368683772E-12  0.17120000000E+03  0.17120000000E+03 0.  0.
         13    1    1    2    0    0 -0.76660683174E+01 -0.19087930410E+02  0.30504891764E+02  0.36792353503E+02  0.10566000000E+00 0.  1.
        994    1    1    2    0    0 -0.11312095072E+02 -0.33737843607E+01  0.71736319812E+01  0.17175635916E+03  0.17120000000E+03 0.  0.
        998    1    1    2    0    0  0.18978163389E+02  0.22461714770E+02  0.14623214725E+04  0.14626512873E+04  0.10000000000E+02 0.  1.
</event>
<event>
 5    1  0.1245771E-008  0.3761659E+03  0.7957747E-01  0.3468025E+00
         13   -1    0    0    0    0  0.00000000000E+00  0.00000000000E+00  0.14999999963E+04  0.15000000000E+04  0.10566000000E+00 0.  1.
        994   -1    0    0    0    0 -0.00000000000E+00 -0.00000000000E+00  0.11368683772E-12  0.17120000000E+03  0.17120000000E+03 0.  0.
         13    1    1    2    0    0  0.43502227075E+02 -0.37332344688E+01  0.58433283597E+02  0.72944092262E+02  0.10566000000E+00 0.  1.
        994    1    1    2    0    0 -0.49879564854E+02  0.11150968769E+01  0.23185568776E+02  0.17982276005E+03  0.17120000000E+03 0.  0.
        998    1    1    2    0    0  0.63773377799E+01  0.26181375919E+01  0.14183811439E+04  0.14184331477E+04  0.10000000000E+02 0.  1.
</event>
<event>
 5    1  0.1245771E-008  0.3810210E+03  0.7957747E-01  0.3446725E+00
         13   -1    0    0    0    0  0.00000000000E+00  0.00000000000E+00  0.14999999963E+04  0.15000000000E+04  0.10566000000E+00 0. -1.
        994   -1    0    0    0    0 -0.00000000000E+00 -0.00000000000E+00  0.11368683772E-12  0.17120000000E+03  0.17120000000E+03 0.  0.
         13    1    1    2    0    0  0.40462746287E+02 -0.20700358189E+01  0.22097554559E+03  0.22465912356E+03  0.10566000000E+00 0. -1.
        994    1    1    2    0    0 -0.25486271565E+02  0.85472696565E+01  0.60298561909E+01  0.17340243661E+03  0.17120000000E+03 0.  0.
        998    1    1    2    0    0 -0.14976474723E+02 -0.64772338376E+01  0.12729945945E+04  0.12731384398E+04  0.10000000000E+02 0. -1.
</event>
<event>
 5    1  0.1245771E-008  0.3854455E+03  0.7957747E-01  0.3427785E+00
         13   -1    0    0    0    0  0.00000000000E+00  0.00000000000E+00  0.14999999963E+04  0.15000000000E+04  0.10566000000E+00 0.  1.
        994   -1    0    0    0    0 -0.00000000000E+00 -0.00000000000E+00  0.11368683772E-12  0.17120000000E+03  0.17120000000E+03 0.  0.
         13    1    1    2    0    0  0.12253450433E+02  0.93673140353E+01  0.84751098222E+02  0.86143214670E+02  0.10566000000E+00 0.  1.
        994    1    1    2    0    0 -0.11318513544E+01 -0.15492668253E+02  0.22019374977E+01  0.17191739989E+03  0.17120000000E+03 0.  0.
        998    1    1    2    0    0 -0.11121599079E+02  0.61253542182E+01  0.14130469606E+04  0.14131393854E+04  0.10000000000E+02 0.  1.
</event>
<event>
 5    1  0.1245771E-008  0.3847714E+03  0.7957747E-01  0.3430642E+00
         13   -1    0    0    0    0  0.00000000000E+00  0.00000000000E+00  0.14999999963E+04  0.15000000000E+04  0.10566000000E+00 0. -1.
        994   -1    0    0    0    0 -0.00000000000E+00 -0.00000000000E+00  0.11368683772E-12  0.17120000000E+03  0.17120000000E+03 0.  0.
         13    1    1    2    0    0  0.11934960137E+02  0.88782632482E+01  0.63873134261E+02  0.65582431155E+02  0.10566000000E+00 0. -1.
        994    1    1    2    0    0 -0.21310605744E+01 -0.11358238583E+02  0.21833097583E+01  0.17160349019E+03  0.17120000000E+03 0.  0.
        998    1    1    2    0    0 -0.98038995627E+01  0.24799753350E+01  0.14339435523E+04  0.14340140787E+04  0.10000000000E+02 0. -1.
</event>
<event>
 5    1  0.1245771E-008  0.3744269E+03  0.7957747E-01  0.3475790E+00
         13   -1    0    0    0    0  0.00000000000E+00  0.00000000000E+00  0.14999999963E+04  0.15000000000E+04  0.10566000000E+00 0. -1.
        994   -1    0    0    0    0 -0.00000000000E+00 -0.00000000000E+00  0.11368683772E-12  0.17120000000E+03  0.17120000000E+03 0.  0.
         13    1    1    2    0    0 -0.32406785548E+02 -0.68164728926E+02  0.45289711723E+03  0.45914315848E+03  0.10566000000E+00 0. -1.
        994    1    1    2    0    0  0.58146801464E+02  0.13247742122E+02  0.19184332360E+02  0.18230203455E+03  0.17120000000E+03 0.  0.
        998    1    1    2    0    0 -0.25740015916E+02  0.54916986804E+02  0.10279185467E+04  0.10297548070E+04  0.10000000000E+02 0. -1.
</event>
<event>
 5    1  0.1245771E-008  0.3714295E+03  0.7957747E-01  0.3489347E+00
         13   -1    0    0    0    0  0.00000000000E+00  0.00000000000E+00  0.14999999963E+04  0.15000000000E+04  0.10566000000E+00 0.  1.
        994   -1    0    0    0    0 -0.00000000000E+00 -0.00000000000E+00  0.11368683772E-12  0.17120000000E+03  0.17120000000E+03 0.  0.
         13    1    1    2    0    0 -0.20660487208E+02 -0.72582112461E+02  0.30010918319E+03  0.30945201855E+03  0.10566000000E+00 0.  1.
        994    1    1    2    0    0  0.21839623689E+02  0.21983730319E+01  0.13391352269E+02  0.17312010375E+03  0.17120000000E+03 0.  0.
        998    1    1    2    0    0 -0.11791364813E+01  0.70383739429E+02  0.11864994608E+04  0.11886278777E+04  0.10000000000E+02 0.  1.
</event>
<event>
 5    1  0.1245771E-008  0.3846084E+03  0.7957747E-01  0.3431335E+00
         13   -1    0    0    0    0  0.00000000000E+00  0.00000000000E+00  0.14999999963E+04  0.15000000000E+04  0.10566000000E+00 0. -1.
        994   -1    0    0    0    0 -0.00000000000E+00 -0.00000000000E+00  0.11368683772E-12  0.17120000000E+03  0.17120000000E+03 0.  0.
         13    1    1    2    0    0 -0.10824479442E+02 -0.12599293758E+02  0.79819272119E+02  0.81529374609E+02  0.10566000000E+00 0. -1.
        994    1    1    2    0    0  0.10795280768E+02 -0.58967666318E+01  0.23230570655E+01  0.17165706084E+03  0.17120000000E+03 0.  0.
        998    1    1    2    0    0  0.29198673689E-01  0.18496060390E+02  0.14178576671E+04  0.14180135645E+04  0.10000000000E+02 0. -1.
</event>
<event>
 5    1  0.1245771E-008  0.3817360E+03  0.7957747E-01  0.3443634E+00
         13   -1    0    0    0    0  0.00000000000E+00  0.00000000000E+00  0.14999999963E+04  0.15000000000E+04  0.10566000000E+00 0.  1.
        994   -1    0    0    0    0 -0.00000000000E+00 -0.00000000000E+00  0.11368683772E-12  0.17120000000E+03  0.17120000000E+03 0.  0.
         13    1    1    2    0    0  0.71728897058E+01  0.10277520675E+02  0.22282074994E+02  0.25565206982E+02  0.10566000000E+00 0.  1.
        994    1    1    2    0    0 -0.96030290249E+01 -0.13604155072E+02  0.41815783973E+01  0.17205875973E+03  0.17120000000E+03 0.  0.
        998    1    1    2    0    0  0.24301393191E+01  0.33266343972E+01  0.14735363429E+04  0.14735760333E+04  0.10000000000E+02 0.  1.
</event>
<event>
 5    1  0.1245771E-008  0.3825920E+03  0.7957747E-01  0.3439950E+00
         13   -1    0    0    0    0  0.00000000000E+00  0.00000000000E+00  0.14999999963E+04  0.15000000000E+04  0.10566000000E+00 0.  1.
        994   -1    0    0    0    0 -0.00000000000E+00 -0.00000000000E+00  0.11368683772E-12  0.17120000000E+03  0.17120000000E+03 0.  0.
         13    1    1    2    0    0 -0.26041363955E+02 -0.10718139266E+01  0.13620931259E+03  0.13868053007E+03  0.10566000000E+00 0.  1.
        994    1    1    2    0    0 -0.27780618128E+01  0.62944487987E+01  0.29873432939E+01  0.17136423761E+03  0.17120000000E+03 0.  0.
        998    1    1    2    0    0  0.28819425767E+02 -0.52226348721E+01  0.13608033404E+04  0.13611552323E+04  0.10000000000E+02 0.  1.
</event>
<event>
 5    1  0.1245771E-008  0.3706411E+03  0.7957747E-01  0.3492950E+00
         13   -1    0    0    0    0  0.00000000000E+00  0.00000000000E+00  0.14999999963E+04  0.15000000000E+04  0.10566000000E+00 0. -1.
        994   -1    0    0    0    0 -0.00000000000E+00 -0.00000000000E+00  0.11368683772E-12  0.17120000000E+03  0.17120000000E+03 0.  0.
         13    1    1    2    0    0 -0.10882751225E+02  0.24261413441E+02  0.27331646843E+02  0.38132407996E+02  0.10566000000E+00 0. -1.
        994    1    1    2    0    0  0.17459321315E+02 -0.20834235386E+01  0.12362202556E+02  0.17254400194E+03  0.17120000000E+03 0.  0.
        998    1    1    2    0    0 -0.65765700899E+01 -0.22177989903E+02  0.14603061469E+04  0.14605235901E+04  0.10000000000E+02 0. -1.
</event>
<event>
 5    1  0.1245771E-008  0.3762839E+03  0.7957747E-01  0.3467501E+00
         13   -1    0    0    0    0  0.00000000000E+00  0.00000000000E+00  0.14999999963E+04  0.15000000000E+04  0.10566000000E+00 0. -1.
        994   -1    0    0    0    0 -0.00000000000E+00 -0.00000000000E+00  0.11368683772E-12  0.17120000000E+03  0.17120000000E+03 0.  0.
         13    1    1    2    0    0  0.64311614819E+02 -0.63563861022E+02  0.46519912893E+03  0.47390567516E+03  0.10566000000E+00 0. -1.
        994    1    1    2    0    0 -0.26882406546E+02  0.11210007505E+03  0.52412600608E+02  0.21294508990E+03  0.17120000000E+03 0.  0.
        998    1    1    2    0    0 -0.37429208273E+02 -0.48536214028E+02  0.98238826675E+03  0.98434923495E+03  0.10000000000E+02 0. -1.
</event>
<event>
 5    1  0.1245771E-008  0.3835466E+03  0.7957747E-01  0.3435860E+00
         13   -1    0    0    0    0  0.00000000000E+00  0.00000000000E+00  0.14999999963E+04  0.15000000000E+04  0.10566000000E+00 0.  1.
        994   -1    0    0    0    0 -0.00000000000E+00 -0.00000000000E+00  0.11368683772E-12  0.17120000000E+03  0.17120000000E+03 0.  0.
         13    1    1    2    0    0 -0.99226178736E+01 -0.11956915765E+02  0.49680923988E+02  0.52054121377E+02  0.10566000000E+00 0.  1.
        994    1    1    2    0    0  0.13110590308E+02  0.79408436746E+01  0.31301252404E+01  0.17191329867E+03  0.17120000000E+03 0.  0.
        998    1    1    2    0    0 -0.31879724347E+01  0.40160720900E+01  0.14471889471E+04  0.14472325799E+04  0.10000000000E+02 0.  1.
</event>
<event>
 5    1  0.1245771E-008  0.3787087E+03  0.7957747E-01  0.3456800E+00
         13   -1    0    0    0    0  0.00000000000E+00  0.00000000000E+00  0.14999999963E+04  0.15000000000E+04  0.10566000000E+00 0.  1.
        994   -1    0    0    0    0 -0.00000000000E+00 -0.00000000000E+00  0.11368683772E-12  0.17120000000E+03  0.17120000000E+03 0.  0.
         13    1    1    2    0    0 -0.12806678737E+02 -0.15706231682E+02  0.42185942985E+02  0.46801300019E+02  0.10566000000E+00 0.  1.
        994    1    1    2    0    0  0.85778400403E+01 -0.36887370347E+00  0.50339091442E+01  0.17148905402E+03  0.17120000000E+03 0.  0.
        998    1    1    2    0    0  0.42288386965E+01  0.16075105385E+02  0.14527801441E+04  0.14529096460E+04  0.10000000000E+02 0.  1.
</event>
<event>
 5    1  0.1245771E-008  0.3843518E+03  0.7957747E-01  0.3432426E+00
         13   -1    0    0    0    0  0.00000000000E+00  0.00000000000E+00  0.14999999963E+04  0.15000000000E+04  0.10566000000E+00 0.  1.
        994   -1    0    0    0    0 -0.00000000000E+00 -0.00000000000E+00  0.11368683772E-12  0.17120000000E+03  0.17120000000E+03 0.  0.
         13    1    1    2    0    0  0.16581422318E+02 -0.98243884333E+01  0.93754517211E+02  0.95715112891E+02  0.10566000000E+00 0.  1.
        994    1    1    2    0    0 -0.11243424259E+02  0.83092372782E+01  0.25967054203E+01  0.17178952498E+03  0.17120000000E+03 0.  0.
        998    1    1    2    0    0 -0.53379980595E+01  0.15151511551E+01  0.14036487736E+04  0.14036953621E+04  0.10000000000E+02 0.  1.
</event>
<event>
 5    1  0.1245771E-008  0.3808964E+03  0.7957747E-01  0.3447265E+00
         13   -1    0    0    0    0  0.00000000000E+00  0.00000000000E+00  0.14999999963E+04  0.15000000000E+04  0.10566000000E+00 0.  1.
        994   -1    0    0    0    0 -0.00000000000E+00 -0.00000000000E+00  0.11368683772E-12  0.17120000000E+03  0.17120000000E+03 0.  0.
         13    1    1    2    0    0  0.10396895165E+02 -0.10996495748E+02  0.30582599272E+02  0.34122205234E+02  0.10566000000E+00 0.  1.
        994    1    1    2    0    0  0.33256379568E+01  0.44850397256E+01  0.37852631738E+01  0.17133284468E+03  0.17120000000E+03 0.  0.
        998    1    1    2    0    0 -0.13722533122E+02  0.65114560223E+01  0.14656321338E+04  0.14657449501E+04  0.10000000000E+02 0.  1.
</event>
<event>
 5    1  0.1245771E-008  0.3845837E+03  0.7957747E-01  0.3431440E+00
         13   -1    0    0    0    0  0.00000000000E+00  0.00000000000E+00  0.14999999963E+04  0.15000000000E+04  0.10566000000E+00 0.  1.
        994   -1    0    0    0    0 -0.00000000000E+00 -0.00000000000E+00  0.11368683772E-12  0.17120000000E+03  0.17120000000E+03 0.  0.
         13    1    1    2    0    0  0.16049605590E+02 -0.15429175737E+00  0.75274792852E+02  0.76967001036E+02  0.10566000000E+00 0.  1.
        994    1    1    2    0    0  0.82190551321E+00  0.70687666797E+01  0.20037364707E+01  0.17135955751E+03  0.17120000000E+03 0.  0.
        998    1    1    2    0    0 -0.16871511104E+02 -0.69144749223E+01  0.14227214670E+04  0.14228734415E+04  0.10000000000E+02 0.  1.
</event>
<event>
 5    1  0.1245771E-008  0.3734018E+03  0.7957747E-01  0.3480402E+00
         13   -1    0    0    0    0  0.00000000000E+00  0.00000000000E+00  0.14999999963E+04  0.15000000000E+04  0.10566000000E+00 0. -1.
        994   -1    0    0    0    0 -0.00000000000E+00 -0.00000000000E+00  0.11368683772E-12  0.17120000000E+03  0.17120000000E+03 0.  0.
         13    1    1    2    0    0 -0.21354416070E+02 -0.11309337293E+02  0.34499882340E+02  0.42120840936E+02  0.10566000000E+00 0. -1.
        994    1    1    2    0    0  0.22688984727E+02  0.22896655656E+02  0.11061070090E+02  0.17455897038E+03  0.17120000000E+03 0.  0.
        998    1    1    2    0    0 -0.13345686569E+01 -0.11587318362E+02  0.14544390438E+04  0.14545201887E+04  0.10000000000E+02 0. -1.
</event>
<event>
 5    1  0.1245771E-008  0.3784571E+03  0.7957747E-01  0.3457904E+00
         13   -1    0    0    0    0  0.00000000000E+00  0.00000000000E+00  0.14999999963E+04  0.15000000000E+04  0.10566000000E+00 0. -1.
        994   -1    0    0    0    0 -0.00000000000E+00 -0.00000000000E+00  0.11368683772E-12  0.17120000000E+03  0.17120000000E+03 0.  0.
         13    1    1    2    0    0  0.42750005074E+02 -0.29526777463E+02  0.23208119040E+03  0.23782574214E+03  0.10566000000E+00 0. -1.
        994    1    1    2    0    0 -0.36308494939E+02  0.39500362181E+02  0.14647859965E+02  0.18000718102E+03  0.17120000000E+03 0.  0.
        998    1    1    2    0    0 -0.64415101349E+01 -0.99735847178E+01  0.12532709459E+04  0.12533670768E+04  0.10000000000E+02 0. -1.
</event>
<event>
 5    1  0.1245771E-008  0.3832420E+03  0.7957747E-01  0.3437162E+00
         13   -1    0    0    0    0  0.00000000000E+00  0.00000000000E+00  0.14999999963E+04  0.15000000000E+04  0.10566000000E+00 0. -1.
        994   -1    0    0    0    0 -0.00000000000E+00 -0.00000000000E+00  0.11368683772E-12  0.17120000000E+03  0.17120000000E+03 0.  0.
         13    1    1    2    0    0  0.18701792531E+02  0.25736907183E+01  0.75396362758E+02  0.77723893424E+02  0.10566000000E+00 0. -1.
        994    1    1    2    0    0 -0.10632356737E+01  0.69078398177E+01  0.26670527561E+01  0.17136336216E+03  0.17120000000E+03 0.  0.
        998    1    1    2    0    0 -0.17638556857E+02 -0.94815305360E+01  0.14219365808E+04  0.14221127444E+04  0.10000000000E+02 0. -1.
</event>
<event>
 5    1  0.1245771E-008  0.3833677E+03  0.7957747E-01  0.3436624E+00
         13   -1    0    0    0    0  0.00000000000E+00  0.00000000000E+00  0.14999999963E+04  0.15000000000E+04  0.10566000000E+00 0.  1.
        994   -1    0    0    0    0 -0.00000000000E+00 -0.00000000000E+00  0.11368683772E-12  0.17120000000E+03  0.17120000000E+03 0.  0.
         13    1    1    2    0    0  0.38913120326E+01 -0.10512214149E+02  0.25270442486E+02  0.27645169255E+02  0.10566000000E+00 0.  1.
        994    1    1    2    0    0 -0.77382276818E+01  0.79616336386E+00  0.26427969315E+01  0.17139701987E+03  0.17120000000E+03 0.  0.
        998    1    1    2    0    0  0.38469156492E+01  0.97160507854E+01  0.14720867569E+04  0.14721578109E+04  0.10000000000E+02 0.  1.
</event>
<event>
 5    1  0.1245771E-008  0.3853248E+03  0.7957747E-01  0.3428296E+00
         13   -1    0    0    0    0  0.00000000000E+00  0.00000000000E+00  0.14999999963E+04  0.15000000000E+04  0.10566000000E+00 0. -1.
        994   -1    0    0    0    0 -0.00000000000E+00 -0.00000000000E+00  0.11368683772E-12  0.17120000000E+03  0.17120000000E+03 0.  0.
         13    1    1    2    0    0 -0.17337037738E+01 -0.12119287502E+02  0.49281538515E+02  0.50779563416E+02  0.10566000000E+00 0. -1.
        994    1    1    2    0    0  0.21367623881E+01  0.14444815556E+02  0.21697489984E+01  0.17183528817E+03  0.17120000000E+03 0.  0.
        998    1    1    2    0    0 -0.40305861430E+00 -0.23255280540E+01  0.14485487088E+04  0.14485851484E+04  0.10000000000E+02 0. -1.
</event>
<event>
 5    1  0.1245771E-008  0.3831969E+03  0.7957747E-01  0.3437355E+00
         13   -1    0    0    0    0  0.00000000000E+00  0.00000000000E+00  0.14999999963E+04  0.15000000000E+04  0.10566000000E+00 0.  1.
        994   -1    0    0    0    0 -0.00000000000E+00 -0.00000000000E+00  0.11368683772E-12  0.17120000000E+03  0.17120000000E+03 0.  0.
         13    1    1    2    0    0  0.12212658400E+02  0.28672529848E+02  0.17378389167E+03  0.17655626627E+03  0.10566000000E+00 0.  1.
        994    1    1    2    0    0 -0.12335825915E+02 -0.27142577008E+02  0.54739870015E+01  0.17386286729E+03  0.17120000000E+03 0.  0.
        998    1    1    2    0    0  0.12316751524E+00 -0.15299528397E+01  0.13207421176E+04  0.13207808664E+04  0.10000000000E+02 0.  0.
</event>
<event>
 5    1  0.1245771E-008  0.3784294E+03  0.7957747E-01  0.3458026E+00
         13   -1    0    0    0    0  0.00000000000E+00  0.00000000000E+00  0.14999999963E+04  0.15000000000E+04  0.10566000000E+00 0.  1.
        994   -1    0    0    0    0 -0.00000000000E+00 -0.00000000000E+00  0.11368683772E-12  0.17120000000E+03  0.17120000000E+03 0.  0.
         13    1    1    2    0    0 -0.67903526875E+01  0.75449477758E+01  0.81817087735E+01  0.13037892815E+02  0.10566000000E+00 0.  1.
        994    1    1    2    0    0  0.57403905645E+01 -0.79469573177E+01  0.52510742971E+01  0.17156083468E+03  0.17120000000E+03 0.  0.
        998    1    1    2    0    0  0.10499621230E+01  0.40200954195E+00  0.14865672132E+04  0.14866012725E+04  0.10000000000E+02 0.  1.
</event>
<event>
 5    1  0.1245771E-008  0.3744702E+03  0.7957747E-01  0.3475596E+00
         13   -1    0    0    0    0  0.00000000000E+00  0.00000000000E+00  0.14999999963E+04  0.15000000000E+04  0.10566000000E+00 0.  1.
        994   -1    0    0    0    0 -0.00000000000E+00 -0.00000000000E+00  0.11368683772E-12  0.17120000000E+03  0.17120000000E+03 0.  0.
         13    1    1    2    0    0 -0.16407264378E+02 -0.12472114289E+02  0.29049862000E+02  0.35618220133E+02  0.10566000000E+00 0.  1.
        994    1    1    2    0    0 -0.20547861438E+01 -0.46474432864E+01  0.70389820628E+01  0.17141997592E+03  0.17120000000E+03 0.  0.
        998    1    1    2    0    0  0.18462050521E+02  0.17119557576E+02  0.14639111522E+04  0.14641618039E+04  0.10000000000E+02 0.  1.
</event>
<event>
 5    1  0.1245771E-008  0.3796247E+03  0.7957747E-01  0.3452794E+00
         13   -1    0    0    0    0  0.00000000000E+00  0.00000000000E+00  0.14999999963E+04  0.15000000000E+04  0.10566000000E+00 0.  1.
        994   -1    0    0    0    0 -0.00000000000E+00 -0.00000000000E+00  0.11368683772E-12  0.17120000000E+03  0.17120000000E+03 0.  0.
         13    1    1    2    0    0  0.14514872861E+02 -0.17777268561E+01  0.23559711480E+02  0.27729280842E+02  0.10566000000E+00 0.  1.
        994    1    1    2    0    0 -0.31774693449E+01 -0.20394018346E+02  0.57499136766E+01  0.17253554359E+03  0.17120000000E+03 0.  0.
        998    1    1    2    0    0 -0.11337403516E+02  0.22171745202E+02  0.14706903711E+04  0.14709351756E+04  0.10000000000E+02 0.  1.
</event>
<event>
 5    1  0.1245771E-008  0.3766722E+03  0.7957747E-01  0.3465778E+00
         13   -1    0    0    0    0  0.00000000000E+00  0.00000000000E+00  0.14999999963E+04  0.15000000000E+04  0.10566000000E+00 0. -1.
        994   -1    0    0    0    0 -0.00000000000E+00 -0.00000000000E+00  0.11368683772E-12  0.17120000000E+03  0.17120000000E+03 0.  0.
         13    1    1    2    0    0  0.53430436148E+01 -0.16244261102E+02  0.22250343907E+02  0.28062663841E+02  0.10566000000E+00 0. -1.
        994    1    1    2    0    0 -0.16352855060E+02  0.14450542119E+02  0.74339319854E+01  0.17274529626E+03  0.17120000000E+03 0.  0.
        998    1    1    2    0    0  0.11009811445E+02  0.17937189835E+01  0.14703157204E+04  0.14703920399E+04  0.10000000000E+02 0. -1.
</event>
<event>
 5    1  0.1245771E-008  0.3882976E+03  0.7957747E-01  0.3415806E+00
         13   -1    0    0    0    0  0.00000000000E+00  0.00000000000E+00  0.14999999963E+04  0.15000000000E+04  0.10566000000E+00 0.  1.
        994   -1    0    0    0    0 -0.00000000000E+00 -0.00000000000E+00  0.11368683772E-12  0.17120000000E+03  0.17120000000E+03 0.  0.
         13    1    1    2    0    0  0.12196071310E+03  0.68952016396E+02  0.32129432501E+03  0.35051226876E+03  0.10566000000E+00 0.  1.
        994    1    1    2    0    0 -0.14764394072E+03 -0.50849460161E+02  0.11903771969E+03  0.26050685123E+03  0.17120000000E+03 0.  0.
        998    1    1    2    0    0  0.25683227611E+02 -0.18102556235E+02  0.10596679516E+04  0.10601808800E+04  0.10000000000E+02 0.  0.
</event>
<event>
 5    1  0.1245771E-008  0.3817293E+03  0.7957747E-01  0.3443663E+00
         13   -1    0    0    0    0  0.00000000000E+00  0.00000000000E+00  0.14999999963E+04  0.15000000000E+04  0.10566000000E+00 0.  1.
        994   -1    0    0    0    0 -0.00000000000E+00 -0.00000000000E+00  0.11368683772E-12  0.17120000000E+03  0.17120000000E+03 0.  0.
         13    1    1    2    0    0 -0.22801766036E+02 -0.82400635755E+02  0.19200274302E+03  0.21017813825E+03  0.10566000000E+00 0.  1.
        994    1    1    2    0    0  0.23561844085E+02  0.66818553570E+02  0.35823456581E+02  0.18871311465E+03  0.17120000000E+03 0.  0.
        998    1    1    2    0    0 -0.76007804974E+00  0.15582082185E+02  0.12721737967E+04  0.12723087471E+04  0.10000000000E+02 0.  1.
</event>
<event>
 5    1  0.1245771E-008  0.3756708E+03  0.7957747E-01  0.3470228E+00
         13   -1    0    0    0    0  0.00000000000E+00  0.00000000000E+00  0.14999999963E+04  0.15000000000E+04  0.10566000000E+00 0. -1.
        994   -1    0    0    0    0 -0.00000000000E+00 -0.00000000000E+00  0.11368683772E-12  0.17120000000E+03  0.17120000000E+03 0.  0.
         13    1    1    2    0    0 -0.23961553756E+02 -0.13450023957E+02  0.61965871913E+02  0.67785246543E+02  0.10566000000E+00 0. -1.
        994    1    1    2    0    0 -0.90590962702E+01  0.55708592287E+01  0.67183401712E+01  0.17166152100E+03  0.17120000000E+03 0.  0.
        998    1    1    2    0    0  0.33020650026E+02  0.78791647284E+01  0.14313157842E+04  0.14317532325E+04  0.10000000000E+02 0. -1.
</event>
<event>
 5    1  0.1245771E-008  0.3727974E+03  0.7957747E-01  0.3483133E+00
         13   -1    0    0    0    0  0.00000000000E+00  0.00000000000E+00  0.14999999963E+04  0.15000000000E+04  0.10566000000E+00 0. -1.
        994   -1    0    0    0    0 -0.00000000000E+00 -0.00000000000E+00  0.11368683772E-12  0.17120000000E+03  0.17120000000E+03 0.  0.
         13    1    1    2    0    0  0.54796156291E+00  0.26279289930E+02  0.40710539762E+02  0.48458854225E+02  0.10566000000E+00 0. -1.
        994    1    1    2    0    0 -0.59289228238E+01 -0.20957878117E+02  0.94404690291E+01  0.17283792187E+03  0.17120000000E+03 0.  0.
        998    1    1    2    0    0  0.53809612608E+01 -0.53214118131E+01  0.14498489875E+04  0.14499032239E+04  0.10000000000E+02 0. -1.
</event>
<event>
 5    1  0.1245771E-008  0.3922605E+03  0.7957747E-01  0.3399451E+00
         13   -1    0    0    0    0  0.00000000000E+00  0.00000000000E+00  0.14999999963E+04  0.15000000000E+04  0.10566000000E+00 0. -1.
        994   -1    0    0    0    0 -0.00000000000E+00 -0.00000000000E+00  0.11368683772E-12  0.17120000000E+03  0.17120000000E+03 0.  0.
         13    1    1    2    0    0  0.13932283233E+03  0.46667644308E+02  0.51660146787E+03  0.53709013062E+03  0.10566000000E+00 0. -1.
        994    1    1    2    0    0 -0.83376096901E+02  0.19692775357E+02  0.51663801784E+02  0.19828758748E+03  0.17120000000E+03 0.  0.
        998    1    1    2    0    0 -0.55946735430E+02 -0.66360419665E+02  0.93173472662E+03  0.93582228190E+03  0.10000000000E+02 0. -1.
</event>
<event>
 5    1  0.1245771E-008  0.3829207E+03  0.7957747E-01  0.3438539E+00
         13   -1    0    0    0    0  0.00000000000E+00  0.00000000000E+00  0.14999999963E+04  0.15000000000E+04  0.10566000000E+00 0.  1.
        994   -1    0    0    0    0 -0.00000000000E+00 -0.00000000000E+00  0.11368683772E-12  0.17120000000E+03  0.17120000000E+03 0.  0.
         13    1    1    2    0    0  0.18599324880E+02  0.67815623791E+00  0.71538427351E+02  0.73919906207E+02  0.10566000000E+00 0.  1.
        994    1    1    2    0    0  0.62361985831E+01  0.30256156419E+02  0.58321811394E+01  0.17406257355E+03  0.17120000000E+03 0.  0.
        998    1    1    2    0    0 -0.24835523463E+02 -0.30934312657E+02  0.14226293878E+04  0.14232175202E+04  0.10000000000E+02 0.  1.
</event>
<event>
 5    1  0.1245771E-008  0.3837964E+03  0.7957747E-01  0.3434793E+00
         13   -1    0    0    0    0  0.00000000000E+00  0.00000000000E+00  0.14999999963E+04  0.15000000000E+04  0.10566000000E+00 0. -1.
        994   -1    0    0    0    0 -0.00000000000E+00 -0.00000000000E+00  0.11368683772E-12  0.17120000000E+03  0.17120000000E+03 0.  0.
         13    1    1    2    0    0 -0.31648690554E+00 -0.18740656978E+02  0.72209157676E+02  0.74602184983E+02  0.10566000000E+00 0. -1.
        994    1    1    2    0    0  0.39869342440E+00  0.26259585075E+02  0.45093766009E+01  0.17326136108E+03  0.17120000000E+03 0.  0.
        998    1    1    2    0    0 -0.82206518862E-01 -0.75189280964E+01  0.14232814620E+04  0.14233364539E+04  0.10000000000E+02 0. -1.
</event>
<event>
 5    1  0.1245771E-008  0.3857232E+03  0.7957747E-01  0.3426611E+00
         13   -1    0    0    0    0  0.00000000000E+00  0.00000000000E+00  0.14999999963E+04  0.15000000000E+04  0.10566000000E+00 0. -1.
        994   -1    0    0    0    0 -0.00000000000E+00 -0.00000000000E+00  0.11368683772E-12  0.17120000000E+03  0.17120000000E+03 0.  0.
         13    1    1    2    0    0  0.40353490547E+01 -0.97601420533E+01  0.48044057963E+02  0.49191331395E+02  0.10566000000E+00 0. -1.
        994    1    1    2    0    0 -0.36282748423E+01 -0.83211887891E+01  0.15419345127E+01  0.17144743837E+03  0.17120000000E+03 0.  0.
        998    1    1    2    0    0 -0.40707421233E+00  0.18081330842E+02  0.14504140038E+04  0.14505612302E+04  0.10000000000E+02 0. -1.
</event>
<event>
 5    1  0.1245771E-008  0.3840249E+03  0.7957747E-01  0.3433818E+00
         13   -1    0    0    0    0  0.00000000000E+00  0.00000000000E+00  0.14999999963E+04  0.15000000000E+04  0.10566000000E+00 0. -1.
        994   -1    0    0    0    0 -0.00000000000E+00 -0.00000000000E+00  0.11368683772E-12  0.17120000000E+03  0.17120000000E+03 0.  0.
         13    1    1    2    0    0  0.10482529822E+02 -0.35414314001E+00  0.25301189718E+02  0.27389235367E+02  0.10566000000E+00 0. -1.
        994    1    1    2    0    0 -0.79502116920E+01  0.38480610741E+01  0.23724317362E+01  0.17144410714E+03  0.17120000000E+03 0.  0.
        998    1    1    2    0    0 -0.25323181304E+01 -0.34939179341E+01  0.14723263748E+04  0.14723666575E+04  0.10000000000E+02 0. -1.
</event>
<event>
 5    1  0.1245771E-008  0.3841103E+03  0.7957747E-01  0.3433455E+00
         13   -1    0    0    0    0  0.00000000000E+00  0.00000000000E+00  0.14999999963E+04  0.15000000000E+04  0.10566000000E+00 0. -1.
        994   -1    0    0    0    0 -0.00000000000E+00 -0.00000000000E+00  0.11368683772E-12  0.17120000000E+03  0.17120000000E+03 0.  0.
         13    1    1    2    0    0  0.25444992662E+02  0.22095888107E+01  0.14066082696E+03  0.14296086646E+03  0.10566000000E+00 0. -1.
        994    1    1    2    0    0 -0.28254286298E+02 -0.83353490273E+01  0.49398652882E+01  0.17378614734E+03  0.17120000000E+03 0.  0.
        998    1    1    2    0    0  0.28092936362E+01  0.61257602166E+01  0.13543993040E+04  0.13544529862E+04  0.10000000000E+02 0. -1.
</event>
<event>
 5    1  0.1245771E-008  0.3734702E+03  0.7957747E-01  0.3480093E+00
         13   -1    0    0    0    0  0.00000000000E+00  0.00000000000E+00  0.14999999963E+04  0.15000000000E+04  0.10566000000E+00 0. -1.
        994   -1    0    0    0    0 -0.00000000000E+00 -0.00000000000E+00  0.11368683772E-12  0.17120000000E+03  0.17120000000E+03 0.  0.
         13    1    1    2    0    0 -0.41917641211E+02 -0.59613263359E+01  0.64706518368E+02  0.77327684174E+02  0.10566000000E+00 0. -1.
        994    1    1    2    0    0  0.32966720487E+02 -0.16085374972E+01  0.16650716335E+02  0.17514587750E+03  0.17120000000E+03 0.  0.
        998    1    1    2    0    0  0.89509207245E+01  0.75698638331E+01  0.14186427616E+04  0.14187264383E+04  0.10000000000E+02 0. -1.
</event>
<event>
 5    1  0.1245771E-008  0.3819422E+03  0.7957747E-01  0.3442745E+00
         13   -1    0    0    0    0  0.00000000000E+00  0.00000000000E+00  0.14999999963E+04  0.15000000000E+04  0.10566000000E+00 0. -1.
        994   -1    0    0    0    0 -0.00000000000E+00 -0.00000000000E+00  0.11368683772E-12  0.17120000000E+03  0.17120000000E+03 0.  0.
         13    1    1    2    0    0  0.83906767908E+01 -0.31490896984E+02  0.14908411969E+03  0.15260460660E+03  0.10566000000E+00 0. -1.
        994    1    1    2    0    0 -0.12622847995E+02  0.33580639701E+02  0.74426263213E+01  0.17507663562E+03  0.17120000000E+03 0.  0.
        998    1    1    2    0    0  0.42321712045E+01 -0.20897427167E+01  0.13434732503E+04  0.13435187578E+04  0.10000000000E+02 0. -1.
</event>
<event>
 5    1  0.1245771E-008  0.3808474E+03  0.7957747E-01  0.3447477E+00
         13   -1    0    0    0    0  0.00000000000E+00  0.00000000000E+00  0.14999999963E+04  0.15000000000E+04  0.10566000000E+00 0. -1.
        994   -1    0    0    0    0 -0.00000000000E+00 -0.00000000000E+00  0.11368683772E-12  0.17120000000E+03  0.17120000000E+03 0.  0.
         13    1    1    2    0    0  0.20132060277E+02 -0.24778381736E+01  0.55132729776E+02  0.58745796357E+02  0.10566000000E+00 0. -1.
        994    1    1    2    0    0 -0.81566134509E+01  0.65494448416E+01  0.40708731537E+01  0.17156758895E+03  0.17120000000E+03 0.  0.
        998    1    1    2    0    0 -0.11975446826E+02 -0.40716066680E+01  0.14407963933E+04  0.14408866147E+04  0.10000000000E+02 0. -1.
</event>
<event>
 5    1  0.1245771E-008  0.3840810E+03  0.7957747E-01  0.3433579E+00
         13   -1    0    0    0    0  0.00000000000E+00  0.00000000000E+00  0.14999999963E+04  0.15000000000E+04  0.10566000000E+00 0. -1.
        994   -1    0    0    0    0 -0.00000000000E+00 -0.00000000000E+00  0.11368683772E-12  0.17120000000E+03  0.17120000000E+03 0.  0.
         13    1    1    2    0    0  0.98753736643E+01 -0.17936040885E+02  0.95035131177E+02  0.97215800616E+02  0.10566000000E+00 0. -1.
        994    1    1    2    0    0 -0.78480889958E+01  0.19075385856E+02  0.34917332177E+01  0.17247346186E+03  0.17120000000E+03 0.  0.
        998    1    1    2    0    0 -0.20272846685E+01 -0.11393449709E+01  0.14014731319E+04  0.14015107375E+04  0.10000000000E+02 0. -1.
</event>
<event>
 5    1  0.1245771E-008  0.3788040E+03  0.7957747E-01  0.3456383E+00
         13   -1    0    0    0    0  0.00000000000E+00  0.00000000000E+00  0.14999999963E+04  0.15000000000E+04  0.10566000000E+00 0.  1.
        994   -1    0    0    0    0 -0.00000000000E+00 -0.00000000000E+00  0.11368683772E-12  0.17120000000E+03  0.17120000000E+03 0.  0.
         13    1    1    2    0    0  0.74527075118E+01 -0.34606900716E+02  0.13331260766E+03  0.13793274793E+03  0.10566000000E+00 0.  1.
        994    1    1    2    0    0  0.66412963458E+01  0.19303231654E+02  0.61379278057E+01  0.17252198621E+03  0.17120000000E+03 0.  0.
        998    1    1    2    0    0 -0.14094003858E+02  0.15303669062E+02  0.13605494608E+04  0.13607452659E+04  0.10000000000E+02 0.  1.
</event>
<event>
 5    1  0.1245771E-008  0.3754914E+03  0.7957747E-01  0.3471028E+00
         13   -1    0    0    0    0  0.00000000000E+00  0.00000000000E+00  0.14999999963E+04  0.15000000000E+04  0.10566000000E+00 0.  1.
        994   -1    0    0    0    0 -0.00000000000E+00 -0.00000000000E+00  0.11368683772E-12  0.17120000000E+03  0.17120000000E+03 0.  0.
         13    1    1    2    0    0 -0.48555141442E+01 -0.10077406660E+02  0.69236399608E+01  0.13155914903E+02  0.10566000000E+00 0.  1.
        994    1    1    2    0    0 -0.72372089398E+01  0.36670268965E+01  0.66500161272E+01  0.17152109781E+03  0.17120000000E+03 0.  0.
        998    1    1    2    0    0  0.12092723084E+02  0.64103797632E+01  0.14864263402E+04  0.14865229873E+04  0.10000000000E+02 0.  1.
</event>
<event>
 5    1  0.1245771E-008  0.3694199E+03  0.7957747E-01  0.3498561E+00
         13   -1    0    0    0    0  0.00000000000E+00  0.00000000000E+00  0.14999999963E+04  0.15000000000E+04  0.10566000000E+00 0. -1.
        994   -1    0    0    0    0 -0.00000000000E+00 -0.00000000000E+00  0.11368683772E-12  0.17120000000E+03  0.17120000000E+03 0.  0.
         13    1    1    2    0    0  0.10187822397E+03  0.69631962838E+02  0.44865185413E+03  0.46531309905E+03  0.10566000000E+00 0. -1.
        994    1    1    2    0    0 -0.95360053184E+02 -0.94638810130E+02  0.76547417632E+02  0.23069241702E+03  0.17120000000E+03 0.  0.
        998    1    1    2    0    0 -0.65181707898E+01  0.25006847292E+02  0.97480072452E+03  0.97519448393E+03  0.10000000000E+02 0. -1.
</event>
<event>
 5    1  0.1245771E-008  0.3852626E+03  0.7957747E-01  0.3428559E+00
         13   -1    0    0    0    0  0.00000000000E+00  0.00000000000E+00  0.14999999963E+04  0.15000000000E+04  0.10566000000E+00 0. -1.
        994   -1    0    0    0    0 -0.00000000000E+00 -0.00000000000E+00  0.11368683772E-12  0.17120000000E+03  0.17120000000E+03 0.  0.
         13    1    1    2    0    0 -0.35556180970E+01 -0.11050368462E+02  0.45426296808E+02  0.46886167139E+02  0.10566000000E+00 0. -1.
        994    1    1    2    0    0 -0.56714836633E+00  0.64592404940E+01  0.16379581568E+01  0.17133057623E+03  0.17120000000E+03 0.  0.
        998    1    1    2    0    0  0.41227664634E+01  0.45911279682E+01  0.14529357413E+04  0.14529832566E+04  0.10000000000E+02 0. -1.
</event>
<event>
 5    1  0.1245771E-008  0.3708764E+03  0.7957747E-01  0.3491873E+00
         13   -1    0    0    0    0  0.00000000000E+00  0.00000000000E+00  0.14999999963E+04  0.15000000000E+04  0.10566000000E+00 0.  1.
        994   -1    0    0    0    0 -0.00000000000E+00 -0.00000000000E+00  0.11368683772E-12  0.17120000000E+03  0.17120000000E+03 0.  0.
         13    1    1    2    0    0 -0.44094972604E+02  0.68343693305E+02  0.41597832856E+03  0.42385517340E+03  0.10566000000E+00 0.  1.
        994    1    1    2    0    0  0.13712850566E+02  0.86981878452E+01  0.12328207843E+02  0.17240976031E+03  0.17120000000E+03 0.  0.
        998    1    1    2    0    0  0.30382122039E+02 -0.77041881151E+02  0.10716934599E+04  0.10749350663E+04  0.10000000000E+02 0.  1.
</event>
<event>
 5    1  0.1245771E-008  0.3823551E+03  0.7957747E-01  0.3440967E+00
         13   -1    0    0    0    0  0.00000000000E+00  0.00000000000E+00  0.14999999963E+04  0.15000000000E+04  0.10566000000E+00 0.  1.
        994   -1    0    0    0    0 -0.00000000000E+00 -0.00000000000E+00  0.11368683772E-12  0.17120000000E+03  0.17120000000E+03 0.  0.
         13    1    1    2    0    0 -0.93598876947E+01  0.51028747715E+01  0.18446711280E+02  0.21305847781E+02  0.10566000000E+00 0.  1.
        994    1    1    2    0    0 -0.12829610272E+02 -0.25428016574E+02  0.56444279220E+01  0.17364470189E+03  0.17120000000E+03 0.  0.
        998    1    1    2    0    0  0.22189497967E+02  0.20325141803E+02  0.14759088571E+04  0.14762494503E+04  0.10000000000E+02 0.  1.
</event>
<event>
 5    1  0.1245771E-008  0.3694432E+03  0.7957747E-01  0.3498454E+00
         13   -1    0    0    0    0  0.00000000000E+00  0.00000000000E+00  0.14999999963E+04  0.15000000000E+04  0.10566000000E+00 0. -1.
        994   -1    0    0    0    0 -0.00000000000E+00 -0.00000000000E+00  0.11368683772E-12  0.17120000000E+03  0.17120000000E+03 0.  0.
         13    1    1    2    0    0 -0.86606983137E+02 -0.34520963971E+02  0.35213324288E+03  0.36426679562E+03  0.10566000000E+00 0. -1.
        994    1    1    2    0    0  0.63285850482E+02  0.43748191765E+02  0.31592766125E+02  0.19033272453E+03  0.17120000000E+03 0.  0.
        998    1    1    2    0    0  0.23321132655E+02 -0.92272277936E+01  0.11162739873E+04  0.11166004799E+04  0.10000000000E+02 0. -1.
</event>
<event>
 5    1  0.1245771E-008  0.3807871E+03  0.7957747E-01  0.3447738E+00
         13   -1    0    0    0    0  0.00000000000E+00  0.00000000000E+00  0.14999999963E+04  0.15000000000E+04  0.10566000000E+00 0.  1.
        994   -1    0    0    0    0 -0.00000000000E+00 -0.00000000000E+00  0.11368683772E-12  0.17120000000E+03  0.17120000000E+03 0.  0.
         13    1    1    2    0    0 -0.28260071513E+02  0.91177405698E+01  0.11580076828E+03  0.11954745474E+03  0.10566000000E+00 0.  1.
        994    1    1    2    0    0  0.20798564049E+02  0.15376436730E+01  0.51879042113E+01  0.17254361467E+03  0.17120000000E+03 0.  0.
        998    1    1    2    0    0  0.74615074647E+01 -0.10655384243E+02  0.13790113238E+04  0.13791089306E+04  0.10000000000E+02 0.  1.
</event>
<event>
 5    1  0.1245771E-008  0.3771138E+03  0.7957747E-01  0.3463823E+00
         13   -1    0    0    0    0  0.00000000000E+00  0.00000000000E+00  0.14999999963E+04  0.15000000000E+04  0.10566000000E+00 0. -1.
        994   -1    0    0    0    0 -0.00000000000E+00 -0.00000000000E+00  0.11368683772E-12  0.17120000000E+03  0.17120000000E+03 0.  0.
         13    1    1    2    0    0 -0.23660260549E+02  0.82474811965E+02  0.44477033816E+03  0.45297082402E+03  0.10566000000E+00 0. -1.
        994    1    1    2    0    0  0.31027089522E+02 -0.83114021769E+02  0.32640600090E+02  0.19556448981E+03  0.17120000000E+03 0.  0.
        998    1    1    2    0    0 -0.73668289726E+01  0.63920980406E+00  0.10225890580E+04  0.10226646862E+04  0.10000000000E+02 0.  0.
</event>
<event>
 5    1  0.1245771E-008  0.3810019E+03  0.7957747E-01  0.3446807E+00
         13   -1    0    0    0    0  0.00000000000E+00  0.00000000000E+00  0.14999999963E+04  0.15000000000E+04  0.10566000000E+00 0. -1.
        994   -1    0    0    0    0 -0.00000000000E+00 -0.00000000000E+00  0.11368683772E-12  0.17120000000E+03  0.17120000000E+03 0.  0.
         13    1    1    2    0    0 -0.11798261213E+02 -0.11343849621E+02  0.34799781178E+02  0.38456700664E+02  0.10566000000E+00 0. -1.
        994    1    1    2    0    0  0.14993254767E+02  0.92954275168E+01  0.46657999714E+01  0.17216971961E+03  0.17120000000E+03 0.  0.
        998    1    1    2    0    0 -0.31949935539E+01  0.20484221039E+01  0.14605344151E+04  0.14605735797E+04  0.10000000000E+02 0. -1.
</event>
<event>
 5    1  0.1245771E-008  0.3768433E+03  0.7957747E-01  0.3465020E+00
         13   -1    0    0    0    0  0.00000000000E+00  0.00000000000E+00  0.14999999963E+04  0.15000000000E+04  0.10566000000E+00 0.  1.
        994   -1    0    0    0    0 -0.00000000000E+00 -0.00000000000E+00  0.11368683772E-12  0.17120000000E+03  0.17120000000E+03 0.  0.
         13    1    1    2    0    0 -0.63281376862E+02  0.15093105391E+03  0.76638924571E+03  0.78366906459E+03  0.10566000000E+00 0.  1.
        994    1    1    2    0    0  0.13961717517E+03 -0.15505766957E+03  0.17066519345E+03  0.31933036929E+03  0.17120000000E+03 0.  0.
        998    1    1    2    0    0 -0.76335798304E+02  0.41266156631E+01  0.56294555712E+03  0.56820056612E+03  0.10000000000E+02 0.  1.
</event>
<event>
 5    1  0.1245771E-008  0.3705722E+03  0.7957747E-01  0.3493265E+00
         13   -1    0    0    0    0  0.00000000000E+00  0.00000000000E+00  0.14999999963E+04  0.15000000000E+04  0.10566000000E+00 0. -1.
        994   -1    0    0    0    0 -0.00000000000E+00 -0.00000000000E+00  0.11368683772E-12  0.17120000000E+03  0.17120000000E+03 0.  0.
         13    1    1    2    0    0  0.66248950372E+02 -0.93413590037E+02  0.40498989484E+03  0.42087034621E+03  0.10566000000E+00 0. -1.
        994    1    1    2    0    0 -0.86722994636E+02  0.82326915226E+02  0.63159186808E+02  0.21816764574E+03  0.17120000000E+03 0.  0.
        998    1    1    2    0    0  0.20474044264E+02  0.11086674811E+02  0.10318509146E+04  0.10321620081E+04  0.10000000000E+02 0. -1.
</event>
<event>
 5    1  0.1245771E-008  0.3693589E+03  0.7957747E-01  0.3498842E+00
         13   -1    0    0    0    0  0.00000000000E+00  0.00000000000E+00  0.14999999963E+04  0.15000000000E+04  0.10566000000E+00 0.  1.
        994   -1    0    0    0    0 -0.00000000000E+00 -0.00000000000E+00  0.11368683772E-12  0.17120000000E+03  0.17120000000E+03 0.  0.
         13    1    1    2    0    0 -0.88400936673E+01 -0.10734326806E+03  0.43776142141E+03  0.45081681168E+03  0.10566000000E+00 0.  1.
        994    1    1    2    0    0 -0.79505968078E+01  0.91692990866E+02  0.40761710490E+02  0.19859953073E+03  0.17120000000E+03 0.  0.
        998    1    1    2    0    0  0.16790690475E+02  0.15650277191E+02  0.10214768644E+04  0.10217836576E+04  0.10000000000E+02 0.  0.
</event>
<event>
 5    1  0.1245771E-008  0.3743866E+03  0.7957747E-01  0.3475971E+00
         13   -1    0    0    0    0  0.00000000000E+00  0.00000000000E+00  0.14999999963E+04  0.15000000000E+04  0.10566000000E+00 0.  1.
        994   -1    0    0    0    0 -0.00000000000E+00 -0.00000000000E+00  0.11368683772E-12  0.17120000000E+03  0.17120000000E+03 0.  0.
         13    1    1    2    0    0  0.68865307876E+01 -0.14670257884E+02  0.16573800362E+02  0.23180655623E+02  0.10566000000E+00 0.  1.
        994    1    1    2    0    0  0.16157089284E+01 -0.11616332295E+02  0.74627136056E+01  0.17176344718E+03  0.17120000000E+03 0.  0.
        998    1    1    2    0    0 -0.85022397160E+01  0.26286590178E+02  0.14759634823E+04  0.14762558972E+04  0.10000000000E+02 0.  1.
</event>
<event>
 5    1  0.1245771E-008  0.3806848E+03  0.7957747E-01  0.3448182E+00
         13   -1    0    0    0    0  0.00000000000E+00  0.00000000000E+00  0.14999999963E+04  0.15000000000E+04  0.10566000000E+00 0.  1.
        994   -1    0    0    0    0 -0.00000000000E+00 -0.00000000000E+00  0.11368683772E-12  0.17120000000E+03  0.17120000000E+03 0.  0.
         13    1    1    2    0    0  0.12294485789E+01  0.10106667331E+02  0.11915042728E+02  0.15672768601E+02  0.10566000000E+00 0.  1.
        994    1    1    2    0    0 -0.35510116903E+01 -0.11267755919E+02  0.42535401486E+01  0.17165985148E+03  0.17120000000E+03 0.  0.
        998    1    1    2    0    0  0.23215631114E+01  0.11610885875E+01  0.14838314134E+04  0.14838673799E+04  0.10000000000E+02 0.  1.
</event>
<event>
 5    1  0.1245771E-008  0.3814036E+03  0.7957747E-01  0.3445069E+00
         13   -1    0    0    0    0  0.00000000000E+00  0.00000000000E+00  0.14999999963E+04  0.15000000000E+04  0.10566000000E+00 0. -1.
        994   -1    0    0    0    0 -0.00000000000E+00 -0.00000000000E+00  0.11368683772E-12  0.17120000000E+03  0.17120000000E+03 0.  0.
         13    1    1    2    0    0 -0.46286059246E+02 -0.15629541010E+02  0.25791463099E+03  0.26250076167E+03  0.10566000000E+00 0. -1.
        994    1    1    2    0    0  0.58445323344E+02  0.19173478580E+02  0.16119716713E+02  0.18262738943E+03  0.17120000000E+03 0.  0.
        998    1    1    2    0    0 -0.12159264098E+02 -0.35439375691E+01  0.12259656486E+04  0.12260718489E+04  0.10000000000E+02 0. -1.
</event>
<event>
 5    1  0.1309030E-008  0.3854581E+03  0.7957747E-01  0.3427732E+00
         13   -1    0    0    0    0  0.00000000000E+00  0.00000000000E+00  0.14999999963E+04  0.15000000000E+04  0.10566000000E+00 0. -1.
        994   -1    0    0    0    0 -0.00000000000E+00 -0.00000000000E+00  0.11368683772E-12  0.17120000000E+03  0.17120000000E+03 0.  0.
         13    1    1    2    0    0 -0.69993287947E+01 -0.75633875793E+01  0.39976046110E+02  0.41283057806E+02  0.10566000000E+00 0. -1.
        994    1    1    2    0    0  0.21929873958E+01 -0.57292821437E+01  0.15264573346E+01  0.17131667735E+03  0.17120000000E+03 0.  0.
        998    1    1    2    0    0  0.48063413989E+01  0.13292669723E+02  0.14584974928E+04  0.14586002648E+04  0.10000000000E+02 0. -1.
</event>
<event>
 5    1  0.1245771E-008  0.3820489E+03  0.7957747E-01  0.3442286E+00
         13   -1    0    0    0    0  0.00000000000E+00  0.00000000000E+00  0.14999999963E+04  0.15000000000E+04  0.10566000000E+00 0.  1.
        994   -1    0    0    0    0 -0.00000000000E+00 -0.00000000000E+00  0.11368683772E-12  0.17120000000E+03  0.17120000000E+03 0.  0.
         13    1    1    2    0    0 -0.75236463132E+01 -0.97435958624E+02  0.54325021635E+03  0.55197027095E+03  0.10566000000E+00 0.  1.
        994    1    1    2    0    0  0.11739354294E+02  0.13483860227E+03  0.66525830537E+02  0.22815430574E+03  0.17120000000E+03 0.  0.
        998    1    1    2    0    0 -0.42157079803E+01 -0.37402643644E+02  0.89022394939E+03  0.89107542331E+03  0.10000000000E+02 0. -1.
</event>
<event>
 5    1  0.1245771E-008  0.3701429E+03  0.7957747E-01  0.3495235E+00
         13   -1    0    0    0    0  0.00000000000E+00  0.00000000000E+00  0.14999999963E+04  0.15000000000E+04  0.10566000000E+00 0.  1.
        994   -1    0    0    0    0 -0.00000000000E+00 -0.00000000000E+00  0.11368683772E-12  0.17120000000E+03  0.17120000000E+03 0.  0.
         13    1    1    2    0    0  0.74900164181E+01 -0.17134869489E+02  0.10802063749E+02  0.21596292359E+02  0.10566000000E+00 0.  1.
        994    1    1    2    0    0 -0.11132328648E+02  0.18948793549E+02  0.12705517547E+02  0.17307182236E+03  0.17120000000E+03 0.  0.
        998    1    1    2    0    0  0.36423122297E+01 -0.18139240598E+01  0.14764924150E+04  0.14765318853E+04  0.10000000000E+02 0.  1.
</event>
<event>
 5    1  0.1245771E-008  0.3693171E+03  0.7957747E-01  0.3499035E+00
         13   -1    0    0    0    0  0.00000000000E+00  0.00000000000E+00  0.14999999963E+04  0.15000000000E+04  0.10566000000E+00 0.  1.
        994   -1    0    0    0    0 -0.00000000000E+00 -0.00000000000E+00  0.11368683772E-12  0.17120000000E+03  0.17120000000E+03 0.  0.
         13    1    1    2    0    0 -0.78788198323E+01  0.11344706873E+03  0.44808140796E+03  0.46228700234E+03  0.10566000000E+00 0.  1.
        994    1    1    2    0    0  0.11297016854E+02 -0.11510252875E+03  0.57527816712E+02  0.21446469269E+03  0.17120000000E+03 0.  0.
        998    1    1    2    0    0 -0.34181970217E+01  0.16554600194E+01  0.99439077160E+03  0.99444830498E+03  0.10000000000E+02 0.  0.
</event>
<event>
 5    1  0.1245771E-008  0.3862432E+03  0.7957747E-01  0.3424417E+00
         13   -1    0    0    0    0  0.00000000000E+00  0.00000000000E+00  0.14999999963E+04  0.15000000000E+04  0.10566000000E+00 0. -1.
        994   -1    0    0    0    0 -0.00000000000E+00 -0.00000000000E+00  0.11368683772E-12  0.17120000000E+03  0.17120000000E+03 0.  0.
         13    1    1    2    0    0  0.32267995869E+01  0.10626097142E+02  0.58033143483E+02  0.59086234290E+02  0.10566000000E+00 0. -1.
        994    1    1    2    0    0 -0.30965156100E+01 -0.15647628148E+02  0.18479890477E+01  0.17195142261E+03  0.17120000000E+03 0.  0.
        998    1    1    2    0    0 -0.13028397694E+00  0.50215310063E+01  0.14401188637E+04  0.14401623431E+04  0.10000000000E+02 0. -1.
</event>
<event>
 5    1  0.1245771E-008  0.4009822E+03  0.7957747E-01  0.3364595E+00
         13   -1    0    0    0    0  0.00000000000E+00  0.00000000000E+00  0.14999999963E+04  0.15000000000E+04  0.10566000000E+00 0.  1.
        994   -1    0    0    0    0 -0.00000000000E+00 -0.00000000000E+00  0.11368683772E-12  0.17120000000E+03  0.17120000000E+03 0.  0.
         13    1    1    2    0    0  0.67387026751E+02  0.65371756197E+02  0.17942228741E+03  0.20250147226E+03  0.10566000000E+00 0.  1.
        994    1    1    2    0    0  0.10607875514E+02 -0.20542117118E+02  0.30471338841E+02  0.17542077440E+03  0.17120000000E+03 0.  0.
        998    1    1    2    0    0 -0.77994902265E+02 -0.44829639079E+02  0.12901063700E+04  0.12932777533E+04  0.10000000000E+02 0.  1.
</event>
<event>
 5    1  0.1245771E-008  0.3782863E+03  0.7957747E-01  0.3458655E+00
         13   -1    0    0    0    0  0.00000000000E+00  0.00000000000E+00  0.14999999963E+04  0.15000000000E+04  0.10566000000E+00 0.  1.
        994   -1    0    0    0    0 -0.00000000000E+00 -0.00000000000E+00  0.11368683772E-12  0.17120000000E+03  0.17120000000E+03 0.  0.
         13    1    1    2    0    0  0.33210336435E+02 -0.95057248748E+02  0.54648678653E+03  0.55568572593E+03  0.10566000000E+00 0.  1.
        994    1    1    2    0    0 -0.11703301495E+02  0.11593846705E+03  0.52100246564E+02  0.21354758509E+03  0.17120000000E+03 0.  0.
        998    1    1    2    0    0 -0.21507034939E+02 -0.20881218297E+02  0.90141296318E+03  0.90196668897E+03  0.10000000000E+02 0. -1.
</event>
<event>
 5    1  0.1245771E-008  0.3941403E+03  0.7957747E-01  0.3391808E+00
         13   -1    0    0    0    0  0.00000000000E+00  0.00000000000E+00  0.14999999963E+04  0.15000000000E+04  0.10566000000E+00 0. -1.
        994   -1    0    0    0    0 -0.00000000000E+00 -0.00000000000E+00  0.11368683772E-12  0.17120000000E+03  0.17120000000E+03 0.  0.
         13    1    1    2    0    0 -0.11624702510E+03  0.40057031745E+01  0.22803196947E+03  0.25598438774E+03  0.10566000000E+00 0. -1.
        994    1    1    2    0    0  0.11507922625E+03 -0.10917379087E+01  0.76979420976E+02  0.22018104246E+03  0.17120000000E+03 0.  0.
        998    1    1    2    0    0  0.11677988480E+01 -0.29139652659E+01  0.11949886058E+04  0.11950345698E+04  0.10000000000E+02 0.  0.
</event>
<event>
 5    1  0.1245771E-008  0.3698847E+03  0.7957747E-01  0.3496421E+00
         13   -1    0    0    0    0  0.00000000000E+00  0.00000000000E+00  0.14999999963E+04  0.15000000000E+04  0.10566000000E+00 0.  1.
        994   -1    0    0    0    0 -0.00000000000E+00 -0.00000000000E+00  0.11368683772E-12  0.17120000000E+03  0.17120000000E+03 0.  0.
         13    1    1    2    0    0 -0.37526284545E+02  0.10128725293E+02  0.75078360404E+02  0.84543388109E+02  0.10566000000E+00 0.  1.
        994    1    1    2    0    0  0.33380620713E+02 -0.99592566114E+01  0.13538335261E+02  0.17523178694E+03  0.17120000000E+03 0.  0.
        998    1    1    2    0    0  0.41456638321E+01 -0.16946868140E+00  0.14113833006E+04  0.14114248250E+04  0.10000000000E+02 0.  1.
</event>
<event>
 5    1  0.1245771E-008  0.3854813E+03  0.7957747E-01  0.3427634E+00
         13   -1    0    0    0    0  0.00000000000E+00  0.00000000000E+00  0.14999999963E+04  0.15000000000E+04  0.10566000000E+00 0. -1.
        994   -1    0    0    0    0 -0.00000000000E+00 -0.00000000000E+00  0.11368683772E-12  0.17120000000E+03  0.17120000000E+03 0.  0.
         13    1    1    2    0    0 -0.13978182703E+02 -0.87740604470E-01  0.73087026162E+02  0.74411839430E+02  0.10566000000E+00 0. -1.
        994    1    1    2    0    0  0.46378410876E+01 -0.11120396062E+02  0.18682089265E+01  0.17163363011E+03  0.17120000000E+03 0.  0.
        998    1    1    2    0    0  0.93403416151E+01  0.11208136667E+02  0.14250447612E+04  0.14251545305E+04  0.10000000000E+02 0. -1.
</event>
<event>
 5    1  0.1245771E-008  0.3737922E+03  0.7957747E-01  0.3478642E+00
         13   -1    0    0    0    0  0.00000000000E+00  0.00000000000E+00  0.14999999963E+04  0.15000000000E+04  0.10566000000E+00 0.  1.
        994   -1    0    0    0    0 -0.00000000000E+00 -0.00000000000E+00  0.11368683772E-12  0.17120000000E+03  0.17120000000E+03 0.  0.
         13    1    1    2    0    0 -0.20624245308E+02  0.26466181703E+02  0.72296709068E+02  0.79703472789E+02  0.10566000000E+00 0.  1.
        994    1    1    2    0    0  0.30970563493E+01 -0.34929030688E+02  0.11508661073E+02  0.17513285877E+03  0.17120000000E+03 0.  0.
        998    1    1    2    0    0  0.17527188959E+02  0.84628489859E+01  0.14161946261E+04  0.14163636684E+04  0.10000000000E+02 0.  1.
</event>
<event>
 5    1  0.1245771E-008  0.3861129E+03  0.7957747E-01  0.3424966E+00
         13   -1    0    0    0    0  0.00000000000E+00  0.00000000000E+00  0.14999999963E+04  0.15000000000E+04  0.10566000000E+00 0.  1.
        994   -1    0    0    0    0 -0.00000000000E+00 -0.00000000000E+00  0.11368683772E-12  0.17120000000E+03  0.17120000000E+03 0.  0.
         13    1    1    2    0    0 -0.63806678210E+01 -0.87595053520E+01  0.55393581987E+02  0.56443794568E+02  0.10566000000E+00 0.  1.
        994    1    1    2    0    0  0.92673222171E+01  0.16967048964E+01  0.13695292039E+01  0.17146450851E+03  0.17120000000E+03 0.  0.
        998    1    1    2    0    0 -0.28866543961E+01  0.70628004556E+01  0.14432368851E+04  0.14432916969E+04  0.10000000000E+02 0.  1.
</event>
<event>
 5    1  0.1245771E-008  0.3717656E+03  0.7957747E-01  0.3487815E+00
         13   -1    0    0    0    0  0.00000000000E+00  0.00000000000E+00  0.14999999963E+04  0.15000000000E+04  0.10566000000E+00 0.  1.
        994   -1    0    0    0    0 -0.00000000000E+00 -0.00000000000E+00  0.11368683772E-12  0.17120000000E+03  0.17120000000E+03 0.  0.
         13    1    1    2    0    0  0.12173786402E+03 -0.70698030385E+02  0.66396524252E+03  0.67872540359E+03  0.10566000000E+00 0.  1.
        994    1    1    2    0    0 -0.13085560416E+03  0.46520612653E+02  0.77858273389E+02  0.23379201713E+03  0.17120000000E+03 0.  0.
        998    1    1    2    0    0  0.91177401327E+01  0.24177417732E+02  0.75817648037E+03  0.75868257928E+03  0.10000000000E+02 0.  1.
</event>
<event>
 5    1  0.1245771E-008  0.3861267E+03  0.7957747E-01  0.3424908E+00
         13   -1    0    0    0    0  0.00000000000E+00  0.00000000000E+00  0.14999999963E+04  0.15000000000E+04  0.10566000000E+00 0. -1.
        994   -1    0    0    0    0 -0.00000000000E+00 -0.00000000000E+00  0.11368683772E-12  0.17120000000E+03  0.17120000000E+03 0.  0.
         13    1    1    2    0    0 -0.89449547824E+00  0.11149628675E+02  0.55848037641E+02  0.56957254271E+02  0.10566000000E+00 0. -1.
        994    1    1    2    0    0 -0.23187223713E+01 -0.15922133216E+02  0.19205251012E+01  0.17196516861E+03  0.17120000000E+03 0.  0.
        998    1    1    2    0    0  0.32132178495E+01  0.47725045412E+01  0.14422314335E+04  0.14422775771E+04  0.10000000000E+02 0. -1.
</event>
<event>
 5    1  0.1245771E-008  0.3827590E+03  0.7957747E-01  0.3439233E+00
         13   -1    0    0    0    0  0.00000000000E+00  0.00000000000E+00  0.14999999963E+04  0.15000000000E+04  0.10566000000E+00 0.  1.
        994   -1    0    0    0    0 -0.00000000000E+00 -0.00000000000E+00  0.11368683772E-12  0.17120000000E+03  0.17120000000E+03 0.  0.
         13    1    1    2    0    0 -0.24724987197E+02  0.57726633331E+01  0.12443524184E+03  0.12699917011E+03  0.10566000000E+00 0.  1.
        994    1    1    2    0    0 -0.69576952953E-01 -0.33116871313E+02  0.63885376293E+01  0.17449064565E+03  0.17120000000E+03 0.  0.
        998    1    1    2    0    0  0.24794564150E+02  0.27344207980E+02  0.13691762168E+04  0.13697101842E+04  0.10000000000E+02 0.  1.
</event>
<event>
 5    1  0.1245771E-008  0.3840703E+03  0.7957747E-01  0.3433625E+00
         13   -1    0    0    0    0  0.00000000000E+00  0.00000000000E+00  0.14999999963E+04  0.15000000000E+04  0.10566000000E+00 0. -1.
        994   -1    0    0    0    0 -0.00000000000E+00 -0.00000000000E+00  0.11368683772E-12  0.17120000000E+03  0.17120000000E+03 0.  0.
         13    1    1    2    0    0 -0.22959786604E+02  0.28776269389E+01  0.12947582100E+03  0.13152730487E+03  0.10566000000E+00 0. -1.
        994    1    1    2    0    0  0.10996607256E+02 -0.13112153811E+02  0.30590307783E+01  0.17208036384E+03  0.17120000000E+03 0.  0.
        998    1    1    2    0    0  0.11963179348E+02  0.10234526872E+02  0.13674651445E+04  0.13675923313E+04  0.10000000000E+02 0. -1.
</event>
<event>
 5    1  0.1245771E-008  0.3829285E+03  0.7957747E-01  0.3438506E+00
         13   -1    0    0    0    0  0.00000000000E+00  0.00000000000E+00  0.14999999963E+04  0.15000000000E+04  0.10566000000E+00 0.  1.
        994   -1    0    0    0    0 -0.00000000000E+00 -0.00000000000E+00  0.11368683772E-12  0.17120000000E+03  0.17120000000E+03 0.  0.
         13    1    1    2    0    0  0.46588127512E+01  0.17956433059E+02  0.64718936036E+02  0.67325254326E+02  0.10566000000E+00 0.  1.
        994    1    1    2    0    0  0.81232263587E+01 -0.11837248038E+02  0.33448032515E+01  0.17183345121E+03  0.17120000000E+03 0.  0.
        998    1    1    2    0    0 -0.12782039110E+02 -0.61191850216E+01  0.14319362570E+04  0.14320412945E+04  0.10000000000E+02 0.  1.
</event>
<event>
 5    1  0.1245771E-008  0.3817355E+03  0.7957747E-01  0.3443637E+00
         13   -1    0    0    0    0  0.00000000000E+00  0.00000000000E+00  0.14999999963E+04  0.15000000000E+04  0.10566000000E+00 0.  1.
        994   -1    0    0    0    0 -0.00000000000E+00 -0.00000000000E+00  0.11368683772E-12  0.17120000000E+03  0.17120000000E+03 0.  0.
         13    1    1    2    0    0 -0.19294766615E+02  0.16691852542E+02  0.11537961810E+02  0.28000744396E+02  0.10566000000E+00 0.  1.
        994    1    1    2    0    0  0.27360027897E+02  0.72037286420E+01  0.20208222737E+02  0.17469481131E+03  0.17120000000E+03 0.  0.
        998    1    1    2    0    0 -0.80652612825E+01 -0.23895581184E+02  0.14682538117E+04  0.14685044443E+04  0.10000000000E+02 0.  1.
</event>
<event>
 5    1  0.1245771E-008  0.3766041E+03  0.7957747E-01  0.3466080E+00
         13   -1    0    0    0    0  0.00000000000E+00  0.00000000000E+00  0.14999999963E+04  0.15000000000E+04  0.10566000000E+00 0. -1.
        994   -1    0    0    0    0 -0.00000000000E+00 -0.00000000000E+00  0.11368683772E-12  0.17120000000E+03  0.17120000000E+03 0.  0.
         13    1    1    2    0    0 -0.10950531908E+02 -0.64088156694E+02  0.36343577825E+03  0.36920560945E+03  0.10566000000E+00 0. -1.
        994    1    1    2    0    0 -0.29784154763E+01  0.36805139619E+02  0.10481014294E+02  0.17545022349E+03  0.17120000000E+03 0.  0.
        998    1    1    2    0    0  0.13928947384E+02  0.27283017075E+02  0.11260832037E+04  0.11265441671E+04  0.10000000000E+02 0. -1.
</event>
<event>
 5    1  0.1245771E-008  0.3739067E+03  0.7957747E-01  0.3478127E+00
         13   -1    0    0    0    0  0.00000000000E+00  0.00000000000E+00  0.14999999963E+04  0.15000000000E+04  0.10566000000E+00 0. -1.
        994   -1    0    0    0    0 -0.00000000000E+00 -0.00000000000E+00  0.11368683772E-12  0.17120000000E+03  0.17120000000E+03 0.  0.
         13    1    1    2    0    0  0.36142245662E+02  0.30833433623E+02  0.86624104294E+02  0.98796301344E+02  0.10566000000E+00 0. -1.
        994    1    1    2    0    0 -0.24299007427E+01 -0.19242760205E+02  0.14354117974E+02  0.17289207310E+03  0.17120000000E+03 0.  0.
        998    1    1    2    0    0 -0.33712344919E+02 -0.11590673419E+02  0.13990217740E+04  0.13995116256E+04  0.10000000000E+02 0. -1.
</event>
<event>
 5    1  0.1245771E-008  0.3801333E+03  0.7957747E-01  0.3450578E+00
         13   -1    0    0    0    0  0.00000000000E+00  0.00000000000E+00  0.14999999963E+04  0.15000000000E+04  0.10566000000E+00 0. -1.
        994   -1    0    0    0    0 -0.00000000000E+00 -0.00000000000E+00  0.11368683772E-12  0.17120000000E+03  0.17120000000E+03 0.  0.
         13    1    1    2    0    0  0.18977178384E+02  0.69528007347E+01  0.48326008048E+02  0.52382143479E+02  0.10566000000E+00 0. -1.
        994    1    1    2    0    0 -0.19933549245E+02  0.95134810010E+01  0.56977083052E+01  0.17271293115E+03  0.17120000000E+03 0.  0.
        998    1    1    2    0    0  0.95637086095E+00 -0.16466281736E+02  0.14459762799E+04  0.14461049254E+04  0.10000000000E+02 0. -1.
</event>
<event>
 5    1  0.1245771E-008  0.3757865E+03  0.7957747E-01  0.3469713E+00
         13   -1    0    0    0    0  0.00000000000E+00  0.00000000000E+00  0.14999999963E+04  0.15000000000E+04  0.10566000000E+00 0. -1.
        994   -1    0    0    0    0 -0.00000000000E+00 -0.00000000000E+00  0.11368683772E-12  0.17120000000E+03  0.17120000000E+03 0.  0.
         13    1    1    2    0    0 -0.24331051651E+02  0.74036737320E+01  0.47863874523E+02  0.54201255590E+02  0.10566000000E+00 0. -1.
        994    1    1    2    0    0  0.22622228609E+02 -0.10421274010E+02  0.83814169421E+01  0.17320524337E+03  0.17120000000E+03 0.  0.
        998    1    1    2    0    0  0.17088230421E+01  0.30176002784E+01  0.14437547048E+04  0.14437935010E+04  0.10000000000E+02 0. -1.
</event>
<event>
 5    1  0.1245771E-008  0.3717040E+03  0.7957747E-01  0.3488096E+00
         13   -1    0    0    0    0  0.00000000000E+00  0.00000000000E+00  0.14999999963E+04  0.15000000000E+04  0.10566000000E+00 0. -1.
        994   -1    0    0    0    0 -0.00000000000E+00 -0.00000000000E+00  0.11368683772E-12  0.17120000000E+03  0.17120000000E+03 0.  0.
         13    1    1    2    0    0 -0.17211596994E+02 -0.22046556632E+02  0.43154884687E+02  0.51426111721E+02  0.10566000000E+00 0. -1.
        994    1    1    2    0    0  0.13233843245E+02  0.15729721167E+02  0.98349777361E+01  0.17270994622E+03  0.17120000000E+03 0.  0.
        998    1    1    2    0    0  0.39777537491E+01  0.63168354644E+01  0.14470101339E+04  0.14470639421E+04  0.10000000000E+02 0. -1.
</event>
<event>
 5    1  0.1245771E-008  0.3823607E+03  0.7957747E-01  0.3440944E+00
         13   -1    0    0    0    0  0.00000000000E+00  0.00000000000E+00  0.14999999963E+04  0.15000000000E+04  0.10566000000E+00 0.  1.
        994   -1    0    0    0    0 -0.00000000000E+00 -0.00000000000E+00  0.11368683772E-12  0.17120000000E+03  0.17120000000E+03 0.  0.
         13    1    1    2    0    0 -0.47595808400E+01 -0.12114336107E+02  0.27840815961E+02  0.30733254733E+02  0.10566000000E+00 0.  1.
        994    1    1    2    0    0 -0.59873172477E+00  0.79101001309E+01  0.31549838962E+01  0.17141272440E+03  0.17120000000E+03 0.  0.
        998    1    1    2    0    0  0.53583125648E+01  0.42042359756E+01  0.14690041964E+04  0.14690540209E+04  0.10000000000E+02 0.  1.
</event>
<event>
 5    1  0.1245771E-008  0.3694533E+03  0.7957747E-01  0.3498407E+00
         13   -1    0    0    0    0  0.00000000000E+00  0.00000000000E+00  0.14999999963E+04  0.15000000000E+04  0.10566000000E+00 0. -1.
        994   -1    0    0    0    0 -0.00000000000E+00 -0.00000000000E+00  0.11368683772E-12  0.17120000000E+03  0.17120000000E+03 0.  0.
         13    1    1    2    0    0  0.61469413269E+01 -0.10193025573E+02  0.29128815285E+01  0.12254741973E+02  0.10566000000E+00 0. -1.
        994    1    1    2    0    0 -0.13215818592E+02  0.10842445388E+02  0.10568017542E+02  0.17237557680E+03  0.17120000000E+03 0.  0.
        998    1    1    2    0    0  0.70688772648E+01 -0.64941981578E+00  0.14865190972E+04  0.14865696812E+04  0.10000000000E+02 0. -1.
</event>
<event>
 5    1  0.1245771E-008  0.3814441E+03  0.7957747E-01  0.3444894E+00
         13   -1    0    0    0    0  0.00000000000E+00  0.00000000000E+00  0.14999999963E+04  0.15000000000E+04  0.10566000000E+00 0. -1.
        994   -1    0    0    0    0 -0.00000000000E+00 -0.00000000000E+00  0.11368683772E-12  0.17120000000E+03  0.17120000000E+03 0.  0.
         13    1    1    2    0    0  0.58539551120E+01  0.95368390239E+01  0.16911509597E+02  0.20278816778E+02  0.10566000000E+00 0. -1.
        994    1    1    2    0    0 -0.66602980123E+02  0.32307028483E+02  0.21856946572E+02  0.18779474743E+03  0.17120000000E+03 0.  0.
        998    1    1    2    0    0  0.60749025011E+02 -0.41843867507E+02  0.14612315401E+04  0.14631264358E+04  0.10000000000E+02 0. -1.
</event>
<event>
 5    1  0.1245771E-008  0.3943739E+03  0.7957747E-01  0.3390864E+00
         13   -1    0    0    0    0  0.00000000000E+00  0.00000000000E+00  0.14999999963E+04  0.15000000000E+04  0.10566000000E+00 0.  1.
        994   -1    0    0    0    0 -0.00000000000E+00 -0.00000000000E+00  0.11368683772E-12  0.17120000000E+03  0.17120000000E+03 0.  0.
         13    1    1    2    0    0 -0.20106728786E+02 -0.11517645032E+03  0.28848458037E+03  0.31127682138E+03  0.10566000000E+00 0.  1.
        994    1    1    2    0    0 -0.26791280375E+02  0.66773903517E+02  0.44553290714E+02  0.19097372230E+03  0.17120000000E+03 0.  0.
        998    1    1    2    0    0  0.46898009160E+02  0.48402546807E+02  0.11669621252E+04  0.11689494563E+04  0.10000000000E+02 0.  1.
</event>
<event>
 5    1  0.1245771E-008  0.3770167E+03  0.7957747E-01  0.3464252E+00
         13   -1    0    0    0    0  0.00000000000E+00  0.00000000000E+00  0.14999999963E+04  0.15000000000E+04  0.10566000000E+00 0.  1.
        994   -1    0    0    0    0 -0.00000000000E+00 -0.00000000000E+00  0.11368683772E-12  0.17120000000E+03  0.17120000000E+03 0.  0.
         13    1    1    2    0    0  0.57089908365E+02 -0.12509859649E+01  0.23780199500E+03  0.24456210376E+03  0.10566000000E+00 0.  1.
        994    1    1    2    0    0 -0.59920261775E+02 -0.12148704980E+01  0.17871539670E+02  0.18226559086E+03  0.17120000000E+03 0.  0.
        998    1    1    2    0    0  0.28303534105E+01  0.24658564629E+01  0.12443264616E+04  0.12443723054E+04  0.10000000000E+02 0.  1.
</event>
<event>
 5    1  0.1245771E-008  0.3841531E+03  0.7957747E-01  0.3433272E+00
         13   -1    0    0    0    0  0.00000000000E+00  0.00000000000E+00  0.14999999963E+04  0.15000000000E+04  0.10566000000E+00 0.  1.
        994   -1    0    0    0    0 -0.00000000000E+00 -0.00000000000E+00  0.11368683772E-12  0.17120000000E+03  0.17120000000E+03 0.  0.
         13    1    1    2    0    0  0.19536466933E+02  0.88411401713E+01  0.10912873867E+03  0.11121570064E+03  0.10566000000E+00 0.  1.
        994    1    1    2    0    0 -0.14863201815E+02 -0.73181789693E+01  0.29568395053E+01  0.17202515343E+03  0.17120000000E+03 0.  0.
        998    1    1    2    0    0 -0.46732651176E+01 -0.15229612019E+01  0.13879144181E+04  0.13879591459E+04  0.10000000000E+02 0.  0.
</event>
<event>
 5    1  0.1245771E-008  0.3759692E+03  0.7957747E-01  0.3468899E+00
         13   -1    0    0    0    0  0.00000000000E+00  0.00000000000E+00  0.14999999963E+04  0.15000000000E+04  0.10566000000E+00 0.  1.
        994   -1    0    0    0    0 -0.00000000000E+00 -0.00000000000E+00  0.11368683772E-12  0.17120000000E+03  0.17120000000E+03 0.  0.
         13    1    1    2    0    0 -0.61864783920E+02  0.15334868657E+02  0.29604957780E+03  0.30283291328E+03  0.10566000000E+00 0.  1.
        994    1    1    2    0    0  0.51578958791E+02  0.23269727386E+01  0.15267951047E+02  0.17946686079E+03  0.17120000000E+03 0.  0.
        998    1    1    2    0    0  0.10285825129E+02 -0.17661841395E+02  0.11886824674E+04  0.11889002259E+04  0.10000000000E+02 0.  1.
</event>
<event>
 5    1  0.1245771E-008  0.3776248E+03  0.7957747E-01  0.3461566E+00
         13   -1    0    0    0    0  0.00000000000E+00  0.00000000000E+00  0.14999999963E+04  0.15000000000E+04  0.10566000000E+00 0. -1.
        994   -1    0    0    0    0 -0.00000000000E+00 -0.00000000000E+00  0.11368683772E-12  0.17120000000E+03  0.17120000000E+03 0.  0.
         13    1    1    2    0    0 -0.49698093006E+02 -0.98474021212E+02  0.35314296720E+03  0.36996891727E+03  0.10566000000E+00 0. -1.
        994    1    1    2    0    0  0.77109532612E+02  0.58985523810E+02  0.49717816223E+02  0.20299377648E+03  0.17120000000E+03 0.  0.
        998    1    1    2    0    0 -0.27411439606E+02  0.39488497402E+02  0.10971392129E+04  0.10982373062E+04  0.10000000000E+02 0. -1.
</event>
<event>
 5    1  0.1245771E-008  0.3850078E+03  0.7957747E-01  0.3429639E+00
         13   -1    0    0    0    0  0.00000000000E+00  0.00000000000E+00  0.14999999963E+04  0.15000000000E+04  0.10566000000E+00 0.  1.
        994   -1    0    0    0    0 -0.00000000000E+00 -0.00000000000E+00  0.11368683772E-12  0.17120000000E+03  0.17120000000E+03 0.  0.
         13    1    1    2    0    0 -0.14560299990E+02 -0.46145351917E+01  0.67214605649E+02  0.68928300772E+02  0.10566000000E+00 0.  1.
        994    1    1    2    0    0  0.19931982022E+02  0.43123677289E+01  0.29951229258E+01  0.17243633951E+03  0.17120000000E+03 0.  0.
        998    1    1    2    0    0 -0.53716820315E+01  0.30216746276E+00  0.14297902677E+04  0.14298353597E+04  0.10000000000E+02 0.  1.
</event>
<event>
 5    1  0.1245771E-008  0.3816588E+03  0.7957747E-01  0.3443967E+00
         13   -1    0    0    0    0  0.00000000000E+00  0.00000000000E+00  0.14999999963E+04  0.15000000000E+04  0.10566000000E+00 0. -1.
        994   -1    0    0    0    0 -0.00000000000E+00 -0.00000000000E+00  0.11368683772E-12  0.17120000000E+03  0.17120000000E+03 0.  0.
         13    1    1    2    0    0 -0.11103661645E+02 -0.10120065105E+02  0.31605080948E+02  0.34994275609E+02  0.10566000000E+00 0. -1.
        994    1    1    2    0    0  0.11420658452E+02  0.21379370995E+02  0.52538622004E+01  0.17298714406E+03  0.17120000000E+03 0.  0.
        998    1    1    2    0    0 -0.31699680747E+00 -0.11259305890E+02  0.14631410531E+04  0.14632185803E+04  0.10000000000E+02 0. -1.
</event>
<event>
 5    1  0.1245771E-008  0.3814758E+03  0.7957747E-01  0.3444758E+00
         13   -1    0    0    0    0  0.00000000000E+00  0.00000000000E+00  0.14999999963E+04  0.15000000000E+04  0.10566000000E+00 0. -1.
        994   -1    0    0    0    0 -0.00000000000E+00 -0.00000000000E+00  0.11368683772E-12  0.17120000000E+03  0.17120000000E+03 0.  0.
         13    1    1    2    0    0  0.88341553655E+00  0.13553539109E+02  0.25556801840E+02  0.28942013228E+02  0.10566000000E+00 0. -1.
        994    1    1    2    0    0 -0.71543251615E+00 -0.13549421111E+02  0.40026891593E+01  0.17178346887E+03  0.17120000000E+03 0.  0.
        998    1    1    2    0    0 -0.16798302040E+00 -0.41179978769E-02  0.14704405053E+04  0.14704745179E+04  0.10000000000E+02 0.  0.
</event>
<event>
 5    1  0.1245771E-008  0.3785966E+03  0.7957747E-01  0.3457292E+00
         13   -1    0    0    0    0  0.00000000000E+00  0.00000000000E+00  0.14999999963E+04  0.15000000000E+04  0.10566000000E+00 0. -1.
        994   -1    0    0    0    0 -0.00000000000E+00 -0.00000000000E+00  0.11368683772E-12  0.17120000000E+03  0.17120000000E+03 0.  0.
         13    1    1    2    0    0  0.17880468725E+02  0.39129364150E+01  0.31727744317E+02  0.36628993389E+02  0.10566000000E+00 0. -1.
        994    1    1    2    0    0 -0.24164683403E+02  0.81750406208E+01  0.70319093313E+01  0.17323293844E+03  0.17120000000E+03 0.  0.
        998    1    1    2    0    0  0.62842146773E+01 -0.12087977036E+02  0.14612403426E+04  0.14613380682E+04  0.10000000000E+02 0. -1.
</event>
<event>
 5    1  0.1245771E-008  0.3744057E+03  0.7957747E-01  0.3475885E+00
         13   -1    0    0    0    0  0.00000000000E+00  0.00000000000E+00  0.14999999963E+04  0.15000000000E+04  0.10566000000E+00 0. -1.
        994   -1    0    0    0    0 -0.00000000000E+00 -0.00000000000E+00  0.11368683772E-12  0.17120000000E+03  0.17120000000E+03 0.  0.
         13    1    1    2    0    0 -0.63895905581E+02  0.68040635433E+02  0.30719396385E+03  0.32106129852E+03  0.10566000000E+00 0. -1.
        994    1    1    2    0    0  0.42832857547E+02 -0.47611100228E+02  0.27998160800E+02  0.18491838080E+03  0.17120000000E+03 0.  0.
        998    1    1    2    0    0  0.21063048035E+02 -0.20429535205E+02  0.11648078716E+04  0.11652203207E+04  0.10000000000E+02 0. -1.
</event>
<event>
 5    1  0.1245771E-008  0.3798051E+03  0.7957747E-01  0.3452007E+00
         13   -1    0    0    0    0  0.00000000000E+00  0.00000000000E+00  0.14999999963E+04  0.15000000000E+04  0.10566000000E+00 0. -1.
        994   -1    0    0    0    0 -0.00000000000E+00 -0.00000000000E+00  0.11368683772E-12  0.17120000000E+03  0.17120000000E+03 0.  0.
         13    1    1    2    0    0 -0.15048221105E+02 -0.24969001426E+02  0.97659438459E+02  0.10191799191E+03  0.10566000000E+00 0. -1.
        994    1    1    2    0    0  0.79363539362E+01  0.19030148827E+02  0.56549342735E+01  0.17252985411E+03  0.17120000000E+03 0.  0.
        998    1    1    2    0    0  0.71118671689E+01  0.59388525990E+01  0.13966856235E+04  0.13967521540E+04  0.10000000000E+02 0. -1.
</event>
<event>
 5    1  0.1245771E-008  0.3769872E+03  0.7957747E-01  0.3464383E+00
         13   -1    0    0    0    0  0.00000000000E+00  0.00000000000E+00  0.14999999963E+04  0.15000000000E+04  0.10566000000E+00 0. -1.
        994   -1    0    0    0    0 -0.00000000000E+00 -0.00000000000E+00  0.11368683772E-12  0.17120000000E+03  0.17120000000E+03 0.  0.
         13    1    1    2    0    0  0.23627075723E+02 -0.26264844278E+02  0.99134205769E+02  0.10524106931E+03  0.10566000000E+00 0. -1.
        994    1    1    2    0    0 -0.25550319788E+02  0.32310918894E+02  0.11412719299E+02  0.17645538950E+03  0.17120000000E+03 0.  0.
        998    1    1    2    0    0  0.19232440655E+01 -0.60460746162E+01  0.13894530712E+04  0.13895035412E+04  0.10000000000E+02 0. -1.
</event>
<event>
 5    1  0.1245771E-008  0.3739551E+03  0.7957747E-01  0.3477909E+00
         13   -1    0    0    0    0  0.00000000000E+00  0.00000000000E+00  0.14999999963E+04  0.15000000000E+04  0.10566000000E+00 0. -1.
        994   -1    0    0    0    0 -0.00000000000E+00 -0.00000000000E+00  0.11368683772E-12  0.17120000000E+03  0.17120000000E+03 0.  0.
         13    1    1    2    0    0  0.17394437779E+02 -0.18638235430E+03  0.10486479304E+04  0.10652245967E+04  0.10566000000E+00 0. -1.
        994    1    1    2    0    0 -0.47412762910E+01  0.16688814716E+03  0.10919181940E+03  0.26288101260E+03  0.17120000000E+03 0.  0.
        998    1    1    2    0    0 -0.12653161488E+02  0.19494207140E+02  0.34216024651E+03  0.34309439065E+03  0.10000000000E+02 0. -1.
</event>
<event>
 5    1  0.1245771E-008  0.3855207E+03  0.7957747E-01  0.3427467E+00
         13   -1    0    0    0    0  0.00000000000E+00  0.00000000000E+00  0.14999999963E+04  0.15000000000E+04  0.10566000000E+00 0.  1.
        994   -1    0    0    0    0 -0.00000000000E+00 -0.00000000000E+00  0.11368683772E-12  0.17120000000E+03  0.17120000000E+03 0.  0.
         13    1    1    2    0    0  0.33405681666E+02 -0.32100774511E+01  0.20788794237E+02  0.39476946370E+02  0.10566000000E+00 0.  1.
        994    1    1    2    0    0 -0.34159938298E+02 -0.84187359945E+01  0.23984834303E+02  0.17641567044E+03  0.17120000000E+03 0.  0.
        998    1    1    2    0    0  0.75425663131E+00  0.11628813446E+02  0.14552263677E+04  0.14553073832E+04  0.10000000000E+02 0.  1.
</event>
<event>
 5    1  0.1245771E-008  0.3859166E+03  0.7957747E-01  0.3425794E+00
         13   -1    0    0    0    0  0.00000000000E+00  0.00000000000E+00  0.14999999963E+04  0.15000000000E+04  0.10566000000E+00 0.  1.
        994   -1    0    0    0    0 -0.00000000000E+00 -0.00000000000E+00  0.11368683772E-12  0.17120000000E+03  0.17120000000E+03 0.  0.
         13    1    1    2    0    0 -0.51189990882E+00  0.11664176255E+02  0.57494900472E+02  0.58668473592E+02  0.10566000000E+00 0.  1.
        994    1    1    2    0    0  0.79983036916E+01 -0.10240448789E+02  0.17295346762E+01  0.17170110933E+03  0.17120000000E+03 0.  0.
        998    1    1    2    0    0 -0.74864037828E+01 -0.14237274659E+01  0.14407755611E+04  0.14408304171E+04  0.10000000000E+02 0.  1.
</event>
<event>
 5    1  0.1245771E-008  0.3822122E+03  0.7957747E-01  0.3441582E+00
         13   -1    0    0    0    0  0.00000000000E+00  0.00000000000E+00  0.14999999963E+04  0.15000000000E+04  0.10566000000E+00 0.  1.
        994   -1    0    0    0    0 -0.00000000000E+00 -0.00000000000E+00  0.11368683772E-12  0.17120000000E+03  0.17120000000E+03 0.  0.
         13    1    1    2    0    0 -0.10519801212E+02  0.29424915750E+02  0.16755103092E+03  0.17044016842E+03  0.10566000000E+00 0.  1.
        994    1    1    2    0    0  0.15954583100E+01 -0.13280325662E+02  0.36145588688E+01  0.17175976704E+03  0.17120000000E+03 0.  0.
        998    1    1    2    0    0  0.89243429022E+01 -0.16144590088E+02  0.13288344065E+04  0.13290000645E+04  0.10000000000E+02 0.  1.
</event>
<event>
 5    1  0.1245771E-008  0.3975012E+03  0.7957747E-01  0.3378324E+00
         13   -1    0    0    0    0  0.00000000000E+00  0.00000000000E+00  0.14999999963E+04  0.15000000000E+04  0.10566000000E+00 0. -1.
        994   -1    0    0    0    0 -0.00000000000E+00 -0.00000000000E+00  0.11368683772E-12  0.17120000000E+03  0.17120000000E+03 0.  0.
         13    1    1    2    0    0 -0.66140151970E+01  0.70618444013E+02  0.85732049131E+02  0.11126861752E+03  0.10566000000E+00 0. -1.
        994    1    1    2    0    0  0.32273029692E+01 -0.57918443487E+02  0.39451494099E+02  0.18501573438E+03  0.17120000000E+03 0.  0.
        998    1    1    2    0    0  0.33867122278E+01 -0.12700000526E+02  0.13748164530E+04  0.13749156481E+04  0.10000000000E+02 0. -1.
</event>
<event>
 5    1  0.1245771E-008  0.3496964E+03  0.7957747E-01  0.3594744E+00
         13   -1    0    0    0    0  0.00000000000E+00  0.00000000000E+00  0.14999999963E+04  0.15000000000E+04  0.10566000000E+00 0. -1.
        994   -1    0    0    0    0 -0.00000000000E+00 -0.00000000000E+00  0.11368683772E-12  0.17120000000E+03  0.17120000000E+03 0.  0.
         13    1    1    2    0    0  0.26900753546E+03 -0.81481493983E+02  0.91605364139E+03  0.95820591370E+03  0.10566000000E+00 0. -1.
        994    1    1    2    0    0 -0.22877296387E+03  0.68478399324E+02  0.27972954131E+03  0.40569004973E+03  0.17120000000E+03 0.  0.
        998    1    1    2    0    0 -0.40234571592E+02  0.13003094658E+02  0.30421681359E+03  0.30730403657E+03  0.10000000000E+02 0. -1.
</event>
<event>
 5    1  0.1245771E-008  0.3839672E+03  0.7957747E-01  0.3434064E+00
         13   -1    0    0    0    0  0.00000000000E+00  0.00000000000E+00  0.14999999963E+04  0.15000000000E+04  0.10566000000E+00 0.  1.
        994   -1    0    0    0    0 -0.00000000000E+00 -0.00000000000E+00  0.11368683772E-12  0.17120000000E+03  0.17120000000E+03 0.  0.
         13    1    1    2    0    0  0.14340273252E+02  0.11529644647E+02  0.71066462192E+02  0.73410008549E+02  0.10566000000E+00 0.  1.
        994    1    1    2    0    0 -0.94648369045E+01 -0.35651966967E+02  0.66464379213E+01  0.17525484593E+03  0.17120000000E+03 0.  0.
        998    1    1    2    0    0 -0.48754363475E+01  0.24122322319E+02  0.14222870962E+04  0.14225351455E+04  0.10000000000E+02 0.  1.
</event>
<event>
 5    1  0.1245771E-008  0.3828016E+03  0.7957747E-01  0.3439050E+00
         13   -1    0    0    0    0  0.00000000000E+00  0.00000000000E+00  0.14999999963E+04  0.15000000000E+04  0.10566000000E+00 0.  1.
        994   -1    0    0    0    0 -0.00000000000E+00 -0.00000000000E+00  0.11368683772E-12  0.17120000000E+03  0.17120000000E+03 0.  0.
         13    1    1    2    0    0  0.31433787117E+01  0.97993415111E+01  0.18221563947E+02  0.20927123082E+02  0.10566000000E+00 0.  1.
        994    1    1    2    0    0 -0.59502832890E+01 -0.88344327514E+01  0.31014100849E+01  0.17155906218E+03  0.17120000000E+03 0.  0.
        998    1    1    2    0    0  0.28069045773E+01 -0.96490875972E+00  0.14786770222E+04  0.14787138147E+04  0.10000000000E+02 0.  1.
</event>
<event>
 5    1  0.1245771E-008  0.3829205E+03  0.7957747E-01  0.3438540E+00
         13   -1    0    0    0    0  0.00000000000E+00  0.00000000000E+00  0.14999999963E+04  0.15000000000E+04  0.10566000000E+00 0. -1.
        994   -1    0    0    0    0 -0.00000000000E+00 -0.00000000000E+00  0.11368683772E-12  0.17120000000E+03  0.17120000000E+03 0.  0.
         13    1    1    2    0    0 -0.28625426676E+00 -0.17137111698E+02  0.50633766611E+02  0.53456075652E+02  0.10566000000E+00 0. -1.
        994    1    1    2    0    0  0.40254159570E+01  0.26734667874E+02  0.50900033385E+01  0.17339635110E+03  0.17120000000E+03 0.  0.
        998    1    1    2    0    0 -0.37391616902E+01 -0.95975561764E+01  0.14442762263E+04  0.14443475733E+04  0.10000000000E+02 0. -1.
</event>
<event>
 5    1  0.1245771E-008  0.3835554E+03  0.7957747E-01  0.3435822E+00
         13   -1    0    0    0    0  0.00000000000E+00  0.00000000000E+00  0.14999999963E+04  0.15000000000E+04  0.10566000000E+00 0.  1.
        994   -1    0    0    0    0 -0.00000000000E+00 -0.00000000000E+00  0.11368683772E-12  0.17120000000E+03  0.17120000000E+03 0.  0.
         13    1    1    2    0    0 -0.58764132766E+01 -0.97029665326E+01  0.26271089545E+02  0.28615749203E+02  0.10566000000E+00 0.  1.
        994    1    1    2    0    0  0.13364045804E+02  0.55106192819E+01  0.30397875422E+01  0.17183609910E+03  0.17120000000E+03 0.  0.
        998    1    1    2    0    0 -0.74876325271E+01  0.41923472507E+01  0.14706891192E+04  0.14707481517E+04  0.10000000000E+02 0.  1.
</event>
<event>
 5    1  0.1245771E-008  0.3849433E+03  0.7957747E-01  0.3429913E+00
         13   -1    0    0    0    0  0.00000000000E+00  0.00000000000E+00  0.14999999963E+04  0.15000000000E+04  0.10566000000E+00 0. -1.
        994   -1    0    0    0    0 -0.00000000000E+00 -0.00000000000E+00  0.11368683772E-12  0.17120000000E+03  0.17120000000E+03 0.  0.
         13    1    1    2    0    0 -0.17432892238E+02  0.13517448999E+00  0.91166396553E+02  0.92818355019E+02  0.10566000000E+00 0. -1.
        994    1    1    2    0    0  0.12038892402E+02  0.60967699886E+01  0.22575132105E+01  0.17174586429E+03  0.17120000000E+03 0.  0.
        998    1    1    2    0    0  0.53939998357E+01 -0.62319444786E+01  0.14065760865E+04  0.14066357807E+04  0.10000000000E+02 0. -1.
</event>
<event>
 5    1  0.1245771E-008  0.3734825E+03  0.7957747E-01  0.3480038E+00
         13   -1    0    0    0    0  0.00000000000E+00  0.00000000000E+00  0.14999999963E+04  0.15000000000E+04  0.10566000000E+00 0.  1.
        994   -1    0    0    0    0 -0.00000000000E+00 -0.00000000000E+00  0.11368683772E-12  0.17120000000E+03  0.17120000000E+03 0.  0.
         13    1    1    2    0    0 -0.28795614500E+02 -0.52819732594E+02  0.21120280689E+03  0.21960361647E+03  0.10566000000E+00 0.  1.
        994    1    1    2    0    0  0.22853301246E+02  0.52509753914E+02  0.18749364063E+02  0.18149525142E+03  0.17120000000E+03 0.  0.
        998    1    1    2    0    0  0.59423132536E+01  0.30997868058E+00  0.12700478253E+04  0.12701011321E+04  0.10000000000E+02 0.  1.
</event>
<event>
 5    1  0.1245771E-008  0.3805917E+03  0.7957747E-01  0.3448586E+00
         13   -1    0    0    0    0  0.00000000000E+00  0.00000000000E+00  0.14999999963E+04  0.15000000000E+04  0.10566000000E+00 0. -1.
        994   -1    0    0    0    0 -0.00000000000E+00 -0.00000000000E+00  0.11368683772E-12  0.17120000000E+03  0.17120000000E+03 0.  0.
         13    1    1    2    0    0 -0.41611090556E+02 -0.23672541107E+02  0.60607803846E+02  0.77234636730E+02  0.10566000000E+00 0. -1.
        994    1    1    2    0    0  0.38366672362E+02  0.27094990329E+02  0.24707405407E+02  0.17923737314E+03  0.17120000000E+03 0.  0.
        998    1    1    2    0    0  0.32444181944E+01 -0.34224492215E+01  0.14146847870E+04  0.14147279901E+04  0.10000000000E+02 0. -1.
</event>
<event>
 5    1  0.1245771E-008  0.3844703E+03  0.7957747E-01  0.3431922E+00
         13   -1    0    0    0    0  0.00000000000E+00  0.00000000000E+00  0.14999999963E+04  0.15000000000E+04  0.10566000000E+00 0. -1.
        994   -1    0    0    0    0 -0.00000000000E+00 -0.00000000000E+00  0.11368683772E-12  0.17120000000E+03  0.17120000000E+03 0.  0.
         13    1    1    2    0    0  0.25048782218E+01 -0.12443039058E+02  0.47350602390E+02  0.49022386178E+02  0.10566000000E+00 0. -1.
        994    1    1    2    0    0  0.14654054887E+01 -0.13658678386E+02  0.25152401272E+01  0.17176866228E+03  0.17120000000E+03 0.  0.
        998    1    1    2    0    0 -0.39702837105E+01  0.26101717445E+02  0.14501341538E+04  0.14504089515E+04  0.10000000000E+02 0. -1.
</event>
<event>
 5    1  0.1245771E-008  0.3841198E+03  0.7957747E-01  0.3433414E+00
         13   -1    0    0    0    0  0.00000000000E+00  0.00000000000E+00  0.14999999963E+04  0.15000000000E+04  0.10566000000E+00 0.  1.
        994   -1    0    0    0    0 -0.00000000000E+00 -0.00000000000E+00  0.11368683772E-12  0.17120000000E+03  0.17120000000E+03 0.  0.
         13    1    1    2    0    0  0.22414248958E+01 -0.20615325418E+02  0.94546451760E+02  0.96793896151E+02  0.10566000000E+00 0.  1.
        994    1    1    2    0    0 -0.14177049021E+01  0.26656760100E+02  0.44214722252E+01  0.17332507656E+03  0.17120000000E+03 0.  0.
        998    1    1    2    0    0 -0.82371999371E+00 -0.60414346813E+01  0.14010320723E+04  0.14010810273E+04  0.10000000000E+02 0.  1.
</event>
<event>
 5    1  0.1245771E-008  0.3810250E+03  0.7957747E-01  0.3446708E+00
         13   -1    0    0    0    0  0.00000000000E+00  0.00000000000E+00  0.14999999963E+04  0.15000000000E+04  0.10566000000E+00 0.  1.
        994   -1    0    0    0    0 -0.00000000000E+00 -0.00000000000E+00  0.11368683772E-12  0.17120000000E+03  0.17120000000E+03 0.  0.
         13    1    1    2    0    0  0.31945321168E+02 -0.14039475805E+02  0.15278298727E+03  0.15671714261E+03  0.10566000000E+00 0.  1.
        994    1    1    2    0    0 -0.31378535732E+02  0.12881045339E+02  0.74592830860E+01  0.17468719111E+03  0.17120000000E+03 0.  0.
        998    1    1    2    0    0 -0.56678543590E+00  0.11584304659E+01  0.13397577259E+04  0.13397956663E+04  0.10000000000E+02 0.  0.
</event>
<event>
 5    1  0.1245771E-008  0.3735714E+03  0.7957747E-01  0.3479637E+00
         13   -1    0    0    0    0  0.00000000000E+00  0.00000000000E+00  0.14999999963E+04  0.15000000000E+04  0.10566000000E+00 0.  1.
        994   -1    0    0    0    0 -0.00000000000E+00 -0.00000000000E+00  0.11368683772E-12  0.17120000000E+03  0.17120000000E+03 0.  0.
         13    1    1    2    0    0  0.23196903808E+02 -0.11235348563E+02  0.46127700462E+02  0.52840375827E+02  0.10566000000E+00 0.  1.
        994    1    1    2    0    0 -0.30381429726E+01 -0.42654384705E+02  0.13685979847E+02  0.17698975363E+03  0.17120000000E+03 0.  0.
        998    1    1    2    0    0 -0.20158760835E+02  0.53889733268E+02  0.14401863160E+04  0.14413698705E+04  0.10000000000E+02 0.  1.
</event>
<event>
 5    1  0.1245771E-008  0.3836328E+03  0.7957747E-01  0.3435492E+00
         13   -1    0    0    0    0  0.00000000000E+00  0.00000000000E+00  0.14999999963E+04  0.15000000000E+04  0.10566000000E+00 0.  1.
        994   -1    0    0    0    0 -0.00000000000E+00 -0.00000000000E+00  0.11368683772E-12  0.17120000000E+03  0.17120000000E+03 0.  0.
         13    1    1    2    0    0  0.20175781905E+02  0.86709507291E-01  0.91863904249E+02  0.94053483518E+02  0.10566000000E+00 0.  1.
        994    1    1    2    0    0 -0.53314722970E+01 -0.94586747829E+01  0.26999948040E+01  0.17156520946E+03  0.17120000000E+03 0.  0.
        998    1    1    2    0    0 -0.14844309608E+02  0.93719652756E+01  0.14054360972E+04  0.14055813070E+04  0.10000000000E+02 0.  1.
</event>
<event>
 5    1  0.1245771E-008  0.3840437E+03  0.7957747E-01  0.3433738E+00
         13   -1    0    0    0    0  0.00000000000E+00  0.00000000000E+00  0.14999999963E+04  0.15000000000E+04  0.10566000000E+00 0.  1.
        994   -1    0    0    0    0 -0.00000000000E+00 -0.00000000000E+00  0.11368683772E-12  0.17120000000E+03  0.17120000000E+03 0.  0.
         13    1    1    2    0    0 -0.10249091870E+02 -0.11166157649E+02  0.55397556271E+02  0.57433677974E+02  0.10566000000E+00 0.  1.
        994    1    1    2    0    0  0.12347323492E+01  0.63694764932E+01  0.22445248566E+01  0.17133759858E+03  0.17120000000E+03 0.  0.
        998    1    1    2    0    0  0.90143595203E+01  0.47966811558E+01  0.14423579152E+04  0.14424287234E+04  0.10000000000E+02 0.  1.
</event>
<event>
 5    1  0.1245771E-008  0.3860139E+03  0.7957747E-01  0.3425384E+00
         13   -1    0    0    0    0  0.00000000000E+00  0.00000000000E+00  0.14999999963E+04  0.15000000000E+04  0.10566000000E+00 0.  1.
        994   -1    0    0    0    0 -0.00000000000E+00 -0.00000000000E+00  0.11368683772E-12  0.17120000000E+03  0.17120000000E+03 0.  0.
         13    1    1    2    0    0 -0.93090882904E+01  0.80341847489E+01  0.64289485230E+02  0.65454994649E+02  0.10566000000E+00 0.  1.
        994    1    1    2    0    0  0.11007727651E+02 -0.10850975379E+02  0.19111200006E+01  0.17190696936E+03  0.17120000000E+03 0.  0.
        998    1    1    2    0    0 -0.16986393602E+01  0.28167906305E+01  0.14337993910E+04  0.14338380360E+04  0.10000000000E+02 0.  1.
</event>
<event>
 5    1  0.1245771E-008  0.3794267E+03  0.7957747E-01  0.3453659E+00
         13   -1    0    0    0    0  0.00000000000E+00  0.00000000000E+00  0.14999999963E+04  0.15000000000E+04  0.10566000000E+00 0.  1.
        994   -1    0    0    0    0 -0.00000000000E+00 -0.00000000000E+00  0.11368683772E-12  0.17120000000E+03  0.17120000000E+03 0.  0.
         13    1    1    2    0    0  0.25546657978E+02 -0.77879438467E+01  0.84095581833E+02  0.88234697546E+02  0.10566000000E+00 0.  1.
        994    1    1    2    0    0 -0.12285403640E+01  0.72279335159E+01  0.46028660286E+01  0.17141872334E+03  0.17120000000E+03 0.  0.
        998    1    1    2    0    0 -0.24318117614E+02  0.56001033078E+00  0.14113015484E+04  0.14115465791E+04  0.10000000000E+02 0.  1.
</event>
<event>
 5    1  0.1245771E-008  0.3806863E+03  0.7957747E-01  0.3448175E+00
         13   -1    0    0    0    0  0.00000000000E+00  0.00000000000E+00  0.14999999963E+04  0.15000000000E+04  0.10566000000E+00 0. -1.
        994   -1    0    0    0    0 -0.00000000000E+00 -0.00000000000E+00  0.11368683772E-12  0.17120000000E+03  0.17120000000E+03 0.  0.
         13    1    1    2    0    0  0.87116137460E+01  0.80878877388E+01  0.16833481116E+02  0.20607847841E+02  0.10566000000E+00 0. -1.
        994    1    1    2    0    0 -0.95968758402E+01 -0.97833305143E+01  0.44137623789E+01  0.17180435059E+03  0.17120000000E+03 0.  0.
        998    1    1    2    0    0  0.88526209424E+00  0.16954427754E+01  0.14787527528E+04  0.14787878016E+04  0.10000000000E+02 0. -1.
</event>
<event>
 5    1  0.1245771E-008  0.3827362E+03  0.7957747E-01  0.3439330E+00
         13   -1    0    0    0    0  0.00000000000E+00  0.00000000000E+00  0.14999999963E+04  0.15000000000E+04  0.10566000000E+00 0.  1.
        994   -1    0    0    0    0 -0.00000000000E+00 -0.00000000000E+00  0.11368683772E-12  0.17120000000E+03  0.17120000000E+03 0.  0.
         13    1    1    2    0    0 -0.13120485495E+02  0.11308895018E+02  0.53632307384E+02  0.56360214740E+02  0.10566000000E+00 0.  1.
        994    1    1    2    0    0  0.10637206241E+02 -0.44277192141E+01  0.31981731543E+01  0.17161708297E+03  0.17120000000E+03 0.  0.
        998    1    1    2    0    0  0.24832792539E+01 -0.68811758040E+01  0.14431695157E+04  0.14432227023E+04  0.10000000000E+02 0.  1.
</event>
<event>
 5    1  0.1604015E-008  0.3856790E+03  0.7957747E-01  0.3426798E+00
         13   -1    0    0    0    0  0.00000000000E+00  0.00000000000E+00  0.14999999963E+04  0.15000000000E+04  0.10566000000E+00 0.  1.
        994   -1    0    0    0    0 -0.00000000000E+00 -0.00000000000E+00  0.11368683772E-12  0.17120000000E+03  0.17120000000E+03 0.  0.
         13    1    1    2    0    0 -0.71866268418E+01  0.10874600790E+02  0.67415029235E+02  0.68663686753E+02  0.10566000000E+00 0.  1.
        994    1    1    2    0    0  0.55652827574E+01 -0.35614966430E+01  0.14366708773E+01  0.17133347791E+03  0.17120000000E+03 0.  0.
        998    1    1    2    0    0  0.16213440844E+01 -0.73131041469E+01  0.14311482962E+04  0.14312028353E+04  0.10000000000E+02 0.  1.
</event>
<event>
 5    1  0.1245771E-008  0.3810406E+03  0.7957747E-01  0.3446640E+00
         13   -1    0    0    0    0  0.00000000000E+00  0.00000000000E+00  0.14999999963E+04  0.15000000000E+04  0.10566000000E+00 0. -1.
        994   -1    0    0    0    0 -0.00000000000E+00 -0.00000000000E+00  0.11368683772E-12  0.17120000000E+03  0.17120000000E+03 0.  0.
         13    1    1    2    0    0  0.34887515278E+01 -0.30019236467E+02  0.11087784908E+03  0.11492273285E+03  0.10566000000E+00 0. -1.
        994    1    1    2    0    0  0.23706792807E+02  0.43637599390E+02  0.11869050318E+02  0.17865208216E+03  0.17120000000E+03 0.  0.
        998    1    1    2    0    0 -0.27195544334E+02 -0.13618362923E+02  0.13772530969E+04  0.13776251850E+04  0.10000000000E+02 0. -1.
</event>
<event>
 5    1  0.1245771E-008  0.3851767E+03  0.7957747E-01  0.3428923E+00
         13   -1    0    0    0    0  0.00000000000E+00  0.00000000000E+00  0.14999999963E+04  0.15000000000E+04  0.10566000000E+00 0. -1.
        994   -1    0    0    0    0 -0.00000000000E+00 -0.00000000000E+00  0.11368683772E-12  0.17120000000E+03  0.17120000000E+03 0.  0.
         13    1    1    2    0    0  0.11387467662E+02  0.37949813780E+01  0.49333920313E+02  0.50773252416E+02  0.10566000000E+00 0. -1.
        994    1    1    2    0    0  0.48320705533E+01 -0.10370874336E+02  0.19727846431E+01  0.17159322778E+03  0.17120000000E+03 0.  0.
        998    1    1    2    0    0 -0.16219538215E+02  0.65758929577E+01  0.14486932913E+04  0.14488335198E+04  0.10000000000E+02 0. -1.
</event>
<event>
 5    1  0.1245771E-008  0.3839758E+03  0.7957747E-01  0.3434028E+00
         13   -1    0    0    0    0  0.00000000000E+00  0.00000000000E+00  0.14999999963E+04  0.15000000000E+04  0.10566000000E+00 0.  1.
        994   -1    0    0    0    0 -0.00000000000E+00 -0.00000000000E+00  0.11368683772E-12  0.17120000000E+03  0.17120000000E+03 0.  0.
         13    1    1    2    0    0  0.97296227930E+01  0.18611889049E+02  0.10967056027E+03  0.11166338221E+03  0.10566000000E+00 0.  1.
        994    1    1    2    0    0 -0.62956570038E+01 -0.13696898201E+01  0.22764875355E+01  0.17133631764E+03  0.17120000000E+03 0.  0.
        998    1    1    2    0    0 -0.34339657892E+01 -0.17242199228E+02  0.13880529485E+04  0.13882003001E+04  0.10000000000E+02 0.  1.
</event>
<event>
 5    1  0.1245771E-008  0.3788280E+03  0.7957747E-01  0.3456277E+00
         13   -1    0    0    0    0  0.00000000000E+00  0.00000000000E+00  0.14999999963E+04  0.15000000000E+04  0.10566000000E+00 0.  1.
        994   -1    0    0    0    0 -0.00000000000E+00 -0.00000000000E+00  0.11368683772E-12  0.17120000000E+03  0.17120000000E+03 0.  0.
         13    1    1    2    0    0 -0.15623180520E+02  0.16800024585E+01  0.23696944368E+02  0.28433475240E+02  0.10566000000E+00 0.  1.
        994    1    1    2    0    0  0.17295062202E+02 -0.75235070977E+01  0.59205986845E+01  0.17233750557E+03  0.17120000000E+03 0.  0.
        998    1    1    2    0    0 -0.16718816823E+01  0.58435046392E+01  0.14703824532E+04  0.14704290192E+04  0.10000000000E+02 0.  1.
</event>
<event>
 5    1  0.1245771E-008  0.3833404E+03  0.7957747E-01  0.3436742E+00
         13   -1    0    0    0    0  0.00000000000E+00  0.00000000000E+00  0.14999999963E+04  0.15000000000E+04  0.10566000000E+00 0.  1.
        994   -1    0    0    0    0 -0.00000000000E+00 -0.00000000000E+00  0.11368683772E-12  0.17120000000E+03  0.17120000000E+03 0.  0.
         13    1    1    2    0    0 -0.16787965322E+02  0.13811443622E+02  0.89015634196E+02  0.91631796064E+02  0.10566000000E+00 0.  1.
        994    1    1    2    0    0  0.22307781143E+02 -0.12778725024E+02  0.46447535163E+01  0.17318183117E+03  0.17120000000E+03 0.  0.
        998    1    1    2    0    0 -0.55198158218E+01 -0.10327185975E+01  0.14063396086E+04  0.14063863728E+04  0.10000000000E+02 0.  1.
</event>
<event>
 5    1  0.1245771E-008  0.3830979E+03  0.7957747E-01  0.3437779E+00
         13   -1    0    0    0    0  0.00000000000E+00  0.00000000000E+00  0.14999999963E+04  0.15000000000E+04  0.10566000000E+00 0. -1.
        994   -1    0    0    0    0 -0.00000000000E+00 -0.00000000000E+00  0.11368683772E-12  0.17120000000E+03  0.17120000000E+03 0.  0.
         13    1    1    2    0    0 -0.26587424400E+01 -0.10809856838E+02  0.22757128861E+02  0.25334166539E+02  0.10566000000E+00 0. -1.
        994    1    1    2    0    0  0.44825399718E+01  0.11847494783E+02  0.31085706303E+01  0.17169612549E+03  0.17120000000E+03 0.  0.
        998    1    1    2    0    0 -0.18237975317E+01 -0.10376379444E+01  0.14741342968E+04  0.14741697080E+04  0.10000000000E+02 0. -1.
</event>
<event>
 5    1  0.1245771E-008  0.3689860E+03  0.7957747E-01  0.3500564E+00
         13   -1    0    0    0    0  0.00000000000E+00  0.00000000000E+00  0.14999999963E+04  0.15000000000E+04  0.10566000000E+00 0. -1.
        994   -1    0    0    0    0 -0.00000000000E+00 -0.00000000000E+00  0.11368683772E-12  0.17120000000E+03  0.17120000000E+03 0.  0.
         13    1    1    2    0    0 -0.89084356698E+01  0.46274866962E+01  0.54073038621E+00  0.10053726304E+02  0.10566000000E+00 0. -1.
        994    1    1    2    0    0  0.79663200335E+01 -0.36768064670E+01  0.10067196558E+02  0.17172003263E+03  0.17120000000E+03 0.  0.
        998    1    1    2    0    0  0.94211563638E+00 -0.95068022918E+00  0.14893920693E+04  0.14894262411E+04  0.10000000000E+02 0. -1.
</event>
<event>
 5    1  0.1245771E-008  0.3783085E+03  0.7957747E-01  0.3458557E+00
         13   -1    0    0    0    0  0.00000000000E+00  0.00000000000E+00  0.14999999963E+04  0.15000000000E+04  0.10566000000E+00 0.  1.
        994   -1    0    0    0    0 -0.00000000000E+00 -0.00000000000E+00  0.11368683772E-12  0.17120000000E+03  0.17120000000E+03 0.  0.
         13    1    1    2    0    0  0.27658576778E+02 -0.21770715152E+02  0.14043113933E+03  0.14477526365E+03  0.10566000000E+00 0.  1.
        994    1    1    2    0    0  0.49260504745E+01  0.14158354563E+01  0.50777530317E+01  0.17135195983E+03  0.17120000000E+03 0.  0.
        998    1    1    2    0    0 -0.32584627252E+02  0.20354879696E+02  0.13544911039E+04  0.13550727765E+04  0.10000000000E+02 0.  1.
</event>
<event>
 5    1  0.1245771E-008  0.3854300E+03  0.7957747E-01  0.3427850E+00
         13   -1    0    0    0    0  0.00000000000E+00  0.00000000000E+00  0.14999999963E+04  0.15000000000E+04  0.10566000000E+00 0.  1.
        994   -1    0    0    0    0 -0.00000000000E+00 -0.00000000000E+00  0.11368683772E-12  0.17120000000E+03  0.17120000000E+03 0.  0.
         13    1    1    2    0    0  0.38678848935E+01 -0.12179617361E+02  0.58172837028E+02  0.59560001214E+02  0.10566000000E+00 0.  1.
        994    1    1    2    0    0 -0.99366972710E+01  0.50001606699E+01  0.18232631720E+01  0.17157069636E+03  0.17120000000E+03 0.  0.
        998    1    1    2    0    0  0.60688123775E+01  0.71794566914E+01  0.14400038961E+04  0.14400693024E+04  0.10000000000E+02 0.  1.
</event>
<event>
 5    1  0.1245771E-008  0.4492936E+03  0.7957747E-01  0.3195705E+00
         13   -1    0    0    0    0  0.00000000000E+00  0.00000000000E+00  0.14999999963E+04  0.15000000000E+04  0.10566000000E+00 0.  1.
        994   -1    0    0    0    0 -0.00000000000E+00 -0.00000000000E+00  0.11368683772E-12  0.17120000000E+03  0.17120000000E+03 0.  0.
         13    1    1    2    0    0 -0.96639130930E+02 -0.52536758441E+02  0.12731414858E+03  0.16825021904E+03  0.10566000000E+00 0.  1.
        994    1    1    2    0    0 -0.58089886219E+02 -0.32085375251E+02  0.83479076199E+02  0.20169804746E+03  0.17120000000E+03 0.  0.
        998    1    1    2    0    0  0.15472901715E+03  0.84622133692E+02  0.12892067715E+04  0.13012517335E+04  0.10000000000E+02 0.  1.
</event>
<event>
 5    1  0.2665130E-008  0.3862768E+03  0.7957747E-01  0.3424275E+00
         13   -1    0    0    0    0  0.00000000000E+00  0.00000000000E+00  0.14999999963E+04  0.15000000000E+04  0.10566000000E+00 0.  1.
        994   -1    0    0    0    0 -0.00000000000E+00 -0.00000000000E+00  0.11368683772E-12  0.17120000000E+03  0.17120000000E+03 0.  0.
         13    1    1    2    0    0 -0.10520540209E+02 -0.91774323163E+00  0.57724537615E+02  0.58682684207E+02  0.10566000000E+00 0.  1.
        994    1    1    2    0    0  0.54865567343E+01 -0.40901385551E+01  0.11509155159E+01  0.17134058522E+03  0.17120000000E+03 0.  0.
        998    1    1    2    0    0  0.50339834752E+01  0.50078817867E+01  0.14411245431E+04  0.14411767306E+04  0.10000000000E+02 0.  1.
</event>
<event>
 5    1  0.1245771E-008  0.3807868E+03  0.7957747E-01  0.3447740E+00
         13   -1    0    0    0    0  0.00000000000E+00  0.00000000000E+00  0.14999999963E+04  0.15000000000E+04  0.10566000000E+00 0.  1.
        994   -1    0    0    0    0 -0.00000000000E+00 -0.00000000000E+00  0.11368683772E-12  0.17120000000E+03  0.17120000000E+03 0.  0.
         13    1    1    2    0    0  0.28596037468E+02  0.94869634437E+01  0.14159691291E+03  0.14476682198E+03  0.10566000000E+00 0.  1.
        994    1    1    2    0    0  0.73396074440E+01 -0.36006464536E+00  0.39165499524E+01  0.17140238869E+03  0.17120000000E+03 0.  0.
        998    1    1    2    0    0 -0.35935644912E+02 -0.91268987984E+01  0.13544865334E+04  0.13550307893E+04  0.10000000000E+02 0.  1.
</event>
<event>
 5    1  0.1245771E-008  0.3706948E+03  0.7957747E-01  0.3492704E+00
         13   -1    0    0    0    0  0.00000000000E+00  0.00000000000E+00  0.14999999963E+04  0.15000000000E+04  0.10566000000E+00 0. -1.
        994   -1    0    0    0    0 -0.00000000000E+00 -0.00000000000E+00  0.11368683772E-12  0.17120000000E+03  0.17120000000E+03 0.  0.
         13    1    1    2    0    0  0.94252443287E+02  0.24100607528E+01  0.56445421420E+03  0.57227432456E+03  0.10566000000E+00 0. -1.
        994    1    1    2    0    0 -0.45196614620E+02  0.27308541962E+02  0.18587116148E+02  0.18012054665E+03  0.17120000000E+03 0.  0.
        998    1    1    2    0    0 -0.49055828668E+02 -0.29718602715E+02  0.91695866593E+03  0.91880512879E+03  0.10000000000E+02 0. -1.
</event>
<event>
 5    1  0.1245771E-008  0.2132601E+03  0.7957747E-01  0.4812043E+00
         13   -1    0    0    0    0  0.00000000000E+00  0.00000000000E+00  0.14999999963E+04  0.15000000000E+04  0.10566000000E+00 0.  1.
        994   -1    0    0    0    0 -0.00000000000E+00 -0.00000000000E+00  0.11368683772E-12  0.17120000000E+03  0.17120000000E+03 0.  0.
         13    1    1    2    0    0  0.91587720789E+02  0.14129287663E+03  0.20579857068E+03  0.26590421291E+03  0.10566000000E+00 0.  1.
        994    1    1    2    0    0 -0.30045362512E+02 -0.54310892355E+02  0.10283779761E+03  0.20913500294E+03  0.17120000000E+03 0.  0.
        998    1    1    2    0    0 -0.61542358277E+02 -0.86981984277E+02  0.11913636280E+04  0.11961607841E+04  0.10000000000E+02 0.  1.
</event>
<event>
 5    1  0.1245771E-008  0.3804834E+03  0.7957747E-01  0.3449056E+00
         13   -1    0    0    0    0  0.00000000000E+00  0.00000000000E+00  0.14999999963E+04  0.15000000000E+04  0.10566000000E+00 0.  1.
        994   -1    0    0    0    0 -0.00000000000E+00 -0.00000000000E+00  0.11368683772E-12  0.17120000000E+03  0.17120000000E+03 0.  0.
         13    1    1    2    0    0  0.17584232753E+02 -0.38598186113E+02  0.21120382978E+03  0.21542073738E+03  0.10566000000E+00 0.  1.
        994    1    1    2    0    0 -0.55001921281E+01  0.36586265160E+02  0.84713702964E+01  0.17535681061E+03  0.17120000000E+03 0.  0.
        998    1    1    2    0    0 -0.12084040625E+02  0.20119209522E+01  0.12803247962E+04  0.12804224520E+04  0.10000000000E+02 0.  1.
</event>
<event>
 5    1  0.1245771E-008  0.3803194E+03  0.7957747E-01  0.3449769E+00
         13   -1    0    0    0    0  0.00000000000E+00  0.00000000000E+00  0.14999999963E+04  0.15000000000E+04  0.10566000000E+00 0.  1.
        994   -1    0    0    0    0 -0.00000000000E+00 -0.00000000000E+00  0.11368683772E-12  0.17120000000E+03  0.17120000000E+03 0.  0.
         13    1    1    2    0    0  0.40697538871E+02  0.12235055591E+02  0.24504110691E+03  0.24869889725E+03  0.10566000000E+00 0.  1.
        994    1    1    2    0    0 -0.15723613195E+02  0.35907203639E+00  0.47984820973E+01  0.17198786694E+03  0.17120000000E+03 0.  0.
        998    1    1    2    0    0 -0.24973925676E+02 -0.12594127627E+02  0.12501604073E+04  0.12505132358E+04  0.10000000000E+02 0.  1.
</event>
<event>
 5    1  0.1245771E-008  0.3831870E+03  0.7957747E-01  0.3437398E+00
         13   -1    0    0    0    0  0.00000000000E+00  0.00000000000E+00  0.14999999963E+04  0.15000000000E+04  0.10566000000E+00 0. -1.
        994   -1    0    0    0    0 -0.00000000000E+00 -0.00000000000E+00  0.11368683772E-12  0.17120000000E+03  0.17120000000E+03 0.  0.
         13    1    1    2    0    0  0.41620304995E+02  0.88122810355E+02  0.55826476451E+03  0.56670754182E+03  0.10566000000E+00 0. -1.
        994    1    1    2    0    0 -0.16603752512E+02 -0.16246303922E+03  0.96428021159E+02  0.25549506253E+03  0.17120000000E+03 0.  0.
        998    1    1    2    0    0 -0.25016552484E+02  0.74340228868E+02  0.84530721061E+03  0.84899739565E+03  0.10000000000E+02 0. -1.
</event>
<event>
 5    1  0.1245771E-008  0.3802840E+03  0.7957747E-01  0.3449923E+00
         13   -1    0    0    0    0  0.00000000000E+00  0.00000000000E+00  0.14999999963E+04  0.15000000000E+04  0.10566000000E+00 0. -1.
        994   -1    0    0    0    0 -0.00000000000E+00 -0.00000000000E+00  0.11368683772E-12  0.17120000000E+03  0.17120000000E+03 0.  0.
         13    1    1    2    0    0  0.21498302634E+02 -0.47954887994E+02  0.30982266502E+03  0.31424821913E+03  0.10566000000E+00 0. -1.
        994    1    1    2    0    0 -0.25532887779E+02  0.33799776387E+02  0.10005988533E+02  0.17664629362E+03  0.17120000000E+03 0.  0.
        998    1    1    2    0    0  0.40345851450E+01  0.14155111607E+02  0.11801713427E+04  0.11803054873E+04  0.10000000000E+02 0. -1.
</event>
<event>
 5    1  0.1245771E-008  0.3839913E+03  0.7957747E-01  0.3433962E+00
         13   -1    0    0    0    0  0.00000000000E+00  0.00000000000E+00  0.14999999963E+04  0.15000000000E+04  0.10566000000E+00 0. -1.
        994   -1    0    0    0    0 -0.00000000000E+00 -0.00000000000E+00  0.11368683772E-12  0.17120000000E+03  0.17120000000E+03 0.  0.
         13    1    1    2    0    0 -0.12741828865E+02 -0.12557802752E+02  0.85687160736E+02  0.87534869006E+02  0.10566000000E+00 0. -1.
        994    1    1    2    0    0 -0.10224682565E+02 -0.31422998876E+01  0.25093811984E+01  0.17155219374E+03  0.17120000000E+03 0.  0.
        998    1    1    2    0    0  0.22966511430E+02  0.15700102639E+02  0.14118034543E+04  0.14121129373E+04  0.10000000000E+02 0. -1.
</event>
<event>
 5    1  0.1245771E-008  0.3785206E+03  0.7957747E-01  0.3457625E+00
         13   -1    0    0    0    0  0.00000000000E+00  0.00000000000E+00  0.14999999963E+04  0.15000000000E+04  0.10566000000E+00 0. -1.
        994   -1    0    0    0    0 -0.00000000000E+00 -0.00000000000E+00  0.11368683772E-12  0.17120000000E+03  0.17120000000E+03 0.  0.
         13    1    1    2    0    0  0.35804881282E+02 -0.10987333309E+02  0.16297409498E+03  0.16722224079E+03  0.10566000000E+00 0. -1.
        994    1    1    2    0    0  0.27521451054E+01  0.93195035066E+01  0.51990756684E+01  0.17155435825E+03  0.17120000000E+03 0.  0.
        998    1    1    2    0    0 -0.38557026388E+02  0.16678298026E+01  0.13318268256E+04  0.13324234010E+04  0.10000000000E+02 0. -1.
</event>
<event>
 5    1  0.1245771E-008  0.3808052E+03  0.7957747E-01  0.3447660E+00
         13   -1    0    0    0    0  0.00000000000E+00  0.00000000000E+00  0.14999999963E+04  0.15000000000E+04  0.10566000000E+00 0.  1.
        994   -1    0    0    0    0 -0.00000000000E+00 -0.00000000000E+00  0.11368683772E-12  0.17120000000E+03  0.17120000000E+03 0.  0.
         13    1    1    2    0    0  0.41047447682E+02 -0.61836221961E+01  0.17711673127E+03  0.18191612849E+03  0.10566000000E+00 0.  1.
        994    1    1    2    0    0 -0.59175562977E+02  0.21810539322E+02  0.17103915261E+02  0.18324691211E+03  0.17120000000E+03 0.  0.
        998    1    1    2    0    0  0.18128115296E+02 -0.15626917126E+02  0.13057793497E+04  0.13060369594E+04  0.10000000000E+02 0.  1.
</event>
<event>
 5    1  0.1245771E-008  0.3706373E+03  0.7957747E-01  0.3492967E+00
         13   -1    0    0    0    0  0.00000000000E+00  0.00000000000E+00  0.14999999963E+04  0.15000000000E+04  0.10566000000E+00 0. -1.
        994   -1    0    0    0    0 -0.00000000000E+00 -0.00000000000E+00  0.11368683772E-12  0.17120000000E+03  0.17120000000E+03 0.  0.
         13    1    1    2    0    0  0.25439393825E+02 -0.10260974051E+02  0.37815674742E+02  0.46717092877E+02  0.10566000000E+00 0. -1.
        994    1    1    2    0    0 -0.25681320172E+02  0.49825897186E+01  0.11300989063E+02  0.17355549187E+03  0.17120000000E+03 0.  0.
        998    1    1    2    0    0  0.24192634775E+00  0.52783843322E+01  0.14508833325E+04  0.14509274152E+04  0.10000000000E+02 0. -1.
</event>
<event>
 5    1  0.1245771E-008  0.3810552E+03  0.7957747E-01  0.3446577E+00
         13   -1    0    0    0    0  0.00000000000E+00  0.00000000000E+00  0.14999999963E+04  0.15000000000E+04  0.10566000000E+00 0.  1.
        994   -1    0    0    0    0 -0.00000000000E+00 -0.00000000000E+00  0.11368683772E-12  0.17120000000E+03  0.17120000000E+03 0.  0.
         13    1    1    2    0    0 -0.44184520439E+01 -0.15985942783E+02  0.38522779437E+02  0.41941492399E+02  0.10566000000E+00 0.  1.
        994    1    1    2    0    0  0.11011505214E+02 -0.44984558042E+01  0.40729310605E+01  0.17166105592E+03  0.17120000000E+03 0.  0.
        998    1    1    2    0    0 -0.65930531702E+01  0.20484398587E+02  0.14574042858E+04  0.14575974517E+04  0.10000000000E+02 0.  1.
</event>
<event>
 5    1  0.1245771E-008  0.3833912E+03  0.7957747E-01  0.3436524E+00
         13   -1    0    0    0    0  0.00000000000E+00  0.00000000000E+00  0.14999999963E+04  0.15000000000E+04  0.10566000000E+00 0.  1.
        994   -1    0    0    0    0 -0.00000000000E+00 -0.00000000000E+00  0.11368683772E-12  0.17120000000E+03  0.17120000000E+03 0.  0.
         13    1    1    2    0    0 -0.52220962495E-01 -0.11686481013E+02  0.28978990919E+02  0.31246914155E+02  0.10566000000E+00 0.  1.
        994    1    1    2    0    0  0.19870608031E+02 -0.81681248573E+01  0.39583289114E+01  0.17258814471E+03  0.17120000000E+03 0.  0.
        998    1    1    2    0    0 -0.19818387068E+02  0.19854605870E+02  0.14670626764E+04  0.14673649411E+04  0.10000000000E+02 0.  1.
</event>
<event>
 5    1  0.1245771E-008  0.3718678E+03  0.7957747E-01  0.3487350E+00
         13   -1    0    0    0    0  0.00000000000E+00  0.00000000000E+00  0.14999999963E+04  0.15000000000E+04  0.10566000000E+00 0. -1.
        994   -1    0    0    0    0 -0.00000000000E+00 -0.00000000000E+00  0.11368683772E-12  0.17120000000E+03  0.17120000000E+03 0.  0.
         13    1    1    2    0    0  0.79138329700E+02  0.86850166602E+02  0.39500334395E+03  0.41210857739E+03  0.10566000000E+00 0. -1.
        994    1    1    2    0    0 -0.76370885470E+02 -0.96703749762E+02  0.67465239387E+02  0.22146134175E+03  0.17120000000E+03 0.  0.
        998    1    1    2    0    0 -0.27674442297E+01  0.98535831606E+01  0.10375314129E+04  0.10376300809E+04  0.10000000000E+02 0. -1.
</event>
<event>
 5    1  0.1245771E-008  0.3856350E+03  0.7957747E-01  0.3426984E+00
         13   -1    0    0    0    0  0.00000000000E+00  0.00000000000E+00  0.14999999963E+04  0.15000000000E+04  0.10566000000E+00 0. -1.
        994   -1    0    0    0    0 -0.00000000000E+00 -0.00000000000E+00  0.11368683772E-12  0.17120000000E+03  0.17120000000E+03 0.  0.
         13    1    1    2    0    0 -0.11586891358E+02  0.46979762519E+00  0.49937732727E+02  0.51266607798E+02  0.10566000000E+00 0. -1.
        994    1    1    2    0    0  0.12545958747E+02 -0.23065896828E+01  0.18494201022E+01  0.17168454150E+03  0.17120000000E+03 0.  0.
        998    1    1    2    0    0 -0.95906738880E+00  0.18367920576E+01  0.14482128434E+04  0.14482488507E+04  0.10000000000E+02 0. -1.
</event>
<event>
 5    1  0.1245771E-008  0.3754306E+03  0.7957747E-01  0.3471299E+00
         13   -1    0    0    0    0  0.00000000000E+00  0.00000000000E+00  0.14999999963E+04  0.15000000000E+04  0.10566000000E+00 0. -1.
        994   -1    0    0    0    0 -0.00000000000E+00 -0.00000000000E+00  0.11368683772E-12  0.17120000000E+03  0.17120000000E+03 0.  0.
         13    1    1    2    0    0  0.89103013976E+02 -0.19131343029E+01  0.43939666080E+03  0.44834411323E+03  0.10566000000E+00 0. -1.
        994    1    1    2    0    0 -0.86755281197E+02  0.10959654748E+01  0.32453524109E+02  0.19465444044E+03  0.17120000000E+03 0.  0.
        998    1    1    2    0    0 -0.23477327789E+01  0.81716882812E+00  0.10281498114E+04  0.10282014463E+04  0.10000000000E+02 0.  0.
</event>
<event>
 5    1  0.1245771E-008  0.3816883E+03  0.7957747E-01  0.3443840E+00
         13   -1    0    0    0    0  0.00000000000E+00  0.00000000000E+00  0.14999999963E+04  0.15000000000E+04  0.10566000000E+00 0.  1.
        994   -1    0    0    0    0 -0.00000000000E+00 -0.00000000000E+00  0.11368683772E-12  0.17120000000E+03  0.17120000000E+03 0.  0.
         13    1    1    2    0    0 -0.12843096716E+02 -0.96703571980E+01  0.37284372628E+02  0.40602913047E+02  0.10566000000E+00 0.  1.
        994    1    1    2    0    0  0.13457491544E+02  0.10808926379E+02  0.42744194092E+01  0.17212102611E+03  0.17120000000E+03 0.  0.
        998    1    1    2    0    0 -0.61439482726E+00 -0.11385691812E+01  0.14584412042E+04  0.14584760608E+04  0.10000000000E+02 0.  1.
</event>
<event>
 5    1  0.1245771E-008  0.3778825E+03  0.7957747E-01  0.3460431E+00
         13   -1    0    0    0    0  0.00000000000E+00  0.00000000000E+00  0.14999999963E+04  0.15000000000E+04  0.10566000000E+00 0.  1.
        994   -1    0    0    0    0 -0.00000000000E+00 -0.00000000000E+00  0.11368683772E-12  0.17120000000E+03  0.17120000000E+03 0.  0.
         13    1    1    2    0    0 -0.33139086261E+02 -0.42011498879E+02  0.22524738759E+03  0.23151579181E+03  0.10566000000E+00 0.  1.
        994    1    1    2    0    0  0.40824211195E+02  0.42432677205E+02  0.16968186148E+02  0.18183648604E+03  0.17120000000E+03 0.  0.
        998    1    1    2    0    0 -0.76851249341E+01 -0.42117832582E+00  0.12577844225E+04  0.12578477221E+04  0.10000000000E+02 0.  1.
</event>
<event>
 5    1  0.1245771E-008  0.3835242E+03  0.7957747E-01  0.3435955E+00
         13   -1    0    0    0    0  0.00000000000E+00  0.00000000000E+00  0.14999999963E+04  0.15000000000E+04  0.10566000000E+00 0.  1.
        994   -1    0    0    0    0 -0.00000000000E+00 -0.00000000000E+00  0.11368683772E-12  0.17120000000E+03  0.17120000000E+03 0.  0.
         13    1    1    2    0    0 -0.26663268493E+02 -0.61061865758E+01  0.15283426776E+03  0.15526280935E+03  0.10566000000E+00 0.  1.
        994    1    1    2    0    0  0.15003678672E+02  0.29709649547E+02  0.60338352196E+01  0.17450965824E+03  0.17120000000E+03 0.  0.
        998    1    1    2    0    0  0.11659589820E+02 -0.23603462971E+02  0.13411318933E+04  0.13414275324E+04  0.10000000000E+02 0.  1.
</event>
<event>
 5    1  0.1245771E-008  0.3771895E+03  0.7957747E-01  0.3463488E+00
         13   -1    0    0    0    0  0.00000000000E+00  0.00000000000E+00  0.14999999963E+04  0.15000000000E+04  0.10566000000E+00 0. -1.
        994   -1    0    0    0    0 -0.00000000000E+00 -0.00000000000E+00  0.11368683772E-12  0.17120000000E+03  0.17120000000E+03 0.  0.
         13    1    1    2    0    0  0.29090460011E+01 -0.12600857820E+02  0.12615523162E+02  0.18066730615E+02  0.10566000000E+00 0. -1.
        994    1    1    2    0    0 -0.27211889971E+01  0.78836706091E+01  0.57933768141E+01  0.17150090480E+03  0.17120000000E+03 0.  0.
        998    1    1    2    0    0 -0.18785700400E+00  0.47171872111E+01  0.14815910963E+04  0.14816323646E+04  0.10000000000E+02 0. -1.
</event>
<event>
 5    1  0.1245771E-008  0.3818031E+03  0.7957747E-01  0.3443345E+00
         13   -1    0    0    0    0  0.00000000000E+00  0.00000000000E+00  0.14999999963E+04  0.15000000000E+04  0.10566000000E+00 0.  1.
        994   -1    0    0    0    0 -0.00000000000E+00 -0.00000000000E+00  0.11368683772E-12  0.17120000000E+03  0.17120000000E+03 0.  0.
         13    1    1    2    0    0 -0.12781486872E+02 -0.79683375337E+01  0.35564267555E+02  0.38622391181E+02  0.10566000000E+00 0.  1.
        994    1    1    2    0    0 -0.12633864141E+02  0.15763782602E+02  0.45830977182E+01  0.17244870585E+03  0.17120000000E+03 0.  0.
        998    1    1    2    0    0  0.25415351013E+02 -0.77954450684E+01  0.14598526310E+04  0.14601289030E+04  0.10000000000E+02 0.  1.
</event>
<event>
 5    1  0.1245771E-008  0.3819323E+03  0.7957747E-01  0.3442788E+00
         13   -1    0    0    0    0  0.00000000000E+00  0.00000000000E+00  0.14999999963E+04  0.15000000000E+04  0.10566000000E+00 0.  1.
        994   -1    0    0    0    0 -0.00000000000E+00 -0.00000000000E+00  0.11368683772E-12  0.17120000000E+03  0.17120000000E+03 0.  0.
         13    1    1    2    0    0 -0.28898096016E+02 -0.14535028910E+02  0.15896204465E+03  0.16221994274E+03  0.10566000000E+00 0.  1.
        994    1    1    2    0    0  0.22873829783E+02  0.73343869441E+01  0.50798913882E+01  0.17295158460E+03  0.17120000000E+03 0.  0.
        998    1    1    2    0    0  0.60242662328E+01  0.72006419657E+01  0.13359580602E+04  0.13360284727E+04  0.10000000000E+02 0.  1.
</event>
<event>
 5    1  0.1245771E-008  0.3827826E+03  0.7957747E-01  0.3439131E+00
         13   -1    0    0    0    0  0.00000000000E+00  0.00000000000E+00  0.14999999963E+04  0.15000000000E+04  0.10566000000E+00 0.  1.
        994   -1    0    0    0    0 -0.00000000000E+00 -0.00000000000E+00  0.11368683772E-12  0.17120000000E+03  0.17120000000E+03 0.  0.
         13    1    1    2    0    0 -0.21828242285E+02 -0.49616127589E+00  0.88061917637E+02  0.90728335371E+02  0.10566000000E+00 0.  1.
        994    1    1    2    0    0  0.10576441285E+02 -0.87239131336E+01  0.33579392852E+01  0.17178091724E+03  0.17120000000E+03 0.  0.
        998    1    1    2    0    0  0.11251801000E+02  0.92200744095E+01  0.14085801394E+04  0.14086907474E+04  0.10000000000E+02 0.  1.
</event>
<event>
 5    1  0.1245771E-008  0.3851626E+03  0.7957747E-01  0.3428983E+00
         13   -1    0    0    0    0  0.00000000000E+00  0.00000000000E+00  0.14999999963E+04  0.15000000000E+04  0.10566000000E+00 0. -1.
        994   -1    0    0    0    0 -0.00000000000E+00 -0.00000000000E+00  0.11368683772E-12  0.17120000000E+03  0.17120000000E+03 0.  0.
         13    1    1    2    0    0  0.79372193511E+01 -0.11909023368E+02  0.72388264391E+02  0.73789540412E+02  0.10566000000E+00 0. -1.
        994    1    1    2    0    0  0.89435275007E+01  0.19971649533E+01  0.18255124596E+01  0.17145479826E+03  0.17120000000E+03 0.  0.
        998    1    1    2    0    0 -0.16880746852E+02  0.99118584148E+01  0.14257862194E+04  0.14259556613E+04  0.10000000000E+02 0. -1.
</event>
<event>
 5    1  0.1245771E-008  0.3826097E+03  0.7957747E-01  0.3439873E+00
         13   -1    0    0    0    0  0.00000000000E+00  0.00000000000E+00  0.14999999963E+04  0.15000000000E+04  0.10566000000E+00 0.  1.
        994   -1    0    0    0    0 -0.00000000000E+00 -0.00000000000E+00  0.11368683772E-12  0.17120000000E+03  0.17120000000E+03 0.  0.
         13    1    1    2    0    0  0.60462560572E+01  0.25414541482E+02  0.11497812672E+03  0.11790859561E+03  0.10566000000E+00 0.  1.
        994    1    1    2    0    0 -0.20400971474E+01 -0.22718322321E+02  0.45478330090E+01  0.17277270314E+03  0.17120000000E+03 0.  0.
        998    1    1    2    0    0 -0.40061589098E+01 -0.26962191608E+01  0.13804740366E+04  0.13805187012E+04  0.10000000000E+02 0.  1.
</event>
<event>
 5    1  0.1245771E-008  0.3796359E+03  0.7957747E-01  0.3452746E+00
         13   -1    0    0    0    0  0.00000000000E+00  0.00000000000E+00  0.14999999963E+04  0.15000000000E+04  0.10566000000E+00 0. -1.
        994   -1    0    0    0    0 -0.00000000000E+00 -0.00000000000E+00  0.11368683772E-12  0.17120000000E+03  0.17120000000E+03 0.  0.
         13    1    1    2    0    0 -0.75194249210E+01  0.10028807107E+02  0.16115267662E+02  0.20416457552E+02  0.10566000000E+00 0. -1.
        994    1    1    2    0    0  0.96724748611E+01 -0.11091310932E+02  0.50422629894E+01  0.17190531802E+03  0.17120000000E+03 0.  0.
        998    1    1    2    0    0 -0.21530499401E+01  0.10625038247E+01  0.14788424656E+04  0.14788782244E+04  0.10000000000E+02 0. -1.
</event>
<event>
 5    1  0.1245771E-008  0.3841279E+03  0.7957747E-01  0.3433379E+00
         13   -1    0    0    0    0  0.00000000000E+00  0.00000000000E+00  0.14999999963E+04  0.15000000000E+04  0.10566000000E+00 0.  1.
        994   -1    0    0    0    0 -0.00000000000E+00 -0.00000000000E+00  0.11368683772E-12  0.17120000000E+03  0.17120000000E+03 0.  0.
         13    1    1    2    0    0  0.22377729026E+02 -0.14803384326E+02  0.16200959532E+03  0.16421639103E+03  0.10566000000E+00 0.  1.
        994    1    1    2    0    0 -0.23414506931E+02  0.83431116433E+01  0.41040447836E+01  0.17304372231E+03  0.17120000000E+03 0.  0.
        998    1    1    2    0    0  0.10367779046E+01  0.64602726826E+01  0.13338863562E+04  0.13339398867E+04  0.10000000000E+02 0.  1.
</event>
<event>
 5    1  0.1245771E-008  0.3829379E+03  0.7957747E-01  0.3438465E+00
         13   -1    0    0    0    0  0.00000000000E+00  0.00000000000E+00  0.14999999963E+04  0.15000000000E+04  0.10566000000E+00 0.  1.
        994   -1    0    0    0    0 -0.00000000000E+00 -0.00000000000E+00  0.11368683772E-12  0.17120000000E+03  0.17120000000E+03 0.  0.
         13    1    1    2    0    0  0.74029184945E+01 -0.10277621297E+02  0.29142389939E+02  0.31776135026E+02  0.10566000000E+00 0.  1.
        994    1    1    2    0    0 -0.12227776235E+01  0.11377763664E+02  0.30910876718E+01  0.17160985844E+03  0.17120000000E+03 0.  0.
        998    1    1    2    0    0 -0.61801408711E+01 -0.11001423670E+01  0.14677665187E+04  0.14678140065E+04  0.10000000000E+02 0.  1.
</event>
<event>
 5    1  0.1245771E-008  0.3783250E+03  0.7957747E-01  0.3458484E+00
         13   -1    0    0    0    0  0.00000000000E+00  0.00000000000E+00  0.14999999963E+04  0.15000000000E+04  0.10566000000E+00 0. -1.
        994   -1    0    0    0    0 -0.00000000000E+00 -0.00000000000E+00  0.11368683772E-12  0.17120000000E+03  0.17120000000E+03 0.  0.
         13    1    1    2    0    0 -0.48447944618E+00  0.41216618426E+02  0.21908765424E+03  0.22293150464E+03  0.10566000000E+00 0. -1.
        994    1    1    2    0    0  0.17554217780E+02  0.10701989116E+02  0.64031975067E+01  0.17254890342E+03  0.17120000000E+03 0.  0.
        998    1    1    2    0    0 -0.17069738334E+02 -0.51918607543E+02  0.12745091445E+04  0.12757195919E+04  0.10000000000E+02 0. -1.
</event>
<event>
 5    1  0.1245771E-008  0.3689403E+03  0.7957747E-01  0.3500775E+00
         13   -1    0    0    0    0  0.00000000000E+00  0.00000000000E+00  0.14999999963E+04  0.15000000000E+04  0.10566000000E+00 0.  1.
        994   -1    0    0    0    0 -0.00000000000E+00 -0.00000000000E+00  0.11368683772E-12  0.17120000000E+03  0.17120000000E+03 0.  0.
         13    1    1    2    0    0  0.17937218285E+02  0.21251493902E+02  0.32490506966E+02  0.42766973237E+02  0.10566000000E+00 0.  1.
        994    1    1    2    0    0 -0.19046992518E+02 -0.18279006160E+02  0.12810769810E+02  0.17369647611E+03  0.17120000000E+03 0.  0.
        998    1    1    2    0    0  0.11097742332E+01 -0.29724877423E+01  0.14546987195E+04  0.14547365507E+04  0.10000000000E+02 0.  1.
</event>
<event>
 5    1  0.1245771E-008  0.3757397E+03  0.7957747E-01  0.3469921E+00
         13   -1    0    0    0    0  0.00000000000E+00  0.00000000000E+00  0.14999999963E+04  0.15000000000E+04  0.10566000000E+00 0.  1.
        994   -1    0    0    0    0 -0.00000000000E+00 -0.00000000000E+00  0.11368683772E-12  0.17120000000E+03  0.17120000000E+03 0.  0.
         13    1    1    2    0    0  0.67101016549E+02 -0.32393974540E+02  0.36635187147E+03  0.37385240524E+03  0.10566000000E+00 0.  1.
        994    1    1    2    0    0 -0.57102178839E+02  0.27902517543E+02  0.20120601528E+02  0.18372122338E+03  0.17120000000E+03 0.  0.
        998    1    1    2    0    0 -0.99988377096E+01  0.44914569973E+01  0.11135275233E+04  0.11136263714E+04  0.10000000000E+02 0.  1.
</event>
<event>
 5    1  0.1245771E-008  0.3846271E+03  0.7957747E-01  0.3431255E+00
         13   -1    0    0    0    0  0.00000000000E+00  0.00000000000E+00  0.14999999963E+04  0.15000000000E+04  0.10566000000E+00 0. -1.
        994   -1    0    0    0    0 -0.00000000000E+00 -0.00000000000E+00  0.11368683772E-12  0.17120000000E+03  0.17120000000E+03 0.  0.
         13    1    1    2    0    0 -0.55257353318E+00  0.10489817277E+02  0.29650589978E+02  0.31456481909E+02  0.10566000000E+00 0. -1.
        994    1    1    2    0    0 -0.13107380432E+02 -0.10859683118E+02  0.27699819316E+01  0.17206640851E+03  0.17120000000E+03 0.  0.
        998    1    1    2    0    0  0.13659953966E+02  0.36986584084E+00  0.14675794244E+04  0.14676771096E+04  0.10000000000E+02 0. -1.
</event>
<event>
 5    1  0.1245771E-008  0.3783790E+03  0.7957747E-01  0.3458247E+00
         13   -1    0    0    0    0  0.00000000000E+00  0.00000000000E+00  0.14999999963E+04  0.15000000000E+04  0.10566000000E+00 0. -1.
        994   -1    0    0    0    0 -0.00000000000E+00 -0.00000000000E+00  0.11368683772E-12  0.17120000000E+03  0.17120000000E+03 0.  0.
         13    1    1    2    0    0  0.34861052023E+02 -0.23085674943E+02  0.20107851511E+03  0.20537970138E+03  0.10566000000E+00 0. -1.
        994    1    1    2    0    0 -0.12853388786E+02 -0.11232000024E+02  0.59335235782E+01  0.17215113746E+03  0.17120000000E+03 0.  0.
        998    1    1    2    0    0 -0.22007663237E+02  0.34317674967E+02  0.12929879576E+04  0.12936691612E+04  0.10000000000E+02 0. -1.
</event>
<event>
 5    1  0.1245771E-008  0.3742934E+03  0.7957747E-01  0.3476389E+00
         13   -1    0    0    0    0  0.00000000000E+00  0.00000000000E+00  0.14999999963E+04  0.15000000000E+04  0.10566000000E+00 0. -1.
        994   -1    0    0    0    0 -0.00000000000E+00 -0.00000000000E+00  0.11368683772E-12  0.17120000000E+03  0.17120000000E+03 0.  0.
         13    1    1    2    0    0 -0.47855406321E+02  0.23692944190E+02  0.94262802671E+02  0.10833735575E+03  0.10566000000E+00 0. -1.
        994    1    1    2    0    0  0.57450310057E+02 -0.24238907015E+02  0.27159203535E+02  0.18421488831E+03  0.17120000000E+03 0.  0.
        998    1    1    2    0    0 -0.95949037355E+01  0.54596282516E+00  0.13785779901E+04  0.13786477559E+04  0.10000000000E+02 0. -1.
</event>
<event>
 5    1  0.1245771E-008  0.3840335E+03  0.7957747E-01  0.3433782E+00
         13   -1    0    0    0    0  0.00000000000E+00  0.00000000000E+00  0.14999999963E+04  0.15000000000E+04  0.10566000000E+00 0.  1.
        994   -1    0    0    0    0 -0.00000000000E+00 -0.00000000000E+00  0.11368683772E-12  0.17120000000E+03  0.17120000000E+03 0.  0.
         13    1    1    2    0    0  0.58979244761E+01 -0.10526970257E+02  0.33554539529E+02  0.35658391761E+02  0.10566000000E+00 0.  1.
        994    1    1    2    0    0 -0.15403634669E+02  0.40079348575E+01  0.29469436295E+01  0.17196354259E+03  0.17120000000E+03 0.  0.
        998    1    1    2    0    0  0.95057101932E+01  0.65190353998E+01  0.14634985131E+04  0.14635780657E+04  0.10000000000E+02 0.  1.
</event>
<event>
 5    1  0.1245771E-008  0.3825947E+03  0.7957747E-01  0.3439938E+00
         13   -1    0    0    0    0  0.00000000000E+00  0.00000000000E+00  0.14999999963E+04  0.15000000000E+04  0.10566000000E+00 0. -1.
        994   -1    0    0    0    0 -0.00000000000E+00 -0.00000000000E+00  0.11368683772E-12  0.17120000000E+03  0.17120000000E+03 0.  0.
         13    1    1    2    0    0  0.42602977024E+01  0.11289735812E+02  0.24674374199E+02  0.27467147238E+02  0.10566000000E+00 0. -1.
        994    1    1    2    0    0 -0.19113253776E+01 -0.84736484613E+01  0.30791826299E+01  0.17144788493E+03  0.17120000000E+03 0.  0.
        998    1    1    2    0    0 -0.23489723247E+01 -0.28160873507E+01  0.14722464394E+04  0.14722849678E+04  0.10000000000E+02 0.  0.
</event>
<event>
 5    1  0.1245771E-008  0.3858371E+03  0.7957747E-01  0.3426130E+00
         13   -1    0    0    0    0  0.00000000000E+00  0.00000000000E+00  0.14999999963E+04  0.15000000000E+04  0.10566000000E+00 0.  1.
        994   -1    0    0    0    0 -0.00000000000E+00 -0.00000000000E+00  0.11368683772E-12  0.17120000000E+03  0.17120000000E+03 0.  0.
         13    1    1    2    0    0 -0.13761571567E+02  0.30383090212E+02  0.21412552304E+02  0.39636114630E+02  0.10566000000E+00 0.  1.
        994    1    1    2    0    0  0.28655751556E+02  0.56930162185E+01  0.22738110536E+02  0.17515714145E+03  0.17120000000E+03 0.  0.
        998    1    1    2    0    0 -0.14894179988E+02 -0.36076106430E+02  0.14558493334E+04  0.14564067439E+04  0.10000000000E+02 0.  1.
</event>
<event>
 5    1  0.1245771E-008  0.3798963E+03  0.7957747E-01  0.3451610E+00
         13   -1    0    0    0    0  0.00000000000E+00  0.00000000000E+00  0.14999999963E+04  0.15000000000E+04  0.10566000000E+00 0.  1.
        994   -1    0    0    0    0 -0.00000000000E+00 -0.00000000000E+00  0.11368683772E-12  0.17120000000E+03  0.17120000000E+03 0.  0.
         13    1    1    2    0    0  0.38916065486E+02  0.93909452679E+01  0.24092985459E+03  0.24423320005E+03  0.10566000000E+00 0.  1.
        994    1    1    2    0    0  0.39953554324E+01  0.36440432035E+01  0.42832871669E+01  0.17133892863E+03  0.17120000000E+03 0.  0.
        998    1    1    2    0    0 -0.42911420918E+02 -0.13034988471E+02  0.12547868545E+04  0.12556278713E+04  0.10000000000E+02 0.  1.
</event>
<event>
 5    1  0.1245771E-008  0.3755747E+03  0.7957747E-01  0.3470657E+00
         13   -1    0    0    0    0  0.00000000000E+00  0.00000000000E+00  0.14999999963E+04  0.15000000000E+04  0.10566000000E+00 0. -1.
        994   -1    0    0    0    0 -0.00000000000E+00 -0.00000000000E+00  0.11368683772E-12  0.17120000000E+03  0.17120000000E+03 0.  0.
         13    1    1    2    0    0  0.40862619180E+02  0.15266864989E+03  0.54563504664E+03  0.56806257189E+03  0.10566000000E+00 0. -1.
        994    1    1    2    0    0 -0.41534943800E+02 -0.21306207340E+03  0.18798865419E+03  0.33431986597E+03  0.17120000000E+03 0.  0.
        998    1    1    2    0    0  0.67232462013E+00  0.60393423510E+02  0.76637629545E+03  0.76881756214E+03  0.10000000000E+02 0.  1.
</event>
<event>
 5    1  0.1245771E-008  0.3719430E+03  0.7957747E-01  0.3487009E+00
         13   -1    0    0    0    0  0.00000000000E+00  0.00000000000E+00  0.14999999963E+04  0.15000000000E+04  0.10566000000E+00 0. -1.
        994   -1    0    0    0    0 -0.00000000000E+00 -0.00000000000E+00  0.11368683772E-12  0.17120000000E+03  0.17120000000E+03 0.  0.
         13    1    1    2    0    0  0.61944338331E+02  0.62003939362E+01  0.29192082837E+03  0.29848505346E+03  0.10566000000E+00 0. -1.
        994    1    1    2    0    0 -0.56977684721E+01  0.19880869352E+02  0.97274269938E+01  0.17271877827E+03  0.17120000000E+03 0.  0.
        998    1    1    2    0    0 -0.56246569858E+02 -0.26081263288E+02  0.11983517409E+04  0.11999961683E+04  0.10000000000E+02 0. -1.
</event>
<event>
 5    1  0.1245771E-008  0.3714298E+03  0.7957747E-01  0.3489346E+00
         13   -1    0    0    0    0  0.00000000000E+00  0.00000000000E+00  0.14999999963E+04  0.15000000000E+04  0.10566000000E+00 0.  1.
        994   -1    0    0    0    0 -0.00000000000E+00 -0.00000000000E+00  0.11368683772E-12  0.17120000000E+03  0.17120000000E+03 0.  0.
         13    1    1    2    0    0 -0.91589164411E+02 -0.19070519848E+02  0.37614067366E+03  0.38760040933E+03  0.10566000000E+00 0.  1.
        994    1    1    2    0    0  0.96706276420E+02  0.23336279599E+00  0.41423436362E+02  0.20094153239E+03  0.17120000000E+03 0.  0.
        998    1    1    2    0    0 -0.51171120091E+01  0.18837157052E+02  0.10824358863E+04  0.10826580583E+04  0.10000000000E+02 0.  1.
</event>
<event>
 5    1  0.1245771E-008  0.3755522E+03  0.7957747E-01  0.3470757E+00
         13   -1    0    0    0    0  0.00000000000E+00  0.00000000000E+00  0.14999999963E+04  0.15000000000E+04  0.10566000000E+00 0.  1.
        994   -1    0    0    0    0 -0.00000000000E+00 -0.00000000000E+00  0.11368683772E-12  0.17120000000E+03  0.17120000000E+03 0.  0.
         13    1    1    2    0    0 -0.17884713158E+03 -0.26917792429E+03  0.86323135247E+03  0.92174369022E+03  0.10566000000E+00 0.  1.
        994    1    1    2    0    0  0.18706505664E+03  0.25939347630E+03  0.53488777340E+03  0.64629148308E+03  0.17120000000E+03 0.  0.
        998    1    1    2    0    0 -0.82179250552E+01  0.97844479961E+01  0.10188087040E+03  0.10316482670E+03  0.10000000000E+02 0.  0.
</event>
<event>
 5    1  0.1245771E-008  0.3829289E+03  0.7957747E-01  0.3438504E+00
         13   -1    0    0    0    0  0.00000000000E+00  0.00000000000E+00  0.14999999963E+04  0.15000000000E+04  0.10566000000E+00 0.  1.
        994   -1    0    0    0    0 -0.00000000000E+00 -0.00000000000E+00  0.11368683772E-12  0.17120000000E+03  0.17120000000E+03 0.  0.
         13    1    1    2    0    0  0.14961591350E+02 -0.98803580867E+01  0.61929928662E+02  0.64473234134E+02  0.10566000000E+00 0.  1.
        994    1    1    2    0    0 -0.43895014986E+00  0.64997763069E+01  0.28024100107E+01  0.17134682160E+03  0.17120000000E+03 0.  0.
        998    1    1    2    0    0 -0.14522641200E+02  0.33805817798E+01  0.14352676576E+04  0.14353799443E+04  0.10000000000E+02 0.  1.
</event>
<event>
 5    1  0.1245771E-008  0.3760584E+03  0.7957747E-01  0.3468503E+00
         13   -1    0    0    0    0  0.00000000000E+00  0.00000000000E+00  0.14999999963E+04  0.15000000000E+04  0.10566000000E+00 0. -1.
        994   -1    0    0    0    0 -0.00000000000E+00 -0.00000000000E+00  0.11368683772E-12  0.17120000000E+03  0.17120000000E+03 0.  0.
         13    1    1    2    0    0  0.16703038810E+02 -0.47099005881E+01  0.21869502943E+02  0.27918828630E+02  0.10566000000E+00 0. -1.
        994    1    1    2    0    0 -0.12938464120E+02  0.34815986181E+01  0.67445428484E+01  0.17185591128E+03  0.17120000000E+03 0.  0.
        998    1    1    2    0    0 -0.37645746906E+01  0.12283019701E+01  0.14713859505E+04  0.14714252601E+04  0.10000000000E+02 0. -1.
</event>
<event>
 5    1  0.1245771E-008  0.3777572E+03  0.7957747E-01  0.3460983E+00
         13   -1    0    0    0    0  0.00000000000E+00  0.00000000000E+00  0.14999999963E+04  0.15000000000E+04  0.10566000000E+00 0.  1.
        994   -1    0    0    0    0 -0.00000000000E+00 -0.00000000000E+00  0.11368683772E-12  0.17120000000E+03  0.17120000000E+03 0.  0.
         13    1    1    2    0    0 -0.12750372119E+02  0.10087707198E+02  0.23612608101E+02  0.28668802749E+02  0.10566000000E+00 0.  1.
        994    1    1    2    0    0 -0.12148702336E+02 -0.13871396189E+02  0.64155518822E+01  0.17230962221E+03  0.17120000000E+03 0.  0.
        998    1    1    2    0    0  0.24899074454E+02  0.37836889906E+01  0.14699718363E+04  0.14702215750E+04  0.10000000000E+02 0.  1.
</event>
<event>
 5    1  0.1245771E-008  0.3834658E+03  0.7957747E-01  0.3436205E+00
         13   -1    0    0    0    0  0.00000000000E+00  0.00000000000E+00  0.14999999963E+04  0.15000000000E+04  0.10566000000E+00 0.  1.
        994   -1    0    0    0    0 -0.00000000000E+00 -0.00000000000E+00  0.11368683772E-12  0.17120000000E+03  0.17120000000E+03 0.  0.
         13    1    1    2    0    0  0.10481920193E+02  0.47331697010E+01  0.26753080302E+02  0.29120645873E+02  0.10566000000E+00 0.  1.
        994    1    1    2    0    0 -0.82954335527E+01 -0.32591723728E+01  0.26563462946E+01  0.17145242080E+03  0.17120000000E+03 0.  0.
        998    1    1    2    0    0 -0.21864866403E+01 -0.14739973282E+01  0.14705905697E+04  0.14706269333E+04  0.10000000000E+02 0.  1.
</event>
<event>
 5    1  0.1245771E-008  0.3834566E+03  0.7957747E-01  0.3436244E+00
         13   -1    0    0    0    0  0.00000000000E+00  0.00000000000E+00  0.14999999963E+04  0.15000000000E+04  0.10566000000E+00 0.  1.
        994   -1    0    0    0    0 -0.00000000000E+00 -0.00000000000E+00  0.11368683772E-12  0.17120000000E+03  0.17120000000E+03 0.  0.
         13    1    1    2    0    0  0.18189280372E+02  0.65725963604E+01  0.80039616487E+02  0.82343186207E+02  0.10566000000E+00 0.  1.
        994    1    1    2    0    0 -0.83774933513E+01  0.36802758514E+01  0.26751134709E+01  0.17146522405E+03  0.17120000000E+03 0.  0.
        998    1    1    2    0    0 -0.98117870209E+01 -0.10252872212E+02  0.14172852663E+04  0.14173915897E+04  0.10000000000E+02 0.  1.
</event>
<event>
 5    1  0.1245771E-008  0.3757935E+03  0.7957747E-01  0.3469681E+00
         13   -1    0    0    0    0  0.00000000000E+00  0.00000000000E+00  0.14999999963E+04  0.15000000000E+04  0.10566000000E+00 0. -1.
        994   -1    0    0    0    0 -0.00000000000E+00 -0.00000000000E+00  0.11368683772E-12  0.17120000000E+03  0.17120000000E+03 0.  0.
         13    1    1    2    0    0  0.10927585267E+02 -0.18224038524E+02  0.32514683588E+02  0.38842547712E+02  0.10566000000E+00 0. -1.
        994    1    1    2    0    0 -0.41774533917E+01  0.26025091142E+02  0.86306827428E+01  0.17343207653E+03  0.17120000000E+03 0.  0.
        998    1    1    2    0    0 -0.67501318752E+01 -0.78010526174E+01  0.14588546299E+04  0.14589253758E+04  0.10000000000E+02 0. -1.
</event>
<event>
 5    1  0.1245771E-008  0.3833257E+03  0.7957747E-01  0.3436804E+00
         13   -1    0    0    0    0  0.00000000000E+00  0.00000000000E+00  0.14999999963E+04  0.15000000000E+04  0.10566000000E+00 0.  1.
        994   -1    0    0    0    0 -0.00000000000E+00 -0.00000000000E+00  0.11368683772E-12  0.17120000000E+03  0.17120000000E+03 0.  0.
         13    1    1    2    0    0 -0.71767067081E+01 -0.19482386444E+02  0.90493330703E+02  0.92844615172E+02  0.10566000000E+00 0.  1.
        994    1    1    2    0    0  0.17595188554E+01  0.61954106626E+01  0.26008262190E+01  0.17134083961E+03  0.17120000000E+03 0.  0.
        998    1    1    2    0    0  0.54171878527E+01  0.13286975781E+02  0.14069058394E+04  0.14070145452E+04  0.10000000000E+02 0.  1.
</event>
<event>
 5    1  0.1245771E-008  0.3784508E+03  0.7957747E-01  0.3457932E+00
         13   -1    0    0    0    0  0.00000000000E+00  0.00000000000E+00  0.14999999963E+04  0.15000000000E+04  0.10566000000E+00 0. -1.
        994   -1    0    0    0    0 -0.00000000000E+00 -0.00000000000E+00  0.11368683772E-12  0.17120000000E+03  0.17120000000E+03 0.  0.
         13    1    1    2    0    0  0.26320739818E+02 -0.96711914652E+01  0.73752089749E+02  0.78903074688E+02  0.10566000000E+00 0. -1.
        994    1    1    2    0    0 -0.24655951939E+02  0.24691659929E+02  0.90193468976E+01  0.17495251543E+03  0.17120000000E+03 0.  0.
        998    1    1    2    0    0 -0.16647878792E+01 -0.15020468463E+02  0.14172285596E+04  0.14173444099E+04  0.10000000000E+02 0. -1.
</event>
<event>
 5    1  0.1245771E-008  0.3714054E+03  0.7957747E-01  0.3489457E+00
         13   -1    0    0    0    0  0.00000000000E+00  0.00000000000E+00  0.14999999963E+04  0.15000000000E+04  0.10566000000E+00 0.  1.
        994   -1    0    0    0    0 -0.00000000000E+00 -0.00000000000E+00  0.11368683772E-12  0.17120000000E+03  0.17120000000E+03 0.  0.
         13    1    1    2    0    0  0.22480395743E+02  0.82333702001E+02  0.46692819426E+03  0.47466425654E+03  0.10566000000E+00 0.  1.
        994    1    1    2    0    0 -0.57160371933E+02  0.89868807845E+01  0.23541145310E+02  0.18224076840E+03  0.17120000000E+03 0.  0.
        998    1    1    2    0    0  0.34679976191E+02 -0.91320582786E+02  0.10095306567E+04  0.10142949751E+04  0.10000000000E+02 0.  1.
</event>
<event>
 5    1  0.1245771E-008  0.3838006E+03  0.7957747E-01  0.3434775E+00
         13   -1    0    0    0    0  0.00000000000E+00  0.00000000000E+00  0.14999999963E+04  0.15000000000E+04  0.10566000000E+00 0.  1.
        994   -1    0    0    0    0 -0.00000000000E+00 -0.00000000000E+00  0.11368683772E-12  0.17120000000E+03  0.17120000000E+03 0.  0.
         13    1    1    2    0    0 -0.27476074863E+01 -0.12769681408E+02  0.38196243448E+02  0.40368035471E+02  0.10566000000E+00 0.  1.
        994    1    1    2    0    0 -0.58621701594E+01  0.72690995366E+01  0.25147545571E+01  0.17147293908E+03  0.17120000000E+03 0.  0.
        998    1    1    2    0    0  0.86097776457E+01  0.55005818716E+01  0.14592889983E+04  0.14593590254E+04  0.10000000000E+02 0.  1.
</event>
<event>
 5    1  0.1245771E-008  0.3699026E+03  0.7957747E-01  0.3496339E+00
         13   -1    0    0    0    0  0.00000000000E+00  0.00000000000E+00  0.14999999963E+04  0.15000000000E+04  0.10566000000E+00 0.  1.
        994   -1    0    0    0    0 -0.00000000000E+00 -0.00000000000E+00  0.11368683772E-12  0.17120000000E+03  0.17120000000E+03 0.  0.
         13    1    1    2    0    0  0.53552488883E+02 -0.83180050456E+02  0.47419099154E+03  0.48440055479E+03  0.10566000000E+00 0.  1.
        994    1    1    2    0    0 -0.72241998285E+02  0.37969682511E+02  0.32724264851E+02  0.19246017930E+03  0.17120000000E+03 0.  0.
        998    1    1    2    0    0  0.18689509402E+02  0.45210367944E+02  0.99308473988E+03  0.99433926591E+03  0.10000000000E+02 0.  1.
</event>
<event>
 5    1  0.1245771E-008  0.3784204E+03  0.7957747E-01  0.3458065E+00
         13   -1    0    0    0    0  0.00000000000E+00  0.00000000000E+00  0.14999999963E+04  0.15000000000E+04  0.10566000000E+00 0.  1.
        994   -1    0    0    0    0 -0.00000000000E+00 -0.00000000000E+00  0.11368683772E-12  0.17120000000E+03  0.17120000000E+03 0.  0.
         13    1    1    2    0    0 -0.41164241314E+02 -0.70806635882E+01  0.14932431749E+03  0.15505609797E+03  0.10566000000E+00 0.  1.
        994    1    1    2    0    0  0.51434720796E+02  0.98617787072E+01  0.14205597051E+02  0.17959405383E+03  0.17120000000E+03 0.  0.
        998    1    1    2    0    0 -0.10270479481E+02 -0.27811151190E+01  0.13364700817E+04  0.13365498482E+04  0.10000000000E+02 0.  1.
</event>
<event>
 5    1  0.1245771E-008  0.3843438E+03  0.7957747E-01  0.3432460E+00
         13   -1    0    0    0    0  0.00000000000E+00  0.00000000000E+00  0.14999999963E+04  0.15000000000E+04  0.10566000000E+00 0. -1.
        994   -1    0    0    0    0 -0.00000000000E+00 -0.00000000000E+00  0.11368683772E-12  0.17120000000E+03  0.17120000000E+03 0.  0.
         13    1    1    2    0    0  0.16595008788E+01  0.10395122325E+02  0.27499958181E+02  0.29446075720E+02  0.10566000000E+00 0. -1.
        994    1    1    2    0    0 -0.63373756201E+00 -0.10220209920E+02  0.23018976456E+01  0.17152140696E+03  0.17120000000E+03 0.  0.
        998    1    1    2    0    0 -0.10257633168E+01 -0.17491240522E+00  0.14701981405E+04  0.14702325173E+04  0.10000000000E+02 0. -1.
</event>
<event>
 5    1  0.1245771E-008  0.3725460E+03  0.7957747E-01  0.3484271E+00
         13   -1    0    0    0    0  0.00000000000E+00  0.00000000000E+00  0.14999999963E+04  0.15000000000E+04  0.10566000000E+00 0.  1.
        994   -1    0    0    0    0 -0.00000000000E+00 -0.00000000000E+00  0.11368683772E-12  0.17120000000E+03  0.17120000000E+03 0.  0.
         13    1    1    2    0    0  0.98917349996E+01  0.21757848261E+02  0.32418429870E+02  0.40276744426E+02  0.10566000000E+00 0.  1.
        994    1    1    2    0    0 -0.65808890776E+01 -0.18787927090E+02  0.93038281376E+01  0.17260444816E+03  0.17120000000E+03 0.  0.
        998    1    1    2    0    0 -0.33108459220E+01 -0.29699211702E+01  0.14582777383E+04  0.14583188074E+04  0.10000000000E+02 0.  1.
</event>
<event>
 5    1  0.1245771E-008  0.3687966E+03  0.7957747E-01  0.3501440E+00
         13   -1    0    0    0    0  0.00000000000E+00  0.00000000000E+00  0.14999999963E+04  0.15000000000E+04  0.10566000000E+00 0. -1.
        994   -1    0    0    0    0 -0.00000000000E+00 -0.00000000000E+00  0.11368683772E-12  0.17120000000E+03  0.17120000000E+03 0.  0.
         13    1    1    2    0    0  0.49113646500E+02  0.28502905223E+02  0.21854084219E+03  0.22579786701E+03  0.10566000000E+00 0. -1.
        994    1    1    2    0    0  0.16588574794E+02  0.17214096465E+02  0.11886284955E+02  0.17326924049E+03  0.17120000000E+03 0.  0.
        998    1    1    2    0    0 -0.65702221294E+02 -0.45717001687E+02  0.12695728691E+04  0.12721328925E+04  0.10000000000E+02 0. -1.
</event>
<event>
 5    1  0.1245771E-008  0.3820099E+03  0.7957747E-01  0.3442453E+00
         13   -1    0    0    0    0  0.00000000000E+00  0.00000000000E+00  0.14999999963E+04  0.15000000000E+04  0.10566000000E+00 0.  1.
        994   -1    0    0    0    0 -0.00000000000E+00 -0.00000000000E+00  0.11368683772E-12  0.17120000000E+03  0.17120000000E+03 0.  0.
         13    1    1    2    0    0 -0.41902044405E+01  0.14888675910E+02  0.35256635825E+02  0.38500285939E+02  0.10566000000E+00 0.  1.
        994    1    1    2    0    0 -0.29669520345E+01 -0.27079619477E+02  0.55903288197E+01  0.17344394014E+03  0.17120000000E+03 0.  0.
        998    1    1    2    0    0  0.71571564749E+01  0.12190943567E+02  0.14591530316E+04  0.14592557739E+04  0.10000000000E+02 0.  1.
</event>
<event>
 5    1  0.1245771E-008  0.3894030E+03  0.7957747E-01  0.3411210E+00
         13   -1    0    0    0    0  0.00000000000E+00  0.00000000000E+00  0.14999999963E+04  0.15000000000E+04  0.10566000000E+00 0. -1.
        994   -1    0    0    0    0 -0.00000000000E+00 -0.00000000000E+00  0.11368683772E-12  0.17120000000E+03  0.17120000000E+03 0.  0.
         13    1    1    2    0    0  0.97808540387E+02  0.44367187209E+02  0.24915500303E+03  0.27131749773E+03  0.10566000000E+00 0. -1.
        994    1    1    2    0    0 -0.69868696734E+02 -0.33336886563E+02  0.44454587868E+02  0.19307675461E+03  0.17120000000E+03 0.  0.
        998    1    1    2    0    0 -0.27939843653E+02 -0.11030300645E+02  0.12063904054E+04  0.12068057477E+04  0.10000000000E+02 0. -1.
</event>
<event>
 5    1  0.1245771E-008  0.3862671E+03  0.7957747E-01  0.3424316E+00
         13   -1    0    0    0    0  0.00000000000E+00  0.00000000000E+00  0.14999999963E+04  0.15000000000E+04  0.10566000000E+00 0.  1.
        994   -1    0    0    0    0 -0.00000000000E+00 -0.00000000000E+00  0.11368683772E-12  0.17120000000E+03  0.17120000000E+03 0.  0.
         13    1    1    2    0    0  0.16257288016E+02 -0.65404868195E+02  0.10117975838E+03  0.12157076486E+03  0.10566000000E+00 0.  1.
        994    1    1    2    0    0 -0.13125415427E+02  0.66381591458E+02  0.37000949132E+02  0.18776927984E+03  0.17120000000E+03 0.  0.
        998    1    1    2    0    0 -0.31318725887E+01 -0.97672326287E+00  0.13618192888E+04  0.13618599553E+04  0.10000000000E+02 0.  1.
</event>
<event>
 5    1  0.1245771E-008  0.3756950E+03  0.7957747E-01  0.3470120E+00
         13   -1    0    0    0    0  0.00000000000E+00  0.00000000000E+00  0.14999999963E+04  0.15000000000E+04  0.10566000000E+00 0.  1.
        994   -1    0    0    0    0 -0.00000000000E+00 -0.00000000000E+00  0.11368683772E-12  0.17120000000E+03  0.17120000000E+03 0.  0.
         13    1    1    2    0    0  0.27908680677E+01 -0.42604833790E+02  0.15172381065E+03  0.15761689849E+03  0.10566000000E+00 0.  1.
        994    1    1    2    0    0  0.16920401015E+01  0.12974317002E+02  0.69030327430E+01  0.17183796950E+03  0.17120000000E+03 0.  0.
        998    1    1    2    0    0 -0.44829081692E+01  0.29630516788E+02  0.13413731529E+04  0.13417451320E+04  0.10000000000E+02 0.  1.
</event>
<event>
 5    1  0.1245771E-008  0.3847973E+03  0.7957747E-01  0.3430532E+00
         13   -1    0    0    0    0  0.00000000000E+00  0.00000000000E+00  0.14999999963E+04  0.15000000000E+04  0.10566000000E+00 0.  1.
        994   -1    0    0    0    0 -0.00000000000E+00 -0.00000000000E+00  0.11368683772E-12  0.17120000000E+03  0.17120000000E+03 0.  0.
         13    1    1    2    0    0  0.13082024177E+02 -0.15292535795E+02  0.10952802083E+03  0.11136157111E+03  0.10566000000E+00 0.  1.
        994    1    1    2    0    0 -0.21322211453E+01  0.26240282369E+02  0.40150025274E+01  0.17325893637E+03  0.17120000000E+03 0.  0.
        998    1    1    2    0    0 -0.10949803032E+02 -0.10947746574E+02  0.13864569729E+04  0.13865794925E+04  0.10000000000E+02 0.  1.
</event>
<event>
 5    1  0.1245771E-008  0.3785080E+03  0.7957747E-01  0.3457681E+00
         13   -1    0    0    0    0  0.00000000000E+00  0.00000000000E+00  0.14999999963E+04  0.15000000000E+04  0.10566000000E+00 0.  1.
        994   -1    0    0    0    0 -0.00000000000E+00 -0.00000000000E+00  0.11368683772E-12  0.17120000000E+03  0.17120000000E+03 0.  0.
         13    1    1    2    0    0 -0.15113337288E+02  0.30304286924E+01  0.22082117555E+02  0.26930049049E+02  0.10566000000E+00 0.  1.
        994    1    1    2    0    0  0.13536782310E+02 -0.20915085578E+01  0.55187513638E+01  0.17183572242E+03  0.17120000000E+03 0.  0.
        998    1    1    2    0    0  0.15765549781E+01 -0.93892013464E+00  0.14723991274E+04  0.14724342285E+04  0.10000000000E+02 0.  1.
</event>
<event>
 5    1  0.1245771E-008  0.3809784E+03  0.7957747E-01  0.3446909E+00
         13   -1    0    0    0    0  0.00000000000E+00  0.00000000000E+00  0.14999999963E+04  0.15000000000E+04  0.10566000000E+00 0.  1.
        994   -1    0    0    0    0 -0.00000000000E+00 -0.00000000000E+00  0.11368683772E-12  0.17120000000E+03  0.17120000000E+03 0.  0.
         13    1    1    2    0    0  0.13493344891E+02  0.17316352477E-01  0.23251698877E+02  0.26883513924E+02  0.10566000000E+00 0.  1.
        994    1    1    2    0    0 -0.13732563063E+02 -0.16123474954E+01  0.42773568809E+01  0.17181070611E+03  0.17120000000E+03 0.  0.
        998    1    1    2    0    0  0.23921817176E+00  0.15950311429E+01  0.14724709405E+04  0.14725057800E+04  0.10000000000E+02 0.  1.
</event>
<event>
 5    1  0.1245771E-008  0.3753706E+03  0.7957747E-01  0.3471567E+00
         13   -1    0    0    0    0  0.00000000000E+00  0.00000000000E+00  0.14999999963E+04  0.15000000000E+04  0.10566000000E+00 0. -1.
        994   -1    0    0    0    0 -0.00000000000E+00 -0.00000000000E+00  0.11368683772E-12  0.17120000000E+03  0.17120000000E+03 0.  0.
         13    1    1    2    0    0  0.35281405104E+02 -0.23162411950E+02  0.13789071119E+03  0.14420518114E+03  0.10566000000E+00 0. -1.
        994    1    1    2    0    0 -0.38424427677E+02 -0.18642828524E+02  0.12706163823E+02  0.17690358475E+03  0.17120000000E+03 0.  0.
        998    1    1    2    0    0  0.31430225723E+01  0.41805240475E+02  0.13494031213E+04  0.13500912341E+04  0.10000000000E+02 0. -1.
</event>
<event>
 5    1  0.1245771E-008  0.3781031E+03  0.7957747E-01  0.3459460E+00
         13   -1    0    0    0    0  0.00000000000E+00  0.00000000000E+00  0.14999999963E+04  0.15000000000E+04  0.10566000000E+00 0. -1.
        994   -1    0    0    0    0 -0.00000000000E+00 -0.00000000000E+00  0.11368683772E-12  0.17120000000E+03  0.17120000000E+03 0.  0.
         13    1    1    2    0    0 -0.28702323542E+01 -0.19518276808E+02  0.35776263874E+02  0.40855276087E+02  0.10566000000E+00 0. -1.
        994    1    1    2    0    0  0.37604148768E+01  0.16496543245E+02  0.60573646666E+01  0.17214066436E+03  0.17120000000E+03 0.  0.
        998    1    1    2    0    0 -0.89018252258E+00  0.30217335636E+01  0.14581663677E+04  0.14582040596E+04  0.10000000000E+02 0. -1.
</event>
<event>
 5    1  0.1245771E-008  0.3827576E+03  0.7957747E-01  0.3439239E+00
         13   -1    0    0    0    0  0.00000000000E+00  0.00000000000E+00  0.14999999963E+04  0.15000000000E+04  0.10566000000E+00 0. -1.
        994   -1    0    0    0    0 -0.00000000000E+00 -0.00000000000E+00  0.11368683772E-12  0.17120000000E+03  0.17120000000E+03 0.  0.
         13    1    1    2    0    0 -0.33074195529E+02  0.98221514033E+01  0.16518268318E+03  0.16874746533E+03  0.10566000000E+00 0. -1.
        994    1    1    2    0    0  0.56151601096E+02 -0.52077957192E+01  0.13354831080E+02  0.18074267608E+03  0.17120000000E+03 0.  0.
        998    1    1    2    0    0 -0.23077405567E+02 -0.46143556841E+01  0.13214624820E+04  0.13217098586E+04  0.10000000000E+02 0. -1.
</event>
<event>
 5    1  0.1245771E-008  0.3770539E+03  0.7957747E-01  0.3464088E+00
         13   -1    0    0    0    0  0.00000000000E+00  0.00000000000E+00  0.14999999963E+04  0.15000000000E+04  0.10566000000E+00 0. -1.
        994   -1    0    0    0    0 -0.00000000000E+00 -0.00000000000E+00  0.11368683772E-12  0.17120000000E+03  0.17120000000E+03 0.  0.
         13    1    1    2    0    0 -0.84017568478E+01  0.86468201240E+02  0.21694602259E+03  0.23369408898E+03  0.10566000000E+00 0. -1.
        994    1    1    2    0    0  0.89780489612E+01 -0.84535440771E+02  0.41104274085E+02  0.19551431522E+03  0.17120000000E+03 0.  0.
        998    1    1    2    0    0 -0.57629211336E+00 -0.19327604690E+01  0.12419496996E+04  0.12419915958E+04  0.10000000000E+02 0.  0.
</event>
<event>
 5    1  0.1245771E-008  0.3851789E+03  0.7957747E-01  0.3428914E+00
         13   -1    0    0    0    0  0.00000000000E+00  0.00000000000E+00  0.14999999963E+04  0.15000000000E+04  0.10566000000E+00 0. -1.
        994   -1    0    0    0    0 -0.00000000000E+00 -0.00000000000E+00  0.11368683772E-12  0.17120000000E+03  0.17120000000E+03 0.  0.
         13    1    1    2    0    0  0.30169134987E+01  0.17205421093E+02  0.86106046245E+02  0.87860062861E+02  0.10566000000E+00 0. -1.
        994    1    1    2    0    0 -0.80357810369E+01 -0.29703149342E+02  0.46595993669E+01  0.17400575486E+03  0.17120000000E+03 0.  0.
        998    1    1    2    0    0  0.50188675382E+01  0.12497728249E+02  0.14092343507E+04  0.14093341823E+04  0.10000000000E+02 0. -1.
</event>
<event>
 5    1  0.1245771E-008  0.3805551E+03  0.7957747E-01  0.3448745E+00
         13   -1    0    0    0    0  0.00000000000E+00  0.00000000000E+00  0.14999999963E+04  0.15000000000E+04  0.10566000000E+00 0. -1.
        994   -1    0    0    0    0 -0.00000000000E+00 -0.00000000000E+00  0.11368683772E-12  0.17120000000E+03  0.17120000000E+03 0.  0.
         13    1    1    2    0    0 -0.79493216584E+01  0.34169213291E+02  0.14749907925E+03  0.15161370780E+03  0.10566000000E+00 0. -1.
        994    1    1    2    0    0 -0.18090506736E+02 -0.37664108801E+02  0.97007774264E+01  0.17649191655E+03  0.17120000000E+03 0.  0.
        998    1    1    2    0    0  0.26039828394E+02  0.34948955102E+01  0.13428001396E+04  0.13430943756E+04  0.10000000000E+02 0. -1.
</event>
<event>
 5    1  0.1245771E-008  0.3835328E+03  0.7957747E-01  0.3435919E+00
         13   -1    0    0    0    0  0.00000000000E+00  0.00000000000E+00  0.14999999963E+04  0.15000000000E+04  0.10566000000E+00 0. -1.
        994   -1    0    0    0    0 -0.00000000000E+00 -0.00000000000E+00  0.11368683772E-12  0.17120000000E+03  0.17120000000E+03 0.  0.
         13    1    1    2    0    0 -0.14869126175E+02  0.15095358715E+02  0.97768145218E+02  0.10003790357E+03  0.10566000000E+00 0. -1.
        994    1    1    2    0    0 -0.49883776892E+01 -0.16740105381E+02  0.33691745918E+01  0.17212177776E+03  0.17120000000E+03 0.  0.
        998    1    1    2    0    0  0.19857503864E+02  0.16447466655E+01  0.13988626765E+04  0.13990403187E+04  0.10000000000E+02 0. -1.
</event>
<event>
 5    1  0.1245771E-008  0.3703615E+03  0.7957747E-01  0.3494231E+00
         13   -1    0    0    0    0  0.00000000000E+00  0.00000000000E+00  0.14999999963E+04  0.15000000000E+04  0.10566000000E+00 0.  1.
        994   -1    0    0    0    0 -0.00000000000E+00 -0.00000000000E+00  0.11368683772E-12  0.17120000000E+03  0.17120000000E+03 0.  0.
         13    1    1    2    0    0  0.84713874184E+02 -0.77814758620E+00  0.25107755418E+03  0.26498489650E+03  0.10566000000E+00 0.  1.
        994    1    1    2    0    0 -0.12675018332E+03 -0.29094178515E+02  0.69967733912E+02  0.22609069858E+03  0.17120000000E+03 0.  0.
        998    1    1    2    0    0  0.42036309134E+02  0.29872326101E+02  0.11789547082E+04  0.11801244049E+04  0.10000000000E+02 0.  1.
</event>
<event>
 5    1  0.1245771E-008  0.3721297E+03  0.7957747E-01  0.3486160E+00
         13   -1    0    0    0    0  0.00000000000E+00  0.00000000000E+00  0.14999999963E+04  0.15000000000E+04  0.10566000000E+00 0.  1.
        994   -1    0    0    0    0 -0.00000000000E+00 -0.00000000000E+00  0.11368683772E-12  0.17120000000E+03  0.17120000000E+03 0.  0.
         13    1    1    2    0    0  0.38901078775E+02  0.48390531687E+02  0.35897453414E+03  0.36430435739E+03  0.10566000000E+00 0.  1.
        994    1    1    2    0    0  0.33429461270E+02 -0.86710942059E+01  0.12265076891E+02  0.17507880759E+03  0.17120000000E+03 0.  0.
        998    1    1    2    0    0 -0.72330540045E+02 -0.39719437481E+02  0.11287603852E+04  0.11318168350E+04  0.10000000000E+02 0.  1.
</event>
<event>
 5    1  0.1245771E-008  0.3820309E+03  0.7957747E-01  0.3442363E+00
         13   -1    0    0    0    0  0.00000000000E+00  0.00000000000E+00  0.14999999963E+04  0.15000000000E+04  0.10566000000E+00 0.  1.
        994   -1    0    0    0    0 -0.00000000000E+00 -0.00000000000E+00  0.11368683772E-12  0.17120000000E+03  0.17120000000E+03 0.  0.
         13    1    1    2    0    0 -0.78712243881E+01 -0.14523146058E+02  0.41920041709E+02  0.45057507761E+02  0.10566000000E+00 0.  1.
        994    1    1    2    0    0  0.70542091082E+01  0.14538539429E+02  0.39790651356E+01  0.17200698810E+03  0.17120000000E+03 0.  0.
        998    1    1    2    0    0  0.81701527999E+00 -0.15393371358E-01  0.14541008894E+04  0.14541355041E+04  0.10000000000E+02 0.  1.
</event>
<event>
 5    1  0.1245771E-008  0.3790217E+03  0.7957747E-01  0.3455429E+00
         13   -1    0    0    0    0  0.00000000000E+00  0.00000000000E+00  0.14999999963E+04  0.15000000000E+04  0.10566000000E+00 0.  1.
        994   -1    0    0    0    0 -0.00000000000E+00 -0.00000000000E+00  0.11368683772E-12  0.17120000000E+03  0.17120000000E+03 0.  0.
         13    1    1    2    0    0 -0.21019725428E+02  0.29369643429E+00  0.47252791509E+02  0.51718010249E+02  0.10566000000E+00 0.  1.
        994    1    1    2    0    0  0.59873289219E+01 -0.11693985493E+01  0.47526044122E+01  0.17137456885E+03  0.17120000000E+03 0.  0.
        998    1    1    2    0    0  0.15032396506E+02  0.87570211499E+00  0.14479946004E+04  0.14481074209E+04  0.10000000000E+02 0.  1.
</event>
<event>
 5    1  0.1245771E-008  0.3718301E+03  0.7957747E-01  0.3487522E+00
         13   -1    0    0    0    0  0.00000000000E+00  0.00000000000E+00  0.14999999963E+04  0.15000000000E+04  0.10566000000E+00 0.  1.
        994   -1    0    0    0    0 -0.00000000000E+00 -0.00000000000E+00  0.11368683772E-12  0.17120000000E+03  0.17120000000E+03 0.  0.
         13    1    1    2    0    0  0.89467403504E+02  0.15617446259E+02  0.47825113219E+03  0.48679818973E+03  0.10566000000E+00 0.  1.
        994    1    1    2    0    0 -0.13736416946E+02  0.61987941455E+00  0.12575307809E+02  0.17221106749E+03  0.17120000000E+03 0.  0.
        998    1    1    2    0    0 -0.75730986557E+02 -0.16237325674E+02  0.10091735563E+04  0.10121907428E+04  0.10000000000E+02 0.  1.
</event>
<event>
 5    1  0.1245771E-008  0.3711546E+03  0.7957747E-01  0.3490601E+00
         13   -1    0    0    0    0  0.00000000000E+00  0.00000000000E+00  0.14999999963E+04  0.15000000000E+04  0.10566000000E+00 0. -1.
        994   -1    0    0    0    0 -0.00000000000E+00 -0.00000000000E+00  0.11368683772E-12  0.17120000000E+03  0.17120000000E+03 0.  0.
         13    1    1    2    0    0  0.23947327069E+02  0.28893373116E+01  0.30128425701E+02  0.38594765748E+02  0.10566000000E+00 0. -1.
        994    1    1    2    0    0 -0.13989122472E+02 -0.99301991283E+01  0.96810374487E+01  0.17232952994E+03  0.17120000000E+03 0.  0.
        998    1    1    2    0    0 -0.99582045977E+01  0.70408618167E+01  0.14601905331E+04  0.14602757043E+04  0.10000000000E+02 0. -1.
</event>
<event>
 5    1  0.1245771E-008  0.4057630E+03  0.7957747E-01  0.3346120E+00
         13   -1    0    0    0    0  0.00000000000E+00  0.00000000000E+00  0.14999999963E+04  0.15000000000E+04  0.10566000000E+00 0. -1.
        994   -1    0    0    0    0 -0.00000000000E+00 -0.00000000000E+00  0.11368683772E-12  0.17120000000E+03  0.17120000000E+03 0.  0.
         13    1    1    2    0    0 -0.18485945147E+02  0.36449115645E+01 -0.81042019202E+01  0.20511089710E+02  0.10566000000E+00 0. -1.
        994    1    1    2    0    0  0.22631562440E+02 -0.31945294268E+01  0.33367660550E+02  0.17591257319E+03  0.17120000000E+03 0.  0.
        998    1    1    2    0    0 -0.41456172935E+01 -0.45038213767E+00  0.14747365376E+04  0.14747763371E+04  0.10000000000E+02 0. -1.
</event>
<event>
 5    1  0.1245771E-008  0.3793659E+03  0.7957747E-01  0.3453924E+00
         13   -1    0    0    0    0  0.00000000000E+00  0.00000000000E+00  0.14999999963E+04  0.15000000000E+04  0.10566000000E+00 0.  1.
        994   -1    0    0    0    0 -0.00000000000E+00 -0.00000000000E+00  0.11368683772E-12  0.17120000000E+03  0.17120000000E+03 0.  0.
         13    1    1    2    0    0  0.10180603065E+02 -0.11487114538E+02  0.25828730420E+02  0.30045514779E+02  0.10566000000E+00 0.  1.
        994    1    1    2    0    0  0.71382705674E+01 -0.19754335379E+01  0.46373881023E+01  0.17142287657E+03  0.17120000000E+03 0.  0.
        998    1    1    2    0    0 -0.17318873633E+02  0.13462548076E+02  0.14695338778E+04  0.14697316086E+04  0.10000000000E+02 0.  1.
</event>
<event>
 5    1  0.1245771E-008  0.3817881E+03  0.7957747E-01  0.3443410E+00
         13   -1    0    0    0    0  0.00000000000E+00  0.00000000000E+00  0.14999999963E+04  0.15000000000E+04  0.10566000000E+00 0.  1.
        994   -1    0    0    0    0 -0.00000000000E+00 -0.00000000000E+00  0.11368683772E-12  0.17120000000E+03  0.17120000000E+03 0.  0.
         13    1    1    2    0    0 -0.12137373031E+02  0.30170941565E+02  0.24565952484E+02  0.40756578911E+02  0.10566000000E+00 0.  1.
        994    1    1    2    0    0  0.23413250351E+02  0.31004338523E+01  0.19349948277E+02  0.17390127510E+03  0.17120000000E+03 0.  0.
        998    1    1    2    0    0 -0.11275877320E+02 -0.33271375418E+02  0.14560840955E+04  0.14565421460E+04  0.10000000000E+02 0.  1.
</event>
<event>
 5    1  0.1245771E-008  0.3834813E+03  0.7957747E-01  0.3436139E+00
         13   -1    0    0    0    0  0.00000000000E+00  0.00000000000E+00  0.14999999963E+04  0.15000000000E+04  0.10566000000E+00 0.  1.
        994   -1    0    0    0    0 -0.00000000000E+00 -0.00000000000E+00  0.11368683772E-12  0.17120000000E+03  0.17120000000E+03 0.  0.
         13    1    1    2    0    0 -0.19160463706E+02 -0.47205607548E+01  0.87902891002E+02  0.90090712473E+02  0.10566000000E+00 0.  1.
        994    1    1    2    0    0 -0.19975306227E+01  0.59128995504E+01  0.25147537855E+01  0.17133218173E+03  0.17120000000E+03 0.  0.
        998    1    1    2    0    0  0.21157994329E+02 -0.11923387956E+01  0.14095823515E+04  0.14097771058E+04  0.10000000000E+02 0.  1.
</event>
<event>
 5    1  0.1245771E-008  0.3772136E+03  0.7957747E-01  0.3463382E+00
         13   -1    0    0    0    0  0.00000000000E+00  0.00000000000E+00  0.14999999963E+04  0.15000000000E+04  0.10566000000E+00 0. -1.
        994   -1    0    0    0    0 -0.00000000000E+00 -0.00000000000E+00  0.11368683772E-12  0.17120000000E+03  0.17120000000E+03 0.  0.
         13    1    1    2    0    0  0.30894573996E+02  0.42982190382E+01  0.92085670106E+02  0.97225157198E+02  0.10566000000E+00 0. -1.
        994    1    1    2    0    0 -0.20096128826E+00 -0.21687039052E+02  0.71350113976E+01  0.17271570987E+03  0.17120000000E+03 0.  0.
        998    1    1    2    0    0 -0.30693612708E+02  0.17388820014E+02  0.14007793148E+04  0.14012591329E+04  0.10000000000E+02 0. -1.
</event>
<event>
 5    1  0.1245771E-008  0.3775708E+03  0.7957747E-01  0.3461804E+00
         13   -1    0    0    0    0  0.00000000000E+00  0.00000000000E+00  0.14999999963E+04  0.15000000000E+04  0.10566000000E+00 0. -1.
        994   -1    0    0    0    0 -0.00000000000E+00 -0.00000000000E+00  0.11368683772E-12  0.17120000000E+03  0.17120000000E+03 0.  0.
         13    1    1    2    0    0 -0.19209354293E+02 -0.86846304733E+01  0.40429461903E+02  0.45595774504E+02  0.10566000000E+00 0. -1.
        994    1    1    2    0    0  0.12688404428E+02 -0.15908115004E+02  0.67610640623E+01  0.17253757770E+03  0.17120000000E+03 0.  0.
        998    1    1    2    0    0  0.65209498656E+01  0.24592745477E+02  0.14528094703E+04  0.14530666478E+04  0.10000000000E+02 0. -1.
</event>
<event>
 5    1  0.1245771E-008  0.3786132E+03  0.7957747E-01  0.3457219E+00
         13   -1    0    0    0    0  0.00000000000E+00  0.00000000000E+00  0.14999999963E+04  0.15000000000E+04  0.10566000000E+00 0.  1.
        994   -1    0    0    0    0 -0.00000000000E+00 -0.00000000000E+00  0.11368683772E-12  0.17120000000E+03  0.17120000000E+03 0.  0.
         13    1    1    2    0    0 -0.25175111133E+02 -0.15260846688E+02  0.88630034746E+02  0.93391508636E+02  0.10566000000E+00 0.  1.
        994    1    1    2    0    0  0.36012664694E+02 -0.26107912853E+02  0.11508283942E+02  0.17725804842E+03  0.17120000000E+03 0.  0.
        998    1    1    2    0    0 -0.10837553561E+02  0.41368759540E+02  0.13998616776E+04  0.14005504429E+04  0.10000000000E+02 0.  1.
</event>
<event>
 5    1  0.1666665E-008  0.3854175E+03  0.7957747E-01  0.3427904E+00
         13   -1    0    0    0    0  0.00000000000E+00  0.00000000000E+00  0.14999999963E+04  0.15000000000E+04  0.10566000000E+00 0.  1.
        994   -1    0    0    0    0 -0.00000000000E+00 -0.00000000000E+00  0.11368683772E-12  0.17120000000E+03  0.17120000000E+03 0.  0.
         13    1    1    2    0    0 -0.10338637231E+02  0.17983174039E+01  0.37922245181E+02  0.39347543874E+02  0.10566000000E+00 0.  1.
        994    1    1    2    0    0  0.11274378359E+02 -0.86412304115E+00  0.18430446392E+01  0.17158291037E+03  0.17120000000E+03 0.  0.
        998    1    1    2    0    0 -0.93574112749E+00 -0.93419436271E+00  0.14602347065E+04  0.14602695458E+04  0.10000000000E+02 0.  1.
</event>
<event>
 5    1  0.1245771E-008  0.3841662E+03  0.7957747E-01  0.3433216E+00
         13   -1    0    0    0    0  0.00000000000E+00  0.00000000000E+00  0.14999999963E+04  0.15000000000E+04  0.10566000000E+00 0. -1.
        994   -1    0    0    0    0 -0.00000000000E+00 -0.00000000000E+00  0.11368683772E-12  0.17120000000E+03  0.17120000000E+03 0.  0.
         13    1    1    2    0    0 -0.64157433640E+00  0.10358405145E+02  0.25451789776E+02  0.27486595672E+02  0.10566000000E+00 0. -1.
        994    1    1    2    0    0  0.35004876719E+01 -0.10172400405E+02  0.24263805182E+01  0.17155482642E+03  0.17120000000E+03 0.  0.
        998    1    1    2    0    0 -0.28589133356E+01 -0.18600473969E+00  0.14721218260E+04  0.14721585779E+04  0.10000000000E+02 0. -1.
</event>
<event>
 5    1  0.1245771E-008  0.3741067E+03  0.7957747E-01  0.3477228E+00
         13   -1    0    0    0    0  0.00000000000E+00  0.00000000000E+00  0.14999999963E+04  0.15000000000E+04  0.10566000000E+00 0. -1.
        994   -1    0    0    0    0 -0.00000000000E+00 -0.00000000000E+00  0.11368683772E-12  0.17120000000E+03  0.17120000000E+03 0.  0.
         13    1    1    2    0    0 -0.12264350760E+02  0.49686294492E+02  0.16759408713E+03  0.17523393326E+03  0.10566000000E+00 0. -1.
        994    1    1    2    0    0  0.12755636010E+02 -0.42987442577E+02  0.14024457178E+02  0.17752958026E+03  0.17120000000E+03 0.  0.
        998    1    1    2    0    0 -0.49128524975E+00 -0.66988519147E+01  0.13183814520E+04  0.13184364865E+04  0.10000000000E+02 0. -1.
</event>
<event>
 5    1  0.1245771E-008  0.3741448E+03  0.7957747E-01  0.3477056E+00
         13   -1    0    0    0    0  0.00000000000E+00  0.00000000000E+00  0.14999999963E+04  0.15000000000E+04  0.10566000000E+00 0. -1.
        994   -1    0    0    0    0 -0.00000000000E+00 -0.00000000000E+00  0.11368683772E-12  0.17120000000E+03  0.17120000000E+03 0.  0.
         13    1    1    2    0    0  0.63686703417E+01  0.97128145090E+01  0.67744931741E+01  0.13446324755E+02  0.10566000000E+00 0. -1.
        994    1    1    2    0    0 -0.29535972368E+02  0.61808093480E+02  0.23288296948E+02  0.18586123549E+03  0.17120000000E+03 0.  0.
        998    1    1    2    0    0  0.23167302026E+02 -0.71520907989E+02  0.14699372062E+04  0.14718924398E+04  0.10000000000E+02 0. -1.
</event>
<event>
 5    1  0.1245771E-008  0.3787141E+03  0.7957747E-01  0.3456777E+00
         13   -1    0    0    0    0  0.00000000000E+00  0.00000000000E+00  0.14999999963E+04  0.15000000000E+04  0.10566000000E+00 0.  1.
        994   -1    0    0    0    0 -0.00000000000E+00 -0.00000000000E+00  0.11368683772E-12  0.17120000000E+03  0.17120000000E+03 0.  0.
         13    1    1    2    0    0 -0.21875899439E+02  0.29664662120E+02  0.18102095381E+03  0.18473533511E+03  0.10566000000E+00 0.  1.
        994    1    1    2    0    0 -0.91008488019E+01  0.12712369602E+02  0.56046923787E+01  0.17200372777E+03  0.17120000000E+03 0.  0.
        998    1    1    2    0    0  0.30976748241E+02 -0.42377031722E+02  0.13133743501E+04  0.13144609371E+04  0.10000000000E+02 0.  1.
</event>
<event>
 5    1  0.1245771E-008  0.3701328E+03  0.7957747E-01  0.3495281E+00
         13   -1    0    0    0    0  0.00000000000E+00  0.00000000000E+00  0.14999999963E+04  0.15000000000E+04  0.10566000000E+00 0.  1.
        994   -1    0    0    0    0 -0.00000000000E+00 -0.00000000000E+00  0.11368683772E-12  0.17120000000E+03  0.17120000000E+03 0.  0.
         13    1    1    2    0    0  0.30975818371E+01  0.46942514771E+02  0.14570034116E+03  0.15310713662E+03  0.10566000000E+00 0.  1.
        994    1    1    2    0    0  0.50958166035E+02  0.14597275999E+02  0.18974050485E+02  0.18022005922E+03  0.17120000000E+03 0.  0.
        998    1    1    2    0    0 -0.54055747872E+02 -0.61539790771E+02  0.13353256046E+04  0.13378728042E+04  0.10000000000E+02 0.  1.
</event>
<event>
 5    1  0.1245771E-008  0.3840814E+03  0.7957747E-01  0.3433577E+00
         13   -1    0    0    0    0  0.00000000000E+00  0.00000000000E+00  0.14999999963E+04  0.15000000000E+04  0.10566000000E+00 0. -1.
        994   -1    0    0    0    0 -0.00000000000E+00 -0.00000000000E+00  0.11368683772E-12  0.17120000000E+03  0.17120000000E+03 0.  0.
         13    1    1    2    0    0  0.11076940732E+01 -0.10071006076E+02  0.24627778976E+02  0.26630636697E+02  0.10566000000E+00 0. -1.
        994    1    1    2    0    0 -0.10836980231E+02 -0.15335467659E+01  0.24821034380E+01  0.17156745829E+03  0.17120000000E+03 0.  0.
        998    1    1    2    0    0  0.97292861578E+01  0.11604552842E+02  0.14728901139E+04  0.14730019050E+04  0.10000000000E+02 0. -1.
</event>
<event>
 5    1  0.1245771E-008  0.3953479E+03  0.7957747E-01  0.3386937E+00
         13   -1    0    0    0    0  0.00000000000E+00  0.00000000000E+00  0.14999999963E+04  0.15000000000E+04  0.10566000000E+00 0.  1.
        994   -1    0    0    0    0 -0.00000000000E+00 -0.00000000000E+00  0.11368683772E-12  0.17120000000E+03  0.17120000000E+03 0.  0.
         13    1    1    2    0    0 -0.29303960649E+02  0.10050042131E+03  0.18801229770E+03  0.21519222115E+03  0.10566000000E+00 0.  1.
        994    1    1    2    0    0  0.65026132008E+02 -0.84524075726E+02  0.70203024105E+02  0.21356643419E+03  0.17120000000E+03 0.  0.
        998    1    1    2    0    0 -0.35722171359E+02 -0.15976345589E+02  0.12417846745E+04  0.12424413447E+04  0.10000000000E+02 0.  1.
</event>
<event>
 5    1  0.1245771E-008  0.3757753E+03  0.7957747E-01  0.3469763E+00
         13   -1    0    0    0    0  0.00000000000E+00  0.00000000000E+00  0.14999999963E+04  0.15000000000E+04  0.10566000000E+00 0. -1.
        994   -1    0    0    0    0 -0.00000000000E+00 -0.00000000000E+00  0.11368683772E-12  0.17120000000E+03  0.17120000000E+03 0.  0.
         13    1    1    2    0    0 -0.76601049023E+02  0.27661973787E+02  0.46147576893E+03  0.46860730039E+03  0.10566000000E+00 0. -1.
        994    1    1    2    0    0  0.58798477194E+02 -0.13236503781E+02  0.18697511418E+02  0.18245959247E+03  0.17120000000E+03 0.  0.
        998    1    1    2    0    0  0.17802571829E+02 -0.14425470005E+02  0.10198267159E+04  0.10201331071E+04  0.10000000000E+02 0. -1.
</event>
<event>
 5    1  0.1245771E-008  0.3692857E+03  0.7957747E-01  0.3499180E+00
         13   -1    0    0    0    0  0.00000000000E+00  0.00000000000E+00  0.14999999963E+04  0.15000000000E+04  0.10566000000E+00 0. -1.
        994   -1    0    0    0    0 -0.00000000000E+00 -0.00000000000E+00  0.11368683772E-12  0.17120000000E+03  0.17120000000E+03 0.  0.
         13    1    1    2    0    0  0.39665571705E+02 -0.24146633049E+02  0.10810022259E+03  0.11765239799E+03  0.10566000000E+00 0. -1.
        994    1    1    2    0    0 -0.81174597606E+00  0.62674174152E+01  0.10700888614E+02  0.17165048345E+03  0.17120000000E+03 0.  0.
        998    1    1    2    0    0 -0.38853825729E+02  0.17879215634E+02  0.13811988851E+04  0.13818971186E+04  0.10000000000E+02 0. -1.
</event>
<event>
 5    1  0.1245771E-008  0.3747233E+03  0.7957747E-01  0.3474461E+00
         13   -1    0    0    0    0  0.00000000000E+00  0.00000000000E+00  0.14999999963E+04  0.15000000000E+04  0.10566000000E+00 0.  1.
        994   -1    0    0    0    0 -0.00000000000E+00 -0.00000000000E+00  0.11368683772E-12  0.17120000000E+03  0.17120000000E+03 0.  0.
         13    1    1    2    0    0 -0.60462234850E+01  0.43650090813E+02  0.17743510397E+03  0.18282536621E+03  0.10566000000E+00 0.  1.
        994    1    1    2    0    0 -0.18042943695E+02  0.12654983462E+02  0.84751583969E+01  0.17282061432E+03  0.17120000000E+03 0.  0.
        998    1    1    2    0    0  0.24089167180E+02 -0.56305074275E+02  0.13140897339E+04  0.13155540195E+04  0.10000000000E+02 0.  1.
</event>
<event>
 5    1  0.1245771E-008  0.3835973E+03  0.7957747E-01  0.3435643E+00
         13   -1    0    0    0    0  0.00000000000E+00  0.00000000000E+00  0.14999999963E+04  0.15000000000E+04  0.10566000000E+00 0.  1.
        994   -1    0    0    0    0 -0.00000000000E+00 -0.00000000000E+00  0.11368683772E-12  0.17120000000E+03  0.17120000000E+03 0.  0.
         13    1    1    2    0    0 -0.50300434675E+01 -0.12379418549E+02  0.38617755171E+02  0.40864330649E+02  0.10566000000E+00 0.  1.
        994    1    1    2    0    0 -0.33135618317E+01  0.48619024762E+01  0.24425539689E+01  0.17131848662E+03  0.17120000000E+03 0.  0.
        998    1    1    2    0    0  0.83436052992E+01  0.75175160733E+01  0.14589396871E+04  0.14590171827E+04  0.10000000000E+02 0.  1.
</event>
<event>
 5    1  0.1245771E-008  0.3745917E+03  0.7957747E-01  0.3475051E+00
         13   -1    0    0    0    0  0.00000000000E+00  0.00000000000E+00  0.14999999963E+04  0.15000000000E+04  0.10566000000E+00 0.  1.
        994   -1    0    0    0    0 -0.00000000000E+00 -0.00000000000E+00  0.11368683772E-12  0.17120000000E+03  0.17120000000E+03 0.  0.
         13    1    1    2    0    0  0.31026297288E+02  0.44039507059E+02  0.11861937534E+03  0.13027922580E+03  0.10566000000E+00 0.  1.
        994    1    1    2    0    0  0.20394063111E+02 -0.11071374012E+02  0.15303289807E+02  0.17344198976E+03  0.17120000000E+03 0.  0.
        998    1    1    2    0    0 -0.51420360399E+02 -0.32968133047E+02  0.13660773311E+04  0.13674787844E+04  0.10000000000E+02 0.  1.
</event>
<event>
 5    1  0.1245771E-008  0.3850327E+03  0.7957747E-01  0.3429533E+00
         13   -1    0    0    0    0  0.00000000000E+00  0.00000000000E+00  0.14999999963E+04  0.15000000000E+04  0.10566000000E+00 0.  1.
        994   -1    0    0    0    0 -0.00000000000E+00 -0.00000000000E+00  0.11368683772E-12  0.17120000000E+03  0.17120000000E+03 0.  0.
         13    1    1    2    0    0  0.21671849051E+01  0.13972734300E+02  0.60627801580E+02  0.62254923361E+02  0.10566000000E+00 0.  1.
        994    1    1    2    0    0 -0.74720823848E+01 -0.11940445154E+02  0.22665705484E+01  0.17179343290E+03  0.17120000000E+03 0.  0.
        998    1    1    2    0    0  0.53048974797E+01 -0.20322891461E+01  0.14371056242E+04  0.14371516437E+04  0.10000000000E+02 0.  1.
</event>
<event>
 5    1  0.1245771E-008  0.3846071E+03  0.7957747E-01  0.3431340E+00
         13   -1    0    0    0    0  0.00000000000E+00  0.00000000000E+00  0.14999999963E+04  0.15000000000E+04  0.10566000000E+00 0. -1.
        994   -1    0    0    0    0 -0.00000000000E+00 -0.00000000000E+00  0.11368683772E-12  0.17120000000E+03  0.17120000000E+03 0.  0.
         13    1    1    2    0    0 -0.13240442641E+02 -0.12697977193E+02  0.91038033506E+02  0.92868092770E+02  0.10566000000E+00 0. -1.
        994    1    1    2    0    0  0.11609183498E+02  0.70531565764E+01  0.24331687684E+01  0.17175529241E+03  0.17120000000E+03 0.  0.
        998    1    1    2    0    0  0.16312591426E+01  0.56448206163E+01  0.14065287940E+04  0.14065766148E+04  0.10000000000E+02 0. -1.
</event>
<event>
 5    1  0.1245771E-008  0.3706740E+03  0.7957747E-01  0.3492799E+00
         13   -1    0    0    0    0  0.00000000000E+00  0.00000000000E+00  0.14999999963E+04  0.15000000000E+04  0.10566000000E+00 0. -1.
        994   -1    0    0    0    0 -0.00000000000E+00 -0.00000000000E+00  0.11368683772E-12  0.17120000000E+03  0.17120000000E+03 0.  0.
         13    1    1    2    0    0 -0.12630081967E+03  0.43308309899E+02  0.65271774184E+03  0.66623416936E+03  0.10566000000E+00 0. -1.
        994    1    1    2    0    0  0.12230086523E+03  0.27348368335E+02  0.68558403075E+02  0.22296889810E+03  0.17120000000E+03 0.  0.
        998    1    1    2    0    0  0.39999544365E+01 -0.70656678234E+02  0.77872385137E+03  0.78199693254E+03  0.10000000000E+02 0.  1.
</event>
<event>
 5    1  0.1245771E-008  0.3775572E+03  0.7957747E-01  0.3461864E+00
         13   -1    0    0    0    0  0.00000000000E+00  0.00000000000E+00  0.14999999963E+04  0.15000000000E+04  0.10566000000E+00 0.  1.
        994   -1    0    0    0    0 -0.00000000000E+00 -0.00000000000E+00  0.11368683772E-12  0.17120000000E+03  0.17120000000E+03 0.  0.
         13    1    1    2    0    0  0.84120542424E+02 -0.30089179747E+01  0.20551575495E+03  0.22208569504E+03  0.10566000000E+00 0.  1.
        994    1    1    2    0    0 -0.78188579747E+02  0.26681698103E+01  0.37315549522E+02  0.19189180120E+03  0.17120000000E+03 0.  0.
        998    1    1    2    0    0 -0.59319626767E+01  0.34074816444E+00  0.12571686918E+04  0.12572225038E+04  0.10000000000E+02 0.  1.
</event>
<event>
 5    1  0.1245771E-008  0.3820667E+03  0.7957747E-01  0.3442209E+00
         13   -1    0    0    0    0  0.00000000000E+00  0.00000000000E+00  0.14999999963E+04  0.15000000000E+04  0.10566000000E+00 0.  1.
        994   -1    0    0    0    0 -0.00000000000E+00 -0.00000000000E+00  0.11368683772E-12  0.17120000000E+03  0.17120000000E+03 0.  0.
         13    1    1    2    0    0  0.13326607634E+02  0.37541234104E+01  0.29821801689E+02  0.32879217351E+02  0.10566000000E+00 0.  1.
        994    1    1    2    0    0 -0.12500283516E+02  0.86543718916E+01  0.38613912375E+01  0.17191714744E+03  0.17120000000E+03 0.  0.
        998    1    1    2    0    0 -0.82632411843E+00 -0.12408495302E+02  0.14663168034E+04  0.14664036352E+04  0.10000000000E+02 0.  1.
</event>
<event>
 5    1  0.1245771E-008  0.3801279E+03  0.7957747E-01  0.3450602E+00
         13   -1    0    0    0    0  0.00000000000E+00  0.00000000000E+00  0.14999999963E+04  0.15000000000E+04  0.10566000000E+00 0. -1.
        994   -1    0    0    0    0 -0.00000000000E+00 -0.00000000000E+00  0.11368683772E-12  0.17120000000E+03  0.17120000000E+03 0.  0.
         13    1    1    2    0    0 -0.12302778115E+02  0.15792782312E+02  0.51372331654E+02  0.55135269530E+02  0.10566000000E+00 0. -1.
        994    1    1    2    0    0 -0.78331680097E+01  0.15589339628E+01  0.42817885978E+01  0.17143967601E+03  0.17120000000E+03 0.  0.
        998    1    1    2    0    0  0.20135946125E+02 -0.17351716275E+02  0.14443458760E+04  0.14446250545E+04  0.10000000000E+02 0. -1.
</event>
<event>
 5    1  0.1245771E-008  0.3834859E+03  0.7957747E-01  0.3436119E+00
         13   -1    0    0    0    0  0.00000000000E+00  0.00000000000E+00  0.14999999963E+04  0.15000000000E+04  0.10566000000E+00 0.  1.
        994   -1    0    0    0    0 -0.00000000000E+00 -0.00000000000E+00  0.11368683772E-12  0.17120000000E+03  0.17120000000E+03 0.  0.
         13    1    1    2    0    0 -0.14280248883E+02  0.25548351013E+02  0.16251794955E+03  0.16513248874E+03  0.10566000000E+00 0.  1.
        994    1    1    2    0    0  0.15952341790E+02 -0.24299192021E+02  0.51811054009E+01  0.17372740657E+03  0.17120000000E+03 0.  0.
        998    1    1    2    0    0 -0.16720929062E+01 -0.12491589918E+01  0.13323009413E+04  0.13323401047E+04  0.10000000000E+02 0.  1.
</event>
<event>
 5    1  0.1245771E-008  0.3692421E+03  0.7957747E-01  0.3499381E+00
         13   -1    0    0    0    0  0.00000000000E+00  0.00000000000E+00  0.14999999963E+04  0.15000000000E+04  0.10566000000E+00 0.  1.
        994   -1    0    0    0    0 -0.00000000000E+00 -0.00000000000E+00  0.11368683772E-12  0.17120000000E+03  0.17120000000E+03 0.  0.
         13    1    1    2    0    0 -0.14725604219E+02  0.75219460202E+01  0.79794485207E+01  0.18360442650E+02  0.10566000000E+00 0.  1.
        994    1    1    2    0    0  0.19615838919E+02 -0.16590687743E+02  0.12843371368E+02  0.17359269640E+03  0.17120000000E+03 0.  0.
        998    1    1    2    0    0 -0.48902347000E+01  0.90687417229E+01  0.14791771764E+04  0.14792468609E+04  0.10000000000E+02 0.  1.
</event>
<event>
 5    1  0.1557788E-008  0.3856127E+03  0.7957747E-01  0.3427078E+00
         13   -1    0    0    0    0  0.00000000000E+00  0.00000000000E+00  0.14999999963E+04  0.15000000000E+04  0.10566000000E+00 0. -1.
        994   -1    0    0    0    0 -0.00000000000E+00 -0.00000000000E+00  0.11368683772E-12  0.17120000000E+03  0.17120000000E+03 0.  0.
         13    1    1    2    0    0 -0.19286650002E+01  0.11359491089E+02  0.57769731249E+02  0.58907646355E+02  0.10566000000E+00 0. -1.
        994    1    1    2    0    0  0.17357211699E+02  0.15186059143E+02  0.30739060351E+01  0.17277377720E+03  0.17120000000E+03 0.  0.
        998    1    1    2    0    0 -0.15428546698E+02 -0.26545550232E+02  0.14391563590E+04  0.14395185764E+04  0.10000000000E+02 0. -1.
</event>
<event>
 5    1  0.1245771E-008  0.3751661E+03  0.7957747E-01  0.3472480E+00
         13   -1    0    0    0    0  0.00000000000E+00  0.00000000000E+00  0.14999999963E+04  0.15000000000E+04  0.10566000000E+00 0. -1.
        994   -1    0    0    0    0 -0.00000000000E+00 -0.00000000000E+00  0.11368683772E-12  0.17120000000E+03  0.17120000000E+03 0.  0.
         13    1    1    2    0    0  0.31155197313E+02 -0.12063686313E+02  0.34020238217E+02  0.47681931792E+02  0.10566000000E+00 0. -1.
        994    1    1    2    0    0 -0.36407829862E+02  0.14016301047E+02  0.19135506974E+02  0.17662840767E+03  0.17120000000E+03 0.  0.
        998    1    1    2    0    0  0.52526325494E+01 -0.19526147348E+01  0.14468442511E+04  0.14468896605E+04  0.10000000000E+02 0. -1.
</event>
<event>
 5    1  0.1245771E-008  0.3822304E+03  0.7957747E-01  0.3441504E+00
         13   -1    0    0    0    0  0.00000000000E+00  0.00000000000E+00  0.14999999963E+04  0.15000000000E+04  0.10566000000E+00 0. -1.
        994   -1    0    0    0    0 -0.00000000000E+00 -0.00000000000E+00  0.11368683772E-12  0.17120000000E+03  0.17120000000E+03 0.  0.
         13    1    1    2    0    0  0.16458860038E+01  0.10489712334E+02  0.17533616346E+02  0.20498338269E+02  0.10566000000E+00 0. -1.
        994    1    1    2    0    0  0.19548334260E+01 -0.75720655729E+01  0.32144424804E+01  0.17140866428E+03  0.17120000000E+03 0.  0.
        998    1    1    2    0    0 -0.36007194298E+01 -0.29176467610E+01  0.14792519375E+04  0.14792929974E+04  0.10000000000E+02 0. -1.
</event>
<event>
 5    1  0.1245771E-008  0.3843007E+03  0.7957747E-01  0.3432643E+00
         13   -1    0    0    0    0  0.00000000000E+00  0.00000000000E+00  0.14999999963E+04  0.15000000000E+04  0.10566000000E+00 0.  1.
        994   -1    0    0    0    0 -0.00000000000E+00 -0.00000000000E+00  0.11368683772E-12  0.17120000000E+03  0.17120000000E+03 0.  0.
         13    1    1    2    0    0 -0.86910568568E+01  0.97624266931E+01  0.41666154540E+02  0.43668284171E+02  0.10566000000E+00 0.  1.
        994    1    1    2    0    0  0.12188498785E+02 -0.85495976061E+01  0.27086656289E+01  0.17186748381E+03  0.17120000000E+03 0.  0.
        998    1    1    2    0    0 -0.34974419280E+01 -0.12128290870E+01  0.14556251761E+04  0.14556642320E+04  0.10000000000E+02 0.  1.
</event>
<event>
 5    1  0.1245771E-008  0.3856733E+03  0.7957747E-01  0.3426822E+00
         13   -1    0    0    0    0  0.00000000000E+00  0.00000000000E+00  0.14999999963E+04  0.15000000000E+04  0.10566000000E+00 0. -1.
        994   -1    0    0    0    0 -0.00000000000E+00 -0.00000000000E+00  0.11368683772E-12  0.17120000000E+03  0.17120000000E+03 0.  0.
         13    1    1    2    0    0 -0.10630369840E+02 -0.47626955323E+01  0.58290426419E+02  0.59443023205E+02  0.10566000000E+00 0. -1.
        994    1    1    2    0    0 -0.12828383955E+02  0.12506956318E+02  0.23502752934E+01  0.17215096626E+03  0.17120000000E+03 0.  0.
        998    1    1    2    0    0  0.23458753795E+02 -0.77442607861E+01  0.14393592946E+04  0.14396060105E+04  0.10000000000E+02 0. -1.
</event>
<event>
 5    1  0.1393556E-008  0.3861391E+03  0.7957747E-01  0.3424856E+00
         13   -1    0    0    0    0  0.00000000000E+00  0.00000000000E+00  0.14999999963E+04  0.15000000000E+04  0.10566000000E+00 0.  1.
        994   -1    0    0    0    0 -0.00000000000E+00 -0.00000000000E+00  0.11368683772E-12  0.17120000000E+03  0.17120000000E+03 0.  0.
         13    1    1    2    0    0 -0.98271056782E+01  0.45802689902E+01  0.54367022601E+02  0.55437669328E+02  0.10566000000E+00 0.  1.
        994    1    1    2    0    0  0.10327746874E+02 -0.46283942077E+01  0.14854533825E+01  0.17158010071E+03  0.17120000000E+03 0.  0.
        998    1    1    2    0    0 -0.50064119613E+00  0.48125217534E-01  0.14441475203E+04  0.14441822300E+04  0.10000000000E+02 0.  1.
</event>
<event>
 5    1  0.1245771E-008  0.3685413E+03  0.7957747E-01  0.3502622E+00
         13   -1    0    0    0    0  0.00000000000E+00  0.00000000000E+00  0.14999999963E+04  0.15000000000E+04  0.10566000000E+00 0.  1.
        994   -1    0    0    0    0 -0.00000000000E+00 -0.00000000000E+00  0.11368683772E-12  0.17120000000E+03  0.17120000000E+03 0.  0.
         13    1    1    2    0    0 -0.26578374854E+02  0.18808083163E+01  0.30450951172E+02  0.40462563452E+02  0.10566000000E+00 0.  1.
        994    1    1    2    0    0  0.30101085431E+02  0.10070423633E+02  0.13542704228E+02  0.17464344710E+03  0.17120000000E+03 0.  0.
        998    1    1    2    0    0 -0.35227105767E+01 -0.11951231949E+02  0.14560063409E+04  0.14560939895E+04  0.10000000000E+02 0.  1.
</event>
<event>
 5    1  0.1245771E-008  0.3812414E+03  0.7957747E-01  0.3445771E+00
         13   -1    0    0    0    0  0.00000000000E+00  0.00000000000E+00  0.14999999963E+04  0.15000000000E+04  0.10566000000E+00 0.  1.
        994   -1    0    0    0    0 -0.00000000000E+00 -0.00000000000E+00  0.11368683772E-12  0.17120000000E+03  0.17120000000E+03 0.  0.
         13    1    1    2    0    0  0.32566906637E+02 -0.43127609288E+01  0.15970177679E+03  0.16304561321E+03  0.10566000000E+00 0.  1.
        994    1    1    2    0    0 -0.14570609696E+02 -0.98171743588E+01  0.45361346967E+01  0.17215892686E+03  0.17120000000E+03 0.  0.
        998    1    1    2    0    0 -0.17996296941E+02  0.14129935288E+02  0.13357620848E+04  0.13359954599E+04  0.10000000000E+02 0.  1.
</event>
<event>
 5    1  0.1245771E-008  0.3811146E+03  0.7957747E-01  0.3446320E+00
         13   -1    0    0    0    0  0.00000000000E+00  0.00000000000E+00  0.14999999963E+04  0.15000000000E+04  0.10566000000E+00 0.  1.
        994   -1    0    0    0    0 -0.00000000000E+00 -0.00000000000E+00  0.11368683772E-12  0.17120000000E+03  0.17120000000E+03 0.  0.
         13    1    1    2    0    0 -0.12984674014E+02  0.89720448379E+01  0.38026446204E+02  0.41171848668E+02  0.10566000000E+00 0.  1.
        994    1    1    2    0    0 -0.12243208003E+02  0.25731913538E+02  0.62808601504E+01  0.17366898606E+03  0.17120000000E+03 0.  0.
        998    1    1    2    0    0  0.25227882017E+02 -0.34703958376E+02  0.14556926899E+04  0.14563591653E+04  0.10000000000E+02 0.  1.
</event>
<event>
 5    1  0.1245771E-008  0.3730138E+03  0.7957747E-01  0.3482154E+00
         13   -1    0    0    0    0  0.00000000000E+00  0.00000000000E+00  0.14999999963E+04  0.15000000000E+04  0.10566000000E+00 0. -1.
        994   -1    0    0    0    0 -0.00000000000E+00 -0.00000000000E+00  0.11368683772E-12  0.17120000000E+03  0.17120000000E+03 0.  0.
         13    1    1    2    0    0  0.20457115215E+02 -0.97131676880E+02  0.42277934341E+03  0.43427576561E+03  0.10566000000E+00 0. -1.
        994    1    1    2    0    0 -0.12634094264E+02  0.10570934975E+03  0.47542864651E+02  0.20713244783E+03  0.17120000000E+03 0.  0.
        998    1    1    2    0    0 -0.78230209516E+01 -0.85776728743E+01  0.10296777882E+04  0.10297917866E+04  0.10000000000E+02 0. -1.
</event>
<event>
 5    1  0.1245771E-008  0.3751105E+03  0.7957747E-01  0.3472729E+00
         13   -1    0    0    0    0  0.00000000000E+00  0.00000000000E+00  0.14999999963E+04  0.15000000000E+04  0.10566000000E+00 0.  1.
        994   -1    0    0    0    0 -0.00000000000E+00 -0.00000000000E+00  0.11368683772E-12  0.17120000000E+03  0.17120000000E+03 0.  0.
         13    1    1    2    0    0  0.41007630935E+02 -0.16039820035E+02  0.15321502997E+03  0.15941693195E+03  0.10566000000E+00 0.  1.
        994    1    1    2    0    0 -0.12001165877E+02  0.89472122082E+01  0.73837889241E+01  0.17201174648E+03  0.17120000000E+03 0.  0.
        998    1    1    2    0    0 -0.29006465058E+02  0.70926078264E+01  0.13394011774E+04  0.13397713216E+04  0.10000000000E+02 0.  1.
</event>
<event>
 5    1  0.1245771E-008  0.3771667E+03  0.7957747E-01  0.3463589E+00
         13   -1    0    0    0    0  0.00000000000E+00  0.00000000000E+00  0.14999999963E+04  0.15000000000E+04  0.10566000000E+00 0. -1.
        994   -1    0    0    0    0 -0.00000000000E+00 -0.00000000000E+00  0.11368683772E-12  0.17120000000E+03  0.17120000000E+03 0.  0.
         13    1    1    2    0    0  0.83736031468E+01 -0.84667302980E+01  0.96462124065E+01  0.15325251366E+02  0.10566000000E+00 0. -1.
        994    1    1    2    0    0 -0.36574272069E+02  0.10678445003E+02  0.10484815266E+02  0.17570167306E+03  0.17120000000E+03 0.  0.
        998    1    1    2    0    0  0.28200668922E+02 -0.22117147045E+01  0.14798689686E+04  0.14801730756E+04  0.10000000000E+02 0. -1.
</event>
<event>
 5    1  0.1245771E-008  0.3846072E+03  0.7957747E-01  0.3431340E+00
         13   -1    0    0    0    0  0.00000000000E+00  0.00000000000E+00  0.14999999963E+04  0.15000000000E+04  0.10566000000E+00 0. -1.
        994   -1    0    0    0    0 -0.00000000000E+00 -0.00000000000E+00  0.11368683772E-12  0.17120000000E+03  0.17120000000E+03 0.  0.
         13    1    1    2    0    0 -0.21763743366E+02 -0.11072613824E+02  0.14326582082E+03  0.14533193002E+03  0.10566000000E+00 0. -1.
        994    1    1    2    0    0  0.25099356074E+02  0.16168607933E+02  0.47660422984E+01  0.17384923560E+03  0.17120000000E+03 0.  0.
        998    1    1    2    0    0 -0.33356127087E+01 -0.50959941083E+01  0.13519681332E+04  0.13520188344E+04  0.10000000000E+02 0. -1.
</event>
<event>
 5    1  0.1245771E-008  0.3717114E+03  0.7957747E-01  0.3488062E+00
         13   -1    0    0    0    0  0.00000000000E+00  0.00000000000E+00  0.14999999963E+04  0.15000000000E+04  0.10566000000E+00 0. -1.
        994   -1    0    0    0    0 -0.00000000000E+00 -0.00000000000E+00  0.11368683772E-12  0.17120000000E+03  0.17120000000E+03 0.  0.
         13    1    1    2    0    0 -0.16955929206E+02  0.77301133721E+02  0.23379455381E+03  0.24682559301E+03  0.10566000000E+00 0. -1.
        994    1    1    2    0    0 -0.48451406841E+00 -0.69862290216E+02  0.29217368744E+02  0.18720061160E+03  0.17120000000E+03 0.  0.
        998    1    1    2    0    0  0.17440443274E+02 -0.74388435055E+01  0.12369880737E+04  0.12371737954E+04  0.10000000000E+02 0. -1.
</event>
<event>
 5    1  0.1245771E-008  0.3836095E+03  0.7957747E-01  0.3435591E+00
         13   -1    0    0    0    0  0.00000000000E+00  0.00000000000E+00  0.14999999963E+04  0.15000000000E+04  0.10566000000E+00 0. -1.
        994   -1    0    0    0    0 -0.00000000000E+00 -0.00000000000E+00  0.11368683772E-12  0.17120000000E+03  0.17120000000E+03 0.  0.
         13    1    1    2    0    0 -0.38534323747E+01 -0.14274430311E+02  0.54156469431E+02  0.56138602112E+02  0.10566000000E+00 0. -1.
        994    1    1    2    0    0  0.12208401772E+02 -0.24279344828E+02  0.47656588625E+01  0.17340900543E+03  0.17120000000E+03 0.  0.
        998    1    1    2    0    0 -0.83549693968E+01  0.38553775139E+02  0.14410778680E+04  0.14416523925E+04  0.10000000000E+02 0. -1.
</event>
<event>
 5    1  0.1245771E-008  0.3786911E+03  0.7957747E-01  0.3456878E+00
         13   -1    0    0    0    0  0.00000000000E+00  0.00000000000E+00  0.14999999963E+04  0.15000000000E+04  0.10566000000E+00 0.  1.
        994   -1    0    0    0    0 -0.00000000000E+00 -0.00000000000E+00  0.11368683772E-12  0.17120000000E+03  0.17120000000E+03 0.  0.
         13    1    1    2    0    0 -0.96870851631E+01 -0.29361874123E+01  0.85526701338E+01  0.13252175140E+02  0.10566000000E+00 0.  1.
        994    1    1    2    0    0  0.62979050037E+01 -0.97774944999E+00  0.49317129176E+01  0.17138956034E+03  0.17120000000E+03 0.  0.
        998    1    1    2    0    0  0.33891801594E+01  0.39139368623E+01  0.14865156132E+04  0.14865582645E+04  0.10000000000E+02 0.  1.
</event>
<event>
 5    1  0.1245771E-008  0.3918397E+03  0.7957747E-01  0.3401172E+00
         13   -1    0    0    0    0  0.00000000000E+00  0.00000000000E+00  0.14999999963E+04  0.15000000000E+04  0.10566000000E+00 0. -1.
        994   -1    0    0    0    0 -0.00000000000E+00 -0.00000000000E+00  0.11368683772E-12  0.17120000000E+03  0.17120000000E+03 0.  0.
         13    1    1    2    0    0 -0.32358139956E+02  0.17303260087E+02  0.19901916107E+02  0.41743855354E+02  0.10566000000E+00 0. -1.
        994    1    1    2    0    0  0.26724671996E+02 -0.20216065353E+02  0.27255137237E+02  0.17656494527E+03  0.17120000000E+03 0.  0.
        998    1    1    2    0    0  0.56334679602E+01  0.29128052662E+01  0.14528429429E+04  0.14528911994E+04  0.10000000000E+02 0. -1.
</event>
<event>
 5    1  0.1245771E-008  0.3801078E+03  0.7957747E-01  0.3450689E+00
         13   -1    0    0    0    0  0.00000000000E+00  0.00000000000E+00  0.14999999963E+04  0.15000000000E+04  0.10566000000E+00 0. -1.
        994   -1    0    0    0    0 -0.00000000000E+00 -0.00000000000E+00  0.11368683772E-12  0.17120000000E+03  0.17120000000E+03 0.  0.
         13    1    1    2    0    0  0.86367327169E+01 -0.80237662155E+01  0.14281009248E+02  0.18518433127E+02  0.10566000000E+00 0. -1.
        994    1    1    2    0    0 -0.26493527242E+02  0.23416416435E+02  0.82680122240E+01  0.17500867284E+03  0.17120000000E+03 0.  0.
        998    1    1    2    0    0  0.17856794525E+02 -0.15392650220E+02  0.14774509748E+04  0.14776728940E+04  0.10000000000E+02 0. -1.
</event>
<event>
 5    1  0.1245771E-008  0.3695323E+03  0.7957747E-01  0.3498043E+00
         13   -1    0    0    0    0  0.00000000000E+00  0.00000000000E+00  0.14999999963E+04  0.15000000000E+04  0.10566000000E+00 0.  1.
        994   -1    0    0    0    0 -0.00000000000E+00 -0.00000000000E+00  0.11368683772E-12  0.17120000000E+03  0.17120000000E+03 0.  0.
         13    1    1    2    0    0  0.38107209461E+02  0.98801390931E+02  0.44851336767E+03  0.46084501343E+03  0.10566000000E+00 0.  1.
        994    1    1    2    0    0  0.26056713043E+02 -0.11838529620E+03  0.62272228014E+02  0.21881796323E+03  0.17120000000E+03 0.  0.
        998    1    1    2    0    0 -0.64163922504E+02  0.19583905274E+02  0.98921440059E+03  0.99153702333E+03  0.10000000000E+02 0.  1.
</event>
<event>
 5    1  0.1245771E-008  0.3734246E+03  0.7957747E-01  0.3480299E+00
         13   -1    0    0    0    0  0.00000000000E+00  0.00000000000E+00  0.14999999963E+04  0.15000000000E+04  0.10566000000E+00 0. -1.
        994   -1    0    0    0    0 -0.00000000000E+00 -0.00000000000E+00  0.11368683772E-12  0.17120000000E+03  0.17120000000E+03 0.  0.
         13    1    1    2    0    0  0.21496416571E+02 -0.26205456188E+02  0.71093602230E+02  0.78759972711E+02  0.10566000000E+00 0. -1.
        994    1    1    2    0    0 -0.22080107022E+02  0.24220128494E+02  0.11169523115E+02  0.17466637913E+03  0.17120000000E+03 0.  0.
        998    1    1    2    0    0  0.58369045174E+00  0.19853276944E+01  0.14177368709E+04  0.14177736482E+04  0.10000000000E+02 0.  0.
</event>
<event>
 5    1  0.1245771E-008  0.3735455E+03  0.7957747E-01  0.3479753E+00
         13   -1    0    0    0    0  0.00000000000E+00  0.00000000000E+00  0.14999999963E+04  0.15000000000E+04  0.10566000000E+00 0.  1.
        994   -1    0    0    0    0 -0.00000000000E+00 -0.00000000000E+00  0.11368683772E-12  0.17120000000E+03  0.17120000000E+03 0.  0.
         13    1    1    2    0    0  0.11941593552E+02  0.12016399955E+02  0.15976985498E+02  0.23286707669E+02  0.10566000000E+00 0.  1.
        994    1    1    2    0    0 -0.15027581490E+02 -0.61095110111E+01  0.83269757679E+01  0.17216832710E+03  0.17120000000E+03 0.  0.
        998    1    1    2    0    0  0.30859879383E+01 -0.59068889435E+01  0.14756960350E+04  0.14757449652E+04  0.10000000000E+02 0.  1.
</event>
<event>
 5    1  0.1245771E-008  0.3824171E+03  0.7957747E-01  0.3440701E+00
         13   -1    0    0    0    0  0.00000000000E+00  0.00000000000E+00  0.14999999963E+04  0.15000000000E+04  0.10566000000E+00 0. -1.
        994   -1    0    0    0    0 -0.00000000000E+00 -0.00000000000E+00  0.11368683772E-12  0.17120000000E+03  0.17120000000E+03 0.  0.
         13    1    1    2    0    0  0.30621857145E+02  0.42481039418E+01  0.17479369976E+03  0.17750660033E+03  0.10566000000E+00 0. -1.
        994    1    1    2    0    0 -0.11200006596E+02  0.98700343051E+01  0.36573847739E+01  0.17188855165E+03  0.17120000000E+03 0.  0.
        998    1    1    2    0    0 -0.19421850549E+02 -0.14118138247E+02  0.13215489117E+04  0.13218048480E+04  0.10000000000E+02 0. -1.
</event>
<event>
 5    1  0.1245771E-008  0.2641452E+03  0.7957747E-01  0.4190706E+00
         13   -1    0    0    0    0  0.00000000000E+00  0.00000000000E+00  0.14999999963E+04  0.15000000000E+04  0.10566000000E+00 0.  1.
        994   -1    0    0    0    0 -0.00000000000E+00 -0.00000000000E+00  0.11368683772E-12  0.17120000000E+03  0.17120000000E+03 0.  0.
         13    1    1    2    0    0  0.16014625758E+03 -0.58816884831E+02  0.36662850685E+03  0.40437942944E+03  0.10566000000E+00 0.  1.
        994    1    1    2    0    0 -0.21037110830E+03 -0.11817842615E+02  0.22039321344E+03  0.34968310389E+03  0.17120000000E+03 0.  0.
        998    1    1    2    0    0  0.50224850720E+02  0.70634727447E+02  0.91297827598E+03  0.91713746667E+03  0.10000000000E+02 0.  1.
</event>
<event>
 5    1  0.1245771E-008  0.3743498E+03  0.7957747E-01  0.3476136E+00
         13   -1    0    0    0    0  0.00000000000E+00  0.00000000000E+00  0.14999999963E+04  0.15000000000E+04  0.10566000000E+00 0. -1.
        994   -1    0    0    0    0 -0.00000000000E+00 -0.00000000000E+00  0.11368683772E-12  0.17120000000E+03  0.17120000000E+03 0.  0.
         13    1    1    2    0    0  0.32691792701E+01  0.29312500673E+02  0.28082745469E+02  0.40725446418E+02  0.10566000000E+00 0. -1.
        994    1    1    2    0    0  0.21970592483E+02 -0.13223812616E+02  0.15595496717E+02  0.17381091931E+03  0.17120000000E+03 0.  0.
        998    1    1    2    0    0 -0.25239771753E+02 -0.16088688057E+02  0.14563217541E+04  0.14566636343E+04  0.10000000000E+02 0. -1.
</event>
<event>
 5    1  0.1245771E-008  0.3849996E+03  0.7957747E-01  0.3429674E+00
         13   -1    0    0    0    0  0.00000000000E+00  0.00000000000E+00  0.14999999963E+04  0.15000000000E+04  0.10566000000E+00 0.  1.
        994   -1    0    0    0    0 -0.00000000000E+00 -0.00000000000E+00  0.11368683772E-12  0.17120000000E+03  0.17120000000E+03 0.  0.
         13    1    1    2    0    0  0.83129120296E+01 -0.16879282164E+02  0.10568377750E+03  0.10734564110E+03  0.10566000000E+00 0.  1.
        994    1    1    2    0    0 -0.10428664170E+02  0.12015691472E+02  0.24632351445E+01  0.17195534713E+03  0.17120000000E+03 0.  0.
        998    1    1    2    0    0  0.21157521405E+01  0.48635906925E+01  0.13918529836E+04  0.13918990118E+04  0.10000000000E+02 0.  1.
</event>
<event>
 5    1  0.1245771E-008  0.3800913E+03  0.7957747E-01  0.3450761E+00
         13   -1    0    0    0    0  0.00000000000E+00  0.00000000000E+00  0.14999999963E+04  0.15000000000E+04  0.10566000000E+00 0.  1.
        994   -1    0    0    0    0 -0.00000000000E+00 -0.00000000000E+00  0.11368683772E-12  0.17120000000E+03  0.17120000000E+03 0.  0.
         13    1    1    2    0    0  0.82442052610E+02  0.64934044446E+02  0.23893760701E+03  0.26096803133E+03  0.10566000000E+00 0.  1.
        994    1    1    2    0    0 -0.11323465775E+03 -0.69695249727E+02  0.83625854457E+02  0.23234078222E+03  0.17120000000E+03 0.  0.
        998    1    1    2    0    0  0.30792605143E+02  0.47612052817E+01  0.11774365348E+04  0.11778911864E+04  0.10000000000E+02 0.  1.
</event>
<event>
 5    1  0.1245771E-008  0.3728346E+03  0.7957747E-01  0.3482964E+00
         13   -1    0    0    0    0  0.00000000000E+00  0.00000000000E+00  0.14999999963E+04  0.15000000000E+04  0.10566000000E+00 0.  1.
        994   -1    0    0    0    0 -0.00000000000E+00 -0.00000000000E+00  0.11368683772E-12  0.17120000000E+03  0.17120000000E+03 0.  0.
         13    1    1    2    0    0 -0.11315441630E+02 -0.25814365876E+01  0.50839068850E+01  0.12671239379E+02  0.10566000000E+00 0.  1.
        994    1    1    2    0    0  0.70493125535E+01 -0.33780566134E+01  0.80041981553E+01  0.17156518080E+03  0.17120000000E+03 0.  0.
        998    1    1    2    0    0  0.42661290767E+01  0.59594932010E+01  0.14869118912E+04  0.14869635798E+04  0.10000000000E+02 0.  1.
</event>
<event>
 5    1  0.1245771E-008  0.3842173E+03  0.7957747E-01  0.3432998E+00
         13   -1    0    0    0    0  0.00000000000E+00  0.00000000000E+00  0.14999999963E+04  0.15000000000E+04  0.10566000000E+00 0. -1.
        994   -1    0    0    0    0 -0.00000000000E+00 -0.00000000000E+00  0.11368683772E-12  0.17120000000E+03  0.17120000000E+03 0.  0.
         13    1    1    2    0    0 -0.60876772394E+01 -0.16497354018E+02  0.76034039151E+02  0.78041071094E+02  0.10566000000E+00 0. -1.
        994    1    1    2    0    0  0.16985638061E+02  0.65055785892E+01  0.31107517309E+01  0.17219161196E+03  0.17120000000E+03 0.  0.
        998    1    1    2    0    0 -0.10897960822E+02  0.99917754290E+01  0.14208552054E+04  0.14209673169E+04  0.10000000000E+02 0. -1.
</event>
<event>
 5    1  0.1245771E-008  0.3766777E+03  0.7957747E-01  0.3465753E+00
         13   -1    0    0    0    0  0.00000000000E+00  0.00000000000E+00  0.14999999963E+04  0.15000000000E+04  0.10566000000E+00 0. -1.
        994   -1    0    0    0    0 -0.00000000000E+00 -0.00000000000E+00  0.11368683772E-12  0.17120000000E+03  0.17120000000E+03 0.  0.
         13    1    1    2    0    0  0.80160963953E+02  0.37829147135E+02  0.47167863306E+03  0.47993496285E+03  0.10566000000E+00 0. -1.
        994    1    1    2    0    0 -0.81473029307E+02 -0.28716192627E+02  0.31474983724E+02  0.19432598597E+03  0.17120000000E+03 0.  0.
        998    1    1    2    0    0  0.13120653542E+01 -0.91129545083E+01  0.99684637949E+03  0.99693905118E+03  0.10000000000E+02 0. -1.
</event>
<event>
 5    1  0.1781633E-008  0.3858592E+03  0.7957747E-01  0.3426036E+00
         13   -1    0    0    0    0  0.00000000000E+00  0.00000000000E+00  0.14999999963E+04  0.15000000000E+04  0.10566000000E+00 0.  1.
        994   -1    0    0    0    0 -0.00000000000E+00 -0.00000000000E+00  0.11368683772E-12  0.17120000000E+03  0.17120000000E+03 0.  0.
         13    1    1    2    0    0  0.11076125758E+01  0.11424735366E+02  0.55245016662E+02  0.56424944961E+02  0.10566000000E+00 0.  1.
        994    1    1    2    0    0 -0.21991295090E-01 -0.76909427581E+01  0.13981739998E+01  0.17137837079E+03  0.17120000000E+03 0.  0.
        998    1    1    2    0    0 -0.10856212808E+01 -0.37337926082E+01  0.14433568056E+04  0.14433966842E+04  0.10000000000E+02 0.  1.
</event>
<event>
 5    1  0.1245771E-008  0.3746512E+03  0.7957747E-01  0.3474784E+00
         13   -1    0    0    0    0  0.00000000000E+00  0.00000000000E+00  0.14999999963E+04  0.15000000000E+04  0.10566000000E+00 0. -1.
        994   -1    0    0    0    0 -0.00000000000E+00 -0.00000000000E+00  0.11368683772E-12  0.17120000000E+03  0.17120000000E+03 0.  0.
         13    1    1    2    0    0  0.85862740574E+01  0.27966005305E+02  0.58925353377E+02  0.65787764741E+02  0.10566000000E+00 0. -1.
        994    1    1    2    0    0 -0.11460400802E+02 -0.20830997432E+02  0.87840593963E+01  0.17306608836E+03  0.17120000000E+03 0.  0.
        998    1    1    2    0    0  0.28741267444E+01 -0.71350078726E+01  0.14322905835E+04  0.14323461469E+04  0.10000000000E+02 0. -1.
</event>
<event>
 5    1  0.1245771E-008  0.3772642E+03  0.7957747E-01  0.3463158E+00
         13   -1    0    0    0    0  0.00000000000E+00  0.00000000000E+00  0.14999999963E+04  0.15000000000E+04  0.10566000000E+00 0. -1.
        994   -1    0    0    0    0 -0.00000000000E+00 -0.00000000000E+00  0.11368683772E-12  0.17120000000E+03  0.17120000000E+03 0.  0.
         13    1    1    2    0    0  0.15494408370E+02  0.12263430617E+02  0.33281702485E+02  0.38705959561E+02  0.10566000000E+00 0. -1.
        994    1    1    2    0    0 -0.11296455841E+02 -0.47880603158E+01  0.60285676784E+01  0.17174492442E+03  0.17120000000E+03 0.  0.
        998    1    1    2    0    0 -0.41979525291E+01 -0.74753703014E+01  0.14606897261E+04  0.14607491160E+04  0.10000000000E+02 0. -1.
</event>
<event>
 5    1  0.1245771E-008  0.3830907E+03  0.7957747E-01  0.3437810E+00
         13   -1    0    0    0    0  0.00000000000E+00  0.00000000000E+00  0.14999999963E+04  0.15000000000E+04  0.10566000000E+00 0.  1.
        994   -1    0    0    0    0 -0.00000000000E+00 -0.00000000000E+00  0.11368683772E-12  0.17120000000E+03  0.17120000000E+03 0.  0.
         13    1    1    2    0    0  0.46385770583E+01 -0.18687506650E+02  0.77433115136E+02  0.79791213711E+02  0.10566000000E+00 0.  1.
        994    1    1    2    0    0  0.10454875085E+02 -0.15998038529E+00  0.29428980040E+01  0.17154425276E+03  0.17120000000E+03 0.  0.
        998    1    1    2    0    0 -0.15093452143E+02  0.18847487035E+02  0.14196239831E+04  0.14198645335E+04  0.10000000000E+02 0.  1.
</event>
<event>
 5    1  0.1245771E-008  0.3836583E+03  0.7957747E-01  0.3435382E+00
         13   -1    0    0    0    0  0.00000000000E+00  0.00000000000E+00  0.14999999963E+04  0.15000000000E+04  0.10566000000E+00 0. -1.
        994   -1    0    0    0    0 -0.00000000000E+00 -0.00000000000E+00  0.11368683772E-12  0.17120000000E+03  0.17120000000E+03 0.  0.
         13    1    1    2    0    0 -0.15104138164E+02 -0.44986167983E+01  0.52691698727E+02  0.54998171075E+02  0.10566000000E+00 0. -1.
        994    1    1    2    0    0  0.12311169293E+02  0.55912827339E+01  0.29018412734E+01  0.17175764325E+03  0.17120000000E+03 0.  0.
        998    1    1    2    0    0  0.27929688710E+01 -0.10926659355E+01  0.14444064563E+04  0.14444441857E+04  0.10000000000E+02 0. -1.
</event>
<event>
 5    1  0.1245771E-008  0.3839850E+03  0.7957747E-01  0.3433988E+00
         13   -1    0    0    0    0  0.00000000000E+00  0.00000000000E+00  0.14999999963E+04  0.15000000000E+04  0.10566000000E+00 0.  1.
        994   -1    0    0    0    0 -0.00000000000E+00 -0.00000000000E+00  0.11368683772E-12  0.17120000000E+03  0.17120000000E+03 0.  0.
         13    1    1    2    0    0  0.14219548633E+02  0.15236801126E+02  0.89484379565E+02  0.91879383009E+02  0.10566000000E+00 0.  1.
        994    1    1    2    0    0 -0.22344236602E+02 -0.23559021908E+02  0.56212986321E+01  0.17434256916E+03  0.17120000000E+03 0.  0.
        998    1    1    2    0    0  0.81246879695E+01  0.83222207817E+01  0.14048943181E+04  0.14049780478E+04  0.10000000000E+02 0.  1.
</event>
<event>
 5    1  0.1245771E-008  0.3839099E+03  0.7957747E-01  0.3434309E+00
         13   -1    0    0    0    0  0.00000000000E+00  0.00000000000E+00  0.14999999963E+04  0.15000000000E+04  0.10566000000E+00 0.  1.
        994   -1    0    0    0    0 -0.00000000000E+00 -0.00000000000E+00  0.11368683772E-12  0.17120000000E+03  0.17120000000E+03 0.  0.
         13    1    1    2    0    0  0.33060083048E+01  0.15606441452E+02  0.52586818653E+02  0.54953392668E+02  0.10566000000E+00 0.  1.
        994    1    1    2    0    0 -0.20753403859E+02 -0.27027255045E+02  0.60140036376E+01  0.17466191493E+03  0.17120000000E+03 0.  0.
        998    1    1    2    0    0  0.17447395555E+02  0.11420813594E+02  0.14413991740E+04  0.14415846924E+04  0.10000000000E+02 0.  1.
</event>
<event>
 5    1  0.1245771E-008  0.3802597E+03  0.7957747E-01  0.3450028E+00
         13   -1    0    0    0    0  0.00000000000E+00  0.00000000000E+00  0.14999999963E+04  0.15000000000E+04  0.10566000000E+00 0. -1.
        994   -1    0    0    0    0 -0.00000000000E+00 -0.00000000000E+00  0.11368683772E-12  0.17120000000E+03  0.17120000000E+03 0.  0.
         13    1    1    2    0    0  0.26457968794E+02 -0.22164438480E+02  0.10952912581E+03  0.11483869997E+03  0.10566000000E+00 0. -1.
        994    1    1    2    0    0 -0.98131515485E+02  0.62702260801E+01  0.37003765324E+02  0.20086768957E+03  0.17120000000E+03 0.  0.
        998    1    1    2    0    0  0.71673546691E+02  0.15894212400E+02  0.13534671051E+04  0.13554936105E+04  0.10000000000E+02 0. -1.
</event>
<event>
 5    1  0.1245771E-008  0.3742614E+03  0.7957747E-01  0.3476533E+00
         13   -1    0    0    0    0  0.00000000000E+00  0.00000000000E+00  0.14999999963E+04  0.15000000000E+04  0.10566000000E+00 0. -1.
        994   -1    0    0    0    0 -0.00000000000E+00 -0.00000000000E+00  0.11368683772E-12  0.17120000000E+03  0.17120000000E+03 0.  0.
         13    1    1    2    0    0  0.75083601148E+01  0.14290234371E+02  0.40206026474E+01  0.16636185851E+02  0.10566000000E+00 0. -1.
        994    1    1    2    0    0  0.30572441770E+02 -0.16510735431E+02  0.17506782518E+02  0.17556538957E+03  0.17120000000E+03 0.  0.
        998    1    1    2    0    0 -0.38080801885E+02  0.22205010604E+01  0.14784726111E+04  0.14789984246E+04  0.10000000000E+02 0. -1.
</event>
<event>
 5    1  0.1245771E-008  0.3762648E+03  0.7957747E-01  0.3467586E+00
         13   -1    0    0    0    0  0.00000000000E+00  0.00000000000E+00  0.14999999963E+04  0.15000000000E+04  0.10566000000E+00 0.  1.
        994   -1    0    0    0    0 -0.00000000000E+00 -0.00000000000E+00  0.11368683772E-12  0.17120000000E+03  0.17120000000E+03 0.  0.
         13    1    1    2    0    0  0.12430538556E+02  0.71277762191E+01  0.14410310908E+02  0.20322197399E+02  0.10566000000E+00 0.  1.
        994    1    1    2    0    0 -0.66110895807E+01 -0.70970795009E+01  0.63491670378E+01  0.17159203643E+03  0.17120000000E+03 0.  0.
        998    1    1    2    0    0 -0.58194489754E+01 -0.30696718205E-01  0.14792405183E+04  0.14792857662E+04  0.10000000000E+02 0.  1.
</event>
<event>
 5    1  0.1245771E-008  0.3712382E+03  0.7957747E-01  0.3490219E+00
         13   -1    0    0    0    0  0.00000000000E+00  0.00000000000E+00  0.14999999963E+04  0.15000000000E+04  0.10566000000E+00 0.  1.
        994   -1    0    0    0    0 -0.00000000000E+00 -0.00000000000E+00  0.11368683772E-12  0.17120000000E+03  0.17120000000E+03 0.  0.
         13    1    1    2    0    0  0.76141419770E+01 -0.33994551177E+02  0.66276818913E+02  0.74874779179E+02  0.10566000000E+00 0.  1.
        994    1    1    2    0    0 -0.13737763216E+02  0.24206606539E+02  0.11295110112E+02  0.17381514736E+03  0.17120000000E+03 0.  0.
        998    1    1    2    0    0  0.61236212388E+01  0.97879446380E+01  0.14224280673E+04  0.14225100735E+04  0.10000000000E+02 0.  1.
</event>
<event>
 5    1  0.1245771E-008  0.3827215E+03  0.7957747E-01  0.3439393E+00
         13   -1    0    0    0    0  0.00000000000E+00  0.00000000000E+00  0.14999999963E+04  0.15000000000E+04  0.10566000000E+00 0. -1.
        994   -1    0    0    0    0 -0.00000000000E+00 -0.00000000000E+00  0.11368683772E-12  0.17120000000E+03  0.17120000000E+03 0.  0.
         13    1    1    2    0    0  0.15239212004E+02 -0.14487624723E+02  0.83990439081E+02  0.86582503277E+02  0.10566000000E+00 0. -1.
        994    1    1    2    0    0 -0.59424883479E+01 -0.22327197967E+01  0.28991162580E+01  0.17134218126E+03  0.17120000000E+03 0.  0.
        998    1    1    2    0    0 -0.92967236563E+01  0.16720344520E+02  0.14131104409E+04  0.14132753155E+04  0.10000000000E+02 0. -1.
</event>
<event>
 5    1  0.1245771E-008  0.3745868E+03  0.7957747E-01  0.3475073E+00
         13   -1    0    0    0    0  0.00000000000E+00  0.00000000000E+00  0.14999999963E+04  0.15000000000E+04  0.10566000000E+00 0. -1.
        994   -1    0    0    0    0 -0.00000000000E+00 -0.00000000000E+00  0.11368683772E-12  0.17120000000E+03  0.17120000000E+03 0.  0.
         13    1    1    2    0    0 -0.36185187957E+02 -0.22468092483E+02  0.13159635114E+03  0.13831772773E+03  0.10566000000E+00 0. -1.
        994    1    1    2    0    0  0.16130195059E+02  0.15295478617E+02  0.85748753319E+01  0.17284994459E+03  0.17120000000E+03 0.  0.
        998    1    1    2    0    0  0.20054992898E+02  0.71726138655E+01  0.13598287698E+04  0.13600323277E+04  0.10000000000E+02 0. -1.
</event>
<event>
 5    1  0.1245771E-008  0.3826934E+03  0.7957747E-01  0.3439514E+00
         13   -1    0    0    0    0  0.00000000000E+00  0.00000000000E+00  0.14999999963E+04  0.15000000000E+04  0.10566000000E+00 0. -1.
        994   -1    0    0    0    0 -0.00000000000E+00 -0.00000000000E+00  0.11368683772E-12  0.17120000000E+03  0.17120000000E+03 0.  0.
         13    1    1    2    0    0  0.11128393902E+02 -0.97965854132E+01  0.38198901624E+02  0.40975376580E+02  0.10566000000E+00 0. -1.
        994    1    1    2    0    0 -0.10079848938E+02  0.78372280011E+01  0.33200113455E+01  0.17170756528E+03  0.17120000000E+03 0.  0.
        998    1    1    2    0    0 -0.10485449633E+01  0.19593574121E+01  0.14584810833E+04  0.14585170581E+04  0.10000000000E+02 0. -1.
</event>
<event>
 5    1  0.1245771E-008  0.3832951E+03  0.7957747E-01  0.3436935E+00
         13   -1    0    0    0    0  0.00000000000E+00  0.00000000000E+00  0.14999999963E+04  0.15000000000E+04  0.10566000000E+00 0.  1.
        994   -1    0    0    0    0 -0.00000000000E+00 -0.00000000000E+00  0.11368683772E-12  0.17120000000E+03  0.17120000000E+03 0.  0.
         13    1    1    2    0    0 -0.11182121572E+02  0.99865479186E+01  0.45606929227E+02  0.48008063278E+02  0.10566000000E+00 0.  1.
        994    1    1    2    0    0 -0.47203049520E+01 -0.12998758786E+02  0.31116588821E+01  0.17178583012E+03  0.17120000000E+03 0.  0.
        998    1    1    2    0    0  0.15902426524E+02  0.30122108670E+01  0.14512814082E+04  0.14514061066E+04  0.10000000000E+02 0.  1.
</event>
<event>
 5    1  0.1245771E-008  0.3684643E+03  0.7957747E-01  0.3502979E+00
         13   -1    0    0    0    0  0.00000000000E+00  0.00000000000E+00  0.14999999963E+04  0.15000000000E+04  0.10566000000E+00 0. -1.
        994   -1    0    0    0    0 -0.00000000000E+00 -0.00000000000E+00  0.11368683772E-12  0.17120000000E+03  0.17120000000E+03 0.  0.
         13    1    1    2    0    0  0.39168184480E+01  0.16586707639E+02  0.97196410521E+01  0.19619962367E+02  0.10566000000E+00 0. -1.
        994    1    1    2    0    0 -0.18656906311E+01 -0.17140199552E+02  0.11163395933E+02  0.17242774907E+03  0.17120000000E+03 0.  0.
        998    1    1    2    0    0 -0.20511278170E+01  0.55349191274E+00  0.14791169593E+04  0.14791522886E+04  0.10000000000E+02 0. -1.
</event>
<event>
 5    1  0.1245771E-008  0.3834718E+03  0.7957747E-01  0.3436180E+00
         13   -1    0    0    0    0  0.00000000000E+00  0.00000000000E+00  0.14999999963E+04  0.15000000000E+04  0.10566000000E+00 0.  1.
        994   -1    0    0    0    0 -0.00000000000E+00 -0.00000000000E+00  0.11368683772E-12  0.17120000000E+03  0.17120000000E+03 0.  0.
         13    1    1    2    0    0 -0.26023443561E+02 -0.10706218291E+02  0.13623985896E+03  0.13911561040E+03  0.10566000000E+00 0.  1.
        994    1    1    2    0    0  0.47169034469E+02 -0.13677748042E+01  0.97854318661E+01  0.17785382565E+03  0.17120000000E+03 0.  0.
        998    1    1    2    0    0 -0.21145590908E+02  0.12073993095E+02  0.13539747055E+04  0.13542305639E+04  0.10000000000E+02 0.  1.
</event>
<event>
 5    1  0.1245771E-008  0.3746539E+03  0.7957747E-01  0.3474772E+00
         13   -1    0    0    0    0  0.00000000000E+00  0.00000000000E+00  0.14999999963E+04  0.15000000000E+04  0.10566000000E+00 0. -1.
        994   -1    0    0    0    0 -0.00000000000E+00 -0.00000000000E+00  0.11368683772E-12  0.17120000000E+03  0.17120000000E+03 0.  0.
         13    1    1    2    0    0 -0.13423588041E+02 -0.20813948949E+02  0.42148290658E+02  0.48886631671E+02  0.10566000000E+00 0. -1.
        994    1    1    2    0    0  0.77001573083E+01  0.13428566766E+02  0.76724509304E+01  0.17206953633E+03  0.17120000000E+03 0.  0.
        998    1    1    2    0    0  0.57234307332E+01  0.73853821823E+01  0.14501792547E+04  0.14502438320E+04  0.10000000000E+02 0. -1.
</event>
<event>
 5    1  0.1245771E-008  0.3832127E+03  0.7957747E-01  0.3437288E+00
         13   -1    0    0    0    0  0.00000000000E+00  0.00000000000E+00  0.14999999963E+04  0.15000000000E+04  0.10566000000E+00 0.  1.
        994   -1    0    0    0    0 -0.00000000000E+00 -0.00000000000E+00  0.11368683772E-12  0.17120000000E+03  0.17120000000E+03 0.  0.
         13    1    1    2    0    0  0.11759402222E+02  0.14346139025E+02  0.67775554850E+02  0.70268287618E+02  0.10566000000E+00 0.  1.
        994    1    1    2    0    0 -0.10605845517E+02 -0.60666881062E+01  0.30140749589E+01  0.17166191573E+03  0.17120000000E+03 0.  0.
        998    1    1    2    0    0 -0.11535567053E+01 -0.82794509188E+01  0.14292103665E+04  0.14292697967E+04  0.10000000000E+02 0.  1.
</event>
<event>
 5    1  0.1245771E-008  0.3843458E+03  0.7957747E-01  0.3432452E+00
         13   -1    0    0    0    0  0.00000000000E+00  0.00000000000E+00  0.14999999963E+04  0.15000000000E+04  0.10566000000E+00 0.  1.
        994   -1    0    0    0    0 -0.00000000000E+00 -0.00000000000E+00  0.11368683772E-12  0.17120000000E+03  0.17120000000E+03 0.  0.
         13    1    1    2    0    0 -0.11243668761E+02 -0.59243451755E+01  0.45174291902E+02  0.46928091436E+02  0.10566000000E+00 0.  1.
        994    1    1    2    0    0 -0.90521201179E+01 -0.72016415211E+01  0.23963888884E+01  0.17160707211E+03  0.17120000000E+03 0.  0.
        998    1    1    2    0    0  0.20295788879E+02  0.13125986697E+02  0.14524293155E+04  0.14526648365E+04  0.10000000000E+02 0.  1.
</event>
<event>
 5    1  0.1245771E-008  0.3782017E+03  0.7957747E-01  0.3459026E+00
         13   -1    0    0    0    0  0.00000000000E+00  0.00000000000E+00  0.14999999963E+04  0.15000000000E+04  0.10566000000E+00 0. -1.
        994   -1    0    0    0    0 -0.00000000000E+00 -0.00000000000E+00  0.11368683772E-12  0.17120000000E+03  0.17120000000E+03 0.  0.
         13    1    1    2    0    0  0.95018786685E+02 -0.28950793635E+02  0.53571763677E+03  0.54484870908E+03  0.10566000000E+00 0. -1.
        994    1    1    2    0    0 -0.10389556220E+03  0.36227460364E+02  0.46901612277E+02  0.20884424331E+03  0.17120000000E+03 0.  0.
        998    1    1    2    0    0  0.88767755168E+01 -0.72766667286E+01  0.91738074724E+03  0.91750704761E+03  0.10000000000E+02 0. -1.
</event>
<event>
 5    1  0.1245771E-008  0.3776106E+03  0.7957747E-01  0.3461629E+00
         13   -1    0    0    0    0  0.00000000000E+00  0.00000000000E+00  0.14999999963E+04  0.15000000000E+04  0.10566000000E+00 0.  1.
        994   -1    0    0    0    0 -0.00000000000E+00 -0.00000000000E+00  0.11368683772E-12  0.17120000000E+03  0.17120000000E+03 0.  0.
         13    1    1    2    0    0 -0.10918025424E+02 -0.17952908448E+02  0.39574046872E+02  0.44806545847E+02  0.10566000000E+00 0.  1.
        994    1    1    2    0    0  0.91333395982E+01  0.72181125023E+01  0.58009313422E+01  0.17169335993E+03  0.17120000000E+03 0.  0.
        998    1    1    2    0    0  0.17846858254E+01  0.10734795945E+02  0.14546250181E+04  0.14547000942E+04  0.10000000000E+02 0.  1.
</event>
<event>
 5    1  0.1245771E-008  0.3740624E+03  0.7957747E-01  0.3477427E+00
         13   -1    0    0    0    0  0.00000000000E+00  0.00000000000E+00  0.14999999963E+04  0.15000000000E+04  0.10566000000E+00 0. -1.
        994   -1    0    0    0    0 -0.00000000000E+00 -0.00000000000E+00  0.11368683772E-12  0.17120000000E+03  0.17120000000E+03 0.  0.
         13    1    1    2    0    0  0.39341363072E+02  0.78488784103E+02  0.22490706896E+03  0.24143618807E+03  0.10566000000E+00 0. -1.
        994    1    1    2    0    0 -0.83220164932E+02 -0.75922710518E+02  0.59589642238E+02  0.21342497344E+03  0.17120000000E+03 0.  0.
        998    1    1    2    0    0  0.43878801860E+02 -0.25660735856E+01  0.12155032851E+04  0.12163388385E+04  0.10000000000E+02 0. -1.
</event>
<event>
 5    1  0.1245771E-008  0.3807525E+03  0.7957747E-01  0.3447889E+00
         13   -1    0    0    0    0  0.00000000000E+00  0.00000000000E+00  0.14999999963E+04  0.15000000000E+04  0.10566000000E+00 0.  1.
        994   -1    0    0    0    0 -0.00000000000E+00 -0.00000000000E+00  0.11368683772E-12  0.17120000000E+03  0.17120000000E+03 0.  0.
         13    1    1    2    0    0 -0.29484482479E+01 -0.25998062066E+02  0.96208436023E+02  0.99702893159E+02  0.10566000000E+00 0.  1.
        994    1    1    2    0    0 -0.65358877918E+01  0.41313122895E+01  0.39531776959E+01  0.17142010729E+03  0.17120000000E+03 0.  0.
        998    1    1    2    0    0  0.94843360397E+01  0.21866749776E+02  0.13998383826E+04  0.14000769995E+04  0.10000000000E+02 0.  1.
</event>
<event>
 5    1  0.1245771E-008  0.3832879E+03  0.7957747E-01  0.3436966E+00
         13   -1    0    0    0    0  0.00000000000E+00  0.00000000000E+00  0.14999999963E+04  0.15000000000E+04  0.10566000000E+00 0.  1.
        994   -1    0    0    0    0 -0.00000000000E+00 -0.00000000000E+00  0.11368683772E-12  0.17120000000E+03  0.17120000000E+03 0.  0.
         13    1    1    2    0    0  0.22140469180E+02  0.94857219135E+01  0.11189807205E+03  0.11446121172E+03  0.10566000000E+00 0.  1.
        994    1    1    2    0    0 -0.16193944054E+02 -0.13912163976E+02  0.39913065284E+01  0.17257219550E+03  0.17120000000E+03 0.  0.
        998    1    1    2    0    0 -0.59465251256E+01  0.44264420629E+01  0.13841106177E+04  0.13841665928E+04  0.10000000000E+02 0.  1.
</event>
<event>
 5    1  0.1245771E-008  0.3818640E+03  0.7957747E-01  0.3443082E+00
         13   -1    0    0    0    0  0.00000000000E+00  0.00000000000E+00  0.14999999963E+04  0.15000000000E+04  0.10566000000E+00 0. -1.
        994   -1    0    0    0    0 -0.00000000000E+00 -0.00000000000E+00  0.11368683772E-12  0.17120000000E+03  0.17120000000E+03 0.  0.
         13    1    1    2    0    0 -0.20652752775E+02 -0.24661867369E+02  0.15491864069E+03  0.15822307132E+03  0.10566000000E+00 0. -1.
        994    1    1    2    0    0  0.44216308234E+02 -0.30266120723E+01  0.97489102951E+01  0.17711217786E+03  0.17120000000E+03 0.  0.
        998    1    1    2    0    0 -0.23563555459E+02  0.27688479442E+02  0.13353324453E+04  0.13358647508E+04  0.10000000000E+02 0. -1.
</event>
<event>
 5    1  0.1245771E-008  0.3800162E+03  0.7957747E-01  0.3451088E+00
         13   -1    0    0    0    0  0.00000000000E+00  0.00000000000E+00  0.14999999963E+04  0.15000000000E+04  0.10566000000E+00 0.  1.
        994   -1    0    0    0    0 -0.00000000000E+00 -0.00000000000E+00  0.11368683772E-12  0.17120000000E+03  0.17120000000E+03 0.  0.
         13    1    1    2    0    0  0.11485619642E+02 -0.99054631232E+01  0.25117182454E+02  0.29341466847E+02  0.10566000000E+00 0.  1.
        994    1    1    2    0    0 -0.23622854652E+02  0.11112405714E+02  0.64064344140E+01  0.17329745302E+03  0.17120000000E+03 0.  0.
        998    1    1    2    0    0  0.12137235010E+02 -0.12069425903E+01  0.14684763794E+04  0.14685610801E+04  0.10000000000E+02 0.  1.
</event>
<event>
 5    1  0.1245771E-008  0.3853504E+03  0.7957747E-01  0.3428188E+00
         13   -1    0    0    0    0  0.00000000000E+00  0.00000000000E+00  0.14999999963E+04  0.15000000000E+04  0.10566000000E+00 0.  1.
        994   -1    0    0    0    0 -0.00000000000E+00 -0.00000000000E+00  0.11368683772E-12  0.17120000000E+03  0.17120000000E+03 0.  0.
         13    1    1    2    0    0 -0.13377898433E+02 -0.31396465565E+01  0.66424817760E+02  0.67831357981E+02  0.10566000000E+00 0.  1.
        994    1    1    2    0    0  0.79683598121E+01 -0.71614027334E+01  0.18334264683E+01  0.17154469359E+03  0.17120000000E+03 0.  0.
        998    1    1    2    0    0  0.54095386208E+01  0.10301049290E+02  0.14317417520E+04  0.14318239484E+04  0.10000000000E+02 0.  1.
</event>
<event>
 5    1  0.1245771E-008  0.3842592E+03  0.7957747E-01  0.3432820E+00
         13   -1    0    0    0    0  0.00000000000E+00  0.00000000000E+00  0.14999999963E+04  0.15000000000E+04  0.10566000000E+00 0. -1.
        994   -1    0    0    0    0 -0.00000000000E+00 -0.00000000000E+00  0.11368683772E-12  0.17120000000E+03  0.17120000000E+03 0.  0.
         13    1    1    2    0    0  0.21136858250E+02  0.55150992826E-01  0.10670049021E+03  0.10877396560E+03  0.10566000000E+00 0. -1.
        994    1    1    2    0    0 -0.19330576980E+02  0.96445817955E+01  0.35383553097E+01  0.17259388495E+03  0.17120000000E+03 0.  0.
        998    1    1    2    0    0 -0.18062812700E+01 -0.96997327883E+01  0.13897611508E+04  0.13898321494E+04  0.10000000000E+02 0. -1.
</event>
<event>
 5    1  0.1245771E-008  0.3857941E+03  0.7957747E-01  0.3426311E+00
         13   -1    0    0    0    0  0.00000000000E+00  0.00000000000E+00  0.14999999963E+04  0.15000000000E+04  0.10566000000E+00 0.  1.
        994   -1    0    0    0    0 -0.00000000000E+00 -0.00000000000E+00  0.11368683772E-12  0.17120000000E+03  0.17120000000E+03 0.  0.
         13    1    1    2    0    0  0.10912576765E+02 -0.82354292999E+01  0.69537837131E+02  0.70869094705E+02  0.10566000000E+00 0.  1.
        994    1    1    2    0    0 -0.24822601498E+01  0.34140102794E+02  0.50893001081E+01  0.17466267263E+03  0.17120000000E+03 0.  0.
        998    1    1    2    0    0 -0.84303166150E+01 -0.25904673494E+02  0.14253728590E+04  0.14256682327E+04  0.10000000000E+02 0.  1.
</event>
<event>
 5    1  0.1245771E-008  0.3822423E+03  0.7957747E-01  0.3441453E+00
         13   -1    0    0    0    0  0.00000000000E+00  0.00000000000E+00  0.14999999963E+04  0.15000000000E+04  0.10566000000E+00 0. -1.
        994   -1    0    0    0    0 -0.00000000000E+00 -0.00000000000E+00  0.11368683772E-12  0.17120000000E+03  0.17120000000E+03 0.  0.
         13    1    1    2    0    0 -0.11348214182E+02  0.53227096790E+02  0.30060169744E+03  0.30548862084E+03  0.10566000000E+00 0. -1.
        994    1    1    2    0    0  0.36210187622E+00 -0.83065685839E+02  0.26250328170E+02  0.19208997634E+03  0.17120000000E+03 0.  0.
        998    1    1    2    0    0  0.10986112306E+02  0.29838589048E+02  0.11731479707E+04  0.11736214028E+04  0.10000000000E+02 0. -1.
</event>
<event>
 5    1  0.1245771E-008  0.3855567E+03  0.7957747E-01  0.3427315E+00
         13   -1    0    0    0    0  0.00000000000E+00  0.00000000000E+00  0.14999999963E+04  0.15000000000E+04  0.10566000000E+00 0. -1.
        994   -1    0    0    0    0 -0.00000000000E+00 -0.00000000000E+00  0.11368683772E-12  0.17120000000E+03  0.17120000000E+03 0.  0.
         13    1    1    2    0    0  0.14882052500E+02 -0.38597684222E+00  0.76422219620E+02  0.77858790643E+02  0.10566000000E+00 0. -1.
        994    1    1    2    0    0 -0.19738641422E+02  0.13418843715E+01  0.26399533451E+01  0.17235957755E+03  0.17120000000E+03 0.  0.
        998    1    1    2    0    0  0.48565889226E+01 -0.95590752929E+00  0.14209378233E+04  0.14209816318E+04  0.10000000000E+02 0. -1.
</event>
<event>
 5    1  0.1245771E-008  0.3776635E+03  0.7957747E-01  0.3461396E+00
         13   -1    0    0    0    0  0.00000000000E+00  0.00000000000E+00  0.14999999963E+04  0.15000000000E+04  0.10566000000E+00 0. -1.
        994   -1    0    0    0    0 -0.00000000000E+00 -0.00000000000E+00  0.11368683772E-12  0.17120000000E+03  0.17120000000E+03 0.  0.
         13    1    1    2    0    0  0.15030626823E+02 -0.40690716030E+02  0.22142801690E+03  0.22563694721E+03  0.10566000000E+00 0. -1.
        994    1    1    2    0    0  0.47500427631E+01 -0.59161725113E+01  0.55112237139E+01  0.17145663472E+03  0.17120000000E+03 0.  0.
        998    1    1    2    0    0 -0.19780669587E+02  0.46606888541E+02  0.12730607557E+04  0.12741064181E+04  0.10000000000E+02 0. -1.
</event>
<event>
 5    1  0.1245771E-008  0.3824522E+03  0.7957747E-01  0.3440550E+00
         13   -1    0    0    0    0  0.00000000000E+00  0.00000000000E+00  0.14999999963E+04  0.15000000000E+04  0.10566000000E+00 0. -1.
        994   -1    0    0    0    0 -0.00000000000E+00 -0.00000000000E+00  0.11368683772E-12  0.17120000000E+03  0.17120000000E+03 0.  0.
         13    1    1    2    0    0  0.10819703856E+02 -0.11356061497E+02  0.45664322408E+02  0.48283202351E+02  0.10566000000E+00 0. -1.
        994    1    1    2    0    0  0.24547995684E+02  0.62195775714E+01  0.50298026303E+01  0.17313586039E+03  0.17120000000E+03 0.  0.
        998    1    1    2    0    0 -0.35367699540E+02  0.51364839253E+01  0.14493058712E+04  0.14497809373E+04  0.10000000000E+02 0. -1.
</event>
<event>
 5    1  0.1245771E-008  0.3777419E+03  0.7957747E-01  0.3461050E+00
         13   -1    0    0    0    0  0.00000000000E+00  0.00000000000E+00  0.14999999963E+04  0.15000000000E+04  0.10566000000E+00 0. -1.
        994   -1    0    0    0    0 -0.00000000000E+00 -0.00000000000E+00  0.11368683772E-12  0.17120000000E+03  0.17120000000E+03 0.  0.
         13    1    1    2    0    0 -0.52850445372E+02 -0.45163362905E+02  0.39153324461E+03  0.39765712835E+03  0.10566000000E+00 0. -1.
        994    1    1    2    0    0  0.16629127107E+02  0.72120954895E+02  0.23955345070E+02  0.18804589483E+03  0.17120000000E+03 0.  0.
        998    1    1    2    0    0  0.36221318265E+02 -0.26957591990E+02  0.10845114066E+04  0.10854969768E+04  0.10000000000E+02 0. -1.
</event>
<event>
 5    1  0.1245771E-008  0.3786423E+03  0.7957747E-01  0.3457092E+00
         13   -1    0    0    0    0  0.00000000000E+00  0.00000000000E+00  0.14999999963E+04  0.15000000000E+04  0.10566000000E+00 0. -1.
        994   -1    0    0    0    0 -0.00000000000E+00 -0.00000000000E+00  0.11368683772E-12  0.17120000000E+03  0.17120000000E+03 0.  0.
         13    1    1    2    0    0 -0.12066646571E+02 -0.34010151355E+01  0.14058150468E+02  0.18836497074E+02  0.10566000000E+00 0. -1.
        994    1    1    2    0    0  0.12928915838E+02  0.28163396387E+01  0.54082242525E+01  0.17179574361E+03  0.17120000000E+03 0.  0.
        998    1    1    2    0    0 -0.86226926748E+00  0.58467549682E+00  0.14805336216E+04  0.14805677593E+04  0.10000000000E+02 0. -1.
</event>
<event>
 5    1  0.1245771E-008  0.3719468E+03  0.7957747E-01  0.3486991E+00
         13   -1    0    0    0    0  0.00000000000E+00  0.00000000000E+00  0.14999999963E+04  0.15000000000E+04  0.10566000000E+00 0.  1.
        994   -1    0    0    0    0 -0.00000000000E+00 -0.00000000000E+00  0.11368683772E-12  0.17120000000E+03  0.17120000000E+03 0.  0.
         13    1    1    2    0    0  0.41833109356E+02 -0.75535556899E+00  0.96242876310E+02  0.10494418519E+03  0.10566000000E+00 0.  1.
        994    1    1    2    0    0 -0.43752367615E+02  0.13108031648E+02  0.15454104792E+02  0.17786050579E+03  0.17120000000E+03 0.  0.
        998    1    1    2    0    0  0.19192582584E+01 -0.12352676079E+02  0.13883030152E+04  0.13883953090E+04  0.10000000000E+02 0.  1.
</event>
<event>
 5    1  0.1245771E-008  0.3832071E+03  0.7957747E-01  0.3437312E+00
         13   -1    0    0    0    0  0.00000000000E+00  0.00000000000E+00  0.14999999963E+04  0.15000000000E+04  0.10566000000E+00 0. -1.
        994   -1    0    0    0    0 -0.00000000000E+00 -0.00000000000E+00  0.11368683772E-12  0.17120000000E+03  0.17120000000E+03 0.  0.
         13    1    1    2    0    0 -0.99347333930E+01  0.68889973324E+01  0.28149435867E+02  0.30635912187E+02  0.10566000000E+00 0. -1.
        994    1    1    2    0    0  0.97118437684E+00 -0.12705394985E+02  0.30602100194E+01  0.17170083036E+03  0.17120000000E+03 0.  0.
        998    1    1    2    0    0  0.89635490162E+01  0.58163976524E+01  0.14687903504E+04  0.14688632575E+04  0.10000000000E+02 0. -1.
</event>
<event>
 5    1  0.1245771E-008  0.3779525E+03  0.7957747E-01  0.3460123E+00
         13   -1    0    0    0    0  0.00000000000E+00  0.00000000000E+00  0.14999999963E+04  0.15000000000E+04  0.10566000000E+00 0. -1.
        994   -1    0    0    0    0 -0.00000000000E+00 -0.00000000000E+00  0.11368683772E-12  0.17120000000E+03  0.17120000000E+03 0.  0.
         13    1    1    2    0    0 -0.67417418427E+02  0.99612595250E+02  0.72012142558E+03  0.73009770317E+03  0.10566000000E+00 0. -1.
        994    1    1    2    0    0  0.71676043629E+02 -0.94145678559E+02  0.53841479142E+02  0.21496327337E+03  0.17120000000E+03 0.  0.
        998    1    1    2    0    0 -0.42586252021E+01 -0.54669166912E+01  0.72603709156E+03  0.72613902346E+03  0.10000000000E+02 0. -1.
</event>
<event>
 5    1  0.1245771E-008  0.3805005E+03  0.7957747E-01  0.3448982E+00
         13   -1    0    0    0    0  0.00000000000E+00  0.00000000000E+00  0.14999999963E+04  0.15000000000E+04  0.10566000000E+00 0.  1.
        994   -1    0    0    0    0 -0.00000000000E+00 -0.00000000000E+00  0.11368683772E-12  0.17120000000E+03  0.17120000000E+03 0.  0.
         13    1    1    2    0    0  0.37382755142E+02 -0.13813937773E+01  0.20958504845E+03  0.21289735163E+03  0.10566000000E+00 0.  1.
        994    1    1    2    0    0 -0.35790512110E+01 -0.21477806147E+02  0.54645984745E+01  0.17266559472E+03  0.17120000000E+03 0.  0.
        998    1    1    2    0    0 -0.33803703931E+02  0.22859199924E+02  0.12849503493E+04  0.12856370536E+04  0.10000000000E+02 0.  1.
</event>
<event>
 5    1  0.1245771E-008  0.3806219E+03  0.7957747E-01  0.3448455E+00
         13   -1    0    0    0    0  0.00000000000E+00  0.00000000000E+00  0.14999999963E+04  0.15000000000E+04  0.10566000000E+00 0. -1.
        994   -1    0    0    0    0 -0.00000000000E+00 -0.00000000000E+00  0.11368683772E-12  0.17120000000E+03  0.17120000000E+03 0.  0.
         13    1    1    2    0    0  0.16231234466E+02  0.39710311925E+01  0.34272491646E+02  0.38129213324E+02  0.10566000000E+00 0. -1.
        994    1    1    2    0    0 -0.16374746278E+02 -0.10205630272E+02  0.50624806254E+01  0.17235821975E+03  0.17120000000E+03 0.  0.
        998    1    1    2    0    0  0.14351181113E+00  0.62345990799E+01  0.14606650240E+04  0.14607125669E+04  0.10000000000E+02 0. -1.
</event>
<event>
 5    1  0.1245771E-008  0.3834594E+03  0.7957747E-01  0.3436232E+00
         13   -1    0    0    0    0  0.00000000000E+00  0.00000000000E+00  0.14999999963E+04  0.15000000000E+04  0.10566000000E+00 0. -1.
        994   -1    0    0    0    0 -0.00000000000E+00 -0.00000000000E+00  0.11368683772E-12  0.17120000000E+03  0.17120000000E+03 0.  0.
         13    1    1    2    0    0 -0.11445702957E+02  0.40737757236E+01  0.30287789865E+02  0.32633742412E+02  0.10566000000E+00 0. -1.
        994    1    1    2    0    0  0.39894799344E+01 -0.69022769478E+01  0.26070526198E+01  0.17140535027E+03  0.17120000000E+03 0.  0.
        998    1    1    2    0    0  0.74562230227E+01  0.28285012243E+01  0.14671051538E+04  0.14671609073E+04  0.10000000000E+02 0. -1.
</event>
<event>
 5    1  0.1245771E-008  0.3834281E+03  0.7957747E-01  0.3436366E+00
         13   -1    0    0    0    0  0.00000000000E+00  0.00000000000E+00  0.14999999963E+04  0.15000000000E+04  0.10566000000E+00 0. -1.
        994   -1    0    0    0    0 -0.00000000000E+00 -0.00000000000E+00  0.11368683772E-12  0.17120000000E+03  0.17120000000E+03 0.  0.
         13    1    1    2    0    0  0.27449362586E+02 -0.55343124474E+00  0.14899319896E+03  0.15150167753E+03  0.10566000000E+00 0. -1.
        994    1    1    2    0    0 -0.21961135516E+02 -0.40310954648E+01  0.40622414762E+01  0.17269766359E+03  0.17120000000E+03 0.  0.
        998    1    1    2    0    0 -0.54882270702E+01  0.45845267095E+01  0.13469445558E+04  0.13470006589E+04  0.10000000000E+02 0.  0.
</event>
<event>
 5    1  0.1245771E-008  0.3761416E+03  0.7957747E-01  0.3468133E+00
         13   -1    0    0    0    0  0.00000000000E+00  0.00000000000E+00  0.14999999963E+04  0.15000000000E+04  0.10566000000E+00 0.  1.
        994   -1    0    0    0    0 -0.00000000000E+00 -0.00000000000E+00  0.11368683772E-12  0.17120000000E+03  0.17120000000E+03 0.  0.
         13    1    1    2    0    0  0.71121385330E+01  0.60607633979E+02  0.12556106662E+03  0.13960465761E+03  0.10566000000E+00 0.  1.
        994    1    1    2    0    0 -0.16588957360E+02 -0.38816318071E+02  0.20617719755E+02  0.17752867493E+03  0.17120000000E+03 0.  0.
        998    1    1    2    0    0  0.94768188266E+01 -0.21791315908E+02  0.13538212099E+04  0.13540666675E+04  0.10000000000E+02 0.  1.
</event>
<event>
 5    1  0.1245771E-008  0.3766943E+03  0.7957747E-01  0.3465680E+00
         13   -1    0    0    0    0  0.00000000000E+00  0.00000000000E+00  0.14999999963E+04  0.15000000000E+04  0.10566000000E+00 0.  1.
        994   -1    0    0    0    0 -0.00000000000E+00 -0.00000000000E+00  0.11368683772E-12  0.17120000000E+03  0.17120000000E+03 0.  0.
         13    1    1    2    0    0  0.17014876052E+02 -0.17486292801E+02  0.49809954720E+02  0.55464576049E+02  0.10566000000E+00 0.  1.
        994    1    1    2    0    0 -0.10056977574E+02  0.53011685185E+01  0.62482029512E+01  0.17169078375E+03  0.17120000000E+03 0.  0.
        998    1    1    2    0    0 -0.69578984783E+01  0.12185124283E+02  0.14439418386E+04  0.14440446402E+04  0.10000000000E+02 0.  1.
</event>
<event>
 5    1  0.1245771E-008  0.3764893E+03  0.7957747E-01  0.3466589E+00
         13   -1    0    0    0    0  0.00000000000E+00  0.00000000000E+00  0.14999999963E+04  0.15000000000E+04  0.10566000000E+00 0. -1.
        994   -1    0    0    0    0 -0.00000000000E+00 -0.00000000000E+00  0.11368683772E-12  0.17120000000E+03  0.17120000000E+03 0.  0.
         13    1    1    2    0    0  0.96121875094E+01 -0.32403775885E+02  0.89162784776E+02  0.95354140934E+02  0.10566000000E+00 0. -1.
        994    1    1    2    0    0 -0.13539758178E+02  0.31975318108E+02  0.10004851513E+02  0.17497223515E+03  0.17120000000E+03 0.  0.
        998    1    1    2    0    0  0.39275706689E+01  0.42845777697E+00  0.14008323600E+04  0.14008736239E+04  0.10000000000E+02 0. -1.
</event>
<event>
 5    1  0.1245771E-008  0.2120715E+03  0.7957747E-01  0.4830964E+00
         13   -1    0    0    0    0  0.00000000000E+00  0.00000000000E+00  0.14999999963E+04  0.15000000000E+04  0.10566000000E+00 0.  1.
        994   -1    0    0    0    0 -0.00000000000E+00 -0.00000000000E+00  0.11368683772E-12  0.17120000000E+03  0.17120000000E+03 0.  0.
         13    1    1    2    0    0 -0.80358076469E+01 -0.77377625155E+02  0.13196959809E+02  0.78905272266E+02  0.10566000000E+00 0.  1.
        994    1    1    2    0    0  0.85590636413E+02  0.54440195926E+02  0.14066321565E+03  0.24369052548E+03  0.17120000000E+03 0.  0.
        998    1    1    2    0    0 -0.77554828766E+02  0.22937429229E+02  0.13461398208E+04  0.13486042022E+04  0.10000000000E+02 0.  1.
</event>
<event>
 5    1  0.1245771E-008  0.3686135E+03  0.7957747E-01  0.3502287E+00
         13   -1    0    0    0    0  0.00000000000E+00  0.00000000000E+00  0.14999999963E+04  0.15000000000E+04  0.10566000000E+00 0.  1.
        994   -1    0    0    0    0 -0.00000000000E+00 -0.00000000000E+00  0.11368683772E-12  0.17120000000E+03  0.17120000000E+03 0.  0.
         13    1    1    2    0    0  0.13394961241E+03 -0.57801588153E+02  0.49420003789E+03  0.51528362177E+03  0.10566000000E+00 0.  1.
        994    1    1    2    0    0 -0.15383383457E+03  0.88769668249E+02  0.12917261990E+03  0.27845988650E+03  0.17120000000E+03 0.  0.
        998    1    1    2    0    0  0.19884222166E+02 -0.30968080096E+02  0.87662733849E+03  0.87745649172E+03  0.10000000000E+02 0. -1.
</event>
<event>
 5    1  0.1245771E-008  0.3821066E+03  0.7957747E-01  0.3442037E+00
         13   -1    0    0    0    0  0.00000000000E+00  0.00000000000E+00  0.14999999963E+04  0.15000000000E+04  0.10566000000E+00 0.  1.
        994   -1    0    0    0    0 -0.00000000000E+00 -0.00000000000E+00  0.11368683772E-12  0.17120000000E+03  0.17120000000E+03 0.  0.
         13    1    1    2    0    0 -0.77813410151E+01 -0.19427554342E+02  0.78060270307E+02  0.80817053276E+02  0.10566000000E+00 0.  1.
        994    1    1    2    0    0 -0.17606524806E+01 -0.65253209753E+01  0.32251704386E+01  0.17136371096E+03  0.17120000000E+03 0.  0.
        998    1    1    2    0    0  0.95419934958E+01  0.25952875317E+02  0.14187145555E+04  0.14190192358E+04  0.10000000000E+02 0.  1.
</event>
<event>
 5    1  0.1245771E-008  0.3848116E+03  0.7957747E-01  0.3430472E+00
         13   -1    0    0    0    0  0.00000000000E+00  0.00000000000E+00  0.14999999963E+04  0.15000000000E+04  0.10566000000E+00 0. -1.
        994   -1    0    0    0    0 -0.00000000000E+00 -0.00000000000E+00  0.11368683772E-12  0.17120000000E+03  0.17120000000E+03 0.  0.
         13    1    1    2    0    0  0.46926502450E+01  0.11317319346E+02  0.42438982476E+02  0.44172175418E+02  0.10566000000E+00 0. -1.
        994    1    1    2    0    0 -0.62968403854E+01 -0.10900725323E+02  0.22453887581E+01  0.17167689938E+03  0.17120000000E+03 0.  0.
        998    1    1    2    0    0  0.16041901404E+01 -0.41659402304E+00  0.14553156250E+04  0.14553509252E+04  0.10000000000E+02 0. -1.
</event>
<event>
 5    1  0.1245771E-008  0.3859369E+03  0.7957747E-01  0.3425708E+00
         13   -1    0    0    0    0  0.00000000000E+00  0.00000000000E+00  0.14999999963E+04  0.15000000000E+04  0.10566000000E+00 0. -1.
        994   -1    0    0    0    0 -0.00000000000E+00 -0.00000000000E+00  0.11368683772E-12  0.17120000000E+03  0.17120000000E+03 0.  0.
         13    1    1    2    0    0  0.10725079003E+02  0.62820719797E+01  0.65061440117E+02  0.66238160467E+02  0.10566000000E+00 0. -1.
        994    1    1    2    0    0 -0.13586741486E+02 -0.10266215503E+01  0.17746214573E+01  0.17175052482E+03  0.17120000000E+03 0.  0.
        998    1    1    2    0    0  0.28616624831E+01 -0.52554504294E+01  0.14331639347E+04  0.14332113147E+04  0.10000000000E+02 0. -1.
</event>
<event>
 5    1  0.1245771E-008  0.3857193E+03  0.7957747E-01  0.3426627E+00
         13   -1    0    0    0    0  0.00000000000E+00  0.00000000000E+00  0.14999999963E+04  0.15000000000E+04  0.10566000000E+00 0.  1.
        994   -1    0    0    0    0 -0.00000000000E+00 -0.00000000000E+00  0.11368683772E-12  0.17120000000E+03  0.17120000000E+03 0.  0.
         13    1    1    2    0    0  0.82396707352E-01  0.12274270790E+02  0.53001777316E+02  0.54404632848E+02  0.10566000000E+00 0.  1.
        994    1    1    2    0    0  0.10607725073E+02 -0.27020482962E+02  0.40430195363E+01  0.17369057642E+03  0.17120000000E+03 0.  0.
        998    1    1    2    0    0 -0.10690121781E+02  0.14746212173E+02  0.14429551994E+04  0.14431047907E+04  0.10000000000E+02 0.  1.
</event>
<event>
 5    1  0.1245771E-008  0.3829386E+03  0.7957747E-01  0.3438462E+00
         13   -1    0    0    0    0  0.00000000000E+00  0.00000000000E+00  0.14999999963E+04  0.15000000000E+04  0.10566000000E+00 0. -1.
        994   -1    0    0    0    0 -0.00000000000E+00 -0.00000000000E+00  0.11368683772E-12  0.17120000000E+03  0.17120000000E+03 0.  0.
         13    1    1    2    0    0  0.21343052738E+02 -0.14025017506E+02  0.11545783374E+03  0.11824867675E+03  0.10566000000E+00 0. -1.
        994    1    1    2    0    0 -0.81216678596E+01  0.32089339820E+02  0.62930804451E+01  0.17448418289E+03  0.17120000000E+03 0.  0.
        998    1    1    2    0    0 -0.13221384878E+02 -0.18064322314E+02  0.13782490821E+04  0.13784671404E+04  0.10000000000E+02 0. -1.
</event>
<event>
 5    1  0.1245771E-008  0.3809797E+03  0.7957747E-01  0.3446904E+00
         13   -1    0    0    0    0  0.00000000000E+00  0.00000000000E+00  0.14999999963E+04  0.15000000000E+04  0.10566000000E+00 0.  1.
        994   -1    0    0    0    0 -0.00000000000E+00 -0.00000000000E+00  0.11368683772E-12  0.17120000000E+03  0.17120000000E+03 0.  0.
         13    1    1    2    0    0 -0.20651666494E+02  0.24982100064E+02  0.13275536924E+03  0.13665502508E+03  0.10566000000E+00 0.  1.
        994    1    1    2    0    0  0.21664792810E+02 -0.22764921590E+02  0.69372438348E+01  0.17419865170E+03  0.17120000000E+03 0.  0.
        998    1    1    2    0    0 -0.10131263158E+01 -0.22171784735E+01  0.13603073832E+04  0.13603463232E+04  0.10000000000E+02 0.  1.
</event>
<event>
 5    1  0.1245771E-008  0.3812883E+03  0.7957747E-01  0.3445568E+00
         13   -1    0    0    0    0  0.00000000000E+00  0.00000000000E+00  0.14999999963E+04  0.15000000000E+04  0.10566000000E+00 0. -1.
        994   -1    0    0    0    0 -0.00000000000E+00 -0.00000000000E+00  0.11368683772E-12  0.17120000000E+03  0.17120000000E+03 0.  0.
         13    1    1    2    0    0  0.16531298378E+01  0.49730078336E+02  0.29362293416E+03  0.29780908676E+03  0.10566000000E+00 0. -1.
        994    1    1    2    0    0 -0.51150454246E+00 -0.47748447837E+02  0.11111860581E+02  0.17808169292E+03  0.17120000000E+03 0.  0.
        998    1    1    2    0    0 -0.11416252954E+01 -0.19816304999E+01  0.11952652015E+04  0.11953092203E+04  0.10000000000E+02 0.  0.
</event>
<event>
 5    1  0.1245771E-008  0.3714910E+03  0.7957747E-01  0.3489067E+00
         13   -1    0    0    0    0  0.00000000000E+00  0.00000000000E+00  0.14999999963E+04  0.15000000000E+04  0.10566000000E+00 0. -1.
        994   -1    0    0    0    0 -0.00000000000E+00 -0.00000000000E+00  0.11368683772E-12  0.17120000000E+03  0.17120000000E+03 0.  0.
         13    1    1    2    0    0 -0.16545711756E+02  0.61659277591E+02  0.20431476781E+03  0.21405644723E+03  0.10566000000E+00 0. -1.
        994    1    1    2    0    0  0.19512386953E+01 -0.66880558659E+02  0.24052907030E+02  0.18537744953E+03  0.17120000000E+03 0.  0.
        998    1    1    2    0    0  0.14594473061E+02  0.52212810680E+01  0.12716323214E+04  0.12717661032E+04  0.10000000000E+02 0. -1.
</event>
<event>
 5    1  0.1245771E-008  0.3847493E+03  0.7957747E-01  0.3430736E+00
         13   -1    0    0    0    0  0.00000000000E+00  0.00000000000E+00  0.14999999963E+04  0.15000000000E+04  0.10566000000E+00 0.  1.
        994   -1    0    0    0    0 -0.00000000000E+00 -0.00000000000E+00  0.11368683772E-12  0.17120000000E+03  0.17120000000E+03 0.  0.
         13    1    1    2    0    0  0.10026588254E+02 -0.14435752070E+02  0.10221854548E+03  0.10371868498E+03  0.10566000000E+00 0.  1.
        994    1    1    2    0    0  0.38289970248E+01 -0.67949300010E+01  0.19548818447E+01  0.17138872149E+03  0.17120000000E+03 0.  0.
        998    1    1    2    0    0 -0.13855585278E+02  0.21230682071E+02  0.13958265690E+04  0.13960925935E+04  0.10000000000E+02 0.  1.
</event>
<event>
 5    1  0.1245771E-008  0.3686095E+03  0.7957747E-01  0.3502306E+00
         13   -1    0    0    0    0  0.00000000000E+00  0.00000000000E+00  0.14999999963E+04  0.15000000000E+04  0.10566000000E+00 0.  1.
        994   -1    0    0    0    0 -0.00000000000E+00 -0.00000000000E+00  0.11368683772E-12  0.17120000000E+03  0.17120000000E+03 0.  0.
         13    1    1    2    0    0 -0.55577023266E+01  0.28504793282E+02  0.36458334120E+02  0.46611507013E+02  0.10566000000E+00 0.  1.
        994    1    1    2    0    0  0.29058177160E+01 -0.28277826476E+02  0.13021946888E+02  0.17403186590E+03  0.17120000000E+03 0.  0.
        998    1    1    2    0    0  0.26518846107E+01 -0.22696680530E+00  0.14505197153E+04  0.14505566271E+04  0.10000000000E+02 0.  1.
</event>
<event>
 5    1  0.1245771E-008  0.3816513E+03  0.7957747E-01  0.3444000E+00
         13   -1    0    0    0    0  0.00000000000E+00  0.00000000000E+00  0.14999999963E+04  0.15000000000E+04  0.10566000000E+00 0.  1.
        994   -1    0    0    0    0 -0.00000000000E+00 -0.00000000000E+00  0.11368683772E-12  0.17120000000E+03  0.17120000000E+03 0.  0.
         13    1    1    2    0    0 -0.29779026690E+01 -0.28167064714E+02  0.11237400916E+03  0.11588865578E+03  0.10566000000E+00 0.  1.
        994    1    1    2    0    0  0.91030270351E+01  0.27925609883E+02  0.61754867668E+01  0.17381105093E+03  0.17120000000E+03 0.  0.
        998    1    1    2    0    0 -0.61251243661E+01  0.24145483028E+00  0.13814505003E+04  0.13815002933E+04  0.10000000000E+02 0.  1.
</event>
<event>
 5    1  0.1245771E-008  0.3832738E+03  0.7957747E-01  0.3437026E+00
         13   -1    0    0    0    0  0.00000000000E+00  0.00000000000E+00  0.14999999963E+04  0.15000000000E+04  0.10566000000E+00 0.  1.
        994   -1    0    0    0    0 -0.00000000000E+00 -0.00000000000E+00  0.11368683772E-12  0.17120000000E+03  0.17120000000E+03 0.  0.
         13    1    1    2    0    0  0.14481451652E+02  0.20102254360E+02  0.14535104991E+03  0.14744745486E+03  0.10566000000E+00 0.  1.
        994    1    1    2    0    0  0.83695048942E+00  0.67776198036E+01  0.26438607998E+01  0.17135654822E+03  0.17120000000E+03 0.  0.
        998    1    1    2    0    0 -0.15318402142E+02 -0.26879874164E+02  0.13520050856E+04  0.13523959969E+04  0.10000000000E+02 0.  1.
</event>
<event>
 5    1  0.1245771E-008  0.3736895E+03  0.7957747E-01  0.3479105E+00
         13   -1    0    0    0    0  0.00000000000E+00  0.00000000000E+00  0.14999999963E+04  0.15000000000E+04  0.10566000000E+00 0. -1.
        994   -1    0    0    0    0 -0.00000000000E+00 -0.00000000000E+00  0.11368683772E-12  0.17120000000E+03  0.17120000000E+03 0.  0.
         13    1    1    2    0    0  0.15226296834E+02 -0.69917898013E+02  0.28099117110E+03  0.28995931090E+03  0.10566000000E+00 0. -1.
        994    1    1    2    0    0 -0.56932904245E+01  0.72159796440E+02  0.25458966283E+02  0.18760876510E+03  0.17120000000E+03 0.  0.
        998    1    1    2    0    0 -0.95330064094E+01 -0.22418984269E+01  0.11935498589E+04  0.11936319240E+04  0.10000000000E+02 0. -1.
</event>
<event>
 5    1  0.1245771E-008  0.3775839E+03  0.7957747E-01  0.3461747E+00
         13   -1    0    0    0    0  0.00000000000E+00  0.00000000000E+00  0.14999999963E+04  0.15000000000E+04  0.10566000000E+00 0. -1.
        994   -1    0    0    0    0 -0.00000000000E+00 -0.00000000000E+00  0.11368683772E-12  0.17120000000E+03  0.17120000000E+03 0.  0.
         13    1    1    2    0    0 -0.18601495648E+02 -0.63630084332E+01  0.33220194370E+02  0.38601761549E+02  0.10566000000E+00 0. -1.
        994    1    1    2    0    0  0.27198982570E+02 -0.17363531135E+02  0.88747254863E+01  0.17444047013E+03  0.17120000000E+03 0.  0.
        998    1    1    2    0    0 -0.85974869222E+01  0.23726539569E+02  0.14579050764E+04  0.14581577683E+04  0.10000000000E+02 0. -1.
</event>
<event>
 5    1  0.1245771E-008  0.3754606E+03  0.7957747E-01  0.3471166E+00
         13   -1    0    0    0    0  0.00000000000E+00  0.00000000000E+00  0.14999999963E+04  0.15000000000E+04  0.10566000000E+00 0. -1.
        994   -1    0    0    0    0 -0.00000000000E+00 -0.00000000000E+00  0.11368683772E-12  0.17120000000E+03  0.17120000000E+03 0.  0.
         13    1    1    2    0    0 -0.14635197110E+02  0.46367391628E+01  0.15165498245E+02  0.21579894475E+02  0.10566000000E+00 0. -1.
        994    1    1    2    0    0  0.22401991646E+02  0.64882341899E+01  0.82907108592E+01  0.17298012111E+03  0.17120000000E+03 0.  0.
        998    1    1    2    0    0 -0.77667945363E+01 -0.11124973353E+02  0.14765437872E+04  0.14766399844E+04  0.10000000000E+02 0. -1.
</event>
<event>
 5    1  0.1245771E-008  0.3795558E+03  0.7957747E-01  0.3453095E+00
         13   -1    0    0    0    0  0.00000000000E+00  0.00000000000E+00  0.14999999963E+04  0.15000000000E+04  0.10566000000E+00 0.  1.
        994   -1    0    0    0    0 -0.00000000000E+00 -0.00000000000E+00  0.11368683772E-12  0.17120000000E+03  0.17120000000E+03 0.  0.
         13    1    1    2    0    0 -0.23322295506E+02  0.21887093112E+02  0.10276145072E+03  0.10762388783E+03  0.10566000000E+00 0.  1.
        994    1    1    2    0    0  0.24291651269E+02 -0.37298650433E+02  0.11019199739E+02  0.17723469302E+03  0.17120000000E+03 0.  0.
        998    1    1    2    0    0 -0.96935576312E+00  0.15411557321E+02  0.13862193458E+04  0.13863414192E+04  0.10000000000E+02 0.  1.
</event>
<event>
 5    1  0.1245771E-008  0.3808812E+03  0.7957747E-01  0.3447331E+00
         13   -1    0    0    0    0  0.00000000000E+00  0.00000000000E+00  0.14999999963E+04  0.15000000000E+04  0.10566000000E+00 0. -1.
        994   -1    0    0    0    0 -0.00000000000E+00 -0.00000000000E+00  0.11368683772E-12  0.17120000000E+03  0.17120000000E+03 0.  0.
         13    1    1    2    0    0 -0.32028660730E+02  0.15850033981E+02  0.17180651029E+03  0.17548375089E+03  0.10566000000E+00 0. -1.
        994    1    1    2    0    0  0.17068440812E+02 -0.12646162800E+02  0.51945660132E+01  0.17259107921E+03  0.17120000000E+03 0.  0.
        998    1    1    2    0    0  0.14960219917E+02 -0.32038711807E+01  0.13229989200E+04  0.13231251699E+04  0.10000000000E+02 0. -1.
</event>
<event>
 5    1  0.1245771E-008  0.3821279E+03  0.7957747E-01  0.3441945E+00
         13   -1    0    0    0    0  0.00000000000E+00  0.00000000000E+00  0.14999999963E+04  0.15000000000E+04  0.10566000000E+00 0.  1.
        994   -1    0    0    0    0 -0.00000000000E+00 -0.00000000000E+00  0.11368683772E-12  0.17120000000E+03  0.17120000000E+03 0.  0.
         13    1    1    2    0    0  0.19382331577E+02  0.17831691067E+02  0.11537245507E+03  0.11834043492E+03  0.10566000000E+00 0.  1.
        994    1    1    2    0    0  0.11724116535E+01 -0.18912158995E+02  0.42556278430E+01  0.17229798221E+03  0.17120000000E+03 0.  0.
        998    1    1    2    0    0 -0.20554743230E+02  0.10804679274E+01  0.13803719134E+04  0.13805615829E+04  0.10000000000E+02 0.  1.
</event>
<event>
 5    1  0.1245771E-008  0.3856291E+03  0.7957747E-01  0.3427009E+00
         13   -1    0    0    0    0  0.00000000000E+00  0.00000000000E+00  0.14999999963E+04  0.15000000000E+04  0.10566000000E+00 0. -1.
        994   -1    0    0    0    0 -0.00000000000E+00 -0.00000000000E+00  0.11368683772E-12  0.17120000000E+03  0.17120000000E+03 0.  0.
         13    1    1    2    0    0  0.11367550611E+02  0.13972125997E+02  0.10354212988E+03  0.10509721850E+03  0.10566000000E+00 0. -1.
        994    1    1    2    0    0 -0.19635455372E+02 -0.25639869899E+02  0.47485631993E+01  0.17428408673E+03  0.17120000000E+03 0.  0.
        998    1    1    2    0    0  0.82679047605E+01  0.11667743902E+02  0.13917093032E+04  0.13918186948E+04  0.10000000000E+02 0. -1.
</event>
<event>
 5    1  0.1245771E-008  0.3711706E+03  0.7957747E-01  0.3490528E+00
         13   -1    0    0    0    0  0.00000000000E+00  0.00000000000E+00  0.14999999963E+04  0.15000000000E+04  0.10566000000E+00 0. -1.
        994   -1    0    0    0    0 -0.00000000000E+00 -0.00000000000E+00  0.11368683772E-12  0.17120000000E+03  0.17120000000E+03 0.  0.
         13    1    1    2    0    0  0.69015978499E+02  0.30241507819E+02  0.36864244812E+03  0.37626456092E+03  0.10566000000E+00 0. -1.
        994    1    1    2    0    0  0.27535711568E+01  0.27083307094E+02  0.14164984722E+02  0.17392864764E+03  0.17120000000E+03 0.  0.
        998    1    1    2    0    0 -0.71769549656E+02 -0.57324814913E+02  0.11171925634E+04  0.11210067914E+04  0.10000000000E+02 0. -1.
</event>
<event>
 5    1  0.1245771E-008  0.3698924E+03  0.7957747E-01  0.3496385E+00
         13   -1    0    0    0    0  0.00000000000E+00  0.00000000000E+00  0.14999999963E+04  0.15000000000E+04  0.10566000000E+00 0.  1.
        994   -1    0    0    0    0 -0.00000000000E+00 -0.00000000000E+00  0.11368683772E-12  0.17120000000E+03  0.17120000000E+03 0.  0.
         13    1    1    2    0    0  0.10717159758E+03 -0.45963133540E+02  0.46131992037E+03  0.47583026498E+03  0.10566000000E+00 0.  1.
        994    1    1    2    0    0 -0.11943074384E+03  0.33114758876E+02  0.64497982540E+02  0.22097447722E+03  0.17120000000E+03 0.  0.
        998    1    1    2    0    0  0.12259146262E+02  0.12848374664E+02  0.97418209337E+03  0.97439525780E+03  0.10000000000E+02 0.  1.
</event>
<event>
 5    1  0.1245771E-008  0.3194508E+03  0.7957747E-01  0.3766252E+00
         13   -1    0    0    0    0  0.00000000000E+00  0.00000000000E+00  0.14999999963E+04  0.15000000000E+04  0.10566000000E+00 0. -1.
        994   -1    0    0    0    0 -0.00000000000E+00 -0.00000000000E+00  0.11368683772E-12  0.17120000000E+03  0.17120000000E+03 0.  0.
         13    1    1    2    0    0 -0.17769845558E+03  0.11168985870E+03  0.73493644148E+03  0.76431861801E+03  0.10566000000E+00 0. -1.
        994    1    1    2    0    0  0.17922924976E+03 -0.11674132449E+03  0.19399525972E+03  0.33570114925E+03  0.17120000000E+03 0.  0.
        998    1    1    2    0    0 -0.15307941777E+01  0.50514657850E+01  0.57106829508E+03  0.57118023275E+03  0.10000000000E+02 0.  0.
</event>
<event>
 5    1  0.1245771E-008  0.4387558E+03  0.7957747E-01  0.3229446E+00
         13   -1    0    0    0    0  0.00000000000E+00  0.00000000000E+00  0.14999999963E+04  0.15000000000E+04  0.10566000000E+00 0.  1.
        994   -1    0    0    0    0 -0.00000000000E+00 -0.00000000000E+00  0.11368683772E-12  0.17120000000E+03  0.17120000000E+03 0.  0.
         13    1    1    2    0    0 -0.70241360704E+02  0.20617099761E+01  0.27813131953E+02  0.75575663244E+02  0.10566000000E+00 0.  1.
        994    1    1    2    0    0  0.72226531471E+02 -0.42990523556E+01  0.78272616007E+02  0.20167100961E+03  0.17120000000E+03 0.  0.
        998    1    1    2    0    0 -0.19851707665E+01  0.22373423796E+01  0.13939142483E+04  0.13939533271E+04  0.10000000000E+02 0.  1.
</event>
<event>
 5    1  0.1245771E-008  0.3851190E+03  0.7957747E-01  0.3429168E+00
         13   -1    0    0    0    0  0.00000000000E+00  0.00000000000E+00  0.14999999963E+04  0.15000000000E+04  0.10566000000E+00 0. -1.
        994   -1    0    0    0    0 -0.00000000000E+00 -0.00000000000E+00  0.11368683772E-12  0.17120000000E+03  0.17120000000E+03 0.  0.
         13    1    1    2    0    0 -0.75977472145E+01 -0.73548072677E+01  0.37404936423E+02  0.38871061029E+02  0.10566000000E+00 0. -1.
        994    1    1    2    0    0  0.13285112910E+01 -0.63381457256E+01  0.17089254691E+01  0.17133095885E+03  0.17120000000E+03 0.  0.
        998    1    1    2    0    0  0.62692359235E+01  0.13692952993E+02  0.14608861344E+04  0.14609979801E+04  0.10000000000E+02 0. -1.
</event>
<event>
 5    1  0.1245771E-008  0.3839106E+03  0.7957747E-01  0.3434306E+00
         13   -1    0    0    0    0  0.00000000000E+00  0.00000000000E+00  0.14999999963E+04  0.15000000000E+04  0.10566000000E+00 0. -1.
        994   -1    0    0    0    0 -0.00000000000E+00 -0.00000000000E+00  0.11368683772E-12  0.17120000000E+03  0.17120000000E+03 0.  0.
         13    1    1    2    0    0  0.21784633938E+01  0.21690326332E+02  0.10201061927E+03  0.10431391837E+03  0.10566000000E+00 0. -1.
        994    1    1    2    0    0 -0.68984356448E+01 -0.22616900323E+02  0.40194039363E+01  0.17287194163E+03  0.17120000000E+03 0.  0.
        998    1    1    2    0    0  0.47199722511E+01  0.92657399050E+00  0.13939699731E+04  0.13940141400E+04  0.10000000000E+02 0.  0.
</event>
<event>
 5    1  0.1245771E-008  0.3792579E+03  0.7957747E-01  0.3454396E+00
         13   -1    0    0    0    0  0.00000000000E+00  0.00000000000E+00  0.14999999963E+04  0.15000000000E+04  0.10566000000E+00 0.  1.
        994   -1    0    0    0    0 -0.00000000000E+00 -0.00000000000E+00  0.11368683772E-12  0.17120000000E+03  0.17120000000E+03 0.  0.
         13    1    1    2    0    0 -0.20433553893E+02  0.26777927140E+02  0.13134281174E+03  0.13559326261E+03  0.10566000000E+00 0.  1.
        994    1    1    2    0    0  0.28538945194E+01 -0.10917914266E+02  0.49351043688E+01  0.17164247965E+03  0.17120000000E+03 0.  0.
        998    1    1    2    0    0  0.17579659374E+02 -0.15860012875E+02  0.13637220802E+04  0.13639642577E+04  0.10000000000E+02 0.  1.
</event>
<event>
 5    1  0.1445280E-008  0.3855351E+03  0.7957747E-01  0.3427406E+00
         13   -1    0    0    0    0  0.00000000000E+00  0.00000000000E+00  0.14999999963E+04  0.15000000000E+04  0.10566000000E+00 0.  1.
        994   -1    0    0    0    0 -0.00000000000E+00 -0.00000000000E+00  0.11368683772E-12  0.17120000000E+03  0.17120000000E+03 0.  0.
         13    1    1    2    0    0  0.97109959470E+01  0.39968891406E+01  0.39417573343E+02  0.40792582872E+02  0.10566000000E+00 0.  1.
        994    1    1    2    0    0 -0.11131665925E+02 -0.53558065064E+01  0.18658427809E+01  0.17165523592E+03  0.17120000000E+03 0.  0.
        998    1    1    2    0    0  0.14206699779E+01  0.13589173659E+01  0.14587165802E+04  0.14587521812E+04  0.10000000000E+02 0.  1.
</event>
<event>
 5    1  0.1245771E-008  0.4159798E+03  0.7957747E-01  0.3308048E+00
         13   -1    0    0    0    0  0.00000000000E+00  0.00000000000E+00  0.14999999963E+04  0.15000000000E+04  0.10566000000E+00 0. -1.
        994   -1    0    0    0    0 -0.00000000000E+00 -0.00000000000E+00  0.11368683772E-12  0.17120000000E+03  0.17120000000E+03 0.  0.
         13    1    1    2    0    0 -0.13129762717E+02  0.73236184721E+02  0.59691714142E+02  0.95388895175E+02  0.10566000000E+00 0. -1.
        994    1    1    2    0    0  0.18090078411E+02 -0.67863375252E+02  0.58680253975E+02  0.19412753757E+03  0.17120000000E+03 0.  0.
        998    1    1    2    0    0 -0.49603156945E+01 -0.53728094689E+01  0.13816280282E+04  0.13816835673E+04  0.10000000000E+02 0. -1.
</event>
<event>
 5    1  0.1245771E-008  0.3835980E+03  0.7957747E-01  0.3435640E+00
         13   -1    0    0    0    0  0.00000000000E+00  0.00000000000E+00  0.14999999963E+04  0.15000000000E+04  0.10566000000E+00 0. -1.
        994   -1    0    0    0    0 -0.00000000000E+00 -0.00000000000E+00  0.11368683772E-12  0.17120000000E+03  0.17120000000E+03 0.  0.
         13    1    1    2    0    0  0.71445110172E+01  0.16681370390E+02  0.65800126940E+02  0.68256721465E+02  0.10566000000E+00 0. -1.
        994    1    1    2    0    0 -0.14752733761E+02 -0.19498660745E+02  0.43053745250E+01  0.17299080084E+03  0.17120000000E+03 0.  0.
        998    1    1    2    0    0  0.76082227435E+01  0.28172903552E+01  0.14298944948E+04  0.14299524777E+04  0.10000000000E+02 0. -1.
</event>
<event>
 5    1  0.1245771E-008  0.3816925E+03  0.7957747E-01  0.3443822E+00
         13   -1    0    0    0    0  0.00000000000E+00  0.00000000000E+00  0.14999999963E+04  0.15000000000E+04  0.10566000000E+00 0. -1.
        994   -1    0    0    0    0 -0.00000000000E+00 -0.00000000000E+00  0.11368683772E-12  0.17120000000E+03  0.17120000000E+03 0.  0.
         13    1    1    2    0    0 -0.26618051222E+02 -0.10886397842E+02  0.13125652499E+03  0.13437008902E+03  0.10566000000E+00 0. -1.
        994    1    1    2    0    0  0.72980986309E+01  0.80307073149E+01  0.36727594405E+01  0.17158287696E+03  0.17120000000E+03 0.  0.
        998    1    1    2    0    0  0.19319952591E+02  0.28556905267E+01  0.13650707119E+04  0.13652470340E+04  0.10000000000E+02 0. -1.
</event>
<event>
 5    1  0.1245771E-008  0.3782454E+03  0.7957747E-01  0.3458834E+00
         13   -1    0    0    0    0  0.00000000000E+00  0.00000000000E+00  0.14999999963E+04  0.15000000000E+04  0.10566000000E+00 0. -1.
        994   -1    0    0    0    0 -0.00000000000E+00 -0.00000000000E+00  0.11368683772E-12  0.17120000000E+03  0.17120000000E+03 0.  0.
         13    1    1    2    0    0 -0.12162397982E+02  0.44563972298E+02  0.27928867962E+03  0.28308311373E+03  0.10566000000E+00 0. -1.
        994    1    1    2    0    0 -0.44599184992E+01  0.51115215900E+01  0.51762245610E+01  0.17141251946E+03  0.17120000000E+03 0.  0.
        998    1    1    2    0    0  0.16622316481E+02 -0.49675493888E+02  0.12155350921E+04  0.12167043668E+04  0.10000000000E+02 0. -1.
</event>
<event>
 5    1  0.1245771E-008  0.3800961E+03  0.7957747E-01  0.3450740E+00
         13   -1    0    0    0    0  0.00000000000E+00  0.00000000000E+00  0.14999999963E+04  0.15000000000E+04  0.10566000000E+00 0.  1.
        994   -1    0    0    0    0 -0.00000000000E+00 -0.00000000000E+00  0.11368683772E-12  0.17120000000E+03  0.17120000000E+03 0.  0.
         13    1    1    2    0    0  0.11927036635E+02 -0.18270298979E+02  0.54068507736E+02  0.58304997389E+02  0.10566000000E+00 0.  1.
        994    1    1    2    0    0 -0.16873321750E+02  0.20802766785E+02  0.64860199028E+01  0.17340407304E+03  0.17120000000E+03 0.  0.
        998    1    1    2    0    0  0.49462851147E+01 -0.25324678059E+01  0.14394454686E+04  0.14394909296E+04  0.10000000000E+02 0.  1.
</event>
<event>
 5    1  0.1245771E-008  0.3712829E+03  0.7957747E-01  0.3490016E+00
         13   -1    0    0    0    0  0.00000000000E+00  0.00000000000E+00  0.14999999963E+04  0.15000000000E+04  0.10566000000E+00 0.  1.
        994   -1    0    0    0    0 -0.00000000000E+00 -0.00000000000E+00  0.11368683772E-12  0.17120000000E+03  0.17120000000E+03 0.  0.
         13    1    1    2    0    0  0.99898299279E+01 -0.41727379548E+02  0.12429345021E+03  0.13149085076E+03  0.10566000000E+00 0.  1.
        994    1    1    2    0    0 -0.77047812272E+01 -0.17300849819E+02  0.98357511782E+01  0.17252496938E+03  0.17120000000E+03 0.  0.
        998    1    1    2    0    0 -0.22850487007E+01  0.59028229367E+02  0.13658707949E+04  0.13671841799E+04  0.10000000000E+02 0.  1.
</event>
<event>
 5    1  0.1245771E-008  0.2552232E+03  0.7957747E-01  0.4278658E+00
         13   -1    0    0    0    0  0.00000000000E+00  0.00000000000E+00  0.14999999963E+04  0.15000000000E+04  0.10566000000E+00 0. -1.
        994   -1    0    0    0    0 -0.00000000000E+00 -0.00000000000E+00  0.11368683772E-12  0.17120000000E+03  0.17120000000E+03 0.  0.
         13    1    1    2    0    0 -0.31869125309E+02  0.16015731027E+03  0.43138070754E+03  0.46125408527E+03  0.10566000000E+00 0. -1.
        994    1    1    2    0    0  0.23064703884E+02 -0.10434712418E+03  0.75972569183E+02  0.21564223649E+03  0.17120000000E+03 0.  0.
        998    1    1    2    0    0  0.88044214248E+01 -0.55810186089E+02  0.99264671956E+03  0.99430367824E+03  0.10000000000E+02 0. -1.
</event>
<event>
 5    1  0.1245771E-008  0.3831959E+03  0.7957747E-01  0.3437360E+00
         13   -1    0    0    0    0  0.00000000000E+00  0.00000000000E+00  0.14999999963E+04  0.15000000000E+04  0.10566000000E+00 0.  1.
        994   -1    0    0    0    0 -0.00000000000E+00 -0.00000000000E+00  0.11368683772E-12  0.17120000000E+03  0.17120000000E+03 0.  0.
         13    1    1    2    0    0 -0.12565020699E+02  0.82356067654E+01  0.44269207476E+02  0.46749105430E+02  0.10566000000E+00 0.  1.
        994    1    1    2    0    0  0.40825303797E+01 -0.83479153534E+01  0.28141853730E+01  0.17147511302E+03  0.17120000000E+03 0.  0.
        998    1    1    2    0    0  0.84824903194E+01  0.11230858803E+00  0.14529166034E+04  0.14529757816E+04  0.10000000000E+02 0.  1.
</event>
<event>
 5    1  0.1245771E-008  0.3797020E+03  0.7957747E-01  0.3452457E+00
         13   -1    0    0    0    0  0.00000000000E+00  0.00000000000E+00  0.14999999963E+04  0.15000000000E+04  0.10566000000E+00 0. -1.
        994   -1    0    0    0    0 -0.00000000000E+00 -0.00000000000E+00  0.11368683772E-12  0.17120000000E+03  0.17120000000E+03 0.  0.
         13    1    1    2    0    0 -0.56717731120E+02  0.13527884461E+02  0.31945134041E+03  0.32472923295E+03  0.10566000000E+00 0. -1.
        994    1    1    2    0    0  0.53836265851E+02 -0.16908898151E+02  0.15013465058E+02  0.18088421294E+03  0.17120000000E+03 0.  0.
        998    1    1    2    0    0  0.28814652692E+01  0.33810136899E+01  0.11655351908E+04  0.11655865541E+04  0.10000000000E+02 0. -1.
</event>
<event>
 5    1  0.1245771E-008  0.3850737E+03  0.7957747E-01  0.3429360E+00
         13   -1    0    0    0    0  0.00000000000E+00  0.00000000000E+00  0.14999999963E+04  0.15000000000E+04  0.10566000000E+00 0. -1.
        994   -1    0    0    0    0 -0.00000000000E+00 -0.00000000000E+00  0.11368683772E-12  0.17120000000E+03  0.17120000000E+03 0.  0.
         13    1    1    2    0    0 -0.10465880946E+02  0.75293822758E+01  0.52365515133E+02  0.53929440945E+02  0.10566000000E+00 0. -1.
        994    1    1    2    0    0  0.78326450987E+01 -0.26424375550E+01  0.18182589177E+01  0.17140909798E+03  0.17120000000E+03 0.  0.
        998    1    1    2    0    0  0.26332358473E+01 -0.48869447208E+01  0.14458162222E+04  0.14458614611E+04  0.10000000000E+02 0. -1.
</event>
<event>
 5    1  0.1245771E-008  0.3797306E+03  0.7957747E-01  0.3452332E+00
         13   -1    0    0    0    0  0.00000000000E+00  0.00000000000E+00  0.14999999963E+04  0.15000000000E+04  0.10566000000E+00 0.  1.
        994   -1    0    0    0    0 -0.00000000000E+00 -0.00000000000E+00  0.11368683772E-12  0.17120000000E+03  0.17120000000E+03 0.  0.
         13    1    1    2    0    0 -0.11432591231E+03  0.51379160365E+02  0.75262968613E+03  0.76299520834E+03  0.10566000000E+00 0.  1.
        994    1    1    2    0    0  0.11910184853E+03 -0.58228086338E+02  0.65513900696E+02  0.22622394114E+03  0.17120000000E+03 0.  0.
        998    1    1    2    0    0 -0.47759362190E+01  0.68489259734E+01  0.68185640945E+03  0.68198085051E+03  0.10000000000E+02 0.  1.
</event>
<event>
 5    1  0.1245771E-008  0.3848250E+03  0.7957747E-01  0.3430415E+00
         13   -1    0    0    0    0  0.00000000000E+00  0.00000000000E+00  0.14999999963E+04  0.15000000000E+04  0.10566000000E+00 0. -1.
        994   -1    0    0    0    0 -0.00000000000E+00 -0.00000000000E+00  0.11368683772E-12  0.17120000000E+03  0.17120000000E+03 0.  0.
         13    1    1    2    0    0 -0.13079783106E+02 -0.26573093453E+01  0.52171465385E+02  0.53851787190E+02  0.10566000000E+00 0. -1.
        994    1    1    2    0    0  0.82831987375E+01 -0.33488534152E+01  0.19797396854E+01  0.17144440956E+03  0.17120000000E+03 0.  0.
        998    1    1    2    0    0  0.47965843685E+01  0.60061627604E+01  0.14458487912E+04  0.14459038032E+04  0.10000000000E+02 0. -1.
</event>
<event>
 5    1  0.1245771E-008  0.3841630E+03  0.7957747E-01  0.3433230E+00
         13   -1    0    0    0    0  0.00000000000E+00  0.00000000000E+00  0.14999999963E+04  0.15000000000E+04  0.10566000000E+00 0. -1.
        994   -1    0    0    0    0 -0.00000000000E+00 -0.00000000000E+00  0.11368683772E-12  0.17120000000E+03  0.17120000000E+03 0.  0.
         13    1    1    2    0    0 -0.97405506855E+01 -0.16320372668E+02  0.88821653777E+02  0.90832429426E+02  0.10566000000E+00 0. -1.
        994    1    1    2    0    0  0.79807778988E+01  0.75378644720E+01  0.24437458117E+01  0.17156900685E+03  0.17120000000E+03 0.  0.
        998    1    1    2    0    0  0.17597727868E+01  0.87825081955E+01  0.14087345967E+04  0.14087985637E+04  0.10000000000E+02 0. -1.
</event>
<event>
 5    1  0.1245771E-008  0.3863874E+03  0.7957747E-01  0.3423809E+00
         13   -1    0    0    0    0  0.00000000000E+00  0.00000000000E+00  0.14999999963E+04  0.15000000000E+04  0.10566000000E+00 0.  1.
        994   -1    0    0    0    0 -0.00000000000E+00 -0.00000000000E+00  0.11368683772E-12  0.17120000000E+03  0.17120000000E+03 0.  0.
         13    1    1    2    0    0 -0.11207997467E+02  0.41945512157E+01  0.66403985442E+02  0.67473801684E+02  0.10566000000E+00 0.  1.
        994    1    1    2    0    0  0.24327178216E+02 -0.11535683242E+02  0.33197019771E+01  0.17333592821E+03  0.17120000000E+03 0.  0.
        998    1    1    2    0    0 -0.13119180750E+02  0.73411320260E+01  0.14302763089E+04  0.14303902701E+04  0.10000000000E+02 0.  1.
</event>
<event>
 5    1  0.1245771E-008  0.3868855E+03  0.7957747E-01  0.3421715E+00
         13   -1    0    0    0    0  0.00000000000E+00  0.00000000000E+00  0.14999999963E+04  0.15000000000E+04  0.10566000000E+00 0.  1.
        994   -1    0    0    0    0 -0.00000000000E+00 -0.00000000000E+00  0.11368683772E-12  0.17120000000E+03  0.17120000000E+03 0.  0.
         13    1    1    2    0    0 -0.36717719213E+02 -0.11302276104E+03  0.52791132775E+03  0.54112172064E+03  0.10566000000E+00 0.  1.
        994    1    1    2    0    0 -0.31866256982E+02  0.26964622575E+02  0.26668068719E+02  0.17822226318E+03  0.17120000000E+03 0.  0.
        998    1    1    2    0    0  0.68583976194E+02  0.86058138469E+02  0.94542059981E+03  0.95185601618E+03  0.10000000000E+02 0.  1.
</event>
<event>
 5    1  0.1245771E-008  0.3827663E+03  0.7957747E-01  0.3439201E+00
         13   -1    0    0    0    0  0.00000000000E+00  0.00000000000E+00  0.14999999963E+04  0.15000000000E+04  0.10566000000E+00 0.  1.
        994   -1    0    0    0    0 -0.00000000000E+00 -0.00000000000E+00  0.11368683772E-12  0.17120000000E+03  0.17120000000E+03 0.  0.
         13    1    1    2    0    0  0.27372783698E+01 -0.18897474199E+02  0.67466766196E+02  0.70116923271E+02  0.10566000000E+00 0.  1.
        994    1    1    2    0    0 -0.28487925765E+01  0.65445101945E+01  0.29119672876E+01  0.17137346874E+03  0.17120000000E+03 0.  0.
        998    1    1    2    0    0  0.11151420674E+00  0.12352964004E+02  0.14296212628E+04  0.14297096080E+04  0.10000000000E+02 0.  1.
</event>
<event>
 5    1  0.1245771E-008  0.3847236E+03  0.7957747E-01  0.3430846E+00
         13   -1    0    0    0    0  0.00000000000E+00  0.00000000000E+00  0.14999999963E+04  0.15000000000E+04  0.10566000000E+00 0. -1.
        994   -1    0    0    0    0 -0.00000000000E+00 -0.00000000000E+00  0.11368683772E-12  0.17120000000E+03  0.17120000000E+03 0.  0.
         13    1    1    2    0    0  0.65693814962E+01  0.10256879231E+02  0.40767448668E+02  0.42548282923E+02  0.10566000000E+00 0. -1.
        994    1    1    2    0    0 -0.73189021672E+01 -0.10756465432E+02  0.23248120602E+01  0.17170938422E+03  0.17120000000E+03 0.  0.
        998    1    1    2    0    0  0.74952067095E+00  0.49958620098E+00  0.14569077356E+04  0.14569423329E+04  0.10000000000E+02 0. -1.
</event>
<event>
 5    1  0.1245771E-008  0.3854068E+03  0.7957747E-01  0.3427949E+00
         13   -1    0    0    0    0  0.00000000000E+00  0.00000000000E+00  0.14999999963E+04  0.15000000000E+04  0.10566000000E+00 0. -1.
        994   -1    0    0    0    0 -0.00000000000E+00 -0.00000000000E+00  0.11368683772E-12  0.17120000000E+03  0.17120000000E+03 0.  0.
         13    1    1    2    0    0  0.12094632343E+02  0.62246477063E+01  0.66225958579E+02  0.67608543279E+02  0.10566000000E+00 0. -1.
        994    1    1    2    0    0 -0.83296652871E+01  0.22261251466E+01  0.16725091422E+01  0.17142513306E+03  0.17120000000E+03 0.  0.
        998    1    1    2    0    0 -0.37649670558E+01 -0.84507728529E+01  0.14321015286E+04  0.14321663237E+04  0.10000000000E+02 0. -1.
</event>
<event>
 5    1  0.1245771E-008  0.3946670E+03  0.7957747E-01  0.3389680E+00
         13   -1    0    0    0    0  0.00000000000E+00  0.00000000000E+00  0.14999999963E+04  0.15000000000E+04  0.10566000000E+00 0.  1.
        994   -1    0    0    0    0 -0.00000000000E+00 -0.00000000000E+00  0.11368683772E-12  0.17120000000E+03  0.17120000000E+03 0.  0.
         13    1    1    2    0    0 -0.60725511464E+02 -0.44997640997E+02  0.15077039379E+03  0.16865378218E+03  0.10566000000E+00 0.  1.
        994    1    1    2    0    0 -0.99221518165E+02  0.50816861254E+02  0.74018301506E+02  0.21729107670E+03  0.17120000000E+03 0.  0.
        998    1    1    2    0    0  0.15994702963E+03 -0.58192202568E+01  0.12752113010E+04  0.12852551411E+04  0.10000000000E+02 0.  1.
</event>
<event>
 5    1  0.1245771E-008  0.3755305E+03  0.7957747E-01  0.3470854E+00
         13   -1    0    0    0    0  0.00000000000E+00  0.00000000000E+00  0.14999999963E+04  0.15000000000E+04  0.10566000000E+00 0. -1.
        994   -1    0    0    0    0 -0.00000000000E+00 -0.00000000000E+00  0.11368683772E-12  0.17120000000E+03  0.17120000000E+03 0.  0.
         13    1    1    2    0    0  0.47685983769E+02  0.48909317504E+02  0.31404975393E+03  0.32139280249E+03  0.10566000000E+00 0. -1.
        994    1    1    2    0    0 -0.26086119212E+02 -0.55480483359E+02  0.19268435653E+02  0.18286410873E+03  0.17120000000E+03 0.  0.
        998    1    1    2    0    0 -0.21599864557E+02  0.65711658552E+01  0.11666818067E+04  0.11669430888E+04  0.10000000000E+02 0. -1.
</event>
<event>
 5    1  0.1245771E-008  0.3829811E+03  0.7957747E-01  0.3438280E+00
         13   -1    0    0    0    0  0.00000000000E+00  0.00000000000E+00  0.14999999963E+04  0.15000000000E+04  0.10566000000E+00 0. -1.
        994   -1    0    0    0    0 -0.00000000000E+00 -0.00000000000E+00  0.11368683772E-12  0.17120000000E+03  0.17120000000E+03 0.  0.
         13    1    1    2    0    0 -0.36100360239E+01 -0.23946082631E+02  0.10762459415E+03  0.11031550963E+03  0.10566000000E+00 0. -1.
        994    1    1    2    0    0  0.14752635428E+02  0.17090461275E+02  0.43250008055E+01  0.17273641698E+03  0.17120000000E+03 0.  0.
        998    1    1    2    0    0 -0.11142599404E+02  0.68556213555E+01  0.13880504013E+04  0.13881480734E+04  0.10000000000E+02 0. -1.
</event>
<event>
 5    1  0.1245771E-008  0.3841375E+03  0.7957747E-01  0.3433338E+00
         13   -1    0    0    0    0  0.00000000000E+00  0.00000000000E+00  0.14999999963E+04  0.15000000000E+04  0.10566000000E+00 0.  1.
        994   -1    0    0    0    0 -0.00000000000E+00 -0.00000000000E+00  0.11368683772E-12  0.17120000000E+03  0.17120000000E+03 0.  0.
         13    1    1    2    0    0  0.17496546126E+02 -0.94064421754E+00  0.83852264188E+02  0.85663453767E+02  0.10566000000E+00 0.  1.
        994    1    1    2    0    0  0.49077630563E+01 -0.27359051594E+02  0.46110550949E+01  0.17350304225E+03  0.17120000000E+03 0.  0.
        998    1    1    2    0    0 -0.22404309183E+02  0.28299695812E+02  0.14115366770E+04  0.14120335040E+04  0.10000000000E+02 0.  1.
</event>
<event>
 5    1  0.1245771E-008  0.3793455E+03  0.7957747E-01  0.3454013E+00
         13   -1    0    0    0    0  0.00000000000E+00  0.00000000000E+00  0.14999999963E+04  0.15000000000E+04  0.10566000000E+00 0. -1.
        994   -1    0    0    0    0 -0.00000000000E+00 -0.00000000000E+00  0.11368683772E-12  0.17120000000E+03  0.17120000000E+03 0.  0.
         13    1    1    2    0    0 -0.31353467758E+01 -0.47358686987E+02  0.26896500057E+03  0.27312059302E+03  0.10566000000E+00 0. -1.
        994    1    1    2    0    0 -0.45659399010E+01  0.19327827458E+02  0.57863436645E+01  0.17244516373E+03  0.17120000000E+03 0.  0.
        998    1    1    2    0    0  0.77012866768E+01  0.28030859530E+02  0.12252486520E+04  0.12256342433E+04  0.10000000000E+02 0. -1.
</event>
<event>
 5    1  0.1245771E-008  0.3779803E+03  0.7957747E-01  0.3460000E+00
         13   -1    0    0    0    0  0.00000000000E+00  0.00000000000E+00  0.14999999963E+04  0.15000000000E+04  0.10566000000E+00 0.  1.
        994   -1    0    0    0    0 -0.00000000000E+00 -0.00000000000E+00  0.11368683772E-12  0.17120000000E+03  0.17120000000E+03 0.  0.
         13    1    1    2    0    0 -0.32445670821E+02 -0.44173270630E+02  0.27124399669E+03  0.27672606726E+03  0.10566000000E+00 0.  1.
        994    1    1    2    0    0  0.51079276007E+01  0.46367923472E+02  0.12514702475E+02  0.17788235727E+03  0.17120000000E+03 0.  0.
        998    1    1    2    0    0  0.27337743220E+02 -0.21946528412E+01  0.12162412971E+04  0.12165915755E+04  0.10000000000E+02 0.  1.
</event>
<event>
 5    1  0.1245771E-008  0.3806732E+03  0.7957747E-01  0.3448232E+00
         13   -1    0    0    0    0  0.00000000000E+00  0.00000000000E+00  0.14999999963E+04  0.15000000000E+04  0.10566000000E+00 0. -1.
        994   -1    0    0    0    0 -0.00000000000E+00 -0.00000000000E+00  0.11368683772E-12  0.17120000000E+03  0.17120000000E+03 0.  0.
         13    1    1    2    0    0 -0.21063184186E+02  0.59037595664E+01  0.59200235155E+02  0.63112527374E+02  0.10566000000E+00 0. -1.
        994    1    1    2    0    0  0.22609431451E+02 -0.82585911195E+01  0.57286449448E+01  0.17297875040E+03  0.17120000000E+03 0.  0.
        998    1    1    2    0    0 -0.15462472650E+01  0.23548315531E+01  0.14350711162E+04  0.14351087222E+04  0.10000000000E+02 0. -1.
</event>
<event>
 5    1  0.1245771E-008  0.3706994E+03  0.7957747E-01  0.3492683E+00
         13   -1    0    0    0    0  0.00000000000E+00  0.00000000000E+00  0.14999999963E+04  0.15000000000E+04  0.10566000000E+00 0.  1.
        994   -1    0    0    0    0 -0.00000000000E+00 -0.00000000000E+00  0.11368683772E-12  0.17120000000E+03  0.17120000000E+03 0.  0.
         13    1    1    2    0    0 -0.24984663939E+02  0.10732195453E+02  0.42706525127E+02  0.50628765577E+02  0.10566000000E+00 0.  1.
        994    1    1    2    0    0 -0.14004940784E+02  0.30579153995E+02  0.12815936296E+02  0.17494259415E+03  0.17120000000E+03 0.  0.
        998    1    1    2    0    0  0.38989604723E+02 -0.41311349447E+02  0.14444775349E+04  0.14456286403E+04  0.10000000000E+02 0.  1.
</event>
<event>
 5    1  0.1245771E-008  0.3737673E+03  0.7957747E-01  0.3478754E+00
         13   -1    0    0    0    0  0.00000000000E+00  0.00000000000E+00  0.14999999963E+04  0.15000000000E+04  0.10566000000E+00 0. -1.
        994   -1    0    0    0    0 -0.00000000000E+00 -0.00000000000E+00  0.11368683772E-12  0.17120000000E+03  0.17120000000E+03 0.  0.
         13    1    1    2    0    0 -0.56233222831E+02  0.36417090992E+02  0.34184484976E+03  0.34834794722E+03  0.10566000000E+00 0. -1.
        994    1    1    2    0    0  0.40572328809E+02  0.15168966118E+02  0.13744510965E+02  0.17712866222E+03  0.17120000000E+03 0.  0.
        998    1    1    2    0    0  0.15660894022E+02 -0.51586057110E+02  0.11444106356E+04  0.11457233906E+04  0.10000000000E+02 0. -1.
</event>
<event>
 5    1  0.1245771E-008  0.3796390E+03  0.7957747E-01  0.3452732E+00
         13   -1    0    0    0    0  0.00000000000E+00  0.00000000000E+00  0.14999999963E+04  0.15000000000E+04  0.10566000000E+00 0. -1.
        994   -1    0    0    0    0 -0.00000000000E+00 -0.00000000000E+00  0.11368683772E-12  0.17120000000E+03  0.17120000000E+03 0.  0.
         13    1    1    2    0    0  0.68601227186E+01  0.28911365095E+02  0.11414185592E+03  0.11794618583E+03  0.10566000000E+00 0. -1.
        994    1    1    2    0    0 -0.52391868650E+01  0.60148829648E+01  0.45284833847E+01  0.17144554546E+03  0.17120000000E+03 0.  0.
        998    1    1    2    0    0 -0.16209358536E+01 -0.34926248060E+02  0.13813296570E+04  0.13818082687E+04  0.10000000000E+02 0. -1.
</event>
<event>
 5    1  0.1245771E-008  0.3816108E+03  0.7957747E-01  0.3444175E+00
         13   -1    0    0    0    0  0.00000000000E+00  0.00000000000E+00  0.14999999963E+04  0.15000000000E+04  0.10566000000E+00 0. -1.
        994   -1    0    0    0    0 -0.00000000000E+00 -0.00000000000E+00  0.11368683772E-12  0.17120000000E+03  0.17120000000E+03 0.  0.
         13    1    1    2    0    0 -0.14801053837E+02  0.30170656667E+02  0.15429591263E+03  0.15791320254E+03  0.10566000000E+00 0. -1.
        994    1    1    2    0    0  0.15476489328E+02 -0.28825525666E+02  0.68898280200E+01  0.17443434978E+03  0.17120000000E+03 0.  0.
        998    1    1    2    0    0 -0.67543549170E+00 -0.13451310012E+01  0.13388142556E+04  0.13388524477E+04  0.10000000000E+02 0.  0.
</event>
<event>
 5    1  0.1245771E-008  0.3815563E+03  0.7957747E-01  0.3444410E+00
         13   -1    0    0    0    0  0.00000000000E+00  0.00000000000E+00  0.14999999963E+04  0.15000000000E+04  0.10566000000E+00 0.  1.
        994   -1    0    0    0    0 -0.00000000000E+00 -0.00000000000E+00  0.11368683772E-12  0.17120000000E+03  0.17120000000E+03 0.  0.
         13    1    1    2    0    0 -0.13725031875E+02  0.18231088733E+02  0.74868212532E+02  0.78268828457E+02  0.10566000000E+00 0.  1.
        994    1    1    2    0    0  0.14621543821E+02 -0.12868351302E+02  0.46123900700E+01  0.17236617461E+03  0.17120000000E+03 0.  0.
        998    1    1    2    0    0 -0.89651194601E+00 -0.53627374316E+01  0.14205193937E+04  0.14205649969E+04  0.10000000000E+02 0.  1.
</event>
<event>
 5    1  0.1245771E-008  0.3840637E+03  0.7957747E-01  0.3433653E+00
         13   -1    0    0    0    0  0.00000000000E+00  0.00000000000E+00  0.14999999963E+04  0.15000000000E+04  0.10566000000E+00 0.  1.
        994   -1    0    0    0    0 -0.00000000000E+00 -0.00000000000E+00  0.11368683772E-12  0.17120000000E+03  0.17120000000E+03 0.  0.
         13    1    1    2    0    0 -0.17339725280E+02 -0.18560053505E+00  0.68370185762E+02  0.70535055012E+02  0.10566000000E+00 0.  1.
        994    1    1    2    0    0  0.18748918256E+02 -0.59536064341E+01  0.33732294746E+01  0.17235946752E+03  0.17120000000E+03 0.  0.
        998    1    1    2    0    0 -0.14091929764E+01  0.61392069691E+01  0.14282565810E+04  0.14283054775E+04  0.10000000000E+02 0.  1.
</event>
<event>
 5    1  0.1245771E-008  0.3764973E+03  0.7957747E-01  0.3466553E+00
         13   -1    0    0    0    0  0.00000000000E+00  0.00000000000E+00  0.14999999963E+04  0.15000000000E+04  0.10566000000E+00 0. -1.
        994   -1    0    0    0    0 -0.00000000000E+00 -0.00000000000E+00  0.11368683772E-12  0.17120000000E+03  0.17120000000E+03 0.  0.
         13    1    1    2    0    0  0.77595822857E+02 -0.61958084061E+02  0.27107030991E+03  0.28868501863E+03  0.10566000000E+00 0. -1.
        994    1    1    2    0    0 -0.80245522388E+02  0.61582441569E+02  0.51995388607E+02  0.20553515857E+03  0.17120000000E+03 0.  0.
        998    1    1    2    0    0  0.26496995306E+01  0.37564249191E+00  0.11769342978E+04  0.11769798228E+04  0.10000000000E+02 0.  0.
</event>
<event>
 5    1  0.1245771E-008  0.3852856E+03  0.7957747E-01  0.3428462E+00
         13   -1    0    0    0    0  0.00000000000E+00  0.00000000000E+00  0.14999999963E+04  0.15000000000E+04  0.10566000000E+00 0. -1.
        994   -1    0    0    0    0 -0.00000000000E+00 -0.00000000000E+00  0.11368683772E-12  0.17120000000E+03  0.17120000000E+03 0.  0.
         13    1    1    2    0    0 -0.17811037315E+02 -0.11153036635E+01  0.96676957327E+02  0.98310336153E+02  0.10566000000E+00 0. -1.
        994    1    1    2    0    0  0.24745877513E+02 -0.19068034693E+01  0.35149337058E+01  0.17302540019E+03  0.17120000000E+03 0.  0.
        998    1    1    2    0    0 -0.69348401984E+01  0.30221071328E+01  0.13998081052E+04  0.13998642637E+04  0.10000000000E+02 0. -1.
</event>
<event>
 5    1  0.1245771E-008  0.3824307E+03  0.7957747E-01  0.3440643E+00
         13   -1    0    0    0    0  0.00000000000E+00  0.00000000000E+00  0.14999999963E+04  0.15000000000E+04  0.10566000000E+00 0.  1.
        994   -1    0    0    0    0 -0.00000000000E+00 -0.00000000000E+00  0.11368683772E-12  0.17120000000E+03  0.17120000000E+03 0.  0.
         13    1    1    2    0    0  0.22474164260E+01  0.14922394311E+02  0.38397831273E+02  0.41256918729E+02  0.10566000000E+00 0.  1.
        994    1    1    2    0    0  0.44177064313E+01 -0.90046497604E+01  0.32448566955E+01  0.17152425176E+03  0.17120000000E+03 0.  0.
        998    1    1    2    0    0 -0.66651228573E+01 -0.59177445508E+01  0.14583573083E+04  0.14584188295E+04  0.10000000000E+02 0.  1.
</event>
<event>
 5    1  0.1245771E-008  0.3784217E+03  0.7957747E-01  0.3458060E+00
         13   -1    0    0    0    0  0.00000000000E+00  0.00000000000E+00  0.14999999963E+04  0.15000000000E+04  0.10566000000E+00 0.  1.
        994   -1    0    0    0    0 -0.00000000000E+00 -0.00000000000E+00  0.11368683772E-12  0.17120000000E+03  0.17120000000E+03 0.  0.
         13    1    1    2    0    0  0.49320755519E+02 -0.16546475157E+02  0.32395715374E+02  0.61284715090E+02  0.10566000000E+00 0.  1.
        994    1    1    2    0    0 -0.26610142384E+03  0.48599464111E+02  0.36410548887E+03  0.48482380584E+03  0.17120000000E+03 0.  0.
        998    1    1    2    0    0  0.21678066832E+03 -0.32052988953E+02  0.11034987920E+04  0.11250914791E+04  0.10000000000E+02 0.  1.
</event>
<event>
 5    1  0.1245771E-008  0.3797147E+03  0.7957747E-01  0.3452402E+00
         13   -1    0    0    0    0  0.00000000000E+00  0.00000000000E+00  0.14999999963E+04  0.15000000000E+04  0.10566000000E+00 0.  1.
        994   -1    0    0    0    0 -0.00000000000E+00 -0.00000000000E+00  0.11368683772E-12  0.17120000000E+03  0.17120000000E+03 0.  0.
         13    1    1    2    0    0  0.10409038850E+02  0.14530056793E+02  0.36592700894E+02  0.40724778243E+02  0.10566000000E+00 0.  1.
        994    1    1    2    0    0 -0.68340989772E+01 -0.32829865677E+00  0.44338658179E+01  0.17139402514E+03  0.17120000000E+03 0.  0.
        998    1    1    2    0    0 -0.35749398730E+01 -0.14201758136E+02  0.14589734296E+04  0.14590811966E+04  0.10000000000E+02 0.  1.
</event>
<event>
 5    1  0.1245771E-008  0.3701949E+03  0.7957747E-01  0.3494996E+00
         13   -1    0    0    0    0  0.00000000000E+00  0.00000000000E+00  0.14999999963E+04  0.15000000000E+04  0.10566000000E+00 0.  1.
        994   -1    0    0    0    0 -0.00000000000E+00 -0.00000000000E+00  0.11368683772E-12  0.17120000000E+03  0.17120000000E+03 0.  0.
         13    1    1    2    0    0  0.50213182769E+02 -0.85709843634E+02  0.38685871284E+03  0.39940858264E+03  0.10566000000E+00 0.  1.
        994    1    1    2    0    0 -0.26422349269E+02  0.73838187053E+02  0.32879578887E+02  0.19115628453E+03  0.17120000000E+03 0.  0.
        998    1    1    2    0    0 -0.23790833500E+02  0.11871656581E+02  0.10802617045E+04  0.10806351328E+04  0.10000000000E+02 0.  1.
</event>
<event>
 5    1  0.1245771E-008  0.4043025E+03  0.7957747E-01  0.3351718E+00
         13   -1    0    0    0    0  0.00000000000E+00  0.00000000000E+00  0.14999999963E+04  0.15000000000E+04  0.10566000000E+00 0. -1.
        994   -1    0    0    0    0 -0.00000000000E+00 -0.00000000000E+00  0.11368683772E-12  0.17120000000E+03  0.17120000000E+03 0.  0.
         13    1    1    2    0    0  0.67838770200E+02 -0.18671549692E+02  0.67782809992E+02  0.97699774844E+02  0.10566000000E+00 0. -1.
        994    1    1    2    0    0 -0.71814782951E+02  0.16791266059E+02  0.52393415741E+02  0.19363320913E+03  0.17120000000E+03 0.  0.
        998    1    1    2    0    0  0.39760127503E+01  0.18802836330E+01  0.13798237705E+04  0.13798670160E+04  0.10000000000E+02 0.  0.
</event>
<event>
 5    1  0.1245771E-008  0.3744573E+03  0.7957747E-01  0.3475653E+00
         13   -1    0    0    0    0  0.00000000000E+00  0.00000000000E+00  0.14999999963E+04  0.15000000000E+04  0.10566000000E+00 0. -1.
        994   -1    0    0    0    0 -0.00000000000E+00 -0.00000000000E+00  0.11368683772E-12  0.17120000000E+03  0.17120000000E+03 0.  0.
         13    1    1    2    0    0  0.39963790712E+02  0.88908319757E+01  0.12730868147E+03  0.13372981344E+03  0.10566000000E+00 0. -1.
        994    1    1    2    0    0 -0.61791529020E+01 -0.11893526538E+02  0.75696360428E+01  0.17189059687E+03  0.17120000000E+03 0.  0.
        998    1    1    2    0    0 -0.33784637810E+02  0.30026945619E+01  0.13651216788E+04  0.13655795897E+04  0.10000000000E+02 0. -1.
</event>
<event>
 5    1  0.1245771E-008  0.3796904E+03  0.7957747E-01  0.3452508E+00
         13   -1    0    0    0    0  0.00000000000E+00  0.00000000000E+00  0.14999999963E+04  0.15000000000E+04  0.10566000000E+00 0. -1.
        994   -1    0    0    0    0 -0.00000000000E+00 -0.00000000000E+00  0.11368683772E-12  0.17120000000E+03  0.17120000000E+03 0.  0.
         13    1    1    2    0    0  0.10033790202E+03 -0.17618457552E+02  0.60100369660E+03  0.60957654082E+03  0.10566000000E+00 0. -1.
        994    1    1    2    0    0 -0.11153477407E+03  0.15375403140E+02  0.47947837356E+02  0.21043964445E+03  0.17120000000E+03 0.  0.
        998    1    1    2    0    0  0.11196872051E+02  0.22430544122E+01  0.85104846232E+03  0.85118381473E+03  0.10000000000E+02 0.  0.
</event>
<event>
 5    1  0.1245771E-008  0.3786524E+03  0.7957747E-01  0.3457047E+00
         13   -1    0    0    0    0  0.00000000000E+00  0.00000000000E+00  0.14999999963E+04  0.15000000000E+04  0.10566000000E+00 0. -1.
        994   -1    0    0    0    0 -0.00000000000E+00 -0.00000000000E+00  0.11368683772E-12  0.17120000000E+03  0.17120000000E+03 0.  0.
         13    1    1    2    0    0  0.40444258612E+02  0.95213073063E+02  0.55546443103E+03  0.56501505524E+03  0.10566000000E+00 0. -1.
        994    1    1    2    0    0 -0.49688148722E+02 -0.10764804553E+03  0.53566656355E+02  0.21502520900E+03  0.17120000000E+03 0.  0.
        998    1    1    2    0    0  0.92438901104E+01  0.12434972471E+02  0.89096890889E+03  0.89115973577E+03  0.10000000000E+02 0. -1.
</event>
<event>
 5    1  0.1245771E-008  0.3829987E+03  0.7957747E-01  0.3438205E+00
         13   -1    0    0    0    0  0.00000000000E+00  0.00000000000E+00  0.14999999963E+04  0.15000000000E+04  0.10566000000E+00 0.  1.
        994   -1    0    0    0    0 -0.00000000000E+00 -0.00000000000E+00  0.11368683772E-12  0.17120000000E+03  0.17120000000E+03 0.  0.
         13    1    1    2    0    0 -0.19915863786E+02 -0.28364815818E+01  0.75535528404E+02  0.78168500519E+02  0.10566000000E+00 0.  1.
        994    1    1    2    0    0  0.13616415161E+02  0.80083107594E+01  0.34534603016E+01  0.17196193239E+03  0.17120000000E+03 0.  0.
        998    1    1    2    0    0  0.62994486250E+01 -0.51718291776E+01  0.14210110076E+04  0.14210695671E+04  0.10000000000E+02 0.  1.
</event>
<event>
 5    1  0.1245771E-008  0.3800660E+03  0.7957747E-01  0.3450871E+00
         13   -1    0    0    0    0  0.00000000000E+00  0.00000000000E+00  0.14999999963E+04  0.15000000000E+04  0.10566000000E+00 0. -1.
        994   -1    0    0    0    0 -0.00000000000E+00 -0.00000000000E+00  0.11368683772E-12  0.17120000000E+03  0.17120000000E+03 0.  0.
         13    1    1    2    0    0  0.17456254667E+02  0.12313557812E+02  0.50936257700E+02  0.55234572919E+02  0.10566000000E+00 0. -1.
        994    1    1    2    0    0 -0.19229118136E+02 -0.24741665263E+02  0.73885078513E+01  0.17420085830E+03  0.17120000000E+03 0.  0.
        998    1    1    2    0    0  0.17728634690E+01  0.12428107452E+02  0.14416752307E+04  0.14417645688E+04  0.10000000000E+02 0. -1.
</event>
<event>
 5    1  0.1245771E-008  0.3854956E+03  0.7957747E-01  0.3427573E+00
         13   -1    0    0    0    0  0.00000000000E+00  0.00000000000E+00  0.14999999963E+04  0.15000000000E+04  0.10566000000E+00 0.  1.
        994   -1    0    0    0    0 -0.00000000000E+00 -0.00000000000E+00  0.11368683772E-12  0.17120000000E+03  0.17120000000E+03 0.  0.
         13    1    1    2    0    0 -0.94729417426E+01 -0.11312164336E+02  0.77108038578E+02  0.78507085442E+02  0.10566000000E+00 0.  1.
        994    1    1    2    0    0  0.51354409162E+01  0.12658906988E+02  0.19972755970E+01  0.17175578532E+03  0.17120000000E+03 0.  0.
        998    1    1    2    0    0  0.43375008264E+01 -0.13467426520E+01  0.14208946821E+04  0.14209371292E+04  0.10000000000E+02 0.  1.
</event>
<event>
 5    1  0.1245771E-008  0.3830764E+03  0.7957747E-01  0.3437872E+00
         13   -1    0    0    0    0  0.00000000000E+00  0.00000000000E+00  0.14999999963E+04  0.15000000000E+04  0.10566000000E+00 0. -1.
        994   -1    0    0    0    0 -0.00000000000E+00 -0.00000000000E+00  0.11368683772E-12  0.17120000000E+03  0.17120000000E+03 0.  0.
         13    1    1    2    0    0  0.11428815281E+02 -0.14289339353E+02  0.61943565983E+02  0.64589624311E+02  0.10566000000E+00 0. -1.
        994    1    1    2    0    0 -0.65426998530E+01  0.18099228137E+02  0.38148785522E+01  0.17232057996E+03  0.17120000000E+03 0.  0.
        998    1    1    2    0    0 -0.48861154277E+01 -0.38098887846E+01  0.14342415517E+04  0.14342897957E+04  0.10000000000E+02 0. -1.
</event>
<event>
 5    1  0.1245771E-008  0.3854007E+03  0.7957747E-01  0.3427975E+00
         13   -1    0    0    0    0  0.00000000000E+00  0.00000000000E+00  0.14999999963E+04  0.15000000000E+04  0.10566000000E+00 0.  1.
        994   -1    0    0    0    0 -0.00000000000E+00 -0.00000000000E+00  0.11368683772E-12  0.17120000000E+03  0.17120000000E+03 0.  0.
         13    1    1    2    0    0  0.59002367670E+01  0.11902219465E+02  0.64553967088E+02  0.65906763332E+02  0.10566000000E+00 0.  1.
        994    1    1    2    0    0 -0.65475120242E+01  0.31104794020E+00  0.15724778602E+01  0.17133265699E+03  0.17120000000E+03 0.  0.
        998    1    1    2    0    0  0.64727525718E+00 -0.12213267405E+02  0.14338735513E+04  0.14339605797E+04  0.10000000000E+02 0.  1.
</event>
<event>
 5    1  0.1245771E-008  0.3858265E+03  0.7957747E-01  0.3426175E+00
         13   -1    0    0    0    0  0.00000000000E+00  0.00000000000E+00  0.14999999963E+04  0.15000000000E+04  0.10566000000E+00 0. -1.
        994   -1    0    0    0    0 -0.00000000000E+00 -0.00000000000E+00  0.11368683772E-12  0.17120000000E+03  0.17120000000E+03 0.  0.
         13    1    1    2    0    0  0.85790724367E+01 -0.73153839524E+01  0.53341404782E+02  0.54520014255E+02  0.10566000000E+00 0. -1.
        994    1    1    2    0    0 -0.13104116537E+02 -0.68033529973E+01  0.19357004885E+01  0.17184641520E+03  0.17120000000E+03 0.  0.
        998    1    1    2    0    0  0.45250441004E+01  0.14118736950E+02  0.14447228910E+04  0.14448335705E+04  0.10000000000E+02 0. -1.
</event>
<event>
 5    1  0.1245771E-008  0.3823620E+03  0.7957747E-01  0.3440938E+00
         13   -1    0    0    0    0  0.00000000000E+00  0.00000000000E+00  0.14999999963E+04  0.15000000000E+04  0.10566000000E+00 0. -1.
        994   -1    0    0    0    0 -0.00000000000E+00 -0.00000000000E+00  0.11368683772E-12  0.17120000000E+03  0.17120000000E+03 0.  0.
         13    1    1    2    0    0  0.11918498685E+02  0.18424089926E+02  0.81507269471E+02  0.84409382424E+02  0.10566000000E+00 0. -1.
        994    1    1    2    0    0 -0.13703986158E+02 -0.57539663199E+01  0.36786374499E+01  0.17188333176E+03  0.17120000000E+03 0.  0.
        998    1    1    2    0    0  0.17854874734E+01 -0.12670123606E+02  0.14148140894E+04  0.14149072858E+04  0.10000000000E+02 0. -1.
</event>
<event>
 5    1  0.1245771E-008  0.3853795E+03  0.7957747E-01  0.3428064E+00
         13   -1    0    0    0    0  0.00000000000E+00  0.00000000000E+00  0.14999999963E+04  0.15000000000E+04  0.10566000000E+00 0.  1.
        994   -1    0    0    0    0 -0.00000000000E+00 -0.00000000000E+00  0.11368683772E-12  0.17120000000E+03  0.17120000000E+03 0.  0.
         13    1    1    2    0    0  0.69527829653E+01  0.11401822501E+02  0.61515238377E+02  0.62948220499E+02  0.10566000000E+00 0.  1.
        994    1    1    2    0    0 -0.17486052237E+01 -0.10964933739E+02  0.18469051117E+01  0.17156963149E+03  0.17120000000E+03 0.  0.
        998    1    1    2    0    0 -0.52041777416E+01 -0.43688876239E+00  0.14366378528E+04  0.14366821480E+04  0.10000000000E+02 0.  1.
</event>
<event>
 5    1  0.1405392E-008  0.3865766E+03  0.7957747E-01  0.3423013E+00
         13   -1    0    0    0    0  0.00000000000E+00  0.00000000000E+00  0.14999999963E+04  0.15000000000E+04  0.10566000000E+00 0.  1.
        994   -1    0    0    0    0 -0.00000000000E+00 -0.00000000000E+00  0.11368683772E-12  0.17120000000E+03  0.17120000000E+03 0.  0.
         13    1    1    2    0    0  0.36218167828E+01  0.94020443403E+01  0.60326108180E+02  0.61161805784E+02  0.10566000000E+00 0.  1.
        994    1    1    2    0    0 -0.26578840886E+01 -0.80551292713E+01  0.10848400538E+01  0.17141343685E+03  0.17120000000E+03 0.  0.
        998    1    1    2    0    0 -0.96393269420E+00 -0.13469150690E+01  0.14385890480E+04  0.14386247574E+04  0.10000000000E+02 0.  0.
</event>
<event>
 5    1  0.1245771E-008  0.3800673E+03  0.7957747E-01  0.3450866E+00
         13   -1    0    0    0    0  0.00000000000E+00  0.00000000000E+00  0.14999999963E+04  0.15000000000E+04  0.10566000000E+00 0.  1.
        994   -1    0    0    0    0 -0.00000000000E+00 -0.00000000000E+00  0.11368683772E-12  0.17120000000E+03  0.17120000000E+03 0.  0.
         13    1    1    2    0    0  0.19755342459E+01  0.13257236322E+02  0.20433085042E+02  0.24437249821E+02  0.10566000000E+00 0.  1.
        994    1    1    2    0    0  0.25801089039E+02 -0.89939063972E+01  0.65984086161E+01  0.17349226364E+03  0.17120000000E+03 0.  0.
        998    1    1    2    0    0 -0.27776623285E+02 -0.42633299250E+01  0.14729685026E+04  0.14732704865E+04  0.10000000000E+02 0.  1.
</event>
<event>
 5    1  0.1245771E-008  0.3816813E+03  0.7957747E-01  0.3443870E+00
         13   -1    0    0    0    0  0.00000000000E+00  0.00000000000E+00  0.14999999963E+04  0.15000000000E+04  0.10566000000E+00 0.  1.
        994   -1    0    0    0    0 -0.00000000000E+00 -0.00000000000E+00  0.11368683772E-12  0.17120000000E+03  0.17120000000E+03 0.  0.
         13    1    1    2    0    0  0.45360294163E+01  0.15922656183E+02  0.39651975296E+02  0.42969720172E+02  0.10566000000E+00 0.  1.
        994    1    1    2    0    0 -0.59841818115E+01 -0.15821011348E+02  0.42385965847E+01  0.17208579411E+03  0.17120000000E+03 0.  0.
        998    1    1    2    0    0  0.14481523952E+01 -0.10164483502E+00  0.14561094244E+04  0.14561444857E+04  0.10000000000E+02 0.  1.
</event>
<event>
 5    1  0.1245771E-008  0.3841396E+03  0.7957747E-01  0.3433329E+00
         13   -1    0    0    0    0  0.00000000000E+00  0.00000000000E+00  0.14999999963E+04  0.15000000000E+04  0.10566000000E+00 0. -1.
        994   -1    0    0    0    0 -0.00000000000E+00 -0.00000000000E+00  0.11368683772E-12  0.17120000000E+03  0.17120000000E+03 0.  0.
         13    1    1    2    0    0 -0.49367276983E+01  0.20201319902E+02  0.10886395640E+03  0.11083247166E+03  0.10566000000E+00 0. -1.
        994    1    1    2    0    0 -0.18716101967E+02 -0.13263385158E+02  0.37951848455E+01  0.17277167964E+03  0.17120000000E+03 0.  0.
        998    1    1    2    0    0  0.23652829665E+02 -0.69379347442E+01  0.13873408550E+04  0.13875958487E+04  0.10000000000E+02 0. -1.
</event>
<event>
 5    1  0.1245771E-008  0.3871200E+03  0.7957747E-01  0.3420730E+00
         13   -1    0    0    0    0  0.00000000000E+00  0.00000000000E+00  0.14999999963E+04  0.15000000000E+04  0.10566000000E+00 0. -1.
        994   -1    0    0    0    0 -0.00000000000E+00 -0.00000000000E+00  0.11368683772E-12  0.17120000000E+03  0.17120000000E+03 0.  0.
         13    1    1    2    0    0  0.43134015728E+02 -0.59193111146E+02  0.11937467708E+03  0.14005246307E+03  0.10566000000E+00 0. -1.
        994    1    1    2    0    0 -0.50317536055E+02  0.44013954799E+02  0.37120485420E+02  0.18750054157E+03  0.17120000000E+03 0.  0.
        998    1    1    2    0    0  0.71835203270E+01  0.15179156346E+02  0.13435048338E+04  0.13436469954E+04  0.10000000000E+02 0. -1.
</event>
<event>
 5    1  0.1245771E-008  0.3824377E+03  0.7957747E-01  0.3440612E+00
         13   -1    0    0    0    0  0.00000000000E+00  0.00000000000E+00  0.14999999963E+04  0.15000000000E+04  0.10566000000E+00 0. -1.
        994   -1    0    0    0    0 -0.00000000000E+00 -0.00000000000E+00  0.11368683772E-12  0.17120000000E+03  0.17120000000E+03 0.  0.
         13    1    1    2    0    0 -0.18681920844E+01  0.17167800518E+02  0.50257717230E+02  0.53142006186E+02  0.10566000000E+00 0. -1.
        994    1    1    2    0    0 -0.40853316147E+01 -0.12238663422E+02  0.34598791288E+01  0.17172037031E+03  0.17120000000E+03 0.  0.
        998    1    1    2    0    0  0.59535236990E+01 -0.49291370957E+01  0.14462823999E+04  0.14463376235E+04  0.10000000000E+02 0. -1.
</event>
<event>
 5    1  0.1245771E-008  0.3847387E+03  0.7957747E-01  0.3430781E+00
         13   -1    0    0    0    0  0.00000000000E+00  0.00000000000E+00  0.14999999963E+04  0.15000000000E+04  0.10566000000E+00 0.  1.
        994   -1    0    0    0    0 -0.00000000000E+00 -0.00000000000E+00  0.11368683772E-12  0.17120000000E+03  0.17120000000E+03 0.  0.
         13    1    1    2    0    0  0.17020489177E+02 -0.84249520424E+01  0.10118621673E+03  0.10295308877E+03  0.10566000000E+00 0.  1.
        994    1    1    2    0    0 -0.15938147100E+02 -0.13284833681E+01  0.26022806973E+01  0.17196511642E+03  0.17120000000E+03 0.  0.
        998    1    1    2    0    0 -0.10823420763E+01  0.97534354104E+01  0.13962114989E+04  0.13962817948E+04  0.10000000000E+02 0.  1.
</event>
<event>
 5    1  0.1245771E-008  0.3843968E+03  0.7957747E-01  0.3432235E+00
         13   -1    0    0    0    0  0.00000000000E+00  0.00000000000E+00  0.14999999963E+04  0.15000000000E+04  0.10566000000E+00 0. -1.
        994   -1    0    0    0    0 -0.00000000000E+00 -0.00000000000E+00  0.11368683772E-12  0.17120000000E+03  0.17120000000E+03 0.  0.
         13    1    1    2    0    0 -0.12407895044E+02 -0.51636768944E+00  0.37972532834E+02  0.39951807329E+02  0.10566000000E+00 0. -1.
        994    1    1    2    0    0  0.17376716014E+02  0.30844093777E+01  0.29569029586E+01  0.17213264396E+03  0.17120000000E+03 0.  0.
        998    1    1    2    0    0 -0.49688209704E+01 -0.25680416883E+01  0.14590705605E+04  0.14591155487E+04  0.10000000000E+02 0. -1.
</event>
<event>
 5    1  0.1245771E-008  0.3739217E+03  0.7957747E-01  0.3478060E+00
         13   -1    0    0    0    0  0.00000000000E+00  0.00000000000E+00  0.14999999963E+04  0.15000000000E+04  0.10566000000E+00 0. -1.
        994   -1    0    0    0    0 -0.00000000000E+00 -0.00000000000E+00  0.11368683772E-12  0.17120000000E+03  0.17120000000E+03 0.  0.
         13    1    1    2    0    0 -0.38290206550E+01 -0.12713178305E+02  0.74752636571E+00  0.13298731575E+02  0.10566000000E+00 0. -1.
        994    1    1    2    0    0  0.28989177175E+01  0.11695775663E+02  0.13542498945E+02  0.17215700442E+03  0.17120000000E+03 0.  0.
        998    1    1    2    0    0  0.93010293758E+00  0.10174026425E+01  0.14857099710E+04  0.14857442640E+04  0.10000000000E+02 0. -1.
</event>
<event>
 5    1  0.1245771E-008  0.3697673E+03  0.7957747E-01  0.3496961E+00
         13   -1    0    0    0    0  0.00000000000E+00  0.00000000000E+00  0.14999999963E+04  0.15000000000E+04  0.10566000000E+00 0. -1.
        994   -1    0    0    0    0 -0.00000000000E+00 -0.00000000000E+00  0.11368683772E-12  0.17120000000E+03  0.17120000000E+03 0.  0.
         13    1    1    2    0    0 -0.36939423033E+02 -0.60869890478E+02  0.29631209213E+03  0.30474666798E+03  0.10566000000E+00 0. -1.
        994    1    1    2    0    0 -0.12238542870E+02  0.38275687340E+02  0.14999423574E+02  0.17649145271E+03  0.17120000000E+03 0.  0.
        998    1    1    2    0    0  0.49177965904E+02  0.22594203138E+02  0.11886884806E+04  0.11899618793E+04  0.10000000000E+02 0. -1.
</event>
<event>
 5    1  0.1245771E-008  0.3847287E+03  0.7957747E-01  0.3430824E+00
         13   -1    0    0    0    0  0.00000000000E+00  0.00000000000E+00  0.14999999963E+04  0.15000000000E+04  0.10566000000E+00 0.  1.
        994   -1    0    0    0    0 -0.00000000000E+00 -0.00000000000E+00  0.11368683772E-12  0.17120000000E+03  0.17120000000E+03 0.  0.
         13    1    1    2    0    0 -0.15167014837E+02 -0.40730064866E+01  0.68729839338E+02  0.70501274459E+02  0.10566000000E+00 0.  1.
        994    1    1    2    0    0  0.11759673286E+02  0.49600168909E+01  0.23012578544E+01  0.17169049907E+03  0.17120000000E+03 0.  0.
        998    1    1    2    0    0  0.34073415516E+01 -0.88701040435E+00  0.14289688991E+04  0.14290082265E+04  0.10000000000E+02 0.  0.
</event>
<event>
 5    1  0.1245771E-008  0.3857047E+03  0.7957747E-01  0.3426689E+00
         13   -1    0    0    0    0  0.00000000000E+00  0.00000000000E+00  0.14999999963E+04  0.15000000000E+04  0.10566000000E+00 0. -1.
        994   -1    0    0    0    0 -0.00000000000E+00 -0.00000000000E+00  0.11368683772E-12  0.17120000000E+03  0.17120000000E+03 0.  0.
         13    1    1    2    0    0 -0.13366356109E+02  0.13146562252E+00  0.65691643213E+02  0.67037899064E+02  0.10566000000E+00 0. -1.
        994    1    1    2    0    0  0.18423017084E+02 -0.53180402116E+00  0.23960527133E+01  0.17220589840E+03  0.17120000000E+03 0.  0.
        998    1    1    2    0    0 -0.50566609753E+01  0.40033839864E+00  0.14319123004E+04  0.14319562025E+04  0.10000000000E+02 0. -1.
</event>
<event>
 5    1  0.1245771E-008  0.3846382E+03  0.7957747E-01  0.3431208E+00
         13   -1    0    0    0    0  0.00000000000E+00  0.00000000000E+00  0.14999999963E+04  0.15000000000E+04  0.10566000000E+00 0.  1.
        994   -1    0    0    0    0 -0.00000000000E+00 -0.00000000000E+00  0.11368683772E-12  0.17120000000E+03  0.17120000000E+03 0.  0.
         13    1    1    2    0    0 -0.98915271135E+01  0.20350464246E+01  0.27325115336E+02  0.29131714930E+02  0.10566000000E+00 0.  1.
        994    1    1    2    0    0  0.95146094526E+01 -0.82311551099E+01  0.23311755640E+01  0.17167747111E+03  0.17120000000E+03 0.  0.
        998    1    1    2    0    0  0.37691766085E+00  0.61961086853E+01  0.14703437054E+04  0.14703908140E+04  0.10000000000E+02 0.  1.
</event>
<event>
 5    1  0.1245771E-008  0.3703392E+03  0.7957747E-01  0.3494333E+00
         13   -1    0    0    0    0  0.00000000000E+00  0.00000000000E+00  0.14999999963E+04  0.15000000000E+04  0.10566000000E+00 0. -1.
        994   -1    0    0    0    0 -0.00000000000E+00 -0.00000000000E+00  0.11368683772E-12  0.17120000000E+03  0.17120000000E+03 0.  0.
         13    1    1    2    0    0  0.26093803157E+01 -0.51277806186E+02  0.10379299343E+03  0.11579818186E+03  0.10566000000E+00 0. -1.
        994    1    1    2    0    0 -0.14954304626E+02  0.59563948636E+02  0.24438324500E+02  0.18351612166E+03  0.17120000000E+03 0.  0.
        998    1    1    2    0    0  0.12344924310E+02 -0.82861424500E+01  0.13717686784E+04  0.13718856965E+04  0.10000000000E+02 0. -1.
</event>
<event>
 5    1  0.1245771E-008  0.3867907E+03  0.7957747E-01  0.3422113E+00
         13   -1    0    0    0    0  0.00000000000E+00  0.00000000000E+00  0.14999999963E+04  0.15000000000E+04  0.10566000000E+00 0.  1.
        994   -1    0    0    0    0 -0.00000000000E+00 -0.00000000000E+00  0.11368683772E-12  0.17120000000E+03  0.17120000000E+03 0.  0.
         13    1    1    2    0    0 -0.50676461904E+02 -0.81093844021E+02  0.19843637653E+03  0.22027555930E+03  0.10566000000E+00 0.  1.
        994    1    1    2    0    0  0.56248410578E+02  0.67998328927E+02  0.49666714746E+02  0.19890670925E+03  0.17120000000E+03 0.  0.
        998    1    1    2    0    0 -0.55719486745E+01  0.13095515093E+02  0.12518969050E+04  0.12520177315E+04  0.10000000000E+02 0.  1.
</event>
<event>
 5    1  0.1245771E-008  0.3807933E+03  0.7957747E-01  0.3447712E+00
         13   -1    0    0    0    0  0.00000000000E+00  0.00000000000E+00  0.14999999963E+04  0.15000000000E+04  0.10566000000E+00 0.  1.
        994   -1    0    0    0    0 -0.00000000000E+00 -0.00000000000E+00  0.11368683772E-12  0.17120000000E+03  0.17120000000E+03 0.  0.
         13    1    1    2    0    0  0.30099274284E+02  0.13470921371E+02  0.17410220160E+03  0.17719768565E+03  0.10566000000E+00 0.  1.
        994    1    1    2    0    0 -0.75781601173E+01  0.28274887931E+02  0.65955476773E+01  0.17380977834E+03  0.17120000000E+03 0.  0.
        998    1    1    2    0    0 -0.22521114167E+02 -0.41745809302E+02  0.13193022470E+04  0.13201925360E+04  0.10000000000E+02 0.  1.
</event>
<event>
 5    1  0.1245771E-008  0.3755427E+03  0.7957747E-01  0.3470799E+00
         13   -1    0    0    0    0  0.00000000000E+00  0.00000000000E+00  0.14999999963E+04  0.15000000000E+04  0.10566000000E+00 0.  1.
        994   -1    0    0    0    0 -0.00000000000E+00 -0.00000000000E+00  0.11368683772E-12  0.17120000000E+03  0.17120000000E+03 0.  0.
         13    1    1    2    0    0 -0.50269192110E+01 -0.87020512957E+01  0.49204240989E+01  0.11190055892E+02  0.10566000000E+00 0.  1.
        994    1    1    2    0    0  0.34549526852E+01  0.75203792727E+01  0.66327260507E+01  0.17152820718E+03  0.17120000000E+03 0.  0.
        998    1    1    2    0    0  0.15719665258E+01  0.11816720230E+01  0.14884468461E+04  0.14884817369E+04  0.10000000000E+02 0.  1.
</event>
<event>
 5    1  0.1245771E-008  0.3826345E+03  0.7957747E-01  0.3439767E+00
         13   -1    0    0    0    0  0.00000000000E+00  0.00000000000E+00  0.14999999963E+04  0.15000000000E+04  0.10566000000E+00 0.  1.
        994   -1    0    0    0    0 -0.00000000000E+00 -0.00000000000E+00  0.11368683772E-12  0.17120000000E+03  0.17120000000E+03 0.  0.
         13    1    1    2    0    0  0.11037158177E+02  0.13486134116E+01  0.20667938972E+02  0.23469394627E+02  0.10566000000E+00 0.  1.
        994    1    1    2    0    0 -0.10656163282E+02 -0.12264314988E+02  0.36844246747E+01  0.17200866904E+03  0.17120000000E+03 0.  0.
        998    1    1    2    0    0 -0.38099489509E+00  0.10915701576E+02  0.14756476326E+04  0.14757219363E+04  0.10000000000E+02 0.  1.
</event>
<event>
 5    1  0.1245771E-008  0.3854010E+03  0.7957747E-01  0.3427973E+00
         13   -1    0    0    0    0  0.00000000000E+00  0.00000000000E+00  0.14999999963E+04  0.15000000000E+04  0.10566000000E+00 0.  1.
        994   -1    0    0    0    0 -0.00000000000E+00 -0.00000000000E+00  0.11368683772E-12  0.17120000000E+03  0.17120000000E+03 0.  0.
         13    1    1    2    0    0  0.88807642428E+01  0.10826782122E+02  0.72765978225E+02  0.74101187141E+02  0.10566000000E+00 0.  1.
        994    1    1    2    0    0  0.48913660570E+01 -0.59484663799E+01  0.16259869404E+01  0.17138084358E+03  0.17120000000E+03 0.  0.
        998    1    1    2    0    0 -0.13772130300E+02 -0.48783157417E+01  0.14256080311E+04  0.14257179693E+04  0.10000000000E+02 0.  1.
</event>
<event>
 5    1  0.1245771E-008  0.3839463E+03  0.7957747E-01  0.3434153E+00
         13   -1    0    0    0    0  0.00000000000E+00  0.00000000000E+00  0.14999999963E+04  0.15000000000E+04  0.10566000000E+00 0. -1.
        994   -1    0    0    0    0 -0.00000000000E+00 -0.00000000000E+00  0.11368683772E-12  0.17120000000E+03  0.17120000000E+03 0.  0.
         13    1    1    2    0    0  0.41166862065E+01  0.20569156616E+02  0.10161196982E+03  0.10375471500E+03  0.10566000000E+00 0. -1.
        994    1    1    2    0    0 -0.12728063530E+02 -0.11111262487E+02  0.30967659770E+01  0.17205956444E+03  0.17120000000E+03 0.  0.
        998    1    1    2    0    0  0.86113773233E+01 -0.94578941295E+01  0.13952912605E+04  0.13953857206E+04  0.10000000000E+02 0. -1.
</event>
<event>
 5    1  0.1245771E-008  0.3820519E+03  0.7957747E-01  0.3442272E+00
         13   -1    0    0    0    0  0.00000000000E+00  0.00000000000E+00  0.14999999963E+04  0.15000000000E+04  0.10566000000E+00 0.  1.
        994   -1    0    0    0    0 -0.00000000000E+00 -0.00000000000E+00  0.11368683772E-12  0.17120000000E+03  0.17120000000E+03 0.  0.
         13    1    1    2    0    0 -0.14130971449E+02  0.12397999354E+02  0.55819077027E+02  0.58899705146E+02  0.10566000000E+00 0.  1.
        994    1    1    2    0    0  0.16072931717E+02 -0.10760965297E+01  0.39630185914E+01  0.17200186811E+03  0.17120000000E+03 0.  0.
        998    1    1    2    0    0 -0.19419602677E+01 -0.11321902824E+02  0.14402179007E+04  0.14402984267E+04  0.10000000000E+02 0.  1.
</event>
<event>
 5    1  0.1245771E-008  0.3854388E+03  0.7957747E-01  0.3427813E+00
         13   -1    0    0    0    0  0.00000000000E+00  0.00000000000E+00  0.14999999963E+04  0.15000000000E+04  0.10566000000E+00 0.  1.
        994   -1    0    0    0    0 -0.00000000000E+00 -0.00000000000E+00  0.11368683772E-12  0.17120000000E+03  0.17120000000E+03 0.  0.
         13    1    1    2    0    0  0.92391859006E+01 -0.94106830492E+01  0.67438950610E+02  0.68716422600E+02  0.10566000000E+00 0.  1.
        994    1    1    2    0    0  0.16079948608E+02  0.11488276042E+02  0.26960130219E+01  0.17235792329E+03  0.17120000000E+03 0.  0.
        998    1    1    2    0    0 -0.25319134509E+02 -0.20775929933E+01  0.14298650326E+04  0.14301256541E+04  0.10000000000E+02 0.  1.
</event>
<event>
 5    1  0.1245771E-008  0.3942793E+03  0.7957747E-01  0.3391246E+00
         13   -1    0    0    0    0  0.00000000000E+00  0.00000000000E+00  0.14999999963E+04  0.15000000000E+04  0.10566000000E+00 0. -1.
        994   -1    0    0    0    0 -0.00000000000E+00 -0.00000000000E+00  0.11368683772E-12  0.17120000000E+03  0.17120000000E+03 0.  0.
         13    1    1    2    0    0  0.57872169961E+02  0.39370044612E+02  0.10258674762E+03  0.12419033948E+03  0.10566000000E+00 0. -1.
        994    1    1    2    0    0  0.53636447042E+01 -0.33065215017E+02  0.28707178594E+02  0.17679258817E+03  0.17120000000E+03 0.  0.
        998    1    1    2    0    0 -0.63235814665E+02 -0.63048295956E+01  0.13687060701E+04  0.13702170724E+04  0.10000000000E+02 0. -1.
</event>
<event>
 5    1  0.1245771E-008  0.3799113E+03  0.7957747E-01  0.3451545E+00
         13   -1    0    0    0    0  0.00000000000E+00  0.00000000000E+00  0.14999999963E+04  0.15000000000E+04  0.10566000000E+00 0.  1.
        994   -1    0    0    0    0 -0.00000000000E+00 -0.00000000000E+00  0.11368683772E-12  0.17120000000E+03  0.17120000000E+03 0.  0.
         13    1    1    2    0    0 -0.11511401891E+02  0.30954934464E+02  0.27603682595E+02  0.43042941326E+02  0.10566000000E+00 0.  1.
        994    1    1    2    0    0  0.17878666123E+01 -0.15101980540E+02  0.17116751508E+02  0.17272431637E+03  0.17120000000E+03 0.  0.
        998    1    1    2    0    0  0.97235352785E+01 -0.15852953924E+02  0.14552795622E+04  0.14554327423E+04  0.10000000000E+02 0.  1.
</event>
<event>
 5    1  0.1245771E-008  0.2067119E+03  0.7957747E-01  0.4919722E+00
         13   -1    0    0    0    0  0.00000000000E+00  0.00000000000E+00  0.14999999963E+04  0.15000000000E+04  0.10566000000E+00 0.  1.
        994   -1    0    0    0    0 -0.00000000000E+00 -0.00000000000E+00  0.11368683772E-12  0.17120000000E+03  0.17120000000E+03 0.  0.
         13    1    1    2    0    0 -0.76638915503E+02  0.16359113392E+02  0.18981620185E+02  0.80631613089E+02  0.10566000000E+00 0.  1.
        994    1    1    2    0    0  0.71257749490E+02 -0.17574816902E+02  0.10367395580E+03  0.21317661730E+03  0.17120000000E+03 0.  0.
        998    1    1    2    0    0  0.53811660123E+01  0.12157035100E+01  0.13773444203E+04  0.13773917696E+04  0.10000000000E+02 0.  1.
</event>
<event>
 5    1  0.1245771E-008  0.3849530E+03  0.7957747E-01  0.3429872E+00
         13   -1    0    0    0    0  0.00000000000E+00  0.00000000000E+00  0.14999999963E+04  0.15000000000E+04  0.10566000000E+00 0. -1.
        994   -1    0    0    0    0 -0.00000000000E+00 -0.00000000000E+00  0.11368683772E-12  0.17120000000E+03  0.17120000000E+03 0.  0.
         13    1    1    2    0    0 -0.46723006971E+01 -0.12331294781E+02  0.53372794442E+02  0.54977791656E+02  0.10566000000E+00 0. -1.
        994    1    1    2    0    0  0.70128483861E+01  0.37687445564E+01  0.18619989496E+01  0.17139512980E+03  0.17120000000E+03 0.  0.
        998    1    1    2    0    0 -0.23405476891E+01  0.85625502244E+01  0.14447652029E+04  0.14448270785E+04  0.10000000000E+02 0. -1.
</event>
<event>
 5    1  0.1245771E-008  0.3777825E+03  0.7957747E-01  0.3460871E+00
         13   -1    0    0    0    0  0.00000000000E+00  0.00000000000E+00  0.14999999963E+04  0.15000000000E+04  0.10566000000E+00 0. -1.
        994   -1    0    0    0    0 -0.00000000000E+00 -0.00000000000E+00  0.11368683772E-12  0.17120000000E+03  0.17120000000E+03 0.  0.
         13    1    1    2    0    0  0.20363212996E+02  0.13255786077E+02  0.49178550685E+02  0.54853598967E+02  0.10566000000E+00 0. -1.
        994    1    1    2    0    0 -0.29998375486E+02 -0.34332906662E+02  0.12289002963E+02  0.17759254096E+03  0.17120000000E+03 0.  0.
        998    1    1    2    0    0  0.96351624899E+01  0.21077120585E+02  0.14385324426E+04  0.14387538601E+04  0.10000000000E+02 0. -1.
</event>
<event>
 5    1  0.1245771E-008  0.3786756E+03  0.7957747E-01  0.3456946E+00
         13   -1    0    0    0    0  0.00000000000E+00  0.00000000000E+00  0.14999999963E+04  0.15000000000E+04  0.10566000000E+00 0.  1.
        994   -1    0    0    0    0 -0.00000000000E+00 -0.00000000000E+00  0.11368683772E-12  0.17120000000E+03  0.17120000000E+03 0.  0.
         13    1    1    2    0    0  0.30937442467E+01 -0.25326960526E+02  0.63271872627E+02  0.68222922927E+02  0.10566000000E+00 0.  1.
        994    1    1    2    0    0 -0.78523923703E+00  0.27095167149E+02  0.72741935553E+01  0.17348521140E+03  0.17120000000E+03 0.  0.
        998    1    1    2    0    0 -0.23085050097E+01 -0.17682066227E+01  0.14294539301E+04  0.14294918657E+04  0.10000000000E+02 0.  1.
</event>
<event>
 5    1  0.1245771E-008  0.3789338E+03  0.7957747E-01  0.3455814E+00
         13   -1    0    0    0    0  0.00000000000E+00  0.00000000000E+00  0.14999999963E+04  0.15000000000E+04  0.10566000000E+00 0.  1.
        994   -1    0    0    0    0 -0.00000000000E+00 -0.00000000000E+00  0.11368683772E-12  0.17120000000E+03  0.17120000000E+03 0.  0.
         13    1    1    2    0    0  0.21367368055E+02  0.30682450554E+02  0.13962051400E+03  0.14454022376E+03  0.10566000000E+00 0.  1.
        994    1    1    2    0    0 -0.21559795174E+02 -0.24284568984E+02  0.82182264415E+01  0.17444639378E+03  0.17120000000E+03 0.  0.
        998    1    1    2    0    0  0.19242711913E+00 -0.63978815700E+01  0.13521612558E+04  0.13522133825E+04  0.10000000000E+02 0.  1.
</event>
<event>
 5    1  0.1245771E-008  0.3823425E+03  0.7957747E-01  0.3441022E+00
         13   -1    0    0    0    0  0.00000000000E+00  0.00000000000E+00  0.14999999963E+04  0.15000000000E+04  0.10566000000E+00 0. -1.
        994   -1    0    0    0    0 -0.00000000000E+00 -0.00000000000E+00  0.11368683772E-12  0.17120000000E+03  0.17120000000E+03 0.  0.
         13    1    1    2    0    0  0.18812018030E+02  0.23394310343E+02  0.15175760150E+03  0.15469830819E+03  0.10566000000E+00 0. -1.
        994    1    1    2    0    0 -0.27331847293E+01 -0.20619607731E+02  0.43917859188E+01  0.17251482923E+03  0.17120000000E+03 0.  0.
        998    1    1    2    0    0 -0.16078833300E+02 -0.27747026122E+01  0.13438506089E+04  0.13439868626E+04  0.10000000000E+02 0. -1.
</event>
<event>
 5    1  0.1245771E-008  0.3767521E+03  0.7957747E-01  0.3465424E+00
         13   -1    0    0    0    0  0.00000000000E+00  0.00000000000E+00  0.14999999963E+04  0.15000000000E+04  0.10566000000E+00 0. -1.
        994   -1    0    0    0    0 -0.00000000000E+00 -0.00000000000E+00  0.11368683772E-12  0.17120000000E+03  0.17120000000E+03 0.  0.
         13    1    1    2    0    0  0.23576633696E+02  0.12280669618E+03  0.61947033222E+03  0.63196585821E+03  0.10566000000E+00 0. -1.
        994    1    1    2    0    0  0.19485724325E+01 -0.59769843503E+02  0.27474056466E+02  0.18341345345E+03  0.17120000000E+03 0.  0.
        998    1    1    2    0    0 -0.25525206129E+02 -0.63036852676E+02  0.85305560759E+03  0.85582068834E+03  0.10000000000E+02 0. -1.
</event>
<event>
 5    1  0.1245771E-008  0.3843212E+03  0.7957747E-01  0.3432556E+00
         13   -1    0    0    0    0  0.00000000000E+00  0.00000000000E+00  0.14999999963E+04  0.15000000000E+04  0.10566000000E+00 0. -1.
        994   -1    0    0    0    0 -0.00000000000E+00 -0.00000000000E+00  0.11368683772E-12  0.17120000000E+03  0.17120000000E+03 0.  0.
         13    1    1    2    0    0 -0.14126782685E+02  0.75911922977E+01  0.65547534720E+02  0.67480979998E+02  0.10566000000E+00 0. -1.
        994    1    1    2    0    0  0.84097399686E+01 -0.37604555176E+01  0.22472867401E+01  0.17146240127E+03  0.17120000000E+03 0.  0.
        998    1    1    2    0    0  0.57170427169E+01 -0.38307367802E+01  0.14322051748E+04  0.14322566187E+04  0.10000000000E+02 0. -1.
</event>
<event>
 5    1  0.1245771E-008  0.3738510E+03  0.7957747E-01  0.3478377E+00
         13   -1    0    0    0    0  0.00000000000E+00  0.00000000000E+00  0.14999999963E+04  0.15000000000E+04  0.10566000000E+00 0. -1.
        994   -1    0    0    0    0 -0.00000000000E+00 -0.00000000000E+00  0.11368683772E-12  0.17120000000E+03  0.17120000000E+03 0.  0.
         13    1    1    2    0    0 -0.36620848987E+02  0.27748840552E+02  0.14200792774E+03  0.14925597957E+03  0.10566000000E+00 0. -1.
        994    1    1    2    0    0  0.16385339759E+02 -0.25575214023E+02  0.10424594838E+02  0.17418577183E+03  0.17120000000E+03 0.  0.
        998    1    1    2    0    0  0.20235509228E+02 -0.21736265288E+01  0.13475674737E+04  0.13477582486E+04  0.10000000000E+02 0. -1.
</event>
<event>
 5    1  0.1245771E-008  0.3813141E+03  0.7957747E-01  0.3445457E+00
         13   -1    0    0    0    0  0.00000000000E+00  0.00000000000E+00  0.14999999963E+04  0.15000000000E+04  0.10566000000E+00 0.  1.
        994   -1    0    0    0    0 -0.00000000000E+00 -0.00000000000E+00  0.11368683772E-12  0.17120000000E+03  0.17120000000E+03 0.  0.
         13    1    1    2    0    0  0.29170777083E+01  0.40694341716E+02  0.20144836330E+03  0.20553830064E+03  0.10566000000E+00 0.  1.
        994    1    1    2    0    0  0.29287028894E+01 -0.45604459820E+02  0.10453662997E+02  0.17750229048E+03  0.17120000000E+03 0.  0.
        998    1    1    2    0    0 -0.58457805977E+01  0.49101181039E+01  0.12880979700E+04  0.12881594089E+04  0.10000000000E+02 0.  1.
</event>
<event>
 5    1  0.1245771E-008  0.3823236E+03  0.7957747E-01  0.3441103E+00
         13   -1    0    0    0    0  0.00000000000E+00  0.00000000000E+00  0.14999999963E+04  0.15000000000E+04  0.10566000000E+00 0.  1.
        994   -1    0    0    0    0 -0.00000000000E+00 -0.00000000000E+00  0.11368683772E-12  0.17120000000E+03  0.17120000000E+03 0.  0.
         13    1    1    2    0    0 -0.72728572242E+00  0.15323865261E+02  0.41901993183E+02  0.44622169241E+02  0.10566000000E+00 0.  1.
        994    1    1    2    0    0  0.39446954422E+01  0.99905508444E+01  0.33476093173E+01  0.17156928110E+03  0.17120000000E+03 0.  0.
        998    1    1    2    0    0 -0.32174097198E+01 -0.25314416105E+02  0.14547503938E+04  0.14550085497E+04  0.10000000000E+02 0.  1.
</event>
<event>
 5    1  0.1245771E-008  0.3716040E+03  0.7957747E-01  0.3488552E+00
         13   -1    0    0    0    0  0.00000000000E+00  0.00000000000E+00  0.14999999963E+04  0.15000000000E+04  0.10566000000E+00 0. -1.
        994   -1    0    0    0    0 -0.00000000000E+00 -0.00000000000E+00  0.11368683772E-12  0.17120000000E+03  0.17120000000E+03 0.  0.
         13    1    1    2    0    0 -0.60070455075E+02  0.12785575412E+03  0.57164581578E+03  0.58884166233E+03  0.10566000000E+00 0. -1.
        994    1    1    2    0    0  0.58870211697E+02 -0.11210886909E+03  0.70509958708E+02  0.22431048712E+03  0.17120000000E+03 0.  0.
        998    1    1    2    0    0  0.12002433781E+01 -0.15746885029E+02  0.85784422179E+03  0.85804785055E+03  0.10000000000E+02 0.  1.
</event>
<event>
 5    1  0.1245771E-008  0.3808974E+03  0.7957747E-01  0.3447260E+00
         13   -1    0    0    0    0  0.00000000000E+00  0.00000000000E+00  0.14999999963E+04  0.15000000000E+04  0.10566000000E+00 0.  1.
        994   -1    0    0    0    0 -0.00000000000E+00 -0.00000000000E+00  0.11368683772E-12  0.17120000000E+03  0.17120000000E+03 0.  0.
         13    1    1    2    0    0 -0.37116493625E+02 -0.49056155640E+02  0.33670271307E+03  0.34227601239E+03  0.10566000000E+00 0.  1.
        994    1    1    2    0    0  0.29403798639E+02  0.76694442822E+02  0.26504547484E+02  0.19172519910E+03  0.17120000000E+03 0.  0.
        998    1    1    2    0    0  0.77126949858E+01 -0.27638287183E+02  0.11367927357E+04  0.11371987885E+04  0.10000000000E+02 0.  1.
</event>
<event>
 5    1  0.1245771E-008  0.3846608E+03  0.7957747E-01  0.3431112E+00
         13   -1    0    0    0    0  0.00000000000E+00  0.00000000000E+00  0.14999999963E+04  0.15000000000E+04  0.10566000000E+00 0. -1.
        994   -1    0    0    0    0 -0.00000000000E+00 -0.00000000000E+00  0.11368683772E-12  0.17120000000E+03  0.17120000000E+03 0.  0.
         13    1    1    2    0    0 -0.19728107635E+02 -0.52559358816E+01  0.10738388526E+03  0.10930751607E+03  0.10566000000E+00 0. -1.
        994    1    1    2    0    0  0.21523433162E+02  0.69207144355E+01  0.34833108270E+01  0.17272153287E+03  0.17120000000E+03 0.  0.
        998    1    1    2    0    0 -0.17953255270E+01 -0.16647785539E+01  0.13891328002E+04  0.13891709511E+04  0.10000000000E+02 0. -1.
</event>
<event>
 5    1  0.1245771E-008  0.3762422E+03  0.7957747E-01  0.3467686E+00
         13   -1    0    0    0    0  0.00000000000E+00  0.00000000000E+00  0.14999999963E+04  0.15000000000E+04  0.10566000000E+00 0. -1.
        994   -1    0    0    0    0 -0.00000000000E+00 -0.00000000000E+00  0.11368683772E-12  0.17120000000E+03  0.17120000000E+03 0.  0.
         13    1    1    2    0    0 -0.27194449745E+02  0.21072882812E+02  0.91175260715E+02  0.97450211993E+02  0.10566000000E+00 0. -1.
        994    1    1    2    0    0  0.25807074262E+02 -0.20383921897E+02  0.97118550304E+01  0.17460031352E+03  0.17120000000E+03 0.  0.
        998    1    1    2    0    0  0.13873754833E+01 -0.68896091499E+00  0.13991128805E+04  0.13991494745E+04  0.10000000000E+02 0. -1.
</event>
<event>
 5    1  0.1561949E-008  0.3861547E+03  0.7957747E-01  0.3424790E+00
         13   -1    0    0    0    0  0.00000000000E+00  0.00000000000E+00  0.14999999963E+04  0.15000000000E+04  0.10566000000E+00 0. -1.
        994   -1    0    0    0    0 -0.00000000000E+00 -0.00000000000E+00  0.11368683772E-12  0.17120000000E+03  0.17120000000E+03 0.  0.
         13    1    1    2    0    0 -0.15595561391E+01 -0.12461640066E+02  0.74511485274E+02  0.75562538935E+02  0.10566000000E+00 0. -1.
        994    1    1    2    0    0  0.63661964932E+01  0.93588085438E+01  0.14777797906E+01  0.17158012585E+03  0.17120000000E+03 0.  0.
        998    1    1    2    0    0 -0.48066403541E+01  0.31028315217E+01  0.14240107312E+04  0.14240573352E+04  0.10000000000E+02 0. -1.
</event>
<event>
 5    1  0.1245771E-008  0.3782617E+03  0.7957747E-01  0.3458763E+00
         13   -1    0    0    0    0  0.00000000000E+00  0.00000000000E+00  0.14999999963E+04  0.15000000000E+04  0.10566000000E+00 0. -1.
        994   -1    0    0    0    0 -0.00000000000E+00 -0.00000000000E+00  0.11368683772E-12  0.17120000000E+03  0.17120000000E+03 0.  0.
         13    1    1    2    0    0  0.13334715256E+02  0.20371298156E+02  0.12522335381E+02  0.27379270753E+02  0.10566000000E+00 0. -1.
        994    1    1    2    0    0 -0.79820161058E+01 -0.22826234628E+02  0.17483851245E+02  0.17378111124E+03  0.17120000000E+03 0.  0.
        998    1    1    2    0    0 -0.53526991506E+01  0.24549364727E+01  0.14699938097E+04  0.14700396180E+04  0.10000000000E+02 0. -1.
</event>
<event>
 5    1  0.1245771E-008  0.3816344E+03  0.7957747E-01  0.3444073E+00
         13   -1    0    0    0    0  0.00000000000E+00  0.00000000000E+00  0.14999999963E+04  0.15000000000E+04  0.10566000000E+00 0.  1.
        994   -1    0    0    0    0 -0.00000000000E+00 -0.00000000000E+00  0.11368683772E-12  0.17120000000E+03  0.17120000000E+03 0.  0.
         13    1    1    2    0    0 -0.15085865348E+02  0.27455752731E+01  0.33131261732E+02  0.36507714046E+02  0.10566000000E+00 0.  1.
        994    1    1    2    0    0  0.21671492032E+02  0.55603929794E+01  0.49765446074E+01  0.17272746606E+03  0.17120000000E+03 0.  0.
        998    1    1    2    0    0 -0.65856266842E+01 -0.83059682525E+01  0.14618921899E+04  0.14619648199E+04  0.10000000000E+02 0.  1.
</event>
<event>
 5    1  0.1245771E-008  0.3768411E+03  0.7957747E-01  0.3465030E+00
         13   -1    0    0    0    0  0.00000000000E+00  0.00000000000E+00  0.14999999963E+04  0.15000000000E+04  0.10566000000E+00 0.  1.
        994   -1    0    0    0    0 -0.00000000000E+00 -0.00000000000E+00  0.11368683772E-12  0.17120000000E+03  0.17120000000E+03 0.  0.
         13    1    1    2    0    0  0.11373437714E+02 -0.42637260857E+01  0.10462997829E+02  0.16031841228E+02  0.10566000000E+00 0.  1.
        994    1    1    2    0    0 -0.67488058101E+01 -0.14638762081E+02  0.66146091693E+01  0.17208437695E+03  0.17120000000E+03 0.  0.
        998    1    1    2    0    0 -0.46246319038E+01  0.18902488167E+02  0.14829223893E+04  0.14830837818E+04  0.10000000000E+02 0.  1.
</event>
<event>
 5    1  0.1245771E-008  0.3812635E+03  0.7957747E-01  0.3445675E+00
         13   -1    0    0    0    0  0.00000000000E+00  0.00000000000E+00  0.14999999963E+04  0.15000000000E+04  0.10566000000E+00 0. -1.
        994   -1    0    0    0    0 -0.00000000000E+00 -0.00000000000E+00  0.11368683772E-12  0.17120000000E+03  0.17120000000E+03 0.  0.
         13    1    1    2    0    0  0.14330117927E+01 -0.10808843549E+02  0.16326489087E+02  0.19632881389E+02  0.10566000000E+00 0. -1.
        994    1    1    2    0    0 -0.26125645099E-01 -0.11098183475E+02  0.39068208818E+01  0.17160382749E+03  0.17120000000E+03 0.  0.
        998    1    1    2    0    0 -0.14068861476E+01  0.21907027024E+02  0.14797666863E+04  0.14799632911E+04  0.10000000000E+02 0. -1.
</event>
<event>
 5    1  0.1245771E-008  0.3852827E+03  0.7957747E-01  0.3428474E+00
         13   -1    0    0    0    0  0.00000000000E+00  0.00000000000E+00  0.14999999963E+04  0.15000000000E+04  0.10566000000E+00 0.  1.
        994   -1    0    0    0    0 -0.00000000000E+00 -0.00000000000E+00  0.11368683772E-12  0.17120000000E+03  0.17120000000E+03 0.  0.
         13    1    1    2    0    0  0.10088662973E+02 -0.90428035454E+00  0.34722196383E+02  0.36169613341E+02  0.10566000000E+00 0.  1.
        994    1    1    2    0    0 -0.51698098679E+01 -0.35109758737E+01  0.16181614913E+01  0.17132166335E+03  0.17120000000E+03 0.  0.
        998    1    1    2    0    0 -0.49188531050E+01  0.44152562283E+01  0.14636596384E+04  0.14637087233E+04  0.10000000000E+02 0.  1.
</event>
<event>
 5    1  0.1245771E-008  0.3718191E+03  0.7957747E-01  0.3487572E+00
         13   -1    0    0    0    0  0.00000000000E+00  0.00000000000E+00  0.14999999963E+04  0.15000000000E+04  0.10566000000E+00 0.  1.
        994   -1    0    0    0    0 -0.00000000000E+00 -0.00000000000E+00  0.11368683772E-12  0.17120000000E+03  0.17120000000E+03 0.  0.
         13    1    1    2    0    0 -0.57267691240E+02 -0.53283273388E+01  0.22795389913E+03  0.23509778992E+03  0.10566000000E+00 0.  1.
        994    1    1    2    0    0  0.81028571009E+01  0.20649982926E+01  0.85616100679E+01  0.17161777786E+03  0.17120000000E+03 0.  0.
        998    1    1    2    0    0  0.49164834139E+02  0.32633290461E+01  0.12634844871E+04  0.12644844322E+04  0.10000000000E+02 0.  1.
</event>
<event>
 5    1  0.1245771E-008  0.3808198E+03  0.7957747E-01  0.3447596E+00
         13   -1    0    0    0    0  0.00000000000E+00  0.00000000000E+00  0.14999999963E+04  0.15000000000E+04  0.10566000000E+00 0. -1.
        994   -1    0    0    0    0 -0.00000000000E+00 -0.00000000000E+00  0.11368683772E-12  0.17120000000E+03  0.17120000000E+03 0.  0.
         13    1    1    2    0    0  0.64559283486E+01  0.10342291072E+02  0.17963954627E+02  0.21710753680E+02  0.10566000000E+00 0. -1.
        994    1    1    2    0    0 -0.79133103744E+01 -0.16539317978E+02  0.48414176818E+01  0.17224705758E+03  0.17120000000E+03 0.  0.
        998    1    1    2    0    0  0.14573820258E+01  0.61970269054E+01  0.14771946240E+04  0.14772421887E+04  0.10000000000E+02 0. -1.
</event>
<event>
 5    1  0.1245771E-008  0.3779241E+03  0.7957747E-01  0.3460247E+00
         13   -1    0    0    0    0  0.00000000000E+00  0.00000000000E+00  0.14999999963E+04  0.15000000000E+04  0.10566000000E+00 0. -1.
        994   -1    0    0    0    0 -0.00000000000E+00 -0.00000000000E+00  0.11368683772E-12  0.17120000000E+03  0.17120000000E+03 0.  0.
         13    1    1    2    0    0 -0.22502609548E+02 -0.35609717993E+02  0.15135292570E+03  0.15710550192E+03  0.10566000000E+00 0. -1.
        994    1    1    2    0    0  0.29456521595E+02  0.34075964448E+02  0.12044479627E+02  0.17743553057E+03  0.17120000000E+03 0.  0.
        998    1    1    2    0    0 -0.69539120471E+01  0.15337535451E+01  0.13366025910E+04  0.13366589675E+04  0.10000000000E+02 0. -1.
</event>
<event>
 5    1  0.1245771E-008  0.3706322E+03  0.7957747E-01  0.3492990E+00
         13   -1    0    0    0    0  0.00000000000E+00  0.00000000000E+00  0.14999999963E+04  0.15000000000E+04  0.10566000000E+00 0. -1.
        994   -1    0    0    0    0 -0.00000000000E+00 -0.00000000000E+00  0.11368683772E-12  0.17120000000E+03  0.17120000000E+03 0.  0.
         13    1    1    2    0    0 -0.45908837929E+02 -0.30126695600E+02  0.15105879101E+03  0.16072961362E+03  0.10566000000E+00 0. -1.
        994    1    1    2    0    0  0.43210024845E+02  0.30978529179E+02  0.18755670433E+02  0.18024425286E+03  0.17120000000E+03 0.  0.
        998    1    1    2    0    0  0.26988130844E+01 -0.85183357874E+00  0.13301855348E+04  0.13302261335E+04  0.10000000000E+02 0. -1.
</event>
<event>
 5    1  0.1245771E-008  0.3846318E+03  0.7957747E-01  0.3431235E+00
         13   -1    0    0    0    0  0.00000000000E+00  0.00000000000E+00  0.14999999963E+04  0.15000000000E+04  0.10566000000E+00 0.  1.
        994   -1    0    0    0    0 -0.00000000000E+00 -0.00000000000E+00  0.11368683772E-12  0.17120000000E+03  0.17120000000E+03 0.  0.
         13    1    1    2    0    0 -0.78473490183E+01  0.77283068931E+01  0.33303041852E+02  0.35077220168E+02  0.10566000000E+00 0.  1.
        994    1    1    2    0    0  0.50833259444E+01 -0.36401904067E+01  0.19417563998E+01  0.17132513419E+03  0.17120000000E+03 0.  0.
        998    1    1    2    0    0  0.27640230739E+01 -0.40881164865E+01  0.14647551980E+04  0.14647976456E+04  0.10000000000E+02 0.  1.
</event>
<event>
 5    1  0.1245771E-008  0.4102891E+03  0.7957747E-01  0.3329023E+00
         13   -1    0    0    0    0  0.00000000000E+00  0.00000000000E+00  0.14999999963E+04  0.15000000000E+04  0.10566000000E+00 0.  1.
        994   -1    0    0    0    0 -0.00000000000E+00 -0.00000000000E+00  0.11368683772E-12  0.17120000000E+03  0.17120000000E+03 0.  0.
         13    1    1    2    0    0 -0.10989986113E+03 -0.41931907054E+02  0.24792531178E+03  0.27441435037E+03  0.10566000000E+00 0.  1.
        994    1    1    2    0    0  0.29918907840E+02 -0.35126027827E+02  0.42827567041E+02  0.18240783803E+03  0.17120000000E+03 0.  0.
        998    1    1    2    0    0  0.79980953285E+02  0.77057934881E+02  0.12092471175E+04  0.12143778116E+04  0.10000000000E+02 0.  1.
</event>
<event>
 5    1  0.1245771E-008  0.3798451E+03  0.7957747E-01  0.3451833E+00
         13   -1    0    0    0    0  0.00000000000E+00  0.00000000000E+00  0.14999999963E+04  0.15000000000E+04  0.10566000000E+00 0. -1.
        994   -1    0    0    0    0 -0.00000000000E+00 -0.00000000000E+00  0.11368683772E-12  0.17120000000E+03  0.17120000000E+03 0.  0.
         13    1    1    2    0    0 -0.19217252226E+02  0.20081254259E+02  0.91937809690E+02  0.96047548487E+02  0.10566000000E+00 0. -1.
        994    1    1    2    0    0  0.11168687001E+02 -0.77294371151E+01  0.48286263636E+01  0.17180581888E+03  0.17120000000E+03 0.  0.
        998    1    1    2    0    0  0.80485652251E+01 -0.12351817144E+02  0.14032335602E+04  0.14033466326E+04  0.10000000000E+02 0. -1.
</event>
<event>
 5    1  0.1245771E-008  0.3775581E+03  0.7957747E-01  0.3461860E+00
         13   -1    0    0    0    0  0.00000000000E+00  0.00000000000E+00  0.14999999963E+04  0.15000000000E+04  0.10566000000E+00 0.  1.
        994   -1    0    0    0    0 -0.00000000000E+00 -0.00000000000E+00  0.11368683772E-12  0.17120000000E+03  0.17120000000E+03 0.  0.
         13    1    1    2    0    0  0.62284558042E+02 -0.64983999403E+02  0.31543353156E+03  0.32802531967E+03  0.10566000000E+00 0.  1.
        994    1    1    2    0    0 -0.11227401312E+01  0.31770323997E+02  0.18630382558E+02  0.17512037342E+03  0.17120000000E+03 0.  0.
        998    1    1    2    0    0 -0.61161817911E+02  0.33213675406E+02  0.11659360822E+04  0.11680543069E+04  0.10000000000E+02 0.  1.
</event>
<event>
 5    1  0.1245771E-008  0.3848920E+03  0.7957747E-01  0.3430130E+00
         13   -1    0    0    0    0  0.00000000000E+00  0.00000000000E+00  0.14999999963E+04  0.15000000000E+04  0.10566000000E+00 0. -1.
        994   -1    0    0    0    0 -0.00000000000E+00 -0.00000000000E+00  0.11368683772E-12  0.17120000000E+03  0.17120000000E+03 0.  0.
         13    1    1    2    0    0 -0.17075599971E+01  0.10428115865E+02  0.32471176354E+02  0.34147471642E+02  0.10566000000E+00 0. -1.
        994    1    1    2    0    0  0.56648817459E+01 -0.94012095765E+01  0.20802147687E+01  0.17156410149E+03  0.17120000000E+03 0.  0.
        998    1    1    2    0    0 -0.39573217488E+01 -0.10269062885E+01  0.14654486052E+04  0.14654884269E+04  0.10000000000E+02 0. -1.
</event>
<event>
 5    1  0.1245771E-008  0.3733991E+03  0.7957747E-01  0.3480413E+00
         13   -1    0    0    0    0  0.00000000000E+00  0.00000000000E+00  0.14999999963E+04  0.15000000000E+04  0.10566000000E+00 0.  1.
        994   -1    0    0    0    0 -0.00000000000E+00 -0.00000000000E+00  0.11368683772E-12  0.17120000000E+03  0.17120000000E+03 0.  0.
         13    1    1    2    0    0 -0.86960334829E+02 -0.77755634063E+01  0.23758047093E+03  0.25311469841E+03  0.10566000000E+00 0.  1.
        994    1    1    2    0    0  0.94789631596E+02  0.33466767341E+01  0.45301370514E+02  0.20089282883E+03  0.17120000000E+03 0.  0.
        998    1    1    2    0    0 -0.78292967670E+01  0.44288866722E+01  0.12171181548E+04  0.12171924728E+04  0.10000000000E+02 0.  1.
</event>
<event>
 5    1  0.1245771E-008  0.3734054E+03  0.7957747E-01  0.3480385E+00
         13   -1    0    0    0    0  0.00000000000E+00  0.00000000000E+00  0.14999999963E+04  0.15000000000E+04  0.10566000000E+00 0.  1.
        994   -1    0    0    0    0 -0.00000000000E+00 -0.00000000000E+00  0.11368683772E-12  0.17120000000E+03  0.17120000000E+03 0.  0.
         13    1    1    2    0    0  0.38433488656E+02  0.16920319528E+02  0.17065193551E+03  0.17574277943E+03  0.10566000000E+00 0.  1.
        994    1    1    2    0    0  0.43900963727E+02  0.15089338272E+02  0.14900731667E+02  0.17800689467E+03  0.17120000000E+03 0.  0.
        998    1    1    2    0    0 -0.82334452383E+02 -0.32009657800E+02  0.13144473291E+04  0.13174503259E+04  0.10000000000E+02 0.  1.
</event>
<event>
 5    1  0.1245771E-008  0.3847293E+03  0.7957747E-01  0.3430821E+00
         13   -1    0    0    0    0  0.00000000000E+00  0.00000000000E+00  0.14999999963E+04  0.15000000000E+04  0.10566000000E+00 0.  1.
        994   -1    0    0    0    0 -0.00000000000E+00 -0.00000000000E+00  0.11368683772E-12  0.17120000000E+03  0.17120000000E+03 0.  0.
         13    1    1    2    0    0  0.64862768935E+01  0.11700825144E+02  0.48883256867E+02  0.50681012845E+02  0.10566000000E+00 0.  1.
        994    1    1    2    0    0 -0.54574382921E+01 -0.14355067361E+02  0.25412891944E+01  0.17190622369E+03  0.17120000000E+03 0.  0.
        998    1    1    2    0    0 -0.10288386014E+01  0.26542422162E+01  0.14485754502E+04  0.14486127635E+04  0.10000000000E+02 0.  1.
</event>
<event>
 5    1  0.1245771E-008  0.3971649E+03  0.7957747E-01  0.3379663E+00
         13   -1    0    0    0    0  0.00000000000E+00  0.00000000000E+00  0.14999999963E+04  0.15000000000E+04  0.10566000000E+00 0. -1.
        994   -1    0    0    0    0 -0.00000000000E+00 -0.00000000000E+00  0.11368683772E-12  0.17120000000E+03  0.17120000000E+03 0.  0.
         13    1    1    2    0    0 -0.53883377573E+02 -0.13989525202E+02  0.47143981074E+02  0.72949923301E+02  0.10566000000E+00 0. -1.
        994    1    1    2    0    0  0.62398663664E+02  0.23159919240E+02  0.43448660914E+02  0.18875169197E+03  0.17120000000E+03 0.  0.
        998    1    1    2    0    0 -0.85152860912E+01 -0.91703940384E+01  0.14094073543E+04  0.14094983847E+04  0.10000000000E+02 0. -1.
</event>
<event>
 5    1  0.1245771E-008  0.3804456E+03  0.7957747E-01  0.3449221E+00
         13   -1    0    0    0    0  0.00000000000E+00  0.00000000000E+00  0.14999999963E+04  0.15000000000E+04  0.10566000000E+00 0. -1.
        994   -1    0    0    0    0 -0.00000000000E+00 -0.00000000000E+00  0.11368683772E-12  0.17120000000E+03  0.17120000000E+03 0.  0.
         13    1    1    2    0    0 -0.60471501568E+02 -0.16113079006E+02  0.36517601624E+03  0.37049961919E+03  0.10566000000E+00 0. -1.
        994    1    1    2    0    0  0.61656530174E+02  0.26310497972E+02  0.19057149058E+02  0.18484151305E+03  0.17120000000E+03 0.  0.
        998    1    1    2    0    0 -0.11850286055E+01 -0.10197418966E+02  0.11157668310E+04  0.11158588678E+04  0.10000000000E+02 0. -1.
</event>
<event>
 5    1  0.2049077E-008  0.3857588E+03  0.7957747E-01  0.3426460E+00
         13   -1    0    0    0    0  0.00000000000E+00  0.00000000000E+00  0.14999999963E+04  0.15000000000E+04  0.10566000000E+00 0.  1.
        994   -1    0    0    0    0 -0.00000000000E+00 -0.00000000000E+00  0.11368683772E-12  0.17120000000E+03  0.17120000000E+03 0.  0.
         13    1    1    2    0    0  0.10263208303E+02 -0.98609726214E+00  0.42758236415E+02  0.43983903622E+02  0.10566000000E+00 0.  1.
        994    1    1    2    0    0 -0.64631392564E+01  0.30087449397E+01  0.14206339071E+01  0.17135426145E+03  0.17120000000E+03 0.  0.
        998    1    1    2    0    0 -0.38000690467E+01 -0.20226476776E+01  0.14558211260E+04  0.14558618349E+04  0.10000000000E+02 0.  1.
</event>
<event>
 5    1  0.1245771E-008  0.3847645E+03  0.7957747E-01  0.3430672E+00
         13   -1    0    0    0    0  0.00000000000E+00  0.00000000000E+00  0.14999999963E+04  0.15000000000E+04  0.10566000000E+00 0. -1.
        994   -1    0    0    0    0 -0.00000000000E+00 -0.00000000000E+00  0.11368683772E-12  0.17120000000E+03  0.17120000000E+03 0.  0.
         13    1    1    2    0    0  0.14632139886E+02  0.20036463561E+02  0.14417068872E+03  0.14628997928E+03  0.10566000000E+00 0. -1.
        994    1    1    2    0    0 -0.77325590079E+01 -0.41792493661E+02  0.77150371112E+01  0.17656547452E+03  0.17120000000E+03 0.  0.
        998    1    1    2    0    0 -0.68995808780E+01  0.21756030100E+02  0.13481142705E+04  0.13483445462E+04  0.10000000000E+02 0. -1.
</event>
<event>
 5    1  0.1245771E-008  0.3746040E+03  0.7957747E-01  0.3474996E+00
         13   -1    0    0    0    0  0.00000000000E+00  0.00000000000E+00  0.14999999963E+04  0.15000000000E+04  0.10566000000E+00 0.  1.
        994   -1    0    0    0    0 -0.00000000000E+00 -0.00000000000E+00  0.11368683772E-12  0.17120000000E+03  0.17120000000E+03 0.  0.
         13    1    1    2    0    0  0.12715089476E+02  0.10198740776E+03  0.55133839196E+03  0.56083610659E+03  0.10566000000E+00 0.  1.
        994    1    1    2    0    0 -0.32784073485E+02 -0.87980738663E+02  0.37506737037E+02  0.19882555463E+03  0.17120000000E+03 0.  0.
        998    1    1    2    0    0  0.20068984009E+02 -0.14006669098E+02  0.91115486728E+03  0.91153833878E+03  0.10000000000E+02 0.  1.
</event>
<event>
 5    1  0.1245771E-008  0.3847492E+03  0.7957747E-01  0.3430737E+00
         13   -1    0    0    0    0  0.00000000000E+00  0.00000000000E+00  0.14999999963E+04  0.15000000000E+04  0.10566000000E+00 0. -1.
        994   -1    0    0    0    0 -0.00000000000E+00 -0.00000000000E+00  0.11368683772E-12  0.17120000000E+03  0.17120000000E+03 0.  0.
         13    1    1    2    0    0 -0.16586211791E+02  0.48137676621E+01  0.10094037986E+03  0.10240725673E+03  0.10566000000E+00 0. -1.
        994    1    1    2    0    0 -0.10166443999E+02  0.38294300035E+01  0.21432721938E+01  0.17155773003E+03  0.17120000000E+03 0.  0.
        998    1    1    2    0    0  0.26752655790E+02 -0.86431976656E+01  0.13969163442E+04  0.13972350132E+04  0.10000000000E+02 0. -1.
</event>
<event>
 5    1  0.1245771E-008  0.3796387E+03  0.7957747E-01  0.3452733E+00
         13   -1    0    0    0    0  0.00000000000E+00  0.00000000000E+00  0.14999999963E+04  0.15000000000E+04  0.10566000000E+00 0.  1.
        994   -1    0    0    0    0 -0.00000000000E+00 -0.00000000000E+00  0.11368683772E-12  0.17120000000E+03  0.17120000000E+03 0.  0.
         13    1    1    2    0    0 -0.17955999121E+02 -0.25451902055E+02  0.13448700131E+03  0.13804702789E+03  0.10566000000E+00 0.  1.
        994    1    1    2    0    0 -0.44148836025E+01 -0.13106102879E+02  0.49560052084E+01  0.17182916841E+03  0.17120000000E+03 0.  0.
        998    1    1    2    0    0  0.22370882724E+02  0.38558004934E+02  0.13605569898E+04  0.13613238037E+04  0.10000000000E+02 0.  1.
</event>
<event>
 5    1  0.1245771E-008  0.3685324E+03  0.7957747E-01  0.3502663E+00
         13   -1    0    0    0    0  0.00000000000E+00  0.00000000000E+00  0.14999999963E+04  0.15000000000E+04  0.10566000000E+00 0. -1.
        994   -1    0    0    0    0 -0.00000000000E+00 -0.00000000000E+00  0.11368683772E-12  0.17120000000E+03  0.17120000000E+03 0.  0.
         13    1    1    2    0    0 -0.77584138891E+01 -0.96727961682E+01  0.31425282857E+01  0.12792287514E+02  0.10566000000E+00 0. -1.
        994    1    1    2    0    0 -0.26162634409E+02 -0.79192565843E+00  0.12551429973E+02  0.17364356878E+03  0.17120000000E+03 0.  0.
        998    1    1    2    0    0  0.33921048298E+02  0.10464721827E+02  0.14843060380E+04  0.14847641437E+04  0.10000000000E+02 0. -1.
</event>
<event>
 5    1  0.1245771E-008  0.3729993E+03  0.7957747E-01  0.3482219E+00
         13   -1    0    0    0    0  0.00000000000E+00  0.00000000000E+00  0.14999999963E+04  0.15000000000E+04  0.10566000000E+00 0. -1.
        994   -1    0    0    0    0 -0.00000000000E+00 -0.00000000000E+00  0.11368683772E-12  0.17120000000E+03  0.17120000000E+03 0.  0.
         13    1    1    2    0    0  0.80610400845E+02 -0.15350094311E+01  0.32283269430E+03  0.33274818204E+03  0.10566000000E+00 0. -1.
        994    1    1    2    0    0 -0.83236326882E+02 -0.16245367570E+02  0.32739112340E+02  0.19383881850E+03  0.17120000000E+03 0.  0.
        998    1    1    2    0    0  0.26259260367E+01  0.17780377001E+02  0.11444281896E+04  0.11446129995E+04  0.10000000000E+02 0. -1.
</event>
<event>
 5    1  0.1245771E-008  0.3794073E+03  0.7957747E-01  0.3453743E+00
         13   -1    0    0    0    0  0.00000000000E+00  0.00000000000E+00  0.14999999963E+04  0.15000000000E+04  0.10566000000E+00 0.  1.
        994   -1    0    0    0    0 -0.00000000000E+00 -0.00000000000E+00  0.11368683772E-12  0.17120000000E+03  0.17120000000E+03 0.  0.
         13    1    1    2    0    0  0.12877171980E+02 -0.77511097906E+01  0.23025605920E+02  0.27497108088E+02  0.10566000000E+00 0.  1.
        994    1    1    2    0    0 -0.15389338316E+02  0.13439113712E+02  0.58320883856E+01  0.17251346256E+03  0.17120000000E+03 0.  0.
        998    1    1    2    0    0  0.25121663361E+01 -0.56880039212E+01  0.14711423020E+04  0.14711894293E+04  0.10000000000E+02 0.  1.
</event>
<event>
 5    1  0.1245771E-008  0.3852165E+03  0.7957747E-01  0.3428754E+00
         13   -1    0    0    0    0  0.00000000000E+00  0.00000000000E+00  0.14999999963E+04  0.15000000000E+04  0.10566000000E+00 0. -1.
        994   -1    0    0    0    0 -0.00000000000E+00 -0.00000000000E+00  0.11368683772E-12  0.17120000000E+03  0.17120000000E+03 0.  0.
         13    1    1    2    0    0 -0.45347364433E+01 -0.13914727653E+02  0.71037034803E+02  0.72528993912E+02  0.10566000000E+00 0. -1.
        994    1    1    2    0    0 -0.34992289725E+00  0.90630571361E+01  0.17930521553E+01  0.17144945753E+03  0.17120000000E+03 0.  0.
        998    1    1    2    0    0  0.48846593406E+01  0.48516705165E+01  0.14271699093E+04  0.14272215486E+04  0.10000000000E+02 0. -1.
</event>
<event>
 5    1  0.1245771E-008  0.3852526E+03  0.7957747E-01  0.3428602E+00
         13   -1    0    0    0    0  0.00000000000E+00  0.00000000000E+00  0.14999999963E+04  0.15000000000E+04  0.10566000000E+00 0. -1.
        994   -1    0    0    0    0 -0.00000000000E+00 -0.00000000000E+00  0.11368683772E-12  0.17120000000E+03  0.17120000000E+03 0.  0.
         13    1    1    2    0    0  0.17716636601E+02  0.52050971268E+01  0.10919349710E+03  0.11074386313E+03  0.10566000000E+00 0. -1.
        994    1    1    2    0    0 -0.17461210000E+02  0.12518867226E+01  0.25124661616E+01  0.17211105008E+03  0.17120000000E+03 0.  0.
        998    1    1    2    0    0 -0.25542660122E+00 -0.64569838494E+01  0.13882940330E+04  0.13883450868E+04  0.10000000000E+02 0. -1.
</event>
<event>
 5    1  0.1245771E-008  0.3818211E+03  0.7957747E-01  0.3443267E+00
         13   -1    0    0    0    0  0.00000000000E+00  0.00000000000E+00  0.14999999963E+04  0.15000000000E+04  0.10566000000E+00 0. -1.
        994   -1    0    0    0    0 -0.00000000000E+00 -0.00000000000E+00  0.11368683772E-12  0.17120000000E+03  0.17120000000E+03 0.  0.
         13    1    1    2    0    0  0.21955482640E+02 -0.15490898213E+02  0.11780617270E+03  0.12083176998E+03  0.10566000000E+00 0. -1.
        994    1    1    2    0    0 -0.12894431728E+02 -0.56685155108E+01  0.38762361859E+01  0.17182218612E+03  0.17120000000E+03 0.  0.
        998    1    1    2    0    0 -0.90610509125E+01  0.21159413724E+02  0.13783175874E+04  0.13785460439E+04  0.10000000000E+02 0. -1.
</event>
<event>
 5    1  0.1245771E-008  0.3826193E+03  0.7957747E-01  0.3439832E+00
         13   -1    0    0    0    0  0.00000000000E+00  0.00000000000E+00  0.14999999963E+04  0.15000000000E+04  0.10566000000E+00 0. -1.
        994   -1    0    0    0    0 -0.00000000000E+00 -0.00000000000E+00  0.11368683772E-12  0.17120000000E+03  0.17120000000E+03 0.  0.
         13    1    1    2    0    0  0.10534841158E+02  0.17422852040E+01  0.19197589239E+02  0.21967636026E+02  0.10566000000E+00 0. -1.
        994    1    1    2    0    0 -0.59689037875E+01 -0.52962998128E+01  0.30278245634E+01  0.17141262009E+03  0.17120000000E+03 0.  0.
        998    1    1    2    0    0 -0.45659373702E+01  0.35540146088E+01  0.14777745825E+04  0.14778197439E+04  0.10000000000E+02 0. -1.
</event>
<event>
 5    1  0.1245771E-008  0.4059003E+03  0.7957747E-01  0.3345596E+00
         13   -1    0    0    0    0  0.00000000000E+00  0.00000000000E+00  0.14999999963E+04  0.15000000000E+04  0.10566000000E+00 0. -1.
        994   -1    0    0    0    0 -0.00000000000E+00 -0.00000000000E+00  0.11368683772E-12  0.17120000000E+03  0.17120000000E+03 0.  0.
         13    1    1    2    0    0 -0.18370911208E+02 -0.72049161493E+02  0.75289145531E+02  0.10581606045E+03  0.10566000000E+00 0. -1.
        994    1    1    2    0    0  0.11165285073E+02  0.69661651889E+02  0.51609018675E+02  0.19222471262E+03  0.17120000000E+03 0.  0.
        998    1    1    2    0    0  0.72056261355E+01  0.23875096037E+01  0.13731018321E+04  0.13731592269E+04  0.10000000000E+02 0. -1.
</event>
<event>
 5    1  0.1245771E-008  0.3697481E+03  0.7957747E-01  0.3497049E+00
         13   -1    0    0    0    0  0.00000000000E+00  0.00000000000E+00  0.14999999963E+04  0.15000000000E+04  0.10566000000E+00 0.  1.
        994   -1    0    0    0    0 -0.00000000000E+00 -0.00000000000E+00  0.11368683772E-12  0.17120000000E+03  0.17120000000E+03 0.  0.
         13    1    1    2    0    0  0.28716150392E+02 -0.13081727608E+02  0.62895177026E+02  0.70367345749E+02  0.10566000000E+00 0.  1.
        994    1    1    2    0    0  0.66106774901E+02  0.42377424654E+01  0.24743543668E+02  0.18522890461E+03  0.17120000000E+03 0.  0.
        998    1    1    2    0    0 -0.94822925293E+02  0.88439851430E+01  0.14123612756E+04  0.14156037496E+04  0.10000000000E+02 0.  1.
</event>
<event>
 5    1  0.1245771E-008  0.3771105E+03  0.7957747E-01  0.3463837E+00
         13   -1    0    0    0    0  0.00000000000E+00  0.00000000000E+00  0.14999999963E+04  0.15000000000E+04  0.10566000000E+00 0.  1.
        994   -1    0    0    0    0 -0.00000000000E+00 -0.00000000000E+00  0.11368683772E-12  0.17120000000E+03  0.17120000000E+03 0.  0.
         13    1    1    2    0    0  0.24234657251E+02  0.21092011518E+02  0.87538181803E+02  0.93247713105E+02  0.10566000000E+00 0.  1.
        994    1    1    2    0    0 -0.17105605408E+02 -0.21120987097E+02  0.80961783583E+01  0.17353295346E+03  0.17120000000E+03 0.  0.
        998    1    1    2    0    0 -0.71290518427E+01  0.28975578245E-01  0.14043656361E+04  0.14044193334E+04  0.10000000000E+02 0.  1.
</event>
<event>
 5    1  0.1245771E-008  0.3754779E+03  0.7957747E-01  0.3471088E+00
         13   -1    0    0    0    0  0.00000000000E+00  0.00000000000E+00  0.14999999963E+04  0.15000000000E+04  0.10566000000E+00 0. -1.
        994   -1    0    0    0    0 -0.00000000000E+00 -0.00000000000E+00  0.11368683772E-12  0.17120000000E+03  0.17120000000E+03 0.  0.
         13    1    1    2    0    0  0.10793640266E+02 -0.59013262317E+01  0.87267141576E+01  0.15082938225E+02  0.10566000000E+00 0. -1.
        994    1    1    2    0    0 -0.13827212491E+02  0.63168022239E+01  0.72181722524E+01  0.17202510226E+03  0.17120000000E+03 0.  0.
        998    1    1    2    0    0  0.30335722257E+01 -0.41547599221E+00  0.14840551099E+04  0.14840919595E+04  0.10000000000E+02 0. -1.
</event>
<event>
 5    1  0.1245771E-008  0.3810933E+03  0.7957747E-01  0.3446412E+00
         13   -1    0    0    0    0  0.00000000000E+00  0.00000000000E+00  0.14999999963E+04  0.15000000000E+04  0.10566000000E+00 0. -1.
        994   -1    0    0    0    0 -0.00000000000E+00 -0.00000000000E+00  0.11368683772E-12  0.17120000000E+03  0.17120000000E+03 0.  0.
         13    1    1    2    0    0  0.16970618387E+02 -0.27906955878E+01  0.39286985570E+02  0.42886691053E+02  0.10566000000E+00 0. -1.
        994    1    1    2    0    0 -0.16360383545E+02  0.34217869883E+00  0.44747134094E+01  0.17203849074E+03  0.17120000000E+03 0.  0.
        998    1    1    2    0    0 -0.61023484143E+00  0.24485168889E+01  0.14562382973E+04  0.14562748182E+04  0.10000000000E+02 0. -1.
</event>
<event>
 5    1  0.1245771E-008  0.3841538E+03  0.7957747E-01  0.3433269E+00
         13   -1    0    0    0    0  0.00000000000E+00  0.00000000000E+00  0.14999999963E+04  0.15000000000E+04  0.10566000000E+00 0.  1.
        994   -1    0    0    0    0 -0.00000000000E+00 -0.00000000000E+00  0.11368683772E-12  0.17120000000E+03  0.17120000000E+03 0.  0.
         13    1    1    2    0    0 -0.27427747611E+00 -0.11070700439E+02  0.27225639023E+02  0.29391873377E+02  0.10566000000E+00 0.  1.
        994    1    1    2    0    0  0.16429457281E+02  0.26858868105E+02  0.53267826039E+01  0.17415263557E+03  0.17120000000E+03 0.  0.
        998    1    1    2    0    0 -0.16155179805E+02 -0.15788167666E+02  0.14674475747E+04  0.14676554911E+04  0.10000000000E+02 0.  1.
</event>
<event>
 5    1  0.1245771E-008  0.3748076E+03  0.7957747E-01  0.3474084E+00
         13   -1    0    0    0    0  0.00000000000E+00  0.00000000000E+00  0.14999999963E+04  0.15000000000E+04  0.10566000000E+00 0.  1.
        994   -1    0    0    0    0 -0.00000000000E+00 -0.00000000000E+00  0.11368683772E-12  0.17120000000E+03  0.17120000000E+03 0.  0.
         13    1    1    2    0    0 -0.63502223803E+01  0.77707138538E+01 -0.26141586300E+01  0.10370839284E+02  0.10566000000E+00 0.  1.
        994    1    1    2    0    0  0.89325084948E+01 -0.73446842694E+01  0.13979534298E+02  0.17215865205E+03  0.17120000000E+03 0.  0.
        998    1    1    2    0    0 -0.25822861145E+01 -0.42602958444E+00  0.14886346206E+04  0.14886705087E+04  0.10000000000E+02 0.  1.
</event>
<event>
 5    1  0.1245771E-008  0.3725390E+03  0.7957747E-01  0.3484303E+00
         13   -1    0    0    0    0  0.00000000000E+00  0.00000000000E+00  0.14999999963E+04  0.15000000000E+04  0.10566000000E+00 0.  1.
        994   -1    0    0    0    0 -0.00000000000E+00 -0.00000000000E+00  0.11368683772E-12  0.17120000000E+03  0.17120000000E+03 0.  0.
         13    1    1    2    0    0  0.48600824290E+02  0.17335367181E+03  0.10433147077E+04  0.10587346816E+04  0.10566000000E+00 0.  1.
        994    1    1    2    0    0 -0.58195261717E+02 -0.14461339029E+03  0.96453972692E+02  0.25082370300E+03  0.17120000000E+03 0.  0.
        998    1    1    2    0    0  0.95944374265E+01 -0.28740281516E+02  0.36023131590E+03  0.36164161537E+03  0.10000000000E+02 0. -1.
</event>
<event>
 5    1  0.1245771E-008  0.3705453E+03  0.7957747E-01  0.3493388E+00
         13   -1    0    0    0    0  0.00000000000E+00  0.00000000000E+00  0.14999999963E+04  0.15000000000E+04  0.10566000000E+00 0.  1.
        994   -1    0    0    0    0 -0.00000000000E+00 -0.00000000000E+00  0.11368683772E-12  0.17120000000E+03  0.17120000000E+03 0.  0.
         13    1    1    2    0    0  0.99479786811E+01 -0.21959017830E+02  0.28865531344E+02  0.37608387465E+02  0.10566000000E+00 0.  1.
        994    1    1    2    0    0 -0.20179178074E+00  0.14856369077E+02  0.97465112334E+01  0.17211968773E+03  0.17120000000E+03 0.  0.
        998    1    1    2    0    0 -0.97461869003E+01  0.71026487533E+01  0.14613879537E+04  0.14614719248E+04  0.10000000000E+02 0.  1.
</event>
<event>
 5    1  0.1245771E-008  0.3858272E+03  0.7957747E-01  0.3426171E+00
         13   -1    0    0    0    0  0.00000000000E+00  0.00000000000E+00  0.14999999963E+04  0.15000000000E+04  0.10566000000E+00 0. -1.
        994   -1    0    0    0    0 -0.00000000000E+00 -0.00000000000E+00  0.11368683772E-12  0.17120000000E+03  0.17120000000E+03 0.  0.
         13    1    1    2    0    0  0.11317106194E+02 -0.38024661082E+01  0.58308886099E+02  0.59518677768E+02  0.10566000000E+00 0. -1.
        994    1    1    2    0    0 -0.95947434692E+01  0.15167647690E+01  0.15295327295E+01  0.17148218318E+03  0.17120000000E+03 0.  0.
        998    1    1    2    0    0 -0.17223627248E+01  0.22857013392E+01  0.14401615775E+04  0.14401991391E+04  0.10000000000E+02 0. -1.
</event>
<event>
 5    1  0.1245771E-008  0.3757485E+03  0.7957747E-01  0.3469882E+00
         13   -1    0    0    0    0  0.00000000000E+00  0.00000000000E+00  0.14999999963E+04  0.15000000000E+04  0.10566000000E+00 0. -1.
        994   -1    0    0    0    0 -0.00000000000E+00 -0.00000000000E+00  0.11368683772E-12  0.17120000000E+03  0.17120000000E+03 0.  0.
         13    1    1    2    0    0  0.90437487235E+01  0.12960463536E+02  0.24889902525E+01  0.15999038801E+02  0.10566000000E+00 0. -1.
        994    1    1    2    0    0 -0.86023574635E+01 -0.14681257520E+02  0.15044953712E+02  0.17270011728E+03  0.17120000000E+03 0.  0.
        998    1    1    2    0    0 -0.44139126001E+00  0.17207939843E+01  0.14824660523E+04  0.14825008439E+04  0.10000000000E+02 0. -1.
</event>
<event>
 5    1  0.1245771E-008  0.4171766E+03  0.7957747E-01  0.3303709E+00
         13   -1    0    0    0    0  0.00000000000E+00  0.00000000000E+00  0.14999999963E+04  0.15000000000E+04  0.10566000000E+00 0. -1.
        994   -1    0    0    0    0 -0.00000000000E+00 -0.00000000000E+00  0.11368683772E-12  0.17120000000E+03  0.17120000000E+03 0.  0.
         13    1    1    2    0    0  0.37736699662E+02  0.26937888782E+02  0.13299820065E+02  0.48234891222E+02  0.10566000000E+00 0. -1.
        994    1    1    2    0    0 -0.35157947335E+02 -0.23078269251E+02  0.45959612924E+02  0.18218236411E+03  0.17120000000E+03 0.  0.
        998    1    1    2    0    0 -0.25787523269E+01 -0.38596195312E+01  0.14407405633E+04  0.14407827447E+04  0.10000000000E+02 0. -1.
</event>
<event>
 5    1  0.1245771E-008  0.3709909E+03  0.7957747E-01  0.3491349E+00
         13   -1    0    0    0    0  0.00000000000E+00  0.00000000000E+00  0.14999999963E+04  0.15000000000E+04  0.10566000000E+00 0. -1.
        994   -1    0    0    0    0 -0.00000000000E+00 -0.00000000000E+00  0.11368683772E-12  0.17120000000E+03  0.17120000000E+03 0.  0.
         13    1    1    2    0    0 -0.12255328603E+03  0.39406099852E+00  0.56959432245E+03  0.58262952768E+03  0.10566000000E+00 0. -1.
        994    1    1    2    0    0  0.11267683831E+03 -0.41993983196E+01  0.53925807515E+02  0.21196966187E+03  0.17120000000E+03 0.  0.
        998    1    1    2    0    0  0.98764477222E+01  0.38053373211E+01  0.87647986632E+03  0.87660081044E+03  0.10000000000E+02 0.  1.
</event>
<event>
 5    1  0.1245771E-008  0.3859244E+03  0.7957747E-01  0.3425761E+00
         13   -1    0    0    0    0  0.00000000000E+00  0.00000000000E+00  0.14999999963E+04  0.15000000000E+04  0.10566000000E+00 0.  1.
        994   -1    0    0    0    0 -0.00000000000E+00 -0.00000000000E+00  0.11368683772E-12  0.17120000000E+03  0.17120000000E+03 0.  0.
         13    1    1    2    0    0 -0.71320142131E+01  0.11705293058E+02  0.76077694981E+02  0.77302693032E+02  0.10566000000E+00 0.  1.
        994    1    1    2    0    0  0.97601745877E-01 -0.19927833862E+02  0.24750602199E+01  0.17237370452E+03  0.17120000000E+03 0.  0.
        998    1    1    2    0    0  0.70344124672E+01  0.82225408035E+01  0.14214472411E+04  0.14215236024E+04  0.10000000000E+02 0.  1.
</event>
<event>
 5    1  0.1245771E-008  0.3856000E+03  0.7957747E-01  0.3427131E+00
         13   -1    0    0    0    0  0.00000000000E+00  0.00000000000E+00  0.14999999963E+04  0.15000000000E+04  0.10566000000E+00 0. -1.
        994   -1    0    0    0    0 -0.00000000000E+00 -0.00000000000E+00  0.11368683772E-12  0.17120000000E+03  0.17120000000E+03 0.  0.
         13    1    1    2    0    0  0.34868981331E+01  0.11052154944E+02  0.45811235741E+02  0.47254513770E+02  0.10566000000E+00 0. -1.
        994    1    1    2    0    0 -0.74994639197E+01 -0.24116151631E+02  0.34288688984E+01  0.17308676400E+03  0.17120000000E+03 0.  0.
        998    1    1    2    0    0  0.40125657866E+01  0.13063996687E+02  0.14507598916E+04  0.14508587222E+04  0.10000000000E+02 0. -1.
</event>
<event>
 5    1  0.1245771E-008  0.3857476E+03  0.7957747E-01  0.3426508E+00
         13   -1    0    0    0    0  0.00000000000E+00  0.00000000000E+00  0.14999999963E+04  0.15000000000E+04  0.10566000000E+00 0.  1.
        994   -1    0    0    0    0 -0.00000000000E+00 -0.00000000000E+00  0.11368683772E-12  0.17120000000E+03  0.17120000000E+03 0.  0.
         13    1    1    2    0    0  0.10003530562E+02 -0.28083121801E+01  0.38340197175E+02  0.39723281894E+02  0.10566000000E+00 0.  1.
        994    1    1    2    0    0 -0.23124045767E+02  0.25019752125E+02  0.50766441604E+01  0.17463081574E+03  0.17120000000E+03 0.  0.
        998    1    1    2    0    0  0.13120515204E+02 -0.22211439945E+02  0.14565831549E+04  0.14568459024E+04  0.10000000000E+02 0.  1.
</event>
<event>
 5    1  0.1245771E-008  0.3824431E+03  0.7957747E-01  0.3440589E+00
         13   -1    0    0    0    0  0.00000000000E+00  0.00000000000E+00  0.14999999963E+04  0.15000000000E+04  0.10566000000E+00 0.  1.
        994   -1    0    0    0    0 -0.00000000000E+00 -0.00000000000E+00  0.11368683772E-12  0.17120000000E+03  0.17120000000E+03 0.  0.
         13    1    1    2    0    0  0.52746242654E+01 -0.21658481331E+02  0.87911098981E+02  0.90693351260E+02  0.10566000000E+00 0.  1.
        994    1    1    2    0    0  0.86601210636E+01  0.96791940082E+01  0.34644945756E+01  0.17172689718E+03  0.17120000000E+03 0.  0.
        998    1    1    2    0    0 -0.13934745329E+02  0.11979287323E+02  0.14086244027E+04  0.14087797516E+04  0.10000000000E+02 0.  1.
</event>
<event>
 5    1  0.1245771E-008  0.3686989E+03  0.7957747E-01  0.3501892E+00
         13   -1    0    0    0    0  0.00000000000E+00  0.00000000000E+00  0.14999999963E+04  0.15000000000E+04  0.10566000000E+00 0. -1.
        994   -1    0    0    0    0 -0.00000000000E+00 -0.00000000000E+00  0.11368683772E-12  0.17120000000E+03  0.17120000000E+03 0.  0.
         13    1    1    2    0    0  0.14651273156E+02 -0.19840048697E+02  0.25834535509E+02  0.35717246904E+02  0.10566000000E+00 0. -1.
        994    1    1    2    0    0 -0.15397703479E+02  0.21992869068E+02  0.12458215143E+02  0.17373952540E+03  0.17120000000E+03 0.  0.
        998    1    1    2    0    0  0.74643032313E+00 -0.21528203708E+01  0.14617072456E+04  0.14617432277E+04  0.10000000000E+02 0. -1.
</event>
<event>
 5    1  0.1245771E-008  0.3816268E+03  0.7957747E-01  0.3444105E+00
         13   -1    0    0    0    0  0.00000000000E+00  0.00000000000E+00  0.14999999963E+04  0.15000000000E+04  0.10566000000E+00 0.  1.
        994   -1    0    0    0    0 -0.00000000000E+00 -0.00000000000E+00  0.11368683772E-12  0.17120000000E+03  0.17120000000E+03 0.  0.
         13    1    1    2    0    0  0.14312202886E+02  0.26665187730E+01  0.29225123591E+02  0.32650704231E+02  0.10566000000E+00 0.  1.
        994    1    1    2    0    0 -0.27201980330E+02  0.86382369135E+01  0.60273597067E+01  0.17366731395E+03  0.17120000000E+03 0.  0.
        998    1    1    2    0    0  0.12889777444E+02 -0.11304755686E+02  0.14647475130E+04  0.14648819818E+04  0.10000000000E+02 0.  1.
</event>
<event>
 5    1  0.1245771E-008  0.3789551E+03  0.7957747E-01  0.3455721E+00
         13   -1    0    0    0    0  0.00000000000E+00  0.00000000000E+00  0.14999999963E+04  0.15000000000E+04  0.10566000000E+00 0.  1.
        994   -1    0    0    0    0 -0.00000000000E+00 -0.00000000000E+00  0.11368683772E-12  0.17120000000E+03  0.17120000000E+03 0.  0.
         13    1    1    2    0    0  0.13430106146E+02  0.28984143288E+02  0.11199913646E+03  0.11646572906E+03  0.10566000000E+00 0.  1.
        994    1    1    2    0    0  0.12491981295E+01 -0.13795954980E+02  0.53055047260E+01  0.17184143054E+03  0.17120000000E+03 0.  0.
        998    1    1    2    0    0 -0.14679304275E+02 -0.15188188308E+02  0.13826953551E+04  0.13828928404E+04  0.10000000000E+02 0.  1.
</event>
<event>
 5    1  0.1245771E-008  0.3804784E+03  0.7957747E-01  0.3449078E+00
         13   -1    0    0    0    0  0.00000000000E+00  0.00000000000E+00  0.14999999963E+04  0.15000000000E+04  0.10566000000E+00 0. -1.
        994   -1    0    0    0    0 -0.00000000000E+00 -0.00000000000E+00  0.11368683772E-12  0.17120000000E+03  0.17120000000E+03 0.  0.
         13    1    1    2    0    0  0.15953434419E+02 -0.68642600551E+01  0.36553693044E+02  0.40469911973E+02  0.10566000000E+00 0. -1.
        994    1    1    2    0    0 -0.15212403712E+02  0.85201780680E+01  0.49071667904E+01  0.17215554289E+03  0.17120000000E+03 0.  0.
        998    1    1    2    0    0 -0.74103070694E+00 -0.16559180130E+01  0.14585391364E+04  0.14585745451E+04  0.10000000000E+02 0. -1.
</event>
<event>
 5    1  0.1245771E-008  0.3826779E+03  0.7957747E-01  0.3439581E+00
         13   -1    0    0    0    0  0.00000000000E+00  0.00000000000E+00  0.14999999963E+04  0.15000000000E+04  0.10566000000E+00 0. -1.
        994   -1    0    0    0    0 -0.00000000000E+00 -0.00000000000E+00  0.11368683772E-12  0.17120000000E+03  0.17120000000E+03 0.  0.
         13    1    1    2    0    0  0.17174234224E+02 -0.21540688026E+02  0.13425714401E+03  0.13705454185E+03  0.10566000000E+00 0. -1.
        994    1    1    2    0    0 -0.20579368502E+02  0.63993045255E+01  0.43279989935E+01  0.17260542599E+03  0.17120000000E+03 0.  0.
        998    1    1    2    0    0  0.34051342784E+01  0.15141383501E+02  0.13614148533E+04  0.13615400322E+04  0.10000000000E+02 0. -1.
</event>
<event>
 5    1  0.1245771E-008  0.3775793E+03  0.7957747E-01  0.3461767E+00
         13   -1    0    0    0    0  0.00000000000E+00  0.00000000000E+00  0.14999999963E+04  0.15000000000E+04  0.10566000000E+00 0. -1.
        994   -1    0    0    0    0 -0.00000000000E+00 -0.00000000000E+00  0.11368683772E-12  0.17120000000E+03  0.17120000000E+03 0.  0.
         13    1    1    2    0    0 -0.82155974012E+02 -0.54560609785E+02  0.57824052995E+03  0.58659064589E+03  0.10566000000E+00 0. -1.
        994    1    1    2    0    0  0.86701387745E+02  0.41078548590E+02  0.37034790380E+02  0.19971377892E+03  0.17120000000E+03 0.  0.
        998    1    1    2    0    0 -0.45454137332E+01  0.13482061195E+02  0.88472467595E+03  0.88489557519E+03  0.10000000000E+02 0. -1.
</event>
<event>
 5    1  0.1245771E-008  0.3749648E+03  0.7957747E-01  0.3473380E+00
         13   -1    0    0    0    0  0.00000000000E+00  0.00000000000E+00  0.14999999963E+04  0.15000000000E+04  0.10566000000E+00 0. -1.
        994   -1    0    0    0    0 -0.00000000000E+00 -0.00000000000E+00  0.11368683772E-12  0.17120000000E+03  0.17120000000E+03 0.  0.
         13    1    1    2    0    0  0.97569491966E+02 -0.63627255988E+02  0.46233671534E+03  0.47678452469E+03  0.10566000000E+00 0. -1.
        994    1    1    2    0    0 -0.55582427657E+02  0.57052391679E+02  0.36520945775E+02  0.19232160862E+03  0.17120000000E+03 0.  0.
        998    1    1    2    0    0 -0.41987064309E+02  0.65748643091E+01  0.10011423352E+04  0.10020938667E+04  0.10000000000E+02 0. -1.
</event>
<event>
 5    1  0.1245771E-008  0.3744382E+03  0.7957747E-01  0.3475739E+00
         13   -1    0    0    0    0  0.00000000000E+00  0.00000000000E+00  0.14999999963E+04  0.15000000000E+04  0.10566000000E+00 0. -1.
        994   -1    0    0    0    0 -0.00000000000E+00 -0.00000000000E+00  0.11368683772E-12  0.17120000000E+03  0.17120000000E+03 0.  0.
         13    1    1    2    0    0 -0.12456690874E+03 -0.40771413368E+02  0.74383878222E+03  0.75529819806E+03  0.10566000000E+00 0. -1.
        994    1    1    2    0    0  0.10599523868E+03  0.52681863218E+02  0.56290147036E+02  0.21561166478E+03  0.17120000000E+03 0.  0.
        998    1    1    2    0    0  0.18571670053E+02 -0.11910449850E+02  0.69987106703E+03  0.70029013716E+03  0.10000000000E+02 0. -1.
</event>
<event>
 5    1  0.1245771E-008  0.3782026E+03  0.7957747E-01  0.3459022E+00
         13   -1    0    0    0    0  0.00000000000E+00  0.00000000000E+00  0.14999999963E+04  0.15000000000E+04  0.10566000000E+00 0.  1.
        994   -1    0    0    0    0 -0.00000000000E+00 -0.00000000000E+00  0.11368683772E-12  0.17120000000E+03  0.17120000000E+03 0.  0.
         13    1    1    2    0    0  0.12498120808E+02 -0.57620980645E+02  0.30912080314E+03  0.31469360103E+03  0.10566000000E+00 0.  1.
        994    1    1    2    0    0 -0.10487931675E+02  0.44442647994E+02  0.12087585102E+02  0.17759700275E+03  0.17120000000E+03 0.  0.
        998    1    1    2    0    0 -0.20101891332E+01  0.13178332651E+02  0.11787916080E+04  0.11789093962E+04  0.10000000000E+02 0.  0.
</event>
<event>
 5    1  0.1245771E-008  0.3823608E+03  0.7957747E-01  0.3440943E+00
         13   -1    0    0    0    0  0.00000000000E+00  0.00000000000E+00  0.14999999963E+04  0.15000000000E+04  0.10566000000E+00 0. -1.
        994   -1    0    0    0    0 -0.00000000000E+00 -0.00000000000E+00  0.11368683772E-12  0.17120000000E+03  0.17120000000E+03 0.  0.
         13    1    1    2    0    0 -0.17428171534E+01  0.21668109140E+02  0.71420889711E+02  0.74655870609E+02  0.10566000000E+00 0. -1.
        994    1    1    2    0    0  0.67212673415E+01 -0.34161964650E+02  0.69775262954E+01  0.17484376208E+03  0.17120000000E+03 0.  0.
        998    1    1    2    0    0 -0.49784501881E+01  0.12493855510E+02  0.14216015803E+04  0.14217003673E+04  0.10000000000E+02 0. -1.
</event>
<event>
 5    1  0.1245771E-008  0.3761474E+03  0.7957747E-01  0.3468107E+00
         13   -1    0    0    0    0  0.00000000000E+00  0.00000000000E+00  0.14999999963E+04  0.15000000000E+04  0.10566000000E+00 0.  1.
        994   -1    0    0    0    0 -0.00000000000E+00 -0.00000000000E+00  0.11368683772E-12  0.17120000000E+03  0.17120000000E+03 0.  0.
         13    1    1    2    0    0  0.44466366544E+02 -0.35920396441E+02  0.23419490059E+03  0.24107010445E+03  0.10566000000E+00 0.  1.
        994    1    1    2    0    0 -0.41706042710E+02  0.31123205854E+02  0.15316042282E+02  0.17958861070E+03  0.17120000000E+03 0.  0.
        998    1    1    2    0    0 -0.27603238348E+01  0.47971905875E+01  0.12504890534E+04  0.12505412849E+04  0.10000000000E+02 0.  0.
</event>
<event>
 5    1  0.1245771E-008  0.3720283E+03  0.7957747E-01  0.3486621E+00
         13   -1    0    0    0    0  0.00000000000E+00  0.00000000000E+00  0.14999999963E+04  0.15000000000E+04  0.10566000000E+00 0.  1.
        994   -1    0    0    0    0 -0.00000000000E+00 -0.00000000000E+00  0.11368683772E-12  0.17120000000E+03  0.17120000000E+03 0.  0.
         13    1    1    2    0    0  0.71117614691E+01  0.13124337695E+02  0.37813636781E+01  0.15399196941E+02  0.10566000000E+00 0.  1.
        994    1    1    2    0    0 -0.44397963463E+01 -0.12108528587E+02  0.12601193497E+02  0.17214690916E+03  0.17120000000E+03 0.  0.
        998    1    1    2    0    0 -0.26719651228E+01 -0.10158091077E+01  0.14836174391E+04  0.14836538939E+04  0.10000000000E+02 0.  1.
</event>
<event>
 5    1  0.1245771E-008  0.3859041E+03  0.7957747E-01  0.3425847E+00
         13   -1    0    0    0    0  0.00000000000E+00  0.00000000000E+00  0.14999999963E+04  0.15000000000E+04  0.10566000000E+00 0. -1.
        994   -1    0    0    0    0 -0.00000000000E+00 -0.00000000000E+00  0.11368683772E-12  0.17120000000E+03  0.17120000000E+03 0.  0.
         13    1    1    2    0    0  0.30649510095E+01  0.12256860790E+02  0.67293269074E+02  0.68469115577E+02  0.10566000000E+00 0. -1.
        994    1    1    2    0    0 -0.56298149067E+01 -0.91285759395E+01  0.15591932560E+01  0.17154269672E+03  0.17120000000E+03 0.  0.
        998    1    1    2    0    0  0.25648638972E+01 -0.31282848509E+01  0.14311475339E+04  0.14311881877E+04  0.10000000000E+02 0. -1.
</event>
<event>
 5    1  0.1245771E-008  0.3812655E+03  0.7957747E-01  0.3445667E+00
         13   -1    0    0    0    0  0.00000000000E+00  0.00000000000E+00  0.14999999963E+04  0.15000000000E+04  0.10566000000E+00 0.  1.
        994   -1    0    0    0    0 -0.00000000000E+00 -0.00000000000E+00  0.11368683772E-12  0.17120000000E+03  0.17120000000E+03 0.  0.
         13    1    1    2    0    0 -0.13357976413E+02  0.96582399345E+01  0.39529165316E+02  0.42828532629E+02  0.10566000000E+00 0.  1.
        994    1    1    2    0    0  0.34721165217E+01  0.97542138324E+01  0.38526429858E+01  0.17155606413E+03  0.17120000000E+03 0.  0.
        998    1    1    2    0    0  0.98858598915E+01 -0.19412453767E+02  0.14566181880E+04  0.14568154032E+04  0.10000000000E+02 0.  1.
</event>
<event>
 5    1  0.1245771E-008  0.3709595E+03  0.7957747E-01  0.3491493E+00
         13   -1    0    0    0    0  0.00000000000E+00  0.00000000000E+00  0.14999999963E+04  0.15000000000E+04  0.10566000000E+00 0.  1.
        994   -1    0    0    0    0 -0.00000000000E+00 -0.00000000000E+00  0.11368683772E-12  0.17120000000E+03  0.17120000000E+03 0.  0.
         13    1    1    2    0    0  0.62031262555E+02 -0.14626376372E+02  0.25252313820E+03  0.26044146158E+03  0.10566000000E+00 0.  1.
        994    1    1    2    0    0 -0.18138436525E+02  0.14760974094E+02  0.10655396921E+02  0.17311807161E+03  0.17120000000E+03 0.  0.
        998    1    1    2    0    0 -0.43892826030E+02 -0.13459772213E+00  0.12368214612E+04  0.12376404668E+04  0.10000000000E+02 0.  1.
</event>
<event>
 5    1  0.1245771E-008  0.3692972E+03  0.7957747E-01  0.3499127E+00
         13   -1    0    0    0    0  0.00000000000E+00  0.00000000000E+00  0.14999999963E+04  0.15000000000E+04  0.10566000000E+00 0. -1.
        994   -1    0    0    0    0 -0.00000000000E+00 -0.00000000000E+00  0.11368683772E-12  0.17120000000E+03  0.17120000000E+03 0.  0.
         13    1    1    2    0    0  0.23361343160E+02  0.54007051636E+01  0.20312061691E+02  0.31424687503E+02  0.10566000000E+00 0. -1.
        994    1    1    2    0    0 -0.61587381041E+02 -0.12551013662E+02  0.24474607214E+02  0.18400809723E+03  0.17120000000E+03 0.  0.
        998    1    1    2    0    0  0.38226037881E+02  0.71503084988E+01  0.14552133274E+04  0.14557672153E+04  0.10000000000E+02 0. -1.
</event>
<event>
 5    1  0.2704946E-008  0.3861103E+03  0.7957747E-01  0.3424977E+00
         13   -1    0    0    0    0  0.00000000000E+00  0.00000000000E+00  0.14999999963E+04  0.15000000000E+04  0.10566000000E+00 0. -1.
        994   -1    0    0    0    0 -0.00000000000E+00 -0.00000000000E+00  0.11368683772E-12  0.17120000000E+03  0.17120000000E+03 0.  0.
         13    1    1    2    0    0 -0.75106191567E+01 -0.73004221305E+01  0.51737491929E+02  0.52787165093E+02  0.10566000000E+00 0. -1.
        994    1    1    2    0    0  0.64208925854E+00  0.85278124509E+01  0.13195907921E+01  0.17141854387E+03  0.17120000000E+03 0.  0.
        998    1    1    2    0    0  0.68685298982E+01 -0.12273903204E+01  0.14469429136E+04  0.14469942910E+04  0.10000000000E+02 0. -1.
</event>
<event>
 5    1  0.1767522E-008  0.3861090E+03  0.7957747E-01  0.3424983E+00
         13   -1    0    0    0    0  0.00000000000E+00  0.00000000000E+00  0.14999999963E+04  0.15000000000E+04  0.10566000000E+00 0. -1.
        994   -1    0    0    0    0 -0.00000000000E+00 -0.00000000000E+00  0.11368683772E-12  0.17120000000E+03  0.17120000000E+03 0.  0.
         13    1    1    2    0    0  0.92463349071E+01  0.54615495196E+01  0.53963193486E+02  0.55021456248E+02  0.10566000000E+00 0. -1.
        994    1    1    2    0    0 -0.65448520653E+01 -0.37935061084E+01  0.12680964099E+01  0.17137174168E+03  0.17120000000E+03 0.  0.
        998    1    1    2    0    0 -0.27014828418E+01 -0.16680434113E+01  0.14447687064E+04  0.14448068021E+04  0.10000000000E+02 0. -1.
</event>
<event>
 5    1  0.1245771E-008  0.3855235E+03  0.7957747E-01  0.3427455E+00
         13   -1    0    0    0    0  0.00000000000E+00  0.00000000000E+00  0.14999999963E+04  0.15000000000E+04  0.10566000000E+00 0.  1.
        994   -1    0    0    0    0 -0.00000000000E+00 -0.00000000000E+00  0.11368683772E-12  0.17120000000E+03  0.17120000000E+03 0.  0.
         13    1    1    2    0    0  0.14089546534E+02 -0.86968447865E+01  0.97188034236E+02  0.98588415107E+02  0.10566000000E+00 0.  1.
        994    1    1    2    0    0 -0.78670032308E+01  0.15463836946E+02  0.23593263845E+01  0.17209307486E+03  0.17120000000E+03 0.  0.
        998    1    1    2    0    0 -0.62225433033E+01 -0.67669921591E+01  0.14004526357E+04  0.14005185100E+04  0.10000000000E+02 0.  1.
</event>
<event>
 5    1  0.1245771E-008  0.3703103E+03  0.7957747E-01  0.3494466E+00
         13   -1    0    0    0    0  0.00000000000E+00  0.00000000000E+00  0.14999999963E+04  0.15000000000E+04  0.10566000000E+00 0.  1.
        994   -1    0    0    0    0 -0.00000000000E+00 -0.00000000000E+00  0.11368683772E-12  0.17120000000E+03  0.17120000000E+03 0.  0.
         13    1    1    2    0    0  0.34311629362E+02 -0.99720652197E+01  0.51630209921E+02  0.62788691138E+02  0.10566000000E+00 0.  1.
        994    1    1    2    0    0 -0.30106389267E+02  0.22881604060E+02  0.16124178764E+02  0.17606644092E+03  0.17120000000E+03 0.  0.
        998    1    1    2    0    0 -0.42052400956E+01 -0.12909538840E+02  0.14322456076E+04  0.14323448679E+04  0.10000000000E+02 0.  1.
</event>
<event>
 5    1  0.1245771E-008  0.3741272E+03  0.7957747E-01  0.3477136E+00
         13   -1    0    0    0    0  0.00000000000E+00  0.00000000000E+00  0.14999999963E+04  0.15000000000E+04  0.10566000000E+00 0.  1.
        994   -1    0    0    0    0 -0.00000000000E+00 -0.00000000000E+00  0.11368683772E-12  0.17120000000E+03  0.17120000000E+03 0.  0.
         13    1    1    2    0    0 -0.30088016151E+02 -0.16532206499E+02  0.74946960008E+02  0.82435796509E+02  0.10566000000E+00 0.  1.
        994    1    1    2    0    0  0.45763050159E+02 -0.51159069937E+00  0.14302116971E+02  0.17778782027E+03  0.17120000000E+03 0.  0.
        998    1    1    2    0    0 -0.15675034008E+02  0.17043797198E+02  0.14107509193E+04  0.14109763832E+04  0.10000000000E+02 0.  1.
</event>
<event>
 5    1  0.1245771E-008  0.3808251E+03  0.7957747E-01  0.3447574E+00
         13   -1    0    0    0    0  0.00000000000E+00  0.00000000000E+00  0.14999999963E+04  0.15000000000E+04  0.10566000000E+00 0.  1.
        994   -1    0    0    0    0 -0.00000000000E+00 -0.00000000000E+00  0.11368683772E-12  0.17120000000E+03  0.17120000000E+03 0.  0.
         13    1    1    2    0    0  0.14877568636E+02 -0.13234574012E+02  0.55684940005E+02  0.59138140867E+02  0.10566000000E+00 0.  1.
        994    1    1    2    0    0 -0.57234992661E+00 -0.62123647225E+01  0.38470142124E+01  0.17135682239E+03  0.17120000000E+03 0.  0.
        998    1    1    2    0    0 -0.14305218710E+02  0.19446938735E+02  0.14404680421E+04  0.14407050367E+04  0.10000000000E+02 0.  1.
</event>
<event>
 5    1  0.1245771E-008  0.3752712E+03  0.7957747E-01  0.3472011E+00
         13   -1    0    0    0    0  0.00000000000E+00  0.00000000000E+00  0.14999999963E+04  0.15000000000E+04  0.10566000000E+00 0. -1.
        994   -1    0    0    0    0 -0.00000000000E+00 -0.00000000000E+00  0.11368683772E-12  0.17120000000E+03  0.17120000000E+03 0.  0.
         13    1    1    2    0    0  0.13070144814E+02 -0.23666100478E+01  0.10523565228E+02  0.16946566547E+02  0.10566000000E+00 0. -1.
        994    1    1    2    0    0 -0.12132448284E+02 -0.45068196961E+01  0.71085763938E+01  0.17183561791E+03  0.17120000000E+03 0.  0.
        998    1    1    2    0    0 -0.93769653077E+00  0.68734297439E+01  0.14823678547E+04  0.14824178155E+04  0.10000000000E+02 0. -1.
</event>
<event>
 5    1  0.1245771E-008  0.3761080E+03  0.7957747E-01  0.3468282E+00
         13   -1    0    0    0    0  0.00000000000E+00  0.00000000000E+00  0.14999999963E+04  0.15000000000E+04  0.10566000000E+00 0. -1.
        994   -1    0    0    0    0 -0.00000000000E+00 -0.00000000000E+00  0.11368683772E-12  0.17120000000E+03  0.17120000000E+03 0.  0.
         13    1    1    2    0    0 -0.44217392840E+02 -0.17155277566E+02  0.16321759497E+03  0.16996904379E+03  0.10566000000E+00 0. -1.
        994    1    1    2    0    0  0.45827038431E+02  0.13303711542E+02  0.13861611548E+02  0.17826578602E+03  0.17120000000E+03 0.  0.
        998    1    1    2    0    0 -0.16096455909E+01  0.38515660245E+01  0.13229207898E+04  0.13229651702E+04  0.10000000000E+02 0. -1.
</event>
<event>
 5    1  0.1245771E-008  0.3840223E+03  0.7957747E-01  0.3433829E+00
         13   -1    0    0    0    0  0.00000000000E+00  0.00000000000E+00  0.14999999963E+04  0.15000000000E+04  0.10566000000E+00 0.  1.
        994   -1    0    0    0    0 -0.00000000000E+00 -0.00000000000E+00  0.11368683772E-12  0.17120000000E+03  0.17120000000E+03 0.  0.
         13    1    1    2    0    0  0.14643744310E+02  0.19834472607E+02  0.13275018413E+03  0.13502025071E+03  0.10566000000E+00 0.  1.
        994    1    1    2    0    0 -0.10088984587E+02 -0.23099058313E+02  0.42152383091E+01  0.17309697380E+03  0.17120000000E+03 0.  0.
        998    1    1    2    0    0 -0.45547597235E+01  0.32645857054E+01  0.13630345738E+04  0.13630827755E+04  0.10000000000E+02 0.  1.
</event>
<event>
 5    1  0.1245771E-008  0.3838458E+03  0.7957747E-01  0.3434582E+00
         13   -1    0    0    0    0  0.00000000000E+00  0.00000000000E+00  0.14999999963E+04  0.15000000000E+04  0.10566000000E+00 0. -1.
        994   -1    0    0    0    0 -0.00000000000E+00 -0.00000000000E+00  0.11368683772E-12  0.17120000000E+03  0.17120000000E+03 0.  0.
         13    1    1    2    0    0 -0.49857627614E+01 -0.25368023933E+02  0.13277099208E+03  0.13526471074E+03  0.10566000000E+00 0. -1.
        994    1    1    2    0    0  0.28604004534E+02  0.28258299997E+02  0.75594226187E+01  0.17602075294E+03  0.17120000000E+03 0.  0.
        998    1    1    2    0    0 -0.23618241772E+02 -0.28902760641E+01  0.13596695816E+04  0.13599145363E+04  0.10000000000E+02 0. -1.
</event>
<event>
 5    1  0.1245771E-008  0.3759476E+03  0.7957747E-01  0.3468996E+00
         13   -1    0    0    0    0  0.00000000000E+00  0.00000000000E+00  0.14999999963E+04  0.15000000000E+04  0.10566000000E+00 0.  1.
        994   -1    0    0    0    0 -0.00000000000E+00 -0.00000000000E+00  0.11368683772E-12  0.17120000000E+03  0.17120000000E+03 0.  0.
         13    1    1    2    0    0 -0.11698173966E+00 -0.28055864154E+02  0.62320557167E+02  0.68344774547E+02  0.10566000000E+00 0.  1.
        994    1    1    2    0    0 -0.81047922097E+01  0.12976158876E+02  0.69864304466E+01  0.17202418018E+03  0.17120000000E+03 0.  0.
        998    1    1    2    0    0  0.82217739494E+01  0.15079705278E+02  0.14306930087E+04  0.14308310453E+04  0.10000000000E+02 0.  1.
</event>
<event>
 5    1  0.1245771E-008  0.3833305E+03  0.7957747E-01  0.3436784E+00
         13   -1    0    0    0    0  0.00000000000E+00  0.00000000000E+00  0.14999999963E+04  0.15000000000E+04  0.10566000000E+00 0.  1.
        994   -1    0    0    0    0 -0.00000000000E+00 -0.00000000000E+00  0.11368683772E-12  0.17120000000E+03  0.17120000000E+03 0.  0.
         13    1    1    2    0    0 -0.13982986317E+02 -0.26205265919E+02  0.15538257654E+03  0.15819606862E+03  0.10566000000E+00 0.  1.
        994    1    1    2    0    0  0.19377433987E+02  0.29449289717E+02  0.65813557882E+01  0.17491569357E+03  0.17120000000E+03 0.  0.
        998    1    1    2    0    0 -0.53944476697E+01 -0.32440237981E+01  0.13380360639E+04  0.13380882378E+04  0.10000000000E+02 0.  1.
</event>
<event>
 5    1  0.1245771E-008  0.3980260E+03  0.7957747E-01  0.3376239E+00
         13   -1    0    0    0    0  0.00000000000E+00  0.00000000000E+00  0.14999999963E+04  0.15000000000E+04  0.10566000000E+00 0.  1.
        994   -1    0    0    0    0 -0.00000000000E+00 -0.00000000000E+00  0.11368683772E-12  0.17120000000E+03  0.17120000000E+03 0.  0.
         13    1    1    2    0    0  0.61288712517E+01 -0.68530445542E+02  0.78257772153E+02  0.10420304744E+03  0.10566000000E+00 0.  1.
        994    1    1    2    0    0  0.11665768258E+02  0.61275103823E+02  0.41874167071E+02  0.18695885741E+03  0.17120000000E+03 0.  0.
        998    1    1    2    0    0 -0.17794639510E+02  0.72553417194E+01  0.13798680571E+04  0.13800380951E+04  0.10000000000E+02 0.  1.
</event>
<event>
 5    1  0.1245771E-008  0.3686527E+03  0.7957747E-01  0.3502106E+00
         13   -1    0    0    0    0  0.00000000000E+00  0.00000000000E+00  0.14999999963E+04  0.15000000000E+04  0.10566000000E+00 0. -1.
        994   -1    0    0    0    0 -0.00000000000E+00 -0.00000000000E+00  0.11368683772E-12  0.17120000000E+03  0.17120000000E+03 0.  0.
         13    1    1    2    0    0  0.64709238830E+02 -0.54055720858E+02  0.35164633504E+03  0.36161369258E+03  0.10566000000E+00 0. -1.
        994    1    1    2    0    0 -0.16949862055E+02  0.58951260471E+02  0.23161590334E+02  0.18332607071E+03  0.17120000000E+03 0.  0.
        998    1    1    2    0    0 -0.47759376776E+02 -0.48955396129E+01  0.11251920709E+04  0.11262602367E+04  0.10000000000E+02 0. -1.
</event>
<event>
 5    1  0.1245771E-008  0.3798544E+03  0.7957747E-01  0.3451793E+00
         13   -1    0    0    0    0  0.00000000000E+00  0.00000000000E+00  0.14999999963E+04  0.15000000000E+04  0.10566000000E+00 0.  1.
        994   -1    0    0    0    0 -0.00000000000E+00 -0.00000000000E+00  0.11368683772E-12  0.17120000000E+03  0.17120000000E+03 0.  0.
         13    1    1    2    0    0  0.21749574072E+02  0.11332230850E+03  0.33436099956E+03  0.35371214110E+03  0.10566000000E+00 0.  1.
        994    1    1    2    0    0 -0.30399322053E+02 -0.98461249448E+02  0.55792606506E+02  0.20746322895E+03  0.17120000000E+03 0.  0.
        998    1    1    2    0    0  0.86497479815E+01 -0.14861059055E+02  0.11098463902E+04  0.11100246299E+04  0.10000000000E+02 0.  1.
</event>
<event>
 5    1  0.1245771E-008  0.3841441E+03  0.7957747E-01  0.3433310E+00
         13   -1    0    0    0    0  0.00000000000E+00  0.00000000000E+00  0.14999999963E+04  0.15000000000E+04  0.10566000000E+00 0. -1.
        994   -1    0    0    0    0 -0.00000000000E+00 -0.00000000000E+00  0.11368683772E-12  0.17120000000E+03  0.17120000000E+03 0.  0.
         13    1    1    2    0    0 -0.13769688338E+02 -0.17089968357E+02  0.12822419576E+03  0.13008891912E+03  0.10566000000E+00 0. -1.
        994    1    1    2    0    0 -0.38146363035E+01  0.58857315014E+01  0.22178960719E+01  0.17135796552E+03  0.17120000000E+03 0.  0.
        998    1    1    2    0    0  0.17584324642E+02  0.11204236856E+02  0.13695579044E+04  0.13697531154E+04  0.10000000000E+02 0. -1.
</event>
<event>
 5    1  0.1245771E-008  0.3737014E+03  0.7957747E-01  0.3479051E+00
         13   -1    0    0    0    0  0.00000000000E+00  0.00000000000E+00  0.14999999963E+04  0.15000000000E+04  0.10566000000E+00 0. -1.
        994   -1    0    0    0    0 -0.00000000000E+00 -0.00000000000E+00  0.11368683772E-12  0.17120000000E+03  0.17120000000E+03 0.  0.
         13    1    1    2    0    0  0.35339662876E+02 -0.27805165680E+02  0.11989030002E+03  0.12804575047E+03  0.10566000000E+00 0. -1.
        994    1    1    2    0    0 -0.39238540590E+02  0.37779506607E+02  0.17545250144E+02  0.18051102457E+03  0.17120000000E+03 0.  0.
        998    1    1    2    0    0  0.38988777132E+01 -0.99743409266E+01  0.13625644461E+04  0.13626432250E+04  0.10000000000E+02 0. -1.
</event>
<event>
 5    1  0.1245771E-008  0.3726959E+03  0.7957747E-01  0.3483592E+00
         13   -1    0    0    0    0  0.00000000000E+00  0.00000000000E+00  0.14999999963E+04  0.15000000000E+04  0.10566000000E+00 0.  1.
        994   -1    0    0    0    0 -0.00000000000E+00 -0.00000000000E+00  0.11368683772E-12  0.17120000000E+03  0.17120000000E+03 0.  0.
         13    1    1    2    0    0 -0.27286527046E+01 -0.27081771785E+02  0.42471847376E+02  0.50445385241E+02  0.10566000000E+00 0.  1.
        994    1    1    2    0    0  0.73924067344E+01  0.29829854128E+02  0.11109139637E+02  0.17429090871E+03  0.17120000000E+03 0.  0.
        998    1    1    2    0    0 -0.46637540299E+01 -0.27480823431E+01  0.14464190093E+04  0.14464637061E+04  0.10000000000E+02 0.  1.
</event>
<event>
 5    1  0.1245771E-008  0.3788446E+03  0.7957747E-01  0.3456205E+00
         13   -1    0    0    0    0  0.00000000000E+00  0.00000000000E+00  0.14999999963E+04  0.15000000000E+04  0.10566000000E+00 0. -1.
        994   -1    0    0    0    0 -0.00000000000E+00 -0.00000000000E+00  0.11368683772E-12  0.17120000000E+03  0.17120000000E+03 0.  0.
         13    1    1    2    0    0  0.15383870858E+02  0.36653066054E+02  0.17910464034E+03  0.18346278666E+03  0.10566000000E+00 0. -1.
        994    1    1    2    0    0 -0.12807893987E+02 -0.72579401568E+01  0.54450847164E+01  0.17191802928E+03  0.17120000000E+03 0.  0.
        998    1    1    2    0    0 -0.25759768709E+01 -0.29395125897E+02  0.13154502712E+04  0.13158191841E+04  0.10000000000E+02 0. -1.
</event>
<event>
 5    1  0.1245771E-008  0.3796326E+03  0.7957747E-01  0.3452760E+00
         13   -1    0    0    0    0  0.00000000000E+00  0.00000000000E+00  0.14999999963E+04  0.15000000000E+04  0.10566000000E+00 0.  1.
        994   -1    0    0    0    0 -0.00000000000E+00 -0.00000000000E+00  0.11368683772E-12  0.17120000000E+03  0.17120000000E+03 0.  0.
         13    1    1    2    0    0  0.11610680846E+02  0.78516651337E+01  0.21129636327E+02  0.25356049583E+02  0.10566000000E+00 0.  1.
        994    1    1    2    0    0 -0.14015876487E+01 -0.96333825748E+01  0.46359536757E+01  0.17153920419E+03  0.17120000000E+03 0.  0.
        998    1    1    2    0    0 -0.10209093197E+02  0.17817174411E+01  0.14742344063E+04  0.14743047462E+04  0.10000000000E+02 0.  1.
</event>
<event>
 5    1  0.1245771E-008  0.3856323E+03  0.7957747E-01  0.3426995E+00
         13   -1    0    0    0    0  0.00000000000E+00  0.00000000000E+00  0.14999999963E+04  0.15000000000E+04  0.10566000000E+00 0. -1.
        994   -1    0    0    0    0 -0.00000000000E+00 -0.00000000000E+00  0.11368683772E-12  0.17120000000E+03  0.17120000000E+03 0.  0.
         13    1    1    2    0    0  0.85710045979E+01 -0.89797783883E+01  0.57778740284E+02  0.59097314089E+02  0.10566000000E+00 0. -1.
        994    1    1    2    0    0 -0.18845845271E+02 -0.20769152831E+01  0.24971977569E+01  0.17226478299E+03  0.17120000000E+03 0.  0.
        998    1    1    2    0    0  0.10274840674E+02  0.11056693671E+02  0.14397240582E+04  0.14398379029E+04  0.10000000000E+02 0. -1.
</event>
<event>
 5    1  0.1245771E-008  0.3411845E+03  0.7957747E-01  0.3639797E+00
         13   -1    0    0    0    0  0.00000000000E+00  0.00000000000E+00  0.14999999963E+04  0.15000000000E+04  0.10566000000E+00 0. -1.
        994   -1    0    0    0    0 -0.00000000000E+00 -0.00000000000E+00  0.11368683772E-12  0.17120000000E+03  0.17120000000E+03 0.  0.
         13    1    1    2    0    0 -0.45865500740E+02  0.22204954928E+03  0.98453401838E+03  0.10103053454E+04  0.10566000000E+00 0. -1.
        994    1    1    2    0    0  0.37607171153E+02 -0.17440679279E+03  0.14396103743E+03  0.28612278657E+03  0.17120000000E+03 0.  0.
        998    1    1    2    0    0  0.82583295864E+01 -0.47642756489E+02  0.37150494047E+03  0.37477186800E+03  0.10000000000E+02 0.  1.
</event>
<event>
 5    1  0.1245771E-008  0.3757408E+03  0.7957747E-01  0.3469916E+00
         13   -1    0    0    0    0  0.00000000000E+00  0.00000000000E+00  0.14999999963E+04  0.15000000000E+04  0.10566000000E+00 0. -1.
        994   -1    0    0    0    0 -0.00000000000E+00 -0.00000000000E+00  0.11368683772E-12  0.17120000000E+03  0.17120000000E+03 0.  0.
         13    1    1    2    0    0  0.18131565590E+02 -0.99828041093E+01  0.32684618705E+02  0.38687278433E+02  0.10566000000E+00 0. -1.
        994    1    1    2    0    0  0.20176176782E+01  0.37231066001E+01  0.63596346880E+01  0.17137040951E+03  0.17120000000E+03 0.  0.
        998    1    1    2    0    0 -0.20149183268E+02  0.62596975092E+01  0.14609557429E+04  0.14611423121E+04  0.10000000000E+02 0. -1.
</event>
<event>
 5    1  0.1245771E-008  0.3817851E+03  0.7957747E-01  0.3443422E+00
         13   -1    0    0    0    0  0.00000000000E+00  0.00000000000E+00  0.14999999963E+04  0.15000000000E+04  0.10566000000E+00 0. -1.
        994   -1    0    0    0    0 -0.00000000000E+00 -0.00000000000E+00  0.11368683772E-12  0.17120000000E+03  0.17120000000E+03 0.  0.
         13    1    1    2    0    0 -0.81845321631E+01 -0.19991296724E+02  0.72052991517E+02  0.75221561151E+02  0.10566000000E+00 0. -1.
        994    1    1    2    0    0  0.96484882395E+01  0.77993479153E+01  0.37464415952E+01  0.17168983365E+03  0.17120000000E+03 0.  0.
        998    1    1    2    0    0 -0.14639560764E+01  0.12191948809E+02  0.14242005632E+04  0.14242886052E+04  0.10000000000E+02 0. -1.
</event>
<event>
 5    1  0.1245771E-008  0.3813362E+03  0.7957747E-01  0.3445361E+00
         13   -1    0    0    0    0  0.00000000000E+00  0.00000000000E+00  0.14999999963E+04  0.15000000000E+04  0.10566000000E+00 0. -1.
        994   -1    0    0    0    0 -0.00000000000E+00 -0.00000000000E+00  0.11368683772E-12  0.17120000000E+03  0.17120000000E+03 0.  0.
         13    1    1    2    0    0 -0.98993084499E+01  0.20646360572E+02  0.71542706634E+02  0.75117498289E+02  0.10566000000E+00 0. -1.
        994    1    1    2    0    0  0.20535727426E+02 -0.16046782607E+02  0.57240267816E+01  0.17326690340E+03  0.17120000000E+03 0.  0.
        998    1    1    2    0    0 -0.10636418976E+02 -0.45995779651E+01  0.14227332629E+04  0.14228155983E+04  0.10000000000E+02 0. -1.
</event>
<event>
 5    1  0.1245771E-008  0.3847138E+03  0.7957747E-01  0.3430887E+00
         13   -1    0    0    0    0  0.00000000000E+00  0.00000000000E+00  0.14999999963E+04  0.15000000000E+04  0.10566000000E+00 0. -1.
        994   -1    0    0    0    0 -0.00000000000E+00 -0.00000000000E+00  0.11368683772E-12  0.17120000000E+03  0.17120000000E+03 0.  0.
         13    1    1    2    0    0  0.20512369270E+02 -0.20727105688E+01  0.10965104952E+03  0.11157247531E+03  0.10566000000E+00 0. -1.
        994    1    1    2    0    0 -0.24033869724E+02  0.38049636683E+01  0.37237548202E+01  0.17296072095E+03  0.17120000000E+03 0.  0.
        998    1    1    2    0    0  0.35215004539E+01 -0.17322530995E+01  0.13866251919E+04  0.13866668037E+04  0.10000000000E+02 0. -1.
</event>
<event>
 5    1  0.1245771E-008  0.3830861E+03  0.7957747E-01  0.3437830E+00
         13   -1    0    0    0    0  0.00000000000E+00  0.00000000000E+00  0.14999999963E+04  0.15000000000E+04  0.10566000000E+00 0.  1.
        994   -1    0    0    0    0 -0.00000000000E+00 -0.00000000000E+00  0.11368683772E-12  0.17120000000E+03  0.17120000000E+03 0.  0.
         13    1    1    2    0    0  0.21373493326E+02 -0.74848133062E+01  0.95358097814E+02  0.98010339404E+02  0.10566000000E+00 0.  1.
        994    1    1    2    0    0 -0.22465435652E+02 -0.49317508961E+01  0.43359461041E+01  0.17279252992E+03  0.17120000000E+03 0.  0.
        998    1    1    2    0    0  0.10919423256E+01  0.12416564202E+02  0.14003059524E+04  0.14003971307E+04  0.10000000000E+02 0.  1.
</event>
<event>
 5    1  0.1245771E-008  0.3758384E+03  0.7957747E-01  0.3469482E+00
         13   -1    0    0    0    0  0.00000000000E+00  0.00000000000E+00  0.14999999963E+04  0.15000000000E+04  0.10566000000E+00 0. -1.
        994   -1    0    0    0    0 -0.00000000000E+00 -0.00000000000E+00  0.11368683772E-12  0.17120000000E+03  0.17120000000E+03 0.  0.
         13    1    1    2    0    0 -0.16398781375E+02  0.19071511501E+02  0.52400372028E+02  0.58124459001E+02  0.10566000000E+00 0. -1.
        994    1    1    2    0    0 -0.73591310995E+01  0.55094090192E+01  0.65353526960E+01  0.17157115501E+03  0.17120000000E+03 0.  0.
        998    1    1    2    0    0  0.23757912474E+02 -0.24580920520E+02  0.14410642716E+04  0.14415043860E+04  0.10000000000E+02 0. -1.
</event>
<event>
 5    1  0.2606198E-008  0.3861821E+03  0.7957747E-01  0.3424674E+00
         13   -1    0    0    0    0  0.00000000000E+00  0.00000000000E+00  0.14999999963E+04  0.15000000000E+04  0.10566000000E+00 0.  1.
        994   -1    0    0    0    0 -0.00000000000E+00 -0.00000000000E+00  0.11368683772E-12  0.17120000000E+03  0.17120000000E+03 0.  0.
         13    1    1    2    0    0  0.43427351157E+01 -0.10066910626E+02  0.58150307725E+02  0.59174922817E+02  0.10566000000E+00 0.  1.
        994    1    1    2    0    0 -0.35575518628E+00  0.85274045480E+01  0.12830722032E+01  0.17141741296E+03  0.17120000000E+03 0.  0.
        998    1    1    2    0    0 -0.39869799294E+01  0.15395060782E+01  0.14405666164E+04  0.14406076642E+04  0.10000000000E+02 0.  1.
</event>
<event>
 5    1  0.1245771E-008  0.3849488E+03  0.7957747E-01  0.3429889E+00
         13   -1    0    0    0    0  0.00000000000E+00  0.00000000000E+00  0.14999999963E+04  0.15000000000E+04  0.10566000000E+00 0.  1.
        994   -1    0    0    0    0 -0.00000000000E+00 -0.00000000000E+00  0.11368683772E-12  0.17120000000E+03  0.17120000000E+03 0.  0.
         13    1    1    2    0    0  0.16052059042E+02 -0.57600561941E+01  0.91634699422E+02  0.93208240778E+02  0.10566000000E+00 0.  1.
        994    1    1    2    0    0 -0.84355822811E+01 -0.71036336396E+01  0.20556937980E+01  0.17156714877E+03  0.17120000000E+03 0.  0.
        998    1    1    2    0    0 -0.76164767612E+01  0.12863689834E+02  0.14063096031E+04  0.14064246105E+04  0.10000000000E+02 0.  1.
</event>
<event>
 5    1  0.1245771E-008  0.3725096E+03  0.7957747E-01  0.3484436E+00
         13   -1    0    0    0    0  0.00000000000E+00  0.00000000000E+00  0.14999999963E+04  0.15000000000E+04  0.10566000000E+00 0. -1.
        994   -1    0    0    0    0 -0.00000000000E+00 -0.00000000000E+00  0.11368683772E-12  0.17120000000E+03  0.17120000000E+03 0.  0.
         13    1    1    2    0    0 -0.14496049042E+02  0.25800826125E+02  0.48495968070E+02  0.56812746366E+02  0.10566000000E+00 0. -1.
        994    1    1    2    0    0  0.27163842428E+02 -0.33167983837E+02  0.14290212024E+02  0.17706394226E+03  0.17120000000E+03 0.  0.
        998    1    1    2    0    0 -0.12667793386E+02  0.73671577125E+01  0.14372138162E+04  0.14373233114E+04  0.10000000000E+02 0. -1.
</event>
<event>
 5    1  0.1245771E-008  0.3767681E+03  0.7957747E-01  0.3465353E+00
         13   -1    0    0    0    0  0.00000000000E+00  0.00000000000E+00  0.14999999963E+04  0.15000000000E+04  0.10566000000E+00 0.  1.
        994   -1    0    0    0    0 -0.00000000000E+00 -0.00000000000E+00  0.11368683772E-12  0.17120000000E+03  0.17120000000E+03 0.  0.
         13    1    1    2    0    0 -0.54741203679E+02 -0.42700415882E+02  0.36609960772E+03  0.37262428642E+03  0.10566000000E+00 0.  1.
        994    1    1    2    0    0  0.56173609242E+02  0.16667900811E+02  0.17464180089E+02  0.18179034870E+03  0.17120000000E+03 0.  0.
        998    1    1    2    0    0 -0.14324055635E+01  0.26032515071E+02  0.11164362085E+04  0.11167853649E+04  0.10000000000E+02 0.  1.
</event>
<event>
 5    1  0.1245771E-008  0.3828684E+03  0.7957747E-01  0.3438763E+00
         13   -1    0    0    0    0  0.00000000000E+00  0.00000000000E+00  0.14999999963E+04  0.15000000000E+04  0.10566000000E+00 0.  1.
        994   -1    0    0    0    0 -0.00000000000E+00 -0.00000000000E+00  0.11368683772E-12  0.17120000000E+03  0.17120000000E+03 0.  0.
         13    1    1    2    0    0 -0.15867812001E+00  0.12624112741E+02  0.29619285883E+02  0.32197929460E+02  0.10566000000E+00 0.  1.
        994    1    1    2    0    0 -0.77982817415E+01  0.35592385063E+00  0.28940035953E+01  0.17140231952E+03  0.17120000000E+03 0.  0.
        998    1    1    2    0    0  0.79569598615E+01 -0.12980036591E+02  0.14674867068E+04  0.14675997510E+04  0.10000000000E+02 0.  1.
</event>
<event>
 5    1  0.1245771E-008  0.3845601E+03  0.7957747E-01  0.3431540E+00
         13   -1    0    0    0    0  0.00000000000E+00  0.00000000000E+00  0.14999999963E+04  0.15000000000E+04  0.10566000000E+00 0.  1.
        994   -1    0    0    0    0 -0.00000000000E+00 -0.00000000000E+00  0.11368683772E-12  0.17120000000E+03  0.17120000000E+03 0.  0.
         13    1    1    2    0    0  0.29834193457E+01  0.14188981644E+02  0.55382101234E+02  0.57248723061E+02  0.10566000000E+00 0.  1.
        994    1    1    2    0    0 -0.20085998529E+01 -0.13519230111E+02  0.24641557544E+01  0.17176238273E+03  0.17120000000E+03 0.  0.
        998    1    1    2    0    0 -0.97481949276E+00 -0.66975153271E+00  0.14421537393E+04  0.14421888942E+04  0.10000000000E+02 0.  1.
</event>
<event>
 5    1  0.1245771E-008  0.3815082E+03  0.7957747E-01  0.3444618E+00
         13   -1    0    0    0    0  0.00000000000E+00  0.00000000000E+00  0.14999999963E+04  0.15000000000E+04  0.10566000000E+00 0. -1.
        994   -1    0    0    0    0 -0.00000000000E+00 -0.00000000000E+00  0.11368683772E-12  0.17120000000E+03  0.17120000000E+03 0.  0.
         13    1    1    2    0    0 -0.84619219279E+01  0.87339473038E+01  0.20538432806E+02  0.23868899103E+02  0.10566000000E+00 0. -1.
        994    1    1    2    0    0  0.74117607706E+01 -0.52811326506E+01  0.36493132749E+01  0.17148055880E+03  0.17120000000E+03 0.  0.
        998    1    1    2    0    0  0.10501611573E+01 -0.34528146532E+01  0.14758122502E+04  0.14758505421E+04  0.10000000000E+02 0. -1.
</event>
<event>
 5    1  0.1245771E-008  0.3737650E+03  0.7957747E-01  0.3478765E+00
         13   -1    0    0    0    0  0.00000000000E+00  0.00000000000E+00  0.14999999963E+04  0.15000000000E+04  0.10566000000E+00 0. -1.
        994   -1    0    0    0    0 -0.00000000000E+00 -0.00000000000E+00  0.11368683772E-12  0.17120000000E+03  0.17120000000E+03 0.  0.
         13    1    1    2    0    0 -0.23114644518E+03  0.35191005789E+02  0.72823828462E+03  0.76485168259E+03  0.10566000000E+00 0. -1.
        994    1    1    2    0    0  0.26486805093E+03 -0.23983434012E+02  0.30920388241E+03  0.44231976036E+03  0.17120000000E+03 0.  0.
        998    1    1    2    0    0 -0.33721605748E+02 -0.11207571777E+02  0.46255782925E+03  0.46402855705E+03  0.10000000000E+02 0.  1.
</event>
<event>
 5    1  0.1245771E-008  0.3774294E+03  0.7957747E-01  0.3462428E+00
         13   -1    0    0    0    0  0.00000000000E+00  0.00000000000E+00  0.14999999963E+04  0.15000000000E+04  0.10566000000E+00 0. -1.
        994   -1    0    0    0    0 -0.00000000000E+00 -0.00000000000E+00  0.11368683772E-12  0.17120000000E+03  0.17120000000E+03 0.  0.
         13    1    1    2    0    0  0.11119967515E+02  0.39474246592E+02  0.16089696774E+03  0.16604130574E+03  0.10566000000E+00 0. -1.
        994    1    1    2    0    0  0.11507405824E+02 -0.19372802028E+02  0.71501492693E+01  0.17282444990E+03  0.17120000000E+03 0.  0.
        998    1    1    2    0    0 -0.22627373339E+02 -0.20101444564E+02  0.13319528793E+04  0.13323342444E+04  0.10000000000E+02 0. -1.
</event>
<event>
 5    1  0.1245771E-008  0.3839042E+03  0.7957747E-01  0.3434333E+00
         13   -1    0    0    0    0  0.00000000000E+00  0.00000000000E+00  0.14999999963E+04  0.15000000000E+04  0.10566000000E+00 0. -1.
        994   -1    0    0    0    0 -0.00000000000E+00 -0.00000000000E+00  0.11368683772E-12  0.17120000000E+03  0.17120000000E+03 0.  0.
         13    1    1    2    0    0 -0.15801236635E+02 -0.19537218200E+02  0.12325943127E+03  0.12579459660E+03  0.10566000000E+00 0. -1.
        994    1    1    2    0    0  0.86322609411E+02 -0.11328564285E+02  0.27606499638E+02  0.19403991364E+03  0.17120000000E+03 0.  0.
        998    1    1    2    0    0 -0.70521372775E+02  0.30865782485E+02  0.13491340654E+04  0.13513654898E+04  0.10000000000E+02 0. -1.
</event>
<event>
 5    1  0.1245771E-008  0.3772491E+03  0.7957747E-01  0.3463224E+00
         13   -1    0    0    0    0  0.00000000000E+00  0.00000000000E+00  0.14999999963E+04  0.15000000000E+04  0.10566000000E+00 0.  1.
        994   -1    0    0    0    0 -0.00000000000E+00 -0.00000000000E+00  0.11368683772E-12  0.17120000000E+03  0.17120000000E+03 0.  0.
         13    1    1    2    0    0 -0.15587682928E+02 -0.53082611066E+02  0.28108748364E+03  0.28648023331E+03  0.10566000000E+00 0.  1.
        994    1    1    2    0    0  0.23894513974E+02  0.23404781006E+02  0.93116890467E+01  0.17468508558E+03  0.17120000000E+03 0.  0.
        998    1    1    2    0    0 -0.83068310460E+01  0.29677830060E+02  0.12096008236E+04  0.12100346811E+04  0.10000000000E+02 0.  1.
</event>
<event>
 5    1  0.1245771E-008  0.3806301E+03  0.7957747E-01  0.3448420E+00
         13   -1    0    0    0    0  0.00000000000E+00  0.00000000000E+00  0.14999999963E+04  0.15000000000E+04  0.10566000000E+00 0.  1.
        994   -1    0    0    0    0 -0.00000000000E+00 -0.00000000000E+00  0.11368683772E-12  0.17120000000E+03  0.17120000000E+03 0.  0.
         13    1    1    2    0    0 -0.18561795004E+02 -0.23176930312E+01  0.44781610992E+02  0.48531595707E+02  0.10566000000E+00 0.  1.
        994    1    1    2    0    0  0.10286836719E+02  0.48905665935E+00  0.41693242877E+01  0.17156013946E+03  0.17120000000E+03 0.  0.
        998    1    1    2    0    0  0.82749582853E+01  0.18286363719E+01  0.14510490610E+04  0.14511082648E+04  0.10000000000E+02 0.  1.
</event>
<event>
 5    1  0.1245771E-008  0.3700276E+03  0.7957747E-01  0.3495764E+00
         13   -1    0    0    0    0  0.00000000000E+00  0.00000000000E+00  0.14999999963E+04  0.15000000000E+04  0.10566000000E+00 0.  1.
        994   -1    0    0    0    0 -0.00000000000E+00 -0.00000000000E+00  0.11368683772E-12  0.17120000000E+03  0.17120000000E+03 0.  0.
         13    1    1    2    0    0  0.35920160921E+02  0.14196151333E+03  0.54963397684E+03  0.56880651270E+03  0.10566000000E+00 0.  1.
        994    1    1    2    0    0 -0.12819735205E+02 -0.15332138527E+03  0.98973788412E+02  0.25055347450E+03  0.17120000000E+03 0.  0.
        998    1    1    2    0    0 -0.23100425716E+02  0.11359871933E+02  0.85139223103E+03  0.85184001280E+03  0.10000000000E+02 0.  1.
</event>
<event>
 5    1  0.1245771E-008  0.3796164E+03  0.7957747E-01  0.3452831E+00
         13   -1    0    0    0    0  0.00000000000E+00  0.00000000000E+00  0.14999999963E+04  0.15000000000E+04  0.10566000000E+00 0. -1.
        994   -1    0    0    0    0 -0.00000000000E+00 -0.00000000000E+00  0.11368683772E-12  0.17120000000E+03  0.17120000000E+03 0.  0.
         13    1    1    2    0    0  0.26000181389E+02  0.22700061846E+02  0.11806621183E+03  0.12300790129E+03  0.10566000000E+00 0. -1.
        994    1    1    2    0    0 -0.16874624776E+02 -0.53283591542E+02  0.14854942925E+02  0.18070418761E+03  0.17120000000E+03 0.  0.
        998    1    1    2    0    0 -0.91255566133E+01  0.30583529696E+02  0.13670788415E+04  0.13674879111E+04  0.10000000000E+02 0. -1.
</event>
<event>
 5    1  0.1245771E-008  0.3821205E+03  0.7957747E-01  0.3441977E+00
         13   -1    0    0    0    0  0.00000000000E+00  0.00000000000E+00  0.14999999963E+04  0.15000000000E+04  0.10566000000E+00 0.  1.
        994   -1    0    0    0    0 -0.00000000000E+00 -0.00000000000E+00  0.11368683772E-12  0.17120000000E+03  0.17120000000E+03 0.  0.
         13    1    1    2    0    0 -0.51413079918E+01 -0.25289420800E+02  0.10943759057E+03  0.11243925136E+03  0.10566000000E+00 0.  1.
        994    1    1    2    0    0  0.22050004789E+02  0.92490895777E+01  0.49668409592E+01  0.17293310232E+03  0.17120000000E+03 0.  0.
        998    1    1    2    0    0 -0.16908696797E+02  0.16040331222E+02  0.13855955647E+04  0.13858276463E+04  0.10000000000E+02 0.  1.
</event>
<event>
 5    1  0.1245771E-008  0.3824739E+03  0.7957747E-01  0.3440457E+00
         13   -1    0    0    0    0  0.00000000000E+00  0.00000000000E+00  0.14999999963E+04  0.15000000000E+04  0.10566000000E+00 0. -1.
        994   -1    0    0    0    0 -0.00000000000E+00 -0.00000000000E+00  0.11368683772E-12  0.17120000000E+03  0.17120000000E+03 0.  0.
         13    1    1    2    0    0 -0.18208230298E+01  0.14534714384E+02  0.35491719523E+02  0.38395919542E+02  0.10566000000E+00 0. -1.
        994    1    1    2    0    0 -0.61874718586E+01 -0.15590440262E+02  0.38229631540E+01  0.17206220295E+03  0.17120000000E+03 0.  0.
        998    1    1    2    0    0  0.80082948884E+01  0.10557258784E+01  0.14606853136E+04  0.14607418775E+04  0.10000000000E+02 0. -1.
</event>
<event>
 5    1  0.1245771E-008  0.3832651E+03  0.7957747E-01  0.3437064E+00
         13   -1    0    0    0    0  0.00000000000E+00  0.00000000000E+00  0.14999999963E+04  0.15000000000E+04  0.10566000000E+00 0. -1.
        994   -1    0    0    0    0 -0.00000000000E+00 -0.00000000000E+00  0.11368683772E-12  0.17120000000E+03  0.17120000000E+03 0.  0.
         13    1    1    2    0    0 -0.11529133911E+02  0.12537314866E+02  0.58526173589E+02  0.60954321847E+02  0.10566000000E+00 0. -1.
        994    1    1    2    0    0  0.14186805444E+02  0.27451303205E+01  0.31847998515E+01  0.17183824993E+03  0.17120000000E+03 0.  0.
        998    1    1    2    0    0 -0.26576715329E+01 -0.15282445187E+02  0.14382890228E+04  0.14384074282E+04  0.10000000000E+02 0. -1.
</event>
<event>
 5    1  0.1245771E-008  0.3761578E+03  0.7957747E-01  0.3468061E+00
         13   -1    0    0    0    0  0.00000000000E+00  0.00000000000E+00  0.14999999963E+04  0.15000000000E+04  0.10566000000E+00 0. -1.
        994   -1    0    0    0    0 -0.00000000000E+00 -0.00000000000E+00  0.11368683772E-12  0.17120000000E+03  0.17120000000E+03 0.  0.
         13    1    1    2    0    0 -0.66781934933E+01 -0.14777504283E+02  0.17626406078E+02  0.23951498000E+02  0.10566000000E+00 0. -1.
        994    1    1    2    0    0  0.55492679977E+01  0.42853609357E+02  0.12434052465E+02  0.17700641760E+03  0.17120000000E+03 0.  0.
        998    1    1    2    0    0  0.11289254956E+01 -0.28076105074E+02  0.14699395377E+04  0.14702420844E+04  0.10000000000E+02 0. -1.
</event>
<event>
 5    1  0.1245771E-008  0.3857624E+03  0.7957747E-01  0.3426445E+00
         13   -1    0    0    0    0  0.00000000000E+00  0.00000000000E+00  0.14999999963E+04  0.15000000000E+04  0.10566000000E+00 0.  1.
        994   -1    0    0    0    0 -0.00000000000E+00 -0.00000000000E+00  0.11368683772E-12  0.17120000000E+03  0.17120000000E+03 0.  0.
         13    1    1    2    0    0  0.64491975076E+01 -0.10891197439E+02  0.70709705540E+02  0.71833724335E+02  0.10566000000E+00 0.  1.
        994    1    1    2    0    0 -0.83081648279E+01 -0.88909460274E+01  0.17380198828E+01  0.17164071556E+03  0.17120000000E+03 0.  0.
        998    1    1    2    0    0  0.18589673203E+01  0.19782143467E+02  0.14275522709E+04  0.14277255601E+04  0.10000000000E+02 0.  1.
</event>
<event>
 5    1  0.1245771E-008  0.3842616E+03  0.7957747E-01  0.3432810E+00
         13   -1    0    0    0    0  0.00000000000E+00  0.00000000000E+00  0.14999999963E+04  0.15000000000E+04  0.10566000000E+00 0. -1.
        994   -1    0    0    0    0 -0.00000000000E+00 -0.00000000000E+00  0.11368683772E-12  0.17120000000E+03  0.17120000000E+03 0.  0.
         13    1    1    2    0    0 -0.14335255487E+02  0.86162283840E+01  0.67672678662E+02  0.69708977490E+02  0.10566000000E+00 0. -1.
        994    1    1    2    0    0  0.13330201454E+02 -0.87831828926E+01  0.28377109124E+01  0.17196607565E+03  0.17120000000E+03 0.  0.
        998    1    1    2    0    0  0.10050540333E+01  0.16695450861E+00  0.14294896067E+04  0.14295249469E+04  0.10000000000E+02 0.  0.
</event>
<event>
 5    1  0.1245771E-008  0.3766095E+03  0.7957747E-01  0.3466055E+00
         13   -1    0    0    0    0  0.00000000000E+00  0.00000000000E+00  0.14999999963E+04  0.15000000000E+04  0.10566000000E+00 0.  1.
        994   -1    0    0    0    0 -0.00000000000E+00 -0.00000000000E+00  0.11368683772E-12  0.17120000000E+03  0.17120000000E+03 0.  0.
         13    1    1    2    0    0 -0.25590533971E+02 -0.31048843404E+01  0.52134740943E+02  0.58159763694E+02  0.10566000000E+00 0.  1.
        994    1    1    2    0    0  0.30827757828E+02 -0.53875317763E+01  0.91727536353E+01  0.17427838524E+03  0.17120000000E+03 0.  0.
        998    1    1    2    0    0 -0.52372238577E+01  0.84924161168E+01  0.14386925017E+04  0.14387618511E+04  0.10000000000E+02 0.  1.
</event>
<event>
 5    1  0.1245771E-008  0.3743624E+03  0.7957747E-01  0.3476079E+00
         13   -1    0    0    0    0  0.00000000000E+00  0.00000000000E+00  0.14999999963E+04  0.15000000000E+04  0.10566000000E+00 0.  1.
        994   -1    0    0    0    0 -0.00000000000E+00 -0.00000000000E+00  0.11368683772E-12  0.17120000000E+03  0.17120000000E+03 0.  0.
         13    1    1    2    0    0  0.17934203831E+02 -0.25818152083E+02  0.66885523050E+02  0.73904648039E+02  0.10566000000E+00 0.  1.
        994    1    1    2    0    0 -0.20460556166E+02  0.15521742949E+02  0.92565698434E+01  0.17336286496E+03  0.17120000000E+03 0.  0.
        998    1    1    2    0    0  0.25263523350E+01  0.10296409134E+02  0.14238579034E+04  0.14239324870E+04  0.10000000000E+02 0.  1.
</event>
<event>
 5    1  0.1245771E-008  0.3691990E+03  0.7957747E-01  0.3499580E+00
         13   -1    0    0    0    0  0.00000000000E+00  0.00000000000E+00  0.14999999963E+04  0.15000000000E+04  0.10566000000E+00 0.  1.
        994   -1    0    0    0    0 -0.00000000000E+00 -0.00000000000E+00  0.11368683772E-12  0.17120000000E+03  0.17120000000E+03 0.  0.
         13    1    1    2    0    0  0.22355514077E+02  0.20240571105E+02  0.40292275821E+02  0.50328206636E+02  0.10566000000E+00 0.  1.
        994    1    1    2    0    0 -0.89371874284E+01 -0.37234770723E+01  0.10842719853E+02  0.17181601257E+03  0.17120000000E+03 0.  0.
        998    1    1    2    0    0 -0.13418326648E+02 -0.16517094033E+02  0.14488650006E+04  0.14490557808E+04  0.10000000000E+02 0.  1.
</event>
<event>
 5    1  0.1245771E-008  0.3718182E+03  0.7957747E-01  0.3487576E+00
         13   -1    0    0    0    0  0.00000000000E+00  0.00000000000E+00  0.14999999963E+04  0.15000000000E+04  0.10566000000E+00 0. -1.
        994   -1    0    0    0    0 -0.00000000000E+00 -0.00000000000E+00  0.11368683772E-12  0.17120000000E+03  0.17120000000E+03 0.  0.
         13    1    1    2    0    0  0.11416725747E+02 -0.66250577947E+02  0.38131347083E+03  0.38719433739E+03  0.10566000000E+00 0. -1.
        994    1    1    2    0    0  0.12356585809E+02 -0.29978165833E+00  0.88469265957E+01  0.17187345110E+03  0.17120000000E+03 0.  0.
        998    1    1    2    0    0 -0.23773311557E+02  0.66550359605E+02  0.11098395989E+04  0.11121322115E+04  0.10000000000E+02 0.  1.
</event>
<event>
 5    1  0.1245771E-008  0.3710487E+03  0.7957747E-01  0.3491085E+00
         13   -1    0    0    0    0  0.00000000000E+00  0.00000000000E+00  0.14999999963E+04  0.15000000000E+04  0.10566000000E+00 0.  1.
        994   -1    0    0    0    0 -0.00000000000E+00 -0.00000000000E+00  0.11368683772E-12  0.17120000000E+03  0.17120000000E+03 0.  0.
         13    1    1    2    0    0  0.94042572624E+02 -0.21536358379E+02  0.37426661752E+03  0.38650140019E+03  0.10566000000E+00 0.  1.
        994    1    1    2    0    0 -0.10010492246E+03  0.21779775236E+02  0.45798660279E+02  0.20470054077E+03  0.17120000000E+03 0.  0.
        998    1    1    2    0    0  0.60623498317E+01 -0.24341685654E+00  0.10799347185E+04  0.10799980590E+04  0.10000000000E+02 0.  1.
</event>
<event>
 5    1  0.1245771E-008  0.3816376E+03  0.7957747E-01  0.3444059E+00
         13   -1    0    0    0    0  0.00000000000E+00  0.00000000000E+00  0.14999999963E+04  0.15000000000E+04  0.10566000000E+00 0.  1.
        994   -1    0    0    0    0 -0.00000000000E+00 -0.00000000000E+00  0.11368683772E-12  0.17120000000E+03  0.17120000000E+03 0.  0.
         13    1    1    2    0    0 -0.13721453718E+02  0.15284913937E+02  0.64356261702E+02  0.67554766453E+02  0.10566000000E+00 0.  1.
        994    1    1    2    0    0 -0.15450170574E+02 -0.24276572109E+02  0.60668753262E+01  0.17370753208E+03  0.17120000000E+03 0.  0.
        998    1    1    2    0    0  0.29171624292E+02  0.89916581724E+01  0.14295768593E+04  0.14299377015E+04  0.10000000000E+02 0.  1.
</event>
<event>
 5    1  0.1845739E-008  0.3861588E+03  0.7957747E-01  0.3424773E+00
         13   -1    0    0    0    0  0.00000000000E+00  0.00000000000E+00  0.14999999963E+04  0.15000000000E+04  0.10566000000E+00 0.  1.
        994   -1    0    0    0    0 -0.00000000000E+00 -0.00000000000E+00  0.11368683772E-12  0.17120000000E+03  0.17120000000E+03 0.  0.
         13    1    1    2    0    0 -0.45665081686E+01 -0.11203240237E+02  0.70694530824E+02  0.71722335720E+02  0.10566000000E+00 0.  1.
        994    1    1    2    0    0  0.66670881621E+01  0.52415013432E+01  0.12915976963E+01  0.17141479407E+03  0.17120000000E+03 0.  0.
        998    1    1    2    0    0 -0.21005799935E+01  0.59617388939E+01  0.14280138678E+04  0.14280628702E+04  0.10000000000E+02 0.  1.
</event>
<event>
 5    1  0.1245771E-008  0.3846295E+03  0.7957747E-01  0.3431245E+00
         13   -1    0    0    0    0  0.00000000000E+00  0.00000000000E+00  0.14999999963E+04  0.15000000000E+04  0.10566000000E+00 0.  1.
        994   -1    0    0    0    0 -0.00000000000E+00 -0.00000000000E+00  0.11368683772E-12  0.17120000000E+03  0.17120000000E+03 0.  0.
         13    1    1    2    0    0  0.10641501236E+02 -0.22407424473E+01  0.31858289267E+02  0.33663396061E+02  0.10566000000E+00 0.  1.
        994    1    1    2    0    0 -0.94736705608E+01  0.43062098088E+01  0.21708547349E+01  0.17152972479E+03  0.17120000000E+03 0.  0.
        998    1    1    2    0    0 -0.11678306753E+01 -0.20654673615E+01  0.14659708523E+04  0.14660068791E+04  0.10000000000E+02 0.  1.
</event>
<event>
 5    1  0.1245771E-008  0.3722251E+03  0.7957747E-01  0.3485727E+00
         13   -1    0    0    0    0  0.00000000000E+00  0.00000000000E+00  0.14999999963E+04  0.15000000000E+04  0.10566000000E+00 0. -1.
        994   -1    0    0    0    0 -0.00000000000E+00 -0.00000000000E+00  0.11368683772E-12  0.17120000000E+03  0.17120000000E+03 0.  0.
         13    1    1    2    0    0 -0.55391048313E+02 -0.40682492207E+02  0.17104090641E+03  0.18433186440E+03  0.10566000000E+00 0. -1.
        994    1    1    2    0    0  0.52058411627E+02  0.42334726361E+02  0.28157859806E+02  0.18602315003E+03  0.17120000000E+03 0.  0.
        998    1    1    2    0    0  0.33326366857E+01 -0.16522341539E+01  0.13008012301E+04  0.13008449856E+04  0.10000000000E+02 0. -1.
</event>
<event>
 5    1  0.1245771E-008  0.3845429E+03  0.7957747E-01  0.3431613E+00
         13   -1    0    0    0    0  0.00000000000E+00  0.00000000000E+00  0.14999999963E+04  0.15000000000E+04  0.10566000000E+00 0. -1.
        994   -1    0    0    0    0 -0.00000000000E+00 -0.00000000000E+00  0.11368683772E-12  0.17120000000E+03  0.17120000000E+03 0.  0.
         13    1    1    2    0    0 -0.58012477591E+01 -0.10894399442E+02  0.38909273467E+02  0.40820156057E+02  0.10566000000E+00 0. -1.
        994    1    1    2    0    0  0.26662551350E+01  0.18943372328E+02  0.30634891520E+01  0.17229273124E+03  0.17120000000E+03 0.  0.
        998    1    1    2    0    0  0.31349926241E+01 -0.80489728859E+01  0.14580272337E+04  0.14580871127E+04  0.10000000000E+02 0. -1.
</event>
<event>
 5    1  0.1245771E-008  0.3734841E+03  0.7957747E-01  0.3480030E+00
         13   -1    0    0    0    0  0.00000000000E+00  0.00000000000E+00  0.14999999963E+04  0.15000000000E+04  0.10566000000E+00 0.  1.
        994   -1    0    0    0    0 -0.00000000000E+00 -0.00000000000E+00  0.11368683772E-12  0.17120000000E+03  0.17120000000E+03 0.  0.
         13    1    1    2    0    0  0.64947299782E+01  0.10024174966E+02  0.60699282750E+01  0.13398537030E+02  0.10566000000E+00 0.  1.
        994    1    1    2    0    0 -0.61978152516E+01 -0.12411919639E+02  0.81170929657E+01  0.17195288849E+03  0.17120000000E+03 0.  0.
        998    1    1    2    0    0 -0.29691472653E+00  0.23877446728E+01  0.14858129750E+04  0.14858485745E+04  0.10000000000E+02 0.  1.
</event>
<event>
 5    1  0.1245771E-008  0.3798961E+03  0.7957747E-01  0.3451611E+00
         13   -1    0    0    0    0  0.00000000000E+00  0.00000000000E+00  0.14999999963E+04  0.15000000000E+04  0.10566000000E+00 0. -1.
        994   -1    0    0    0    0 -0.00000000000E+00 -0.00000000000E+00  0.11368683772E-12  0.17120000000E+03  0.17120000000E+03 0.  0.
         13    1    1    2    0    0 -0.40431485441E+02  0.27768065182E+02  0.27441616739E+03  0.27876516021E+03  0.10566000000E+00 0. -1.
        994    1    1    2    0    0  0.32327216980E+02 -0.10886964805E+02  0.80864604674E+01  0.17475241287E+03  0.17120000000E+03 0.  0.
        998    1    1    2    0    0  0.81042684608E+01 -0.16881100377E+02  0.12174973684E+04  0.12176824269E+04  0.10000000000E+02 0. -1.
</event>
<event>
 5    1  0.1245771E-008  0.3841414E+03  0.7957747E-01  0.3433322E+00
         13   -1    0    0    0    0  0.00000000000E+00  0.00000000000E+00  0.14999999963E+04  0.15000000000E+04  0.10566000000E+00 0.  1.
        994   -1    0    0    0    0 -0.00000000000E+00 -0.00000000000E+00  0.11368683772E-12  0.17120000000E+03  0.17120000000E+03 0.  0.
         13    1    1    2    0    0 -0.15354992057E+02  0.12941646181E+02  0.93181559184E+02  0.95320911257E+02  0.10566000000E+00 0.  1.
        994    1    1    2    0    0  0.63309606355E+01 -0.23348133302E+02  0.39893396358E+01  0.17294672943E+03  0.17120000000E+03 0.  0.
        998    1    1    2    0    0  0.90240314219E+01  0.10406487121E+02  0.14028290975E+04  0.14029323593E+04  0.10000000000E+02 0.  1.
</event>
<event>
 5    1  0.1245771E-008  0.3791315E+03  0.7957747E-01  0.3454949E+00
         13   -1    0    0    0    0  0.00000000000E+00  0.00000000000E+00  0.14999999963E+04  0.15000000000E+04  0.10566000000E+00 0. -1.
        994   -1    0    0    0    0 -0.00000000000E+00 -0.00000000000E+00  0.11368683772E-12  0.17120000000E+03  0.17120000000E+03 0.  0.
         13    1    1    2    0    0 -0.13884635327E+02 -0.60566505401E+01  0.23768205949E+02  0.28185189231E+02  0.10566000000E+00 0. -1.
        994    1    1    2    0    0 -0.19580549407E+01  0.87291763523E+01  0.48405792141E+01  0.17150190584E+03  0.17120000000E+03 0.  0.
        998    1    1    2    0    0  0.15842690268E+02 -0.26725258122E+01  0.14713912111E+04  0.14715129049E+04  0.10000000000E+02 0. -1.
</event>
<event>
 5    1  0.1245771E-008  0.3815523E+03  0.7957747E-01  0.3444427E+00
         13   -1    0    0    0    0  0.00000000000E+00  0.00000000000E+00  0.14999999963E+04  0.15000000000E+04  0.10566000000E+00 0.  1.
        994   -1    0    0    0    0 -0.00000000000E+00 -0.00000000000E+00  0.11368683772E-12  0.17120000000E+03  0.17120000000E+03 0.  0.
         13    1    1    2    0    0  0.25608715549E+02  0.21001014312E+02  0.14618941178E+03  0.14989397651E+03  0.10566000000E+00 0.  1.
        994    1    1    2    0    0 -0.26402978975E+02 -0.23405986075E+02  0.75032069031E+01  0.17495912550E+03  0.17120000000E+03 0.  0.
        998    1    1    2    0    0  0.79426342650E+00  0.24049717627E+01  0.13463073776E+04  0.13463468980E+04  0.10000000000E+02 0.  1.
</event>
<event>
 5    1  0.1245771E-008  0.3807174E+03  0.7957747E-01  0.3448041E+00
         13   -1    0    0    0    0  0.00000000000E+00  0.00000000000E+00  0.14999999963E+04  0.15000000000E+04  0.10566000000E+00 0. -1.
        994   -1    0    0    0    0 -0.00000000000E+00 -0.00000000000E+00  0.11368683772E-12  0.17120000000E+03  0.17120000000E+03 0.  0.
         13    1    1    2    0    0 -0.76707566459E+01  0.12930211172E+02  0.29027242198E+02  0.32689796911E+02  0.10566000000E+00 0. -1.
        994    1    1    2    0    0  0.57015583372E+01 -0.15783356735E+01  0.38881771260E+01  0.17134630674E+03  0.17120000000E+03 0.  0.
        998    1    1    2    0    0  0.19691983087E+01 -0.11351875498E+02  0.14670845770E+04  0.14671638964E+04  0.10000000000E+02 0. -1.
</event>
<event>
 5    1  0.1245771E-008  0.3699407E+03  0.7957747E-01  0.3496163E+00
         13   -1    0    0    0    0  0.00000000000E+00  0.00000000000E+00  0.14999999963E+04  0.15000000000E+04  0.10566000000E+00 0. -1.
        994   -1    0    0    0    0 -0.00000000000E+00 -0.00000000000E+00  0.11368683772E-12  0.17120000000E+03  0.17120000000E+03 0.  0.
         13    1    1    2    0    0  0.49326486269E+01 -0.27600538773E+02  0.37493125369E+02  0.46817372598E+02  0.10566000000E+00 0. -1.
        994    1    1    2    0    0 -0.86048634062E+01  0.28569201962E+02  0.12385026079E+02  0.17422133005E+03  0.17120000000E+03 0.  0.
        998    1    1    2    0    0  0.36722147793E+01 -0.96866318933E+00  0.14501218448E+04  0.14501612973E+04  0.10000000000E+02 0. -1.
</event>
<event>
 5    1  0.1245771E-008  0.3701056E+03  0.7957747E-01  0.3495406E+00
         13   -1    0    0    0    0  0.00000000000E+00  0.00000000000E+00  0.14999999963E+04  0.15000000000E+04  0.10566000000E+00 0.  1.
        994   -1    0    0    0    0 -0.00000000000E+00 -0.00000000000E+00  0.11368683772E-12  0.17120000000E+03  0.17120000000E+03 0.  0.
         13    1    1    2    0    0 -0.26357743659E+01  0.26073733065E+02  0.33964737251E+02  0.42899899802E+02  0.10566000000E+00 0.  1.
        994    1    1    2    0    0 -0.24499127797E+01 -0.13491612996E+02  0.98640208979E+01  0.17203128960E+03  0.17120000000E+03 0.  0.
        998    1    1    2    0    0  0.50856871456E+01 -0.12582120069E+02  0.14561712381E+04  0.14562688106E+04  0.10000000000E+02 0.  1.
</event>
<event>
 5    1  0.1245771E-008  0.3835622E+03  0.7957747E-01  0.3435793E+00
         13   -1    0    0    0    0  0.00000000000E+00  0.00000000000E+00  0.14999999963E+04  0.15000000000E+04  0.10566000000E+00 0. -1.
        994   -1    0    0    0    0 -0.00000000000E+00 -0.00000000000E+00  0.11368683772E-12  0.17120000000E+03  0.17120000000E+03 0.  0.
         13    1    1    2    0    0  0.10561756752E+01  0.14252455870E+02  0.41942633905E+02  0.44310762895E+02  0.10566000000E+00 0. -1.
        994    1    1    2    0    0 -0.72299892934E+00 -0.14662712835E+02  0.30580758805E+01  0.17185549076E+03  0.17120000000E+03 0.  0.
        998    1    1    2    0    0 -0.33317674583E+00  0.41025696522E+00  0.14549992865E+04  0.14550337463E+04  0.10000000000E+02 0. -1.
</event>
<event>
 5    1  0.1245771E-008  0.3840424E+03  0.7957747E-01  0.3433744E+00
         13   -1    0    0    0    0  0.00000000000E+00  0.00000000000E+00  0.14999999963E+04  0.15000000000E+04  0.10566000000E+00 0.  1.
        994   -1    0    0    0    0 -0.00000000000E+00 -0.00000000000E+00  0.11368683772E-12  0.17120000000E+03  0.17120000000E+03 0.  0.
         13    1    1    2    0    0 -0.12049715680E+02  0.11906388441E+02  0.67069873504E+02  0.69176129044E+02  0.10566000000E+00 0.  1.
        994    1    1    2    0    0  0.92777279947E+01 -0.86294180366E+01  0.26361235541E+01  0.17168847439E+03  0.17120000000E+03 0.  0.
        998    1    1    2    0    0  0.27719876854E+01 -0.32769704041E+01  0.14302939992E+04  0.14303353966E+04  0.10000000000E+02 0.  1.
</event>
<event>
 5    1  0.1245771E-008  0.3849428E+03  0.7957747E-01  0.3429915E+00
         13   -1    0    0    0    0  0.00000000000E+00  0.00000000000E+00  0.14999999963E+04  0.15000000000E+04  0.10566000000E+00 0. -1.
        994   -1    0    0    0    0 -0.00000000000E+00 -0.00000000000E+00  0.11368683772E-12  0.17120000000E+03  0.17120000000E+03 0.  0.
         13    1    1    2    0    0 -0.42247398456E+01 -0.16068239640E+02  0.85733972573E+02  0.87329044247E+02  0.10566000000E+00 0. -1.
        994    1    1    2    0    0  0.60302072672E+01  0.53403021386E+01  0.18719736838E+01  0.17139961059E+03  0.17120000000E+03 0.  0.
        998    1    1    2    0    0 -0.18054674217E+01  0.10727937502E+02  0.14123940500E+04  0.14124713452E+04  0.10000000000E+02 0. -1.
</event>
<event>
 5    1  0.1245771E-008  0.4187162E+03  0.7957747E-01  0.3298163E+00
         13   -1    0    0    0    0  0.00000000000E+00  0.00000000000E+00  0.14999999963E+04  0.15000000000E+04  0.10566000000E+00 0. -1.
        994   -1    0    0    0    0 -0.00000000000E+00 -0.00000000000E+00  0.11368683772E-12  0.17120000000E+03  0.17120000000E+03 0.  0.
         13    1    1    2    0    0 -0.19583223554E+02  0.11027994884E+01 -0.12483255150E+02  0.23249981390E+02  0.10566000000E+00 0. -1.
        994    1    1    2    0    0  0.49974989060E+02  0.53942513156E+01  0.50270761382E+02  0.18537310196E+03  0.17120000000E+03 0.  0.
        998    1    1    2    0    0 -0.30391765506E+02 -0.64970508040E+01  0.14622124900E+04  0.14625769167E+04  0.10000000000E+02 0. -1.
</event>
<event>
 5    1  0.1245771E-008  0.3818013E+03  0.7957747E-01  0.3443353E+00
         13   -1    0    0    0    0  0.00000000000E+00  0.00000000000E+00  0.14999999963E+04  0.15000000000E+04  0.10566000000E+00 0.  1.
        994   -1    0    0    0    0 -0.00000000000E+00 -0.00000000000E+00  0.11368683772E-12  0.17120000000E+03  0.17120000000E+03 0.  0.
         13    1    1    2    0    0 -0.14736873663E+02 -0.64899474995E+00  0.31552063906E+02  0.34830167102E+02  0.10566000000E+00 0.  1.
        994    1    1    2    0    0  0.18901062915E+02  0.85014363411E+00  0.44171248486E+01  0.17229893765E+03  0.17120000000E+03 0.  0.
        998    1    1    2    0    0 -0.41641892520E+01 -0.20114888415E+00  0.14640308075E+04  0.14640708952E+04  0.10000000000E+02 0.  1.
</event>
<event>
 5    1  0.1245771E-008  0.3842022E+03  0.7957747E-01  0.3433063E+00
         13   -1    0    0    0    0  0.00000000000E+00  0.00000000000E+00  0.14999999963E+04  0.15000000000E+04  0.10566000000E+00 0.  1.
        994   -1    0    0    0    0 -0.00000000000E+00 -0.00000000000E+00  0.11368683772E-12  0.17120000000E+03  0.17120000000E+03 0.  0.
         13    1    1    2    0    0 -0.17617478876E+02 -0.18050801593E+02  0.13968067419E+03  0.14193980733E+03  0.10566000000E+00 0.  1.
        994    1    1    2    0    0  0.29299141497E+02  0.12461851328E+02  0.53764039507E+01  0.17421849256E+03  0.17120000000E+03 0.  0.
        998    1    1    2    0    0 -0.11681662621E+02  0.55889502658E+01  0.13549429181E+04  0.13550417001E+04  0.10000000000E+02 0.  1.
</event>
<event>
 5    1  0.1245771E-008  0.3743144E+03  0.7957747E-01  0.3476295E+00
         13   -1    0    0    0    0  0.00000000000E+00  0.00000000000E+00  0.14999999963E+04  0.15000000000E+04  0.10566000000E+00 0. -1.
        994   -1    0    0    0    0 -0.00000000000E+00 -0.00000000000E+00  0.11368683772E-12  0.17120000000E+03  0.17120000000E+03 0.  0.
         13    1    1    2    0    0  0.55132878630E+02 -0.33389404053E+02  0.22061405482E+03  0.22983702695E+03  0.10566000000E+00 0. -1.
        994    1    1    2    0    0 -0.78421736944E+02  0.34017942582E+02  0.32350750679E+02  0.19407009124E+03  0.17120000000E+03 0.  0.
        998    1    1    2    0    0  0.23288858313E+02 -0.62853852930E+00  0.12470351908E+04  0.12472928818E+04  0.10000000000E+02 0. -1.
</event>
<event>
 5    1  0.1245771E-008  0.3753158E+03  0.7957747E-01  0.3471812E+00
         13   -1    0    0    0    0  0.00000000000E+00  0.00000000000E+00  0.14999999963E+04  0.15000000000E+04  0.10566000000E+00 0.  1.
        994   -1    0    0    0    0 -0.00000000000E+00 -0.00000000000E+00  0.11368683772E-12  0.17120000000E+03  0.17120000000E+03 0.  0.
         13    1    1    2    0    0  0.55495525629E+02 -0.11014696888E+01  0.20696165404E+03  0.21427576626E+03  0.10566000000E+00 0.  1.
        994    1    1    2    0    0 -0.52379957661E+02  0.12802568377E+02  0.16454282297E+02  0.18024358276E+03  0.17120000000E+03 0.  0.
        998    1    1    2    0    0 -0.31155679684E+01 -0.11701098689E+02  0.12765840599E+04  0.12766806510E+04  0.10000000000E+02 0.  1.
</event>
<event>
 5    1  0.1285221E-008  0.3857576E+03  0.7957747E-01  0.3426466E+00
         13   -1    0    0    0    0  0.00000000000E+00  0.00000000000E+00  0.14999999963E+04  0.15000000000E+04  0.10566000000E+00 0. -1.
        994   -1    0    0    0    0 -0.00000000000E+00 -0.00000000000E+00  0.11368683772E-12  0.17120000000E+03  0.17120000000E+03 0.  0.
         13    1    1    2    0    0 -0.13929584980E+02 -0.13589197026E+01  0.74983593524E+02  0.76278636998E+02  0.10566000000E+00 0. -1.
        994    1    1    2    0    0  0.14342478644E+02  0.16887087245E+02  0.28665181040E+01  0.17265149097E+03  0.17120000000E+03 0.  0.
        998    1    1    2    0    0 -0.41289366359E+00 -0.15528167542E+02  0.14221498847E+04  0.14222698720E+04  0.10000000000E+02 0. -1.
</event>
<event>
 5    1  0.1245771E-008  0.3749153E+03  0.7957747E-01  0.3473602E+00
         13   -1    0    0    0    0  0.00000000000E+00  0.00000000000E+00  0.14999999963E+04  0.15000000000E+04  0.10566000000E+00 0. -1.
        994   -1    0    0    0    0 -0.00000000000E+00 -0.00000000000E+00  0.11368683772E-12  0.17120000000E+03  0.17120000000E+03 0.  0.
         13    1    1    2    0    0  0.42095369249E+01 -0.43516065485E+02  0.24968416352E+03  0.25348286103E+03  0.10566000000E+00 0. -1.
        994    1    1    2    0    0 -0.46280804791E+02 -0.52630404438E+02  0.23611190156E+02  0.18649075222E+03  0.17120000000E+03 0.  0.
        998    1    1    2    0    0  0.42071267866E+02  0.96146469923E+02  0.12267046426E+04  0.12312263868E+04  0.10000000000E+02 0. -1.
</event>
<event>
 5    1  0.1245771E-008  0.3822202E+03  0.7957747E-01  0.3441548E+00
         13   -1    0    0    0    0  0.00000000000E+00  0.00000000000E+00  0.14999999963E+04  0.15000000000E+04  0.10566000000E+00 0. -1.
        994   -1    0    0    0    0 -0.00000000000E+00 -0.00000000000E+00  0.11368683772E-12  0.17120000000E+03  0.17120000000E+03 0.  0.
         13    1    1    2    0    0  0.23358314193E+02 -0.15770822291E+02  0.13707985763E+03  0.13994723366E+03  0.10566000000E+00 0. -1.
        994    1    1    2    0    0 -0.75351301533E+01  0.68686618300E+01  0.33616494716E+01  0.17153628592E+03  0.17120000000E+03 0.  0.
        998    1    1    2    0    0 -0.15823184039E+02  0.89021604614E+01  0.13595584892E+04  0.13597164804E+04  0.10000000000E+02 0. -1.
</event>
<event>
 5    1  0.1245771E-008  0.3816685E+03  0.7957747E-01  0.3443926E+00
         13   -1    0    0    0    0  0.00000000000E+00  0.00000000000E+00  0.14999999963E+04  0.15000000000E+04  0.10566000000E+00 0. -1.
        994   -1    0    0    0    0 -0.00000000000E+00 -0.00000000000E+00  0.11368683772E-12  0.17120000000E+03  0.17120000000E+03 0.  0.
         13    1    1    2    0    0 -0.25941127049E+01  0.27587930060E+02  0.98344083920E+02  0.10217334932E+03  0.10566000000E+00 0. -1.
        994    1    1    2    0    0  0.49700032346E+01 -0.45728657799E+02  0.10359618382E+02  0.17757413316E+03  0.17120000000E+03 0.  0.
        998    1    1    2    0    0 -0.23758905298E+01  0.18140727738E+02  0.13912962940E+04  0.13914525175E+04  0.10000000000E+02 0. -1.
</event>
<event>
 5    1  0.1245771E-008  0.3781729E+03  0.7957747E-01  0.3459153E+00
         13   -1    0    0    0    0  0.00000000000E+00  0.00000000000E+00  0.14999999963E+04  0.15000000000E+04  0.10566000000E+00 0. -1.
        994   -1    0    0    0    0 -0.00000000000E+00 -0.00000000000E+00  0.11368683772E-12  0.17120000000E+03  0.17120000000E+03 0.  0.
         13    1    1    2    0    0  0.83370580276E+01  0.16392352347E+02  0.30926133327E+02  0.35981281781E+02  0.10566000000E+00 0. -1.
        994    1    1    2    0    0 -0.90150199996E+01 -0.15082392899E+02  0.60974034423E+01  0.17220733866E+03  0.17120000000E+03 0.  0.
        998    1    1    2    0    0  0.67796197195E+00 -0.13099594483E+01  0.14629764595E+04  0.14630113796E+04  0.10000000000E+02 0. -1.
</event>
<event>
 5    1  0.1245771E-008  0.3724968E+03  0.7957747E-01  0.3484494E+00
         13   -1    0    0    0    0  0.00000000000E+00  0.00000000000E+00  0.14999999963E+04  0.15000000000E+04  0.10566000000E+00 0. -1.
        994   -1    0    0    0    0 -0.00000000000E+00 -0.00000000000E+00  0.11368683772E-12  0.17120000000E+03  0.17120000000E+03 0.  0.
         13    1    1    2    0    0  0.67416332566E+02 -0.71142499786E+02  0.55692893530E+03  0.56548745991E+03  0.10566000000E+00 0. -1.
        994    1    1    2    0    0 -0.59599743784E+02  0.33082698986E+02  0.24071019990E+02  0.18583715569E+03  0.17120000000E+03 0.  0.
        998    1    1    2    0    0 -0.78165887821E+01  0.38059800800E+02  0.91900004099E+03  0.91987538440E+03  0.10000000000E+02 0.  1.
</event>
<event>
 5    1  0.1245771E-008  0.3853570E+03  0.7957747E-01  0.3428160E+00
         13   -1    0    0    0    0  0.00000000000E+00  0.00000000000E+00  0.14999999963E+04  0.15000000000E+04  0.10566000000E+00 0. -1.
        994   -1    0    0    0    0 -0.00000000000E+00 -0.00000000000E+00  0.11368683772E-12  0.17120000000E+03  0.17120000000E+03 0.  0.
         13    1    1    2    0    0  0.79536052390E+01  0.86443685061E+01  0.40790710715E+02  0.42448535756E+02  0.10566000000E+00 0. -1.
        994    1    1    2    0    0 -0.30650544228E+02 -0.22627521323E+02  0.62354314271E+01  0.17549866435E+03  0.17120000000E+03 0.  0.
        998    1    1    2    0    0  0.22696938989E+02  0.13983152817E+02  0.14529738541E+04  0.14532527999E+04  0.10000000000E+02 0. -1.
</event>
<event>
 5    1  0.1245771E-008  0.3845035E+03  0.7957747E-01  0.3431781E+00
         13   -1    0    0    0    0  0.00000000000E+00  0.00000000000E+00  0.14999999963E+04  0.15000000000E+04  0.10566000000E+00 0.  1.
        994   -1    0    0    0    0 -0.00000000000E+00 -0.00000000000E+00  0.11368683772E-12  0.17120000000E+03  0.17120000000E+03 0.  0.
         13    1    1    2    0    0 -0.14983007359E+02  0.14706945164E+02  0.12296376789E+03  0.12474327286E+03  0.10566000000E+00 0.  1.
        994    1    1    2    0    0 -0.64926496253E+01 -0.17737716994E+02  0.30529573039E+01  0.17226590391E+03  0.17120000000E+03 0.  0.
        998    1    1    2    0    0  0.21475656985E+02  0.30307718296E+01  0.13739832711E+04  0.13741908232E+04  0.10000000000E+02 0.  1.
</event>
<event>
 5    1  0.1245771E-008  0.3698868E+03  0.7957747E-01  0.3496411E+00
         13   -1    0    0    0    0  0.00000000000E+00  0.00000000000E+00  0.14999999963E+04  0.15000000000E+04  0.10566000000E+00 0.  1.
        994   -1    0    0    0    0 -0.00000000000E+00 -0.00000000000E+00  0.11368683772E-12  0.17120000000E+03  0.17120000000E+03 0.  0.
         13    1    1    2    0    0 -0.19342991275E+02  0.30093496729E+02  0.63600754016E+02  0.72971480267E+02  0.10566000000E+00 0.  1.
        994    1    1    2    0    0  0.25637638798E+02 -0.20266217873E+02  0.13031456124E+02  0.17477776449E+03  0.17120000000E+03 0.  0.
        998    1    1    2    0    0 -0.62946475232E+01 -0.98272788562E+01  0.14233677861E+04  0.14234507552E+04  0.10000000000E+02 0.  1.
</event>
<event>
 5    1  0.1245771E-008  0.3834196E+03  0.7957747E-01  0.3436402E+00
         13   -1    0    0    0    0  0.00000000000E+00  0.00000000000E+00  0.14999999963E+04  0.15000000000E+04  0.10566000000E+00 0. -1.
        994   -1    0    0    0    0 -0.00000000000E+00 -0.00000000000E+00  0.11368683772E-12  0.17120000000E+03  0.17120000000E+03 0.  0.
         13    1    1    2    0    0  0.32152288388E+01 -0.11127581612E+02  0.27155500695E+02  0.29522756495E+02  0.10566000000E+00 0. -1.
        994    1    1    2    0    0 -0.18992279427E+01  0.56874056360E+01  0.25356490855E+01  0.17132373789E+03  0.17120000000E+03 0.  0.
        998    1    1    2    0    0 -0.13160008960E+01  0.54401759759E+01  0.14703088465E+04  0.14703535056E+04  0.10000000000E+02 0. -1.
</event>
<event>
 5    1  0.1245771E-008  0.3840354E+03  0.7957747E-01  0.3433773E+00
         13   -1    0    0    0    0  0.00000000000E+00  0.00000000000E+00  0.14999999963E+04  0.15000000000E+04  0.10566000000E+00 0. -1.
        994   -1    0    0    0    0 -0.00000000000E+00 -0.00000000000E+00  0.11368683772E-12  0.17120000000E+03  0.17120000000E+03 0.  0.
         13    1    1    2    0    0 -0.13890128113E+01 -0.21356440735E+02  0.11152579371E+03  0.11356073592E+03  0.10566000000E+00 0. -1.
        994    1    1    2    0    0  0.14373104953E+01  0.90815425265E+01  0.23887284552E+01  0.17146336722E+03  0.17120000000E+03 0.  0.
        998    1    1    2    0    0 -0.48297684010E-01  0.12274898208E+02  0.13860854741E+04  0.13861758969E+04  0.10000000000E+02 0. -1.
</event>
<event>
 5    1  0.1245771E-008  0.3811451E+03  0.7957747E-01  0.3446188E+00
         13   -1    0    0    0    0  0.00000000000E+00  0.00000000000E+00  0.14999999963E+04  0.15000000000E+04  0.10566000000E+00 0.  1.
        994   -1    0    0    0    0 -0.00000000000E+00 -0.00000000000E+00  0.11368683772E-12  0.17120000000E+03  0.17120000000E+03 0.  0.
         13    1    1    2    0    0  0.14154669671E+02  0.26399246483E+02  0.16089971128E+03  0.16366430015E+03  0.10566000000E+00 0.  1.
        994    1    1    2    0    0 -0.50402936261E+01  0.21169620394E+02  0.51349240204E+01  0.17265388739E+03  0.17120000000E+03 0.  0.
        998    1    1    2    0    0 -0.91143760454E+01 -0.47568866877E+02  0.13339653610E+04  0.13348818125E+04  0.10000000000E+02 0.  1.
</event>
<event>
 5    1  0.1245771E-008  0.3851171E+03  0.7957747E-01  0.3429176E+00
         13   -1    0    0    0    0  0.00000000000E+00  0.00000000000E+00  0.14999999963E+04  0.15000000000E+04  0.10566000000E+00 0. -1.
        994   -1    0    0    0    0 -0.00000000000E+00 -0.00000000000E+00  0.11368683772E-12  0.17120000000E+03  0.17120000000E+03 0.  0.
         13    1    1    2    0    0  0.11703166925E+02 -0.95464977283E+01  0.69119538962E+02  0.70750417422E+02  0.10566000000E+00 0. -1.
        994    1    1    2    0    0 -0.13757194362E+02  0.10806828848E+02  0.25787440491E+01  0.17211083019E+03  0.17120000000E+03 0.  0.
        998    1    1    2    0    0  0.20540274376E+01 -0.12603311194E+01  0.14283017133E+04  0.14283387524E+04  0.10000000000E+02 0. -1.
</event>
<event>
 5    1  0.1245771E-008  0.3697745E+03  0.7957747E-01  0.3496928E+00
         13   -1    0    0    0    0  0.00000000000E+00  0.00000000000E+00  0.14999999963E+04  0.15000000000E+04  0.10566000000E+00 0.  1.
        994   -1    0    0    0    0 -0.00000000000E+00 -0.00000000000E+00  0.11368683772E-12  0.17120000000E+03  0.17120000000E+03 0.  0.
         13    1    1    2    0    0 -0.33271016086E+02  0.73308532037E+01  0.65734289969E+02  0.74038570771E+02  0.10566000000E+00 0.  1.
        994    1    1    2    0    0 -0.17324906738E+02 -0.39921154745E+01  0.10481525508E+02  0.17243953072E+03  0.17120000000E+03 0.  0.
        998    1    1    2    0    0  0.50595922824E+02 -0.33387377292E+01  0.14237841808E+04  0.14247218985E+04  0.10000000000E+02 0.  1.
</event>
<event>
 5    1  0.1245771E-008  0.3790819E+03  0.7957747E-01  0.3455166E+00
         13   -1    0    0    0    0  0.00000000000E+00  0.00000000000E+00  0.14999999963E+04  0.15000000000E+04  0.10566000000E+00 0. -1.
        994   -1    0    0    0    0 -0.00000000000E+00 -0.00000000000E+00  0.11368683772E-12  0.17120000000E+03  0.17120000000E+03 0.  0.
         13    1    1    2    0    0 -0.36246737600E+02  0.71396898830E+01  0.13495702583E+03  0.13992216101E+03  0.10566000000E+00 0. -1.
        994    1    1    2    0    0  0.35551030544E+02 -0.99425461422E+01  0.91802436584E+01  0.17537516036E+03  0.17120000000E+03 0.  0.
        998    1    1    2    0    0  0.69570705625E+00  0.28028562592E+01  0.13558627268E+04  0.13559026786E+04  0.10000000000E+02 0. -1.
</event>
<event>
 5    1  0.1245771E-008  0.3736019E+03  0.7957747E-01  0.3479499E+00
         13   -1    0    0    0    0  0.00000000000E+00  0.00000000000E+00  0.14999999963E+04  0.15000000000E+04  0.10566000000E+00 0.  1.
        994   -1    0    0    0    0 -0.00000000000E+00 -0.00000000000E+00  0.11368683772E-12  0.17120000000E+03  0.17120000000E+03 0.  0.
         13    1    1    2    0    0  0.31110619275E+02 -0.79763637406E+02  0.36639349224E+03  0.37626361877E+03  0.10566000000E+00 0.  1.
        994    1    1    2    0    0 -0.44537815761E+02  0.76020235465E+02  0.34392840609E+02  0.19558885632E+03  0.17120000000E+03 0.  0.
        998    1    1    2    0    0  0.13427196486E+02  0.37434019412E+01  0.10992136634E+04  0.10993475249E+04  0.10000000000E+02 0.  1.
</event>
<event>
 5    1  0.1245771E-008  0.3839746E+03  0.7957747E-01  0.3434033E+00
         13   -1    0    0    0    0  0.00000000000E+00  0.00000000000E+00  0.14999999963E+04  0.15000000000E+04  0.10566000000E+00 0.  1.
        994   -1    0    0    0    0 -0.00000000000E+00 -0.00000000000E+00  0.11368683772E-12  0.17120000000E+03  0.17120000000E+03 0.  0.
         13    1    1    2    0    0 -0.35810023265E+01 -0.22198744696E+02  0.11533827688E+03  0.11750973203E+03  0.10566000000E+00 0.  1.
        994    1    1    2    0    0 -0.43655520650E+01  0.17614096781E+02  0.32274537060E+01  0.17218934609E+03  0.17120000000E+03 0.  0.
        998    1    1    2    0    0  0.79465543915E+01  0.45846479155E+01  0.13814342657E+04  0.13815009219E+04  0.10000000000E+02 0.  1.
</event>
<event>
 5    1  0.1245771E-008  0.3847515E+03  0.7957747E-01  0.3430727E+00
         13   -1    0    0    0    0  0.00000000000E+00  0.00000000000E+00  0.14999999963E+04  0.15000000000E+04  0.10566000000E+00 0.  1.
        994   -1    0    0    0    0 -0.00000000000E+00 -0.00000000000E+00  0.11368683772E-12  0.17120000000E+03  0.17120000000E+03 0.  0.
         13    1    1    2    0    0  0.17586304589E+02 -0.96128848234E+00  0.96705553231E+02  0.98296375185E+02  0.10566000000E+00 0.  1.
        994    1    1    2    0    0 -0.51427291046E+00 -0.14305866259E+02  0.24283192320E+01  0.17181460654E+03  0.17120000000E+03 0.  0.
        998    1    1    2    0    0 -0.17072031678E+02  0.15267154741E+02  0.14008661238E+04  0.14010890183E+04  0.10000000000E+02 0.  1.
</event>
<event>
 5    1  0.1245771E-008  0.3735696E+03  0.7957747E-01  0.3479645E+00
         13   -1    0    0    0    0  0.00000000000E+00  0.00000000000E+00  0.14999999963E+04  0.15000000000E+04  0.10566000000E+00 0. -1.
        994   -1    0    0    0    0 -0.00000000000E+00 -0.00000000000E+00  0.11368683772E-12  0.17120000000E+03  0.17120000000E+03 0.  0.
         13    1    1    2    0    0  0.14380246261E+02  0.94967980896E+01  0.17776863972E+02  0.24759012767E+02  0.10566000000E+00 0. -1.
        994    1    1    2    0    0  0.43974238379E+01  0.15154574736E+02  0.82660513096E+01  0.17212427509E+03  0.17120000000E+03 0.  0.
        998    1    1    2    0    0 -0.18777670098E+02 -0.24651372825E+02  0.14739570810E+04  0.14743167121E+04  0.10000000000E+02 0. -1.
</event>
<event>
 5    1  0.1245771E-008  0.3806732E+03  0.7957747E-01  0.3448232E+00
         13   -1    0    0    0    0  0.00000000000E+00  0.00000000000E+00  0.14999999963E+04  0.15000000000E+04  0.10566000000E+00 0. -1.
        994   -1    0    0    0    0 -0.00000000000E+00 -0.00000000000E+00  0.11368683772E-12  0.17120000000E+03  0.17120000000E+03 0.  0.
         13    1    1    2    0    0 -0.23992041183E+02  0.86718114833E+01  0.80958430612E+02  0.84882842823E+02  0.10566000000E+00 0. -1.
        994    1    1    2    0    0  0.28321403276E+02  0.53512337517E+01  0.65695710028E+01  0.17373352253E+03  0.17120000000E+03 0.  0.
        998    1    1    2    0    0 -0.43293620935E+01 -0.14023045235E+02  0.14124719947E+04  0.14125836347E+04  0.10000000000E+02 0. -1.
</event>
<event>
 5    1  0.1245771E-008  0.3855762E+03  0.7957747E-01  0.3427232E+00
         13   -1    0    0    0    0  0.00000000000E+00  0.00000000000E+00  0.14999999963E+04  0.15000000000E+04  0.10566000000E+00 0. -1.
        994   -1    0    0    0    0 -0.00000000000E+00 -0.00000000000E+00  0.11368683772E-12  0.17120000000E+03  0.17120000000E+03 0.  0.
         13    1    1    2    0    0  0.59379630541E+00 -0.15971984421E+02  0.94785762975E+02  0.96123924739E+02  0.10566000000E+00 0. -1.
        994    1    1    2    0    0 -0.38483885275E+00  0.11254251278E+02  0.17607086654E+01  0.17157897997E+03  0.17120000000E+03 0.  0.
        998    1    1    2    0    0 -0.20895745266E+00  0.47177331439E+01  0.14034535246E+04  0.14034970953E+04  0.10000000000E+02 0. -1.
</event>
<event>
 5    1  0.1245771E-008  0.3853521E+03  0.7957747E-01  0.3428180E+00
         13   -1    0    0    0    0  0.00000000000E+00  0.00000000000E+00  0.14999999963E+04  0.15000000000E+04  0.10566000000E+00 0.  1.
        994   -1    0    0    0    0 -0.00000000000E+00 -0.00000000000E+00  0.11368683772E-12  0.17120000000E+03  0.17120000000E+03 0.  0.
         13    1    1    2    0    0 -0.79187674677E+01  0.82824764955E+01  0.47179413118E+02  0.48551153244E+02  0.10566000000E+00 0.  1.
        994    1    1    2    0    0  0.87762648868E+01  0.78078832042E+01  0.19088040107E+01  0.17161313877E+03  0.17120000000E+03 0.  0.
        998    1    1    2    0    0 -0.85749741906E+00 -0.16090359700E+02  0.14509117792E+04  0.14510357080E+04  0.10000000000E+02 0.  1.
</event>
<event>
 5    1  0.1245771E-008  0.3867300E+03  0.7957747E-01  0.3422368E+00
         13   -1    0    0    0    0  0.00000000000E+00  0.00000000000E+00  0.14999999963E+04  0.15000000000E+04  0.10566000000E+00 0.  1.
        994   -1    0    0    0    0 -0.00000000000E+00 -0.00000000000E+00  0.11368683772E-12  0.17120000000E+03  0.17120000000E+03 0.  0.
         13    1    1    2    0    0 -0.42967376964E+02 -0.89226986632E+02  0.20512255607E+03  0.22777823601E+03  0.10566000000E+00 0.  1.
        994    1    1    2    0    0  0.57230427148E+02  0.81802369884E+02  0.58133723951E+02  0.20653309510E+03  0.17120000000E+03 0.  0.
        998    1    1    2    0    0 -0.14263050184E+02  0.74246167475E+01  0.12367437163E+04  0.12368886689E+04  0.10000000000E+02 0.  1.
</event>
<event>
 5    1  0.1245771E-008  0.3845344E+03  0.7957747E-01  0.3431649E+00
         13   -1    0    0    0    0  0.00000000000E+00  0.00000000000E+00  0.14999999963E+04  0.15000000000E+04  0.10566000000E+00 0.  1.
        994   -1    0    0    0    0 -0.00000000000E+00 -0.00000000000E+00  0.11368683772E-12  0.17120000000E+03  0.17120000000E+03 0.  0.
         13    1    1    2    0    0  0.22153031915E+02  0.24705882243E+01  0.13176097522E+03  0.13363317846E+03  0.10566000000E+00 0.  1.
        994    1    1    2    0    0 -0.14903333913E+02 -0.22607862907E+01  0.26102216813E+01  0.17188215083E+03  0.17120000000E+03 0.  0.
        998    1    1    2    0    0 -0.72496980022E+01 -0.20980193358E+00  0.13656287994E+04  0.13656846707E+04  0.10000000000E+02 0.  1.
</event>
<event>
 5    1  0.1245771E-008  0.3806773E+03  0.7957747E-01  0.3448215E+00
         13   -1    0    0    0    0  0.00000000000E+00  0.00000000000E+00  0.14999999963E+04  0.15000000000E+04  0.10566000000E+00 0. -1.
        994   -1    0    0    0    0 -0.00000000000E+00 -0.00000000000E+00  0.11368683772E-12  0.17120000000E+03  0.17120000000E+03 0.  0.
         13    1    1    2    0    0  0.73659530144E+01  0.31648743966E+02  0.13025896653E+03  0.13425092098E+03  0.10566000000E+00 0. -1.
        994    1    1    2    0    0  0.56273159546E+01 -0.31054689541E+02  0.71210549695E+01  0.17423033562E+03  0.17120000000E+03 0.  0.
        998    1    1    2    0    0 -0.12993268969E+02 -0.59405442527E+00  0.13626199748E+04  0.13627187434E+04  0.10000000000E+02 0. -1.
</event>
<event>
 5    1  0.1245771E-008  0.3729792E+03  0.7957747E-01  0.3482310E+00
         13   -1    0    0    0    0  0.00000000000E+00  0.00000000000E+00  0.14999999963E+04  0.15000000000E+04  0.10566000000E+00 0. -1.
        994   -1    0    0    0    0 -0.00000000000E+00 -0.00000000000E+00  0.11368683772E-12  0.17120000000E+03  0.17120000000E+03 0.  0.
         13    1    1    2    0    0 -0.17504959784E+03  0.12231714880E+03  0.12417809490E+04  0.12600094377E+04  0.10566000000E+00 0. -1.
        994    1    1    2    0    0  0.19440768319E+03 -0.99141535720E+02  0.19083612125E+03  0.33667678352E+03  0.17120000000E+03 0.  0.
        998    1    1    2    0    0 -0.19358085341E+02 -0.23175613085E+02  0.67382926027E+02  0.74513778793E+02  0.10000000000E+02 0. -1.
</event>
<event>
 5    1  0.1245771E-008  0.2594004E+03  0.7957747E-01  0.4236614E+00
         13   -1    0    0    0    0  0.00000000000E+00  0.00000000000E+00  0.14999999963E+04  0.15000000000E+04  0.10566000000E+00 0.  1.
        994   -1    0    0    0    0 -0.00000000000E+00 -0.00000000000E+00  0.11368683772E-12  0.17120000000E+03  0.17120000000E+03 0.  0.
         13    1    1    2    0    0 -0.87028868314E+02  0.16126522102E+03  0.29807457842E+03  0.34989850085E+03  0.10566000000E+00 0.  1.
        994    1    1    2    0    0  0.10506703694E+03 -0.16275957341E+03  0.22088511458E+03  0.34004328376E+03  0.17120000000E+03 0.  0.
        998    1    1    2    0    0 -0.18038168629E+02  0.14943523871E+01  0.98104030328E+03  0.98125821539E+03  0.10000000000E+02 0.  1.
</event>
<event>
 5    1  0.1245771E-008  0.4074406E+03  0.7957747E-01  0.3339739E+00
         13   -1    0    0    0    0  0.00000000000E+00  0.00000000000E+00  0.14999999963E+04  0.15000000000E+04  0.10566000000E+00 0. -1.
        994   -1    0    0    0    0 -0.00000000000E+00 -0.00000000000E+00  0.11368683772E-12  0.17120000000E+03  0.17120000000E+03 0.  0.
         13    1    1    2    0    0  0.41609956571E+02  0.27195801718E+01  0.10813505930E+02  0.43078157768E+02  0.10566000000E+00 0. -1.
        994    1    1    2    0    0 -0.89390083354E+02 -0.61091479037E+02  0.81443360497E+02  0.21832365145E+03  0.17120000000E+03 0.  0.
        998    1    1    2    0    0  0.47780126783E+02  0.58371898865E+02  0.14077431299E+04  0.14097981908E+04  0.10000000000E+02 0. -1.
</event>
<event>
 5    1  0.1245771E-008  0.3849980E+03  0.7957747E-01  0.3429681E+00
         13   -1    0    0    0    0  0.00000000000E+00  0.00000000000E+00  0.14999999963E+04  0.15000000000E+04  0.10566000000E+00 0. -1.
        994   -1    0    0    0    0 -0.00000000000E+00 -0.00000000000E+00  0.11368683772E-12  0.17120000000E+03  0.17120000000E+03 0.  0.
         13    1    1    2    0    0  0.19446978072E+02  0.45979025678E+01  0.11955431317E+03  0.12121291444E+03  0.10566000000E+00 0. -1.
        994    1    1    2    0    0 -0.15189830394E+02 -0.24464624757E+01  0.24099828678E+01  0.17190684728E+03  0.17120000000E+03 0.  0.
        998    1    1    2    0    0 -0.42571476779E+01 -0.21514400920E+01  0.13780357002E+04  0.13780802383E+04  0.10000000000E+02 0. -1.
</event>
<event>
 5    1  0.1245771E-008  0.3838960E+03  0.7957747E-01  0.3434368E+00
         13   -1    0    0    0    0  0.00000000000E+00  0.00000000000E+00  0.14999999963E+04  0.15000000000E+04  0.10566000000E+00 0. -1.
        994   -1    0    0    0    0 -0.00000000000E+00 -0.00000000000E+00  0.11368683772E-12  0.17120000000E+03  0.17120000000E+03 0.  0.
         13    1    1    2    0    0 -0.82181084766E+01 -0.58794159461E+01  0.22554065378E+02  0.24714406080E+02  0.10566000000E+00 0. -1.
        994    1    1    2    0    0  0.85303712773E+01  0.40151103413E+01  0.24726828554E+01  0.17147723612E+03  0.17120000000E+03 0.  0.
        998    1    1    2    0    0 -0.31226280071E+00  0.18643056048E+01  0.14749732480E+04  0.14750083578E+04  0.10000000000E+02 0. -1.
</event>
<event>
 5    1  0.1245771E-008  0.3754974E+03  0.7957747E-01  0.3471001E+00
         13   -1    0    0    0    0  0.00000000000E+00  0.00000000000E+00  0.14999999963E+04  0.15000000000E+04  0.10566000000E+00 0.  1.
        994   -1    0    0    0    0 -0.00000000000E+00 -0.00000000000E+00  0.11368683772E-12  0.17120000000E+03  0.17120000000E+03 0.  0.
         13    1    1    2    0    0  0.21062320672E+02 -0.34701613134E+02  0.11978913635E+03  0.12648032123E+03  0.10566000000E+00 0.  1.
        994    1    1    2    0    0 -0.42297125413E+02  0.16135091496E+02  0.13410044928E+02  0.17759126471E+03  0.17120000000E+03 0.  0.
        998    1    1    2    0    0  0.21234804740E+02  0.18566521638E+02  0.13668008150E+04  0.13671284141E+04  0.10000000000E+02 0.  1.
</event>
<event>
 5    1  0.1245771E-008  0.3703326E+03  0.7957747E-01  0.3494364E+00
         13   -1    0    0    0    0  0.00000000000E+00  0.00000000000E+00  0.14999999963E+04  0.15000000000E+04  0.10566000000E+00 0. -1.
        994   -1    0    0    0    0 -0.00000000000E+00 -0.00000000000E+00  0.11368683772E-12  0.17120000000E+03  0.17120000000E+03 0.  0.
         13    1    1    2    0    0  0.27037154103E+02 -0.40367258954E+02  0.93153522250E+02  0.10506242511E+03  0.10566000000E+00 0. -1.
        994    1    1    2    0    0 -0.29449859856E+02  0.50312144690E+02  0.23106659859E+02  0.18232378857E+03  0.17120000000E+03 0.  0.
        998    1    1    2    0    0  0.24127057530E+01 -0.99448857366E+01  0.13837398142E+04  0.13838137863E+04  0.10000000000E+02 0. -1.
</event>
<event>
 5    1  0.1245771E-008  0.3744898E+03  0.7957747E-01  0.3475508E+00
         13   -1    0    0    0    0  0.00000000000E+00  0.00000000000E+00  0.14999999963E+04  0.15000000000E+04  0.10566000000E+00 0.  1.
        994   -1    0    0    0    0 -0.00000000000E+00 -0.00000000000E+00  0.11368683772E-12  0.17120000000E+03  0.17120000000E+03 0.  0.
         13    1    1    2    0    0  0.15042327430E+02  0.28965743222E+02  0.75010266389E+02  0.81803649813E+02  0.10566000000E+00 0.  1.
        994    1    1    2    0    0  0.20375154694E+01 -0.20916035141E+02  0.84461698389E+01  0.17269166100E+03  0.17120000000E+03 0.  0.
        998    1    1    2    0    0 -0.17079842899E+02 -0.80497080809E+01  0.14165435601E+04  0.14167046892E+04  0.10000000000E+02 0.  1.
</event>
<event>
 5    1  0.1245771E-008  0.4096397E+03  0.7957747E-01  0.3331453E+00
         13   -1    0    0    0    0  0.00000000000E+00  0.00000000000E+00  0.14999999963E+04  0.15000000000E+04  0.10566000000E+00 0.  1.
        994   -1    0    0    0    0 -0.00000000000E+00 -0.00000000000E+00  0.11368683772E-12  0.17120000000E+03  0.17120000000E+03 0.  0.
         13    1    1    2    0    0  0.23926022887E+01 -0.82940439829E+02  0.10487094217E+03  0.13372646253E+03  0.10566000000E+00 0.  1.
        994    1    1    2    0    0 -0.17700599710E+02  0.15875379554E+02  0.35980458576E+02  0.17654849845E+03  0.17120000000E+03 0.  0.
        998    1    1    2    0    0  0.15307997421E+02  0.67065060275E+02  0.13591485955E+04  0.13609250390E+04  0.10000000000E+02 0.  1.
</event>
<event>
 5    1  0.1245771E-008  0.3694533E+03  0.7957747E-01  0.3498407E+00
         13   -1    0    0    0    0  0.00000000000E+00  0.00000000000E+00  0.14999999963E+04  0.15000000000E+04  0.10566000000E+00 0. -1.
        994   -1    0    0    0    0 -0.00000000000E+00 -0.00000000000E+00  0.11368683772E-12  0.17120000000E+03  0.17120000000E+03 0.  0.
         13    1    1    2    0    0 -0.33516452012E+02 -0.12087486426E+03  0.75768721287E+03  0.76800000591E+03  0.10566000000E+00 0. -1.
        994    1    1    2    0    0  0.26036570229E+02  0.69158318814E+02  0.29955279250E+02  0.18885850472E+03  0.17120000000E+03 0.  0.
        998    1    1    2    0    0  0.74798817828E+01  0.51716545445E+02  0.71235750416E+03  0.71434148937E+03  0.10000000000E+02 0. -1.
</event>
<event>
 5    1  0.1245771E-008  0.3837095E+03  0.7957747E-01  0.3435164E+00
         13   -1    0    0    0    0  0.00000000000E+00  0.00000000000E+00  0.14999999963E+04  0.15000000000E+04  0.10566000000E+00 0.  1.
        994   -1    0    0    0    0 -0.00000000000E+00 -0.00000000000E+00  0.11368683772E-12  0.17120000000E+03  0.17120000000E+03 0.  0.
         13    1    1    2    0    0  0.13595717986E+02  0.12063967182E+02  0.76788756494E+02  0.78910754271E+02  0.10566000000E+00 0.  1.
        994    1    1    2    0    0 -0.48243997180E+01  0.34574595841E+01  0.23885402618E+01  0.17131950847E+03  0.17120000000E+03 0.  0.
        998    1    1    2    0    0 -0.87713182680E+01 -0.15521426766E+02  0.14208226995E+04  0.14209697373E+04  0.10000000000E+02 0.  1.
</event>
<event>
 5    1  0.1663323E-008  0.3861419E+03  0.7957747E-01  0.3424844E+00
         13   -1    0    0    0    0  0.00000000000E+00  0.00000000000E+00  0.14999999963E+04  0.15000000000E+04  0.10566000000E+00 0. -1.
        994   -1    0    0    0    0 -0.00000000000E+00 -0.00000000000E+00  0.11368683772E-12  0.17120000000E+03  0.17120000000E+03 0.  0.
         13    1    1    2    0    0  0.19123774702E+01  0.10334120801E+02  0.50860134533E+02  0.51934725272E+02  0.10566000000E+00 0. -1.
        994    1    1    2    0    0 -0.31488242726E+01 -0.11707521974E+02  0.15459996970E+01  0.17163569349E+03  0.17120000000E+03 0.  0.
        998    1    1    2    0    0  0.12364468024E+01  0.13734011729E+01  0.14475938620E+04  0.14476295812E+04  0.10000000000E+02 0. -1.
</event>
<event>
 5    1  0.1245771E-008  0.3794479E+03  0.7957747E-01  0.3453566E+00
         13   -1    0    0    0    0  0.00000000000E+00  0.00000000000E+00  0.14999999963E+04  0.15000000000E+04  0.10566000000E+00 0. -1.
        994   -1    0    0    0    0 -0.00000000000E+00 -0.00000000000E+00  0.11368683772E-12  0.17120000000E+03  0.17120000000E+03 0.  0.
         13    1    1    2    0    0 -0.21384486515E+02  0.39937418012E+02  0.26412032569E+03  0.26797733342E+03  0.10566000000E+00 0. -1.
        994    1    1    2    0    0  0.82245418971E+01 -0.74173071752E+01  0.48230150797E+01  0.17162564205E+03  0.17120000000E+03 0.  0.
        998    1    1    2    0    0  0.13159944618E+02 -0.32520110837E+02  0.12310566555E+04  0.12315970245E+04  0.10000000000E+02 0. -1.
</event>
<event>
 5    1  0.1245771E-008  0.3723747E+03  0.7957747E-01  0.3485048E+00
         13   -1    0    0    0    0  0.00000000000E+00  0.00000000000E+00  0.14999999963E+04  0.15000000000E+04  0.10566000000E+00 0. -1.
        994   -1    0    0    0    0 -0.00000000000E+00 -0.00000000000E+00  0.11368683772E-12  0.17120000000E+03  0.17120000000E+03 0.  0.
         13    1    1    2    0    0 -0.83598580022E+00 -0.23862877127E+02  0.31498214323E+02  0.39525744099E+02  0.10566000000E+00 0. -1.
        994    1    1    2    0    0  0.93399993997E-01  0.24871235068E+02  0.10157476776E+02  0.17329512801E+03  0.17120000000E+03 0.  0.
        998    1    1    2    0    0  0.74258580622E+00 -0.10083579412E+01  0.14583443052E+04  0.14583791279E+04  0.10000000000E+02 0. -1.
</event>
<event>
 5    1  0.1245771E-008  0.3847407E+03  0.7957747E-01  0.3430772E+00
         13   -1    0    0    0    0  0.00000000000E+00  0.00000000000E+00  0.14999999963E+04  0.15000000000E+04  0.10566000000E+00 0. -1.
        994   -1    0    0    0    0 -0.00000000000E+00 -0.00000000000E+00  0.11368683772E-12  0.17120000000E+03  0.17120000000E+03 0.  0.
         13    1    1    2    0    0  0.25150351574E+01  0.15263315625E+02  0.68699496785E+02  0.70419643767E+02  0.10566000000E+00 0. -1.
        994    1    1    2    0    0  0.15301022801E+02 -0.11279833546E+02  0.29491806468E+01  0.17227737405E+03  0.17120000000E+03 0.  0.
        998    1    1    2    0    0 -0.17816057958E+02 -0.39834820793E+01  0.14283513188E+04  0.14285029822E+04  0.10000000000E+02 0. -1.
</event>
<event>
 5    1  0.1245771E-008  0.3855306E+03  0.7957747E-01  0.3427425E+00
         13   -1    0    0    0    0  0.00000000000E+00  0.00000000000E+00  0.14999999963E+04  0.15000000000E+04  0.10566000000E+00 0. -1.
        994   -1    0    0    0    0 -0.00000000000E+00 -0.00000000000E+00  0.11368683772E-12  0.17120000000E+03  0.17120000000E+03 0.  0.
         13    1    1    2    0    0  0.98310371855E+01  0.68517639790E+01  0.61379073379E+02  0.62537970663E+02  0.10566000000E+00 0. -1.
        994    1    1    2    0    0  0.14896352844E+02  0.27732987300E+01  0.21210615008E+01  0.17188231851E+03  0.17120000000E+03 0.  0.
        998    1    1    2    0    0 -0.24727390029E+02 -0.96250627090E+01  0.14364998614E+04  0.14367797108E+04  0.10000000000E+02 0. -1.
</event>
<event>
 5    1  0.1245771E-008  0.3857367E+03  0.7957747E-01  0.3426554E+00
         13   -1    0    0    0    0  0.00000000000E+00  0.00000000000E+00  0.14999999963E+04  0.15000000000E+04  0.10566000000E+00 0.  1.
        994   -1    0    0    0    0 -0.00000000000E+00 -0.00000000000E+00  0.11368683772E-12  0.17120000000E+03  0.17120000000E+03 0.  0.
         13    1    1    2    0    0 -0.10643855388E+02 -0.42276819411E+01  0.50225700981E+02  0.51515018734E+02  0.10566000000E+00 0.  1.
        994    1    1    2    0    0  0.11560682416E+02  0.88811659935E+01  0.19623927595E+01  0.17183077569E+03  0.17120000000E+03 0.  0.
        998    1    1    2    0    0 -0.91682702769E+00 -0.46534840524E+01  0.14478119025E+04  0.14478542056E+04  0.10000000000E+02 0.  1.
</event>
<event>
 5    1  0.2701565E-008  0.3857700E+03  0.7957747E-01  0.3426413E+00
         13   -1    0    0    0    0  0.00000000000E+00  0.00000000000E+00  0.14999999963E+04  0.15000000000E+04  0.10566000000E+00 0.  1.
        994   -1    0    0    0    0 -0.00000000000E+00 -0.00000000000E+00  0.11368683772E-12  0.17120000000E+03  0.17120000000E+03 0.  0.
         13    1    1    2    0    0  0.27087759169E+01 -0.98479305025E+01  0.42259187161E+02  0.43476076936E+02  0.10566000000E+00 0.  1.
        994    1    1    2    0    0 -0.74696302315E+00  0.62337031576E+01  0.13776438330E+01  0.17132062022E+03  0.17120000000E+03 0.  0.
        998    1    1    2    0    0 -0.19618128937E+01  0.36142273449E+01  0.14563631653E+04  0.14564033028E+04  0.10000000000E+02 0.  1.
</event>
<event>
 5    1  0.1245771E-008  0.3837216E+03  0.7957747E-01  0.3435112E+00
         13   -1    0    0    0    0  0.00000000000E+00  0.00000000000E+00  0.14999999963E+04  0.15000000000E+04  0.10566000000E+00 0. -1.
        994   -1    0    0    0    0 -0.00000000000E+00 -0.00000000000E+00  0.11368683772E-12  0.17120000000E+03  0.17120000000E+03 0.  0.
         13    1    1    2    0    0 -0.13897188988E+02  0.55834979793E+01  0.51643639843E+02  0.53771591122E+02  0.10566000000E+00 0. -1.
        994    1    1    2    0    0 -0.31230148454E+01 -0.49631977092E+01  0.23797510056E+01  0.17131692785E+03  0.17120000000E+03 0.  0.
        998    1    1    2    0    0  0.17020203833E+02 -0.62030027018E+00  0.14459766054E+04  0.14461114810E+04  0.10000000000E+02 0. -1.
</event>
<event>
 5    1  0.1245771E-008  0.3856716E+03  0.7957747E-01  0.3426829E+00
         13   -1    0    0    0    0  0.00000000000E+00  0.00000000000E+00  0.14999999963E+04  0.15000000000E+04  0.10566000000E+00 0. -1.
        994   -1    0    0    0    0 -0.00000000000E+00 -0.00000000000E+00  0.11368683772E-12  0.17120000000E+03  0.17120000000E+03 0.  0.
         13    1    1    2    0    0  0.58405027307E+01 -0.14440374726E+02 -0.26813848048E+01  0.15806229243E+02  0.10566000000E+00 0. -1.
        994    1    1    2    0    0 -0.54418497312E+01  0.19544225642E+02  0.21002720957E+02  0.17367252164E+03  0.17120000000E+03 0.  0.
        998    1    1    2    0    0 -0.39865299951E+00 -0.51038509159E+01  0.14816786601E+04  0.14817212491E+04  0.10000000000E+02 0. -1.
</event>
<event>
 5    1  0.1245771E-008  0.3845732E+03  0.7957747E-01  0.3431484E+00
         13   -1    0    0    0    0  0.00000000000E+00  0.00000000000E+00  0.14999999963E+04  0.15000000000E+04  0.10566000000E+00 0.  1.
        994   -1    0    0    0    0 -0.00000000000E+00 -0.00000000000E+00  0.11368683772E-12  0.17120000000E+03  0.17120000000E+03 0.  0.
         13    1    1    2    0    0 -0.10847540314E+02 -0.10378020205E+02  0.59547608789E+02  0.61410921754E+02  0.10566000000E+00 0.  1.
        994    1    1    2    0    0  0.11672419412E+02  0.80583459967E+01  0.25050117472E+01  0.17180482356E+03  0.17120000000E+03 0.  0.
        998    1    1    2    0    0 -0.82487909869E+00  0.23196742083E+01  0.14379473757E+04  0.14379842547E+04  0.10000000000E+02 0.  1.
</event>
<event>
 5    1  0.1245771E-008  0.3851023E+03  0.7957747E-01  0.3429239E+00
         13   -1    0    0    0    0  0.00000000000E+00  0.00000000000E+00  0.14999999963E+04  0.15000000000E+04  0.10566000000E+00 0.  1.
        994   -1    0    0    0    0 -0.00000000000E+00 -0.00000000000E+00  0.11368683772E-12  0.17120000000E+03  0.17120000000E+03 0.  0.
         13    1    1    2    0    0  0.15607886017E+02  0.90017969304E+01  0.91281040395E+02  0.93042344949E+02  0.10566000000E+00 0.  1.
        994    1    1    2    0    0 -0.30921997720E+02 -0.22813936637E+01  0.47463401911E+01  0.17404982748E+03  0.17120000000E+03 0.  0.
        998    1    1    2    0    0  0.15314111703E+02 -0.67204032666E+01  0.14039726157E+04  0.14041078276E+04  0.10000000000E+02 0.  1.
</event>
<event>
 5    1  0.1245771E-008  0.3781301E+03  0.7957747E-01  0.3459341E+00
         13   -1    0    0    0    0  0.00000000000E+00  0.00000000000E+00  0.14999999963E+04  0.15000000000E+04  0.10566000000E+00 0.  1.
        994   -1    0    0    0    0 -0.00000000000E+00 -0.00000000000E+00  0.11368683772E-12  0.17120000000E+03  0.17120000000E+03 0.  0.
         13    1    1    2    0    0 -0.14771679190E+02 -0.11844818398E+02  0.32467275171E+02  0.37585068179E+02  0.10566000000E+00 0.  1.
        994    1    1    2    0    0  0.15266120173E+02  0.14125537641E+02  0.65364666780E+01  0.17258259077E+03  0.17120000000E+03 0.  0.
        998    1    1    2    0    0 -0.49444098332E+00 -0.22807192431E+01  0.14609962544E+04  0.14610323411E+04  0.10000000000E+02 0.  1.
</event>
<event>
 5    1  0.1245771E-008  0.3690431E+03  0.7957747E-01  0.3500300E+00
         13   -1    0    0    0    0  0.00000000000E+00  0.00000000000E+00  0.14999999963E+04  0.15000000000E+04  0.10566000000E+00 0. -1.
        994   -1    0    0    0    0 -0.00000000000E+00 -0.00000000000E+00  0.11368683772E-12  0.17120000000E+03  0.17120000000E+03 0.  0.
         13    1    1    2    0    0  0.46866324997E+01 -0.20860147642E+02  0.20919325419E+02  0.29912198580E+02  0.10566000000E+00 0. -1.
        994    1    1    2    0    0  0.40469482272E+01 -0.21335618356E+02  0.11407780148E+02  0.17294844275E+03  0.17120000000E+03 0.  0.
        998    1    1    2    0    0 -0.87335807268E+01  0.42195765998E+02  0.14676728907E+04  0.14683393587E+04  0.10000000000E+02 0. -1.
</event>
<event>
 5    1  0.1245771E-008  0.3706228E+03  0.7957747E-01  0.3493034E+00
         13   -1    0    0    0    0  0.00000000000E+00  0.00000000000E+00  0.14999999963E+04  0.15000000000E+04  0.10566000000E+00 0.  1.
        994   -1    0    0    0    0 -0.00000000000E+00 -0.00000000000E+00  0.11368683772E-12  0.17120000000E+03  0.17120000000E+03 0.  0.
         13    1    1    2    0    0 -0.21123913648E+02  0.13274401645E+03  0.52748813640E+03  0.54434450382E+03  0.10566000000E+00 0.  1.
        994    1    1    2    0    0  0.14044577711E+02 -0.12655278373E+03  0.70450870471E+02  0.22469005849E+03  0.17120000000E+03 0.  0.
        998    1    1    2    0    0  0.70793359367E+01 -0.61912327175E+01  0.90206098940E+03  0.90216543769E+03  0.10000000000E+02 0. -1.
</event>
<event>
 5    1  0.1245771E-008  0.3830972E+03  0.7957747E-01  0.3437782E+00
         13   -1    0    0    0    0  0.00000000000E+00  0.00000000000E+00  0.14999999963E+04  0.15000000000E+04  0.10566000000E+00 0. -1.
        994   -1    0    0    0    0 -0.00000000000E+00 -0.00000000000E+00  0.11368683772E-12  0.17120000000E+03  0.17120000000E+03 0.  0.
         13    1    1    2    0    0  0.42299450567E+01  0.10222411134E+02  0.22772673424E+02  0.25317897691E+02  0.10566000000E+00 0. -1.
        994    1    1    2    0    0 -0.22413784680E+01 -0.80508095580E+01  0.28089351959E+01  0.17142686321E+03  0.17120000000E+03 0.  0.
        998    1    1    2    0    0 -0.19885665886E+01 -0.21716015757E+01  0.14744183877E+04  0.14744552391E+04  0.10000000000E+02 0. -1.
</event>
<event>
 5    1  0.1245771E-008  0.3840593E+03  0.7957747E-01  0.3433672E+00
         13   -1    0    0    0    0  0.00000000000E+00  0.00000000000E+00  0.14999999963E+04  0.15000000000E+04  0.10566000000E+00 0.  1.
        994   -1    0    0    0    0 -0.00000000000E+00 -0.00000000000E+00  0.11368683772E-12  0.17120000000E+03  0.17120000000E+03 0.  0.
         13    1    1    2    0    0  0.10190788176E+02 -0.36739371779E+01  0.27087463953E+02  0.29173478460E+02  0.10566000000E+00 0.  1.
        994    1    1    2    0    0 -0.95879801281E+01  0.34572360083E+01  0.24406428722E+01  0.17152049027E+03  0.17120000000E+03 0.  0.
        998    1    1    2    0    0 -0.60280804776E+00  0.21670116963E+00  0.14704718895E+04  0.14705060313E+04  0.10000000000E+02 0.  1.
</event>
<event>
 5    1  0.1245771E-008  0.3812220E+03  0.7957747E-01  0.3445855E+00
         13   -1    0    0    0    0  0.00000000000E+00  0.00000000000E+00  0.14999999963E+04  0.15000000000E+04  0.10566000000E+00 0. -1.
        994   -1    0    0    0    0 -0.00000000000E+00 -0.00000000000E+00  0.11368683772E-12  0.17120000000E+03  0.17120000000E+03 0.  0.
         13    1    1    2    0    0  0.16998567849E+02  0.13742544162E+02  0.60591919553E+02  0.64414289627E+02  0.10566000000E+00 0. -1.
        994    1    1    2    0    0 -0.25651282187E+02 -0.25803260413E+02  0.79376847752E+01  0.17520343423E+03  0.17120000000E+03 0.  0.
        998    1    1    2    0    0  0.86527143377E+01  0.12060716251E+02  0.14314703920E+04  0.14315822761E+04  0.10000000000E+02 0. -1.
</event>
<event>
 5    1  0.1245771E-008  0.3716663E+03  0.7957747E-01  0.3488268E+00
         13   -1    0    0    0    0  0.00000000000E+00  0.00000000000E+00  0.14999999963E+04  0.15000000000E+04  0.10566000000E+00 0.  1.
        994   -1    0    0    0    0 -0.00000000000E+00 -0.00000000000E+00  0.11368683772E-12  0.17120000000E+03  0.17120000000E+03 0.  0.
         13    1    1    2    0    0  0.12294089982E+02  0.37695818673E+02  0.61444077001E+02  0.73126637804E+02  0.10566000000E+00 0.  1.
        994    1    1    2    0    0 -0.18828530391E+02 -0.25766500625E+02  0.15412335753E+02  0.17482964910E+03  0.17120000000E+03 0.  0.
        998    1    1    2    0    0  0.65344404091E+01 -0.11929318048E+02  0.14231435835E+04  0.14232437131E+04  0.10000000000E+02 0.  1.
</event>
<event>
 5    1  0.1245771E-008  0.3780027E+03  0.7957747E-01  0.3459901E+00
         13   -1    0    0    0    0  0.00000000000E+00  0.00000000000E+00  0.14999999963E+04  0.15000000000E+04  0.10566000000E+00 0.  1.
        994   -1    0    0    0    0 -0.00000000000E+00 -0.00000000000E+00  0.11368683772E-12  0.17120000000E+03  0.17120000000E+03 0.  0.
         13    1    1    2    0    0  0.34227341852E+01  0.55004723225E+02  0.11078628551E+03  0.12373700702E+03  0.10566000000E+00 0.  1.
        994    1    1    2    0    0  0.27608595819E+02  0.99561718407E+01  0.18339065907E+02  0.17466287888E+03  0.17120000000E+03 0.  0.
        998    1    1    2    0    0 -0.31031330005E+02 -0.64960895066E+02  0.13708746449E+04  0.13728001141E+04  0.10000000000E+02 0.  1.
</event>
<event>
 5    1  0.1245771E-008  0.3735267E+03  0.7957747E-01  0.3479838E+00
         13   -1    0    0    0    0  0.00000000000E+00  0.00000000000E+00  0.14999999963E+04  0.15000000000E+04  0.10566000000E+00 0. -1.
        994   -1    0    0    0    0 -0.00000000000E+00 -0.00000000000E+00  0.11368683772E-12  0.17120000000E+03  0.17120000000E+03 0.  0.
         13    1    1    2    0    0 -0.11121098635E+02  0.38335891445E+02  0.10850326311E+03  0.11561266660E+03  0.10566000000E+00 0. -1.
        994    1    1    2    0    0  0.25956316966E+02 -0.88655696639E+01  0.10011624798E+02  0.17367210872E+03  0.17120000000E+03 0.  0.
        998    1    1    2    0    0 -0.14835218331E+02 -0.29470321781E+02  0.13814851084E+04  0.13819152247E+04  0.10000000000E+02 0. -1.
</event>
<event>
 5    1  0.1245771E-008  0.3799957E+03  0.7957747E-01  0.3451177E+00
         13   -1    0    0    0    0  0.00000000000E+00  0.00000000000E+00  0.14999999963E+04  0.15000000000E+04  0.10566000000E+00 0.  1.
        994   -1    0    0    0    0 -0.00000000000E+00 -0.00000000000E+00  0.11368683772E-12  0.17120000000E+03  0.17120000000E+03 0.  0.
         13    1    1    2    0    0 -0.33479538853E+02  0.70109724445E+01  0.14957723678E+03  0.15343856811E+03  0.10566000000E+00 0.  1.
        994    1    1    2    0    0  0.74437286622E+01 -0.13314060352E+02  0.49135269543E+01  0.17194841100E+03  0.17120000000E+03 0.  0.
        998    1    1    2    0    0  0.26035810191E+02  0.63030879074E+01  0.13455092325E+04  0.13458130209E+04  0.10000000000E+02 0.  1.
</event>
<event>
 5    1  0.1245771E-008  0.3751625E+03  0.7957747E-01  0.3472496E+00
         13   -1    0    0    0    0  0.00000000000E+00  0.00000000000E+00  0.14999999963E+04  0.15000000000E+04  0.10566000000E+00 0. -1.
        994   -1    0    0    0    0 -0.00000000000E+00 -0.00000000000E+00  0.11368683772E-12  0.17120000000E+03  0.17120000000E+03 0.  0.
         13    1    1    2    0    0  0.16166868953E+02  0.21104064477E+02  0.49519700326E+02  0.56204635695E+02  0.10566000000E+00 0. -1.
        994    1    1    2    0    0 -0.18741264171E+02 -0.19467069044E+02  0.90800097738E+01  0.17355716158E+03  0.17120000000E+03 0.  0.
        998    1    1    2    0    0  0.25743952182E+01 -0.16369954337E+01  0.14414002862E+04  0.14414382027E+04  0.10000000000E+02 0. -1.
</event>
<event>
 5    1  0.1245771E-008  0.3835171E+03  0.7957747E-01  0.3435986E+00
         13   -1    0    0    0    0  0.00000000000E+00  0.00000000000E+00  0.14999999963E+04  0.15000000000E+04  0.10566000000E+00 0. -1.
        994   -1    0    0    0    0 -0.00000000000E+00 -0.00000000000E+00  0.11368683772E-12  0.17120000000E+03  0.17120000000E+03 0.  0.
         13    1    1    2    0    0  0.10554016718E+02  0.67703903740E+01  0.32624090210E+02  0.34950935334E+02  0.10566000000E+00 0. -1.
        994    1    1    2    0    0 -0.42053675545E+01 -0.70812378824E+01  0.25923540833E+01  0.17141758762E+03  0.17120000000E+03 0.  0.
        998    1    1    2    0    0 -0.63486491634E+01  0.31084750839E+00  0.14647835520E+04  0.14648314770E+04  0.10000000000E+02 0. -1.
</event>
<event>
 5    1  0.1245771E-008  0.3822321E+03  0.7957747E-01  0.3441497E+00
         13   -1    0    0    0    0  0.00000000000E+00  0.00000000000E+00  0.14999999963E+04  0.15000000000E+04  0.10566000000E+00 0. -1.
        994   -1    0    0    0    0 -0.00000000000E+00 -0.00000000000E+00  0.11368683772E-12  0.17120000000E+03  0.17120000000E+03 0.  0.
         13    1    1    2    0    0 -0.17094653062E+02 -0.16024935145E+02  0.87778460506E+02  0.90852050074E+02  0.10566000000E+00 0. -1.
        994    1    1    2    0    0  0.11700450854E+02  0.16148698854E+02  0.43313926751E+01  0.17241195431E+03  0.17120000000E+03 0.  0.
        998    1    1    2    0    0  0.53942022073E+01 -0.12376370938E+00  0.14078901431E+04  0.14079359956E+04  0.10000000000E+02 0. -1.
</event>
<event>
 5    1  0.1245771E-008  0.3923364E+03  0.7957747E-01  0.3399142E+00
         13   -1    0    0    0    0  0.00000000000E+00  0.00000000000E+00  0.14999999963E+04  0.15000000000E+04  0.10566000000E+00 0. -1.
        994   -1    0    0    0    0 -0.00000000000E+00 -0.00000000000E+00  0.11368683772E-12  0.17120000000E+03  0.17120000000E+03 0.  0.
         13    1    1    2    0    0 -0.21388251411E+02 -0.22955874227E+02  0.11355880942E+02  0.33367598894E+02  0.10566000000E+00 0. -1.
        994    1    1    2    0    0  0.21855001013E+02  0.20307056268E+02  0.26661643566E+02  0.17581325559E+03  0.17120000000E+03 0.  0.
        998    1    1    2    0    0 -0.46674960184E+00  0.26488179592E+01  0.14619824718E+04  0.14620191455E+04  0.10000000000E+02 0. -1.
</event>
<event>
 5    1  0.1245771E-008  0.3717470E+03  0.7957747E-01  0.3487900E+00
         13   -1    0    0    0    0  0.00000000000E+00  0.00000000000E+00  0.14999999963E+04  0.15000000000E+04  0.10566000000E+00 0. -1.
        994   -1    0    0    0    0 -0.00000000000E+00 -0.00000000000E+00  0.11368683772E-12  0.17120000000E+03  0.17120000000E+03 0.  0.
         13    1    1    2    0    0  0.26005791661E+02 -0.18737317004E+02  0.39787812692E+02  0.51092753412E+02  0.10566000000E+00 0. -1.
        994    1    1    2    0    0 -0.15715768658E+02 -0.36184485399E+01  0.12780899416E+02  0.17243221841E+03  0.17120000000E+03 0.  0.
        998    1    1    2    0    0 -0.10290023003E+02  0.22355765544E+02  0.14474312842E+04  0.14476750282E+04  0.10000000000E+02 0. -1.
</event>
<event>
 5    1  0.1245771E-008  0.3739293E+03  0.7957747E-01  0.3478025E+00
         13   -1    0    0    0    0  0.00000000000E+00  0.00000000000E+00  0.14999999963E+04  0.15000000000E+04  0.10566000000E+00 0. -1.
        994   -1    0    0    0    0 -0.00000000000E+00 -0.00000000000E+00  0.11368683772E-12  0.17120000000E+03  0.17120000000E+03 0.  0.
         13    1    1    2    0    0 -0.10591449903E+02  0.95529527141E+02  0.27947415613E+03  0.29553998795E+03  0.10566000000E+00 0. -1.
        994    1    1    2    0    0  0.65187757721E+01 -0.97897465783E+02  0.47992012547E+02  0.20307407888E+03  0.17120000000E+03 0.  0.
        998    1    1    2    0    0  0.40726741306E+01  0.23679386411E+01  0.11725338276E+04  0.11725859332E+04  0.10000000000E+02 0.  0.
</event>
<event>
 5    1  0.1245771E-008  0.3789757E+03  0.7957747E-01  0.3455631E+00
         13   -1    0    0    0    0  0.00000000000E+00  0.00000000000E+00  0.14999999963E+04  0.15000000000E+04  0.10566000000E+00 0.  1.
        994   -1    0    0    0    0 -0.00000000000E+00 -0.00000000000E+00  0.11368683772E-12  0.17120000000E+03  0.17120000000E+03 0.  0.
         13    1    1    2    0    0  0.98510181299E+01  0.23847277817E+02  0.67038304006E+02  0.71832308786E+02  0.10566000000E+00 0.  1.
        994    1    1    2    0    0 -0.79730600951E+01 -0.25357544729E+02  0.70247638017E+01  0.17339366213E+03  0.17120000000E+03 0.  0.
        998    1    1    2    0    0 -0.18779580348E+01  0.15102669123E+01  0.14259369285E+04  0.14259740291E+04  0.10000000000E+02 0.  1.
</event>
<event>
 5    1  0.1245771E-008  0.3789059E+03  0.7957747E-01  0.3455936E+00
         13   -1    0    0    0    0  0.00000000000E+00  0.00000000000E+00  0.14999999963E+04  0.15000000000E+04  0.10566000000E+00 0. -1.
        994   -1    0    0    0    0 -0.00000000000E+00 -0.00000000000E+00  0.11368683772E-12  0.17120000000E+03  0.17120000000E+03 0.  0.
         13    1    1    2    0    0  0.28685987449E+02 -0.26879418321E+02  0.14760440904E+03  0.15274967017E+03  0.10566000000E+00 0. -1.
        994    1    1    2    0    0 -0.62402137160E+02 -0.45982092146E+01  0.17936185988E+02  0.18315653692E+03  0.17120000000E+03 0.  0.
        998    1    1    2    0    0  0.33716149710E+02  0.31477627536E+02  0.13344594013E+04  0.13352937929E+04  0.10000000000E+02 0. -1.
</event>
<event>
 5    1  0.1245771E-008  0.3840025E+03  0.7957747E-01  0.3433914E+00
         13   -1    0    0    0    0  0.00000000000E+00  0.00000000000E+00  0.14999999963E+04  0.15000000000E+04  0.10566000000E+00 0.  1.
        994   -1    0    0    0    0 -0.00000000000E+00 -0.00000000000E+00  0.11368683772E-12  0.17120000000E+03  0.17120000000E+03 0.  0.
         13    1    1    2    0    0 -0.12108806417E+02 -0.34514812555E+01  0.39308667995E+02  0.41276124567E+02  0.10566000000E+00 0.  1.
        994    1    1    2    0    0 -0.64389798762E+01 -0.13645141606E+01  0.22691269052E+01  0.17134150489E+03  0.17120000000E+03 0.  0.
        998    1    1    2    0    0  0.18547786293E+02  0.48159954161E+01  0.14584222014E+04  0.14585823705E+04  0.10000000000E+02 0.  1.
</event>
<event>
 5    1  0.1245771E-008  0.3690628E+03  0.7957747E-01  0.3500209E+00
         13   -1    0    0    0    0  0.00000000000E+00  0.00000000000E+00  0.14999999963E+04  0.15000000000E+04  0.10566000000E+00 0.  1.
        994   -1    0    0    0    0 -0.00000000000E+00 -0.00000000000E+00  0.11368683772E-12  0.17120000000E+03  0.17120000000E+03 0.  0.
         13    1    1    2    0    0 -0.25148403908E+02 -0.61759767486E+02  0.23005135557E+03  0.23952108146E+03  0.10566000000E+00 0.  1.
        994    1    1    2    0    0  0.57082391178E+02  0.29808579218E+01  0.21917251313E+02  0.18181609060E+03  0.17120000000E+03 0.  0.
        998    1    1    2    0    0 -0.31933987270E+02  0.58778909564E+02  0.12480313894E+04  0.12498628279E+04  0.10000000000E+02 0.  1.
</event>
<event>
 5    1  0.1245771E-008  0.3808407E+03  0.7957747E-01  0.3447506E+00
         13   -1    0    0    0    0  0.00000000000E+00  0.00000000000E+00  0.14999999963E+04  0.15000000000E+04  0.10566000000E+00 0. -1.
        994   -1    0    0    0    0 -0.00000000000E+00 -0.00000000000E+00  0.11368683772E-12  0.17120000000E+03  0.17120000000E+03 0.  0.
         13    1    1    2    0    0  0.10732802521E+02  0.16757585526E+02  0.52780077977E+02  0.56407069751E+02  0.10566000000E+00 0. -1.
        994    1    1    2    0    0 -0.98652118941E+01 -0.48974044331E+01  0.41138672176E+01  0.17160323680E+03  0.17120000000E+03 0.  0.
        998    1    1    2    0    0 -0.86759062665E+00 -0.11860181093E+02  0.14431060511E+04  0.14431896935E+04  0.10000000000E+02 0. -1.
</event>
<event>
 5    1  0.1245771E-008  0.3854184E+03  0.7957747E-01  0.3427900E+00
         13   -1    0    0    0    0  0.00000000000E+00  0.00000000000E+00  0.14999999963E+04  0.15000000000E+04  0.10566000000E+00 0. -1.
        994   -1    0    0    0    0 -0.00000000000E+00 -0.00000000000E+00  0.11368683772E-12  0.17120000000E+03  0.17120000000E+03 0.  0.
         13    1    1    2    0    0  0.74447882964E+01  0.14601823617E+02  0.86787768045E+02  0.88321945019E+02  0.10566000000E+00 0. -1.
        994    1    1    2    0    0  0.14402164654E+02 -0.33594468706E+02  0.58226049805E+01  0.17515522659E+03  0.17120000000E+03 0.  0.
        998    1    1    2    0    0 -0.21846952950E+02  0.18992645089E+02  0.14073896233E+04  0.14077228284E+04  0.10000000000E+02 0. -1.
</event>
<event>
 5    1  0.1245771E-008  0.3823535E+03  0.7957747E-01  0.3440974E+00
         13   -1    0    0    0    0  0.00000000000E+00  0.00000000000E+00  0.14999999963E+04  0.15000000000E+04  0.10566000000E+00 0.  1.
        994   -1    0    0    0    0 -0.00000000000E+00 -0.00000000000E+00  0.11368683772E-12  0.17120000000E+03  0.17120000000E+03 0.  0.
         13    1    1    2    0    0 -0.23386563523E+02 -0.14172262430E+02  0.12897383104E+03  0.13184098238E+03  0.10566000000E+00 0.  1.
        994    1    1    2    0    0  0.11580987294E+02  0.56882296357E+01  0.35022097664E+01  0.17172122960E+03  0.17120000000E+03 0.  0.
        998    1    1    2    0    0  0.11805576229E+02  0.84840327941E+01  0.13675239555E+04  0.13676377880E+04  0.10000000000E+02 0.  1.
</event>
<event>
 5    1  0.1245771E-008  0.3833584E+03  0.7957747E-01  0.3436664E+00
         13   -1    0    0    0    0  0.00000000000E+00  0.00000000000E+00  0.14999999963E+04  0.15000000000E+04  0.10566000000E+00 0.  1.
        994   -1    0    0    0    0 -0.00000000000E+00 -0.00000000000E+00  0.11368683772E-12  0.17120000000E+03  0.17120000000E+03 0.  0.
         13    1    1    2    0    0  0.21272943591E+02  0.22210543931E+02  0.16494961246E+03  0.16779222927E+03  0.10566000000E+00 0.  1.
        994    1    1    2    0    0 -0.21160292209E+02 -0.31062449904E+02  0.71319443896E+01  0.17542217189E+03  0.17120000000E+03 0.  0.
        998    1    1    2    0    0 -0.11265138160E+00  0.88519059732E+01  0.13279184394E+04  0.13279855988E+04  0.10000000000E+02 0.  1.
</event>
<event>
 5    1  0.1245771E-008  0.3825687E+03  0.7957747E-01  0.3440050E+00
         13   -1    0    0    0    0  0.00000000000E+00  0.00000000000E+00  0.14999999963E+04  0.15000000000E+04  0.10566000000E+00 0.  1.
        994   -1    0    0    0    0 -0.00000000000E+00 -0.00000000000E+00  0.11368683772E-12  0.17120000000E+03  0.17120000000E+03 0.  0.
         13    1    1    2    0    0  0.22440880819E+02 -0.11848361806E+02  0.10204373893E+03  0.10515185509E+03  0.10566000000E+00 0.  1.
        994    1    1    2    0    0 -0.17568130531E+02  0.35611828094E+02  0.80866380129E+01  0.17593088195E+03  0.17120000000E+03 0.  0.
        998    1    1    2    0    0 -0.48727502881E+01 -0.23763466288E+02  0.13898696193E+04  0.13901172630E+04  0.10000000000E+02 0.  1.
</event>
<event>
 5    1  0.1245771E-008  0.3841781E+03  0.7957747E-01  0.3433165E+00
         13   -1    0    0    0    0  0.00000000000E+00  0.00000000000E+00  0.14999999963E+04  0.15000000000E+04  0.10566000000E+00 0. -1.
        994   -1    0    0    0    0 -0.00000000000E+00 -0.00000000000E+00  0.11368683772E-12  0.17120000000E+03  0.17120000000E+03 0.  0.
         13    1    1    2    0    0  0.68066897992E+01  0.20944213148E+02  0.47717108523E+01  0.22533785277E+02  0.10566000000E+00 0. -1.
        994    1    1    2    0    0 -0.54707376606E+01 -0.20303992704E+02  0.20270272352E+02  0.17367355882E+03  0.17120000000E+03 0.  0.
        998    1    1    2    0    0 -0.13359521385E+01 -0.64022044433E+00  0.14749580131E+04  0.14749926559E+04  0.10000000000E+02 0. -1.
</event>
<event>
 5    1  0.1245771E-008  0.3861381E+03  0.7957747E-01  0.3424860E+00
         13   -1    0    0    0    0  0.00000000000E+00  0.00000000000E+00  0.14999999963E+04  0.15000000000E+04  0.10566000000E+00 0. -1.
        994   -1    0    0    0    0 -0.00000000000E+00 -0.00000000000E+00  0.11368683772E-12  0.17120000000E+03  0.17120000000E+03 0.  0.
         13    1    1    2    0    0  0.24060158657E+01  0.11903751789E+02  0.70176524705E+02  0.71219688308E+02  0.10566000000E+00 0. -1.
        994    1    1    2    0    0  0.31378486650E+01 -0.88230406697E+01  0.13535026018E+01  0.17146126125E+03  0.17120000000E+03 0.  0.
        998    1    1    2    0    0 -0.55438645307E+01 -0.30807111188E+01  0.14284699690E+04  0.14285190504E+04  0.10000000000E+02 0. -1.
</event>
<event>
 5    1  0.1245771E-008  0.3740284E+03  0.7957747E-01  0.3477579E+00
         13   -1    0    0    0    0  0.00000000000E+00  0.00000000000E+00  0.14999999963E+04  0.15000000000E+04  0.10566000000E+00 0. -1.
        994   -1    0    0    0    0 -0.00000000000E+00 -0.00000000000E+00  0.11368683772E-12  0.17120000000E+03  0.17120000000E+03 0.  0.
         13    1    1    2    0    0  0.61346027728E+02  0.33070801938E+02  0.29478771968E+03  0.30291388858E+03  0.10566000000E+00 0. -1.
        994    1    1    2    0    0 -0.55611514038E+02 -0.19849443193E+02  0.19163904072E+02  0.18210803417E+03  0.17120000000E+03 0.  0.
        998    1    1    2    0    0 -0.57345136904E+01 -0.13221358745E+02  0.11860483725E+04  0.11861780773E+04  0.10000000000E+02 0. -1.
</event>
<event>
 5    1  0.1245771E-008  0.3808483E+03  0.7957747E-01  0.3447473E+00
         13   -1    0    0    0    0  0.00000000000E+00  0.00000000000E+00  0.14999999963E+04  0.15000000000E+04  0.10566000000E+00 0.  1.
        994   -1    0    0    0    0 -0.00000000000E+00 -0.00000000000E+00  0.11368683772E-12  0.17120000000E+03  0.17120000000E+03 0.  0.
         13    1    1    2    0    0  0.29362457126E+02  0.23902251853E+02  0.18432441803E+03  0.18817272326E+03  0.10566000000E+00 0.  1.
        994    1    1    2    0    0 -0.15399181846E+02 -0.25063062653E+02  0.65953937629E+01  0.17383391824E+03  0.17120000000E+03 0.  0.
        998    1    1    2    0    0 -0.13963275280E+02  0.11608107998E+01  0.13090801845E+04  0.13091933585E+04  0.10000000000E+02 0.  1.
</event>
<event>
 5    1  0.1245771E-008  0.2960771E+03  0.7957747E-01  0.3924429E+00
         13   -1    0    0    0    0  0.00000000000E+00  0.00000000000E+00  0.14999999963E+04  0.15000000000E+04  0.10566000000E+00 0.  1.
        994   -1    0    0    0    0 -0.00000000000E+00 -0.00000000000E+00  0.11368683772E-12  0.17120000000E+03  0.17120000000E+03 0.  0.
         13    1    1    2    0    0 -0.14382360448E+03 -0.14225798590E+03  0.60531754589E+03  0.63822559200E+03  0.10566000000E+00 0.  1.
        994    1    1    2    0    0  0.12115980074E+03  0.13561734871E+03  0.15734822152E+03  0.29519428416E+03  0.17120000000E+03 0.  0.
        998    1    1    2    0    0  0.22663803747E+02  0.66406371904E+01  0.73733422888E+03  0.73778012384E+03  0.10000000000E+02 0.  0.
</event>
<event>
 5    1  0.1245771E-008  0.3829067E+03  0.7957747E-01  0.3438599E+00
         13   -1    0    0    0    0  0.00000000000E+00  0.00000000000E+00  0.14999999963E+04  0.15000000000E+04  0.10566000000E+00 0. -1.
        994   -1    0    0    0    0 -0.00000000000E+00 -0.00000000000E+00  0.11368683772E-12  0.17120000000E+03  0.17120000000E+03 0.  0.
         13    1    1    2    0    0 -0.64194098835E+01 -0.85652636234E+01  0.19783432522E+02  0.22493730917E+02  0.10566000000E+00 0. -1.
        994    1    1    2    0    0  0.22550319778E+02  0.55718540145E+01  0.44616041937E+01  0.17282623757E+03  0.17120000000E+03 0.  0.
        998    1    1    2    0    0 -0.16130909894E+02  0.29934096089E+01  0.14757549596E+04  0.14758800315E+04  0.10000000000E+02 0. -1.
</event>
<event>
 5    1  0.1245771E-008  0.3723935E+03  0.7957747E-01  0.3484963E+00
         13   -1    0    0    0    0  0.00000000000E+00  0.00000000000E+00  0.14999999963E+04  0.15000000000E+04  0.10566000000E+00 0. -1.
        994   -1    0    0    0    0 -0.00000000000E+00 -0.00000000000E+00  0.11368683772E-12  0.17120000000E+03  0.17120000000E+03 0.  0.
         13    1    1    2    0    0 -0.10230843015E+02 -0.10165934674E+03  0.36725696878E+03  0.38120465003E+03  0.10566000000E+00 0. -1.
        994    1    1    2    0    0  0.13377962113E+02  0.80272162396E+02  0.35940921337E+02  0.19293465151E+03  0.17120000000E+03 0.  0.
        998    1    1    2    0    0 -0.31471190979E+01  0.21387184346E+02  0.10968021062E+04  0.10970606985E+04  0.10000000000E+02 0. -1.
</event>
<event>
 5    1  0.1245771E-008  0.3805893E+03  0.7957747E-01  0.3448597E+00
         13   -1    0    0    0    0  0.00000000000E+00  0.00000000000E+00  0.14999999963E+04  0.15000000000E+04  0.10566000000E+00 0. -1.
        994   -1    0    0    0    0 -0.00000000000E+00 -0.00000000000E+00  0.11368683772E-12  0.17120000000E+03  0.17120000000E+03 0.  0.
         13    1    1    2    0    0 -0.27968250651E+02  0.33915491175E+02  0.18350539387E+03  0.18869744123E+03  0.10566000000E+00 0. -1.
        994    1    1    2    0    0  0.31955548816E+02 -0.65138343004E+02  0.21603762571E+02  0.18719060710E+03  0.17120000000E+03 0.  0.
        998    1    1    2    0    0 -0.39872981653E+01  0.31222851828E+02  0.12948908398E+04  0.12953119517E+04  0.10000000000E+02 0. -1.
</event>
<event>
 5    1  0.1245771E-008  0.3733429E+03  0.7957747E-01  0.3480667E+00
         13   -1    0    0    0    0  0.00000000000E+00  0.00000000000E+00  0.14999999963E+04  0.15000000000E+04  0.10566000000E+00 0.  1.
        994   -1    0    0    0    0 -0.00000000000E+00 -0.00000000000E+00  0.11368683772E-12  0.17120000000E+03  0.17120000000E+03 0.  0.
         13    1    1    2    0    0  0.23355093959E+03  0.34195398481E+02  0.94889441870E+03  0.97781184062E+03  0.10566000000E+00 0.  1.
        994    1    1    2    0    0 -0.22907685788E+03 -0.69096147806E+02  0.23874209214E+03  0.37889010414E+03  0.17120000000E+03 0.  0.
        998    1    1    2    0    0 -0.44740817117E+01  0.34900749325E+02  0.31236348544E+03  0.31449805523E+03  0.10000000000E+02 0.  1.
</event>
<event>
 5    1  0.1245771E-008  0.3858097E+03  0.7957747E-01  0.3426245E+00
         13   -1    0    0    0    0  0.00000000000E+00  0.00000000000E+00  0.14999999963E+04  0.15000000000E+04  0.10566000000E+00 0.  1.
        994   -1    0    0    0    0 -0.00000000000E+00 -0.00000000000E+00  0.11368683772E-12  0.17120000000E+03  0.17120000000E+03 0.  0.
         13    1    1    2    0    0 -0.12382530270E+02  0.28631801945E+01  0.64937595581E+02  0.66169685965E+02  0.10566000000E+00 0.  1.
        994    1    1    2    0    0  0.12499840132E+02  0.34019578579E+01  0.17793153199E+01  0.17169864671E+03  0.17120000000E+03 0.  0.
        998    1    1    2    0    0 -0.11730986182E+00 -0.62651380524E+01  0.14332830854E+04  0.14333316673E+04  0.10000000000E+02 0.  1.
</event>
<event>
 5    1  0.1245771E-008  0.3825805E+03  0.7957747E-01  0.3439999E+00
         13   -1    0    0    0    0  0.00000000000E+00  0.00000000000E+00  0.14999999963E+04  0.15000000000E+04  0.10566000000E+00 0.  1.
        994   -1    0    0    0    0 -0.00000000000E+00 -0.00000000000E+00  0.11368683772E-12  0.17120000000E+03  0.17120000000E+03 0.  0.
         13    1    1    2    0    0 -0.19595879847E+02  0.65245813242E+01  0.93628250235E+02  0.95879242146E+02  0.10566000000E+00 0.  1.
        994    1    1    2    0    0 -0.23840688861E+02  0.65441126679E+01  0.48647349411E+01  0.17304424146E+03  0.17120000000E+03 0.  0.
        998    1    1    2    0    0  0.43436568707E+02 -0.13068693992E+02  0.14015070111E+04  0.14022765164E+04  0.10000000000E+02 0.  1.
</event>
<event>
 5    1  0.1245771E-008  0.3834325E+03  0.7957747E-01  0.3436347E+00
         13   -1    0    0    0    0  0.00000000000E+00  0.00000000000E+00  0.14999999963E+04  0.15000000000E+04  0.10566000000E+00 0. -1.
        994   -1    0    0    0    0 -0.00000000000E+00 -0.00000000000E+00  0.11368683772E-12  0.17120000000E+03  0.17120000000E+03 0.  0.
         13    1    1    2    0    0  0.20138070398E+01  0.11881251945E+02  0.30361358349E+02  0.32665621247E+02  0.10566000000E+00 0. -1.
        994    1    1    2    0    0 -0.10748611050E+02  0.24770263607E+01  0.28126491142E+01  0.17157802684E+03  0.17120000000E+03 0.  0.
        998    1    1    2    0    0  0.87348040100E+01 -0.14358278306E+02  0.14668259888E+04  0.14669563519E+04  0.10000000000E+02 0. -1.
</event>
<event>
 5    1  0.1245771E-008  0.3697635E+03  0.7957747E-01  0.3496979E+00
         13   -1    0    0    0    0  0.00000000000E+00  0.00000000000E+00  0.14999999963E+04  0.15000000000E+04  0.10566000000E+00 0. -1.
        994   -1    0    0    0    0 -0.00000000000E+00 -0.00000000000E+00  0.11368683772E-12  0.17120000000E+03  0.17120000000E+03 0.  0.
         13    1    1    2    0    0  0.78114618981E+02  0.47898069132E+02  0.31981785758E+03  0.33268542487E+03  0.10566000000E+00 0. -1.
        994    1    1    2    0    0 -0.69290276464E+02 -0.44804006066E+02  0.34991111490E+02  0.19324171200E+03  0.17120000000E+03 0.  0.
        998    1    1    2    0    0 -0.88243425168E+01 -0.30940630665E+01  0.11451910272E+04  0.11452728631E+04  0.10000000000E+02 0. -1.
</event>
<event>
 5    1  0.1245771E-008  0.3741735E+03  0.7957747E-01  0.3476927E+00
         13   -1    0    0    0    0  0.00000000000E+00  0.00000000000E+00  0.14999999963E+04  0.15000000000E+04  0.10566000000E+00 0.  1.
        994   -1    0    0    0    0 -0.00000000000E+00 -0.00000000000E+00  0.11368683772E-12  0.17120000000E+03  0.17120000000E+03 0.  0.
         13    1    1    2    0    0  0.75885114625E+01  0.27065400906E+02  0.53543845843E+02  0.60473763105E+02  0.10566000000E+00 0.  1.
        994    1    1    2    0    0  0.11097760285E+01 -0.15322604956E+02  0.79086468831E+01  0.17206975481E+03  0.17120000000E+03 0.  0.
        998    1    1    2    0    0 -0.86982874910E+01 -0.11742795950E+02  0.14385475036E+04  0.14386564821E+04  0.10000000000E+02 0.  1.
</event>
<event>
 5    1  0.1245771E-008  0.3824502E+03  0.7957747E-01  0.3440559E+00
         13   -1    0    0    0    0  0.00000000000E+00  0.00000000000E+00  0.14999999963E+04  0.15000000000E+04  0.10566000000E+00 0. -1.
        994   -1    0    0    0    0 -0.00000000000E+00 -0.00000000000E+00  0.11368683772E-12  0.17120000000E+03  0.17120000000E+03 0.  0.
         13    1    1    2    0    0 -0.33371567107E+02 -0.52428054615E+01  0.15162530791E+03  0.15534282624E+03  0.10566000000E+00 0. -1.
        994    1    1    2    0    0  0.55778912924E+02  0.32583189084E+01  0.13323711897E+02  0.18057924872E+03  0.17120000000E+03 0.  0.
        998    1    1    2    0    0 -0.22407345817E+02  0.19844865531E+01  0.13350509765E+04  0.13352779250E+04  0.10000000000E+02 0.  1.
</event>
<event>
 5    1  0.1245771E-008  0.3730245E+03  0.7957747E-01  0.3482105E+00
         13   -1    0    0    0    0  0.00000000000E+00  0.00000000000E+00  0.14999999963E+04  0.15000000000E+04  0.10566000000E+00 0.  1.
        994   -1    0    0    0    0 -0.00000000000E+00 -0.00000000000E+00  0.11368683772E-12  0.17120000000E+03  0.17120000000E+03 0.  0.
         13    1    1    2    0    0  0.61938268205E+02 -0.16361152767E+03  0.89648327248E+03  0.91339331618E+03  0.10566000000E+00 0.  1.
        994    1    1    2    0    0 -0.56811838248E+02  0.15052772211E+03  0.10221761855E+03  0.25621097094E+03  0.17120000000E+03 0.  0.
        998    1    1    2    0    0 -0.51264299565E+01  0.13083805560E+02  0.50129910525E+03  0.50159571288E+03  0.10000000000E+02 0.  1.
</event>
<event>
 5    1  0.1245771E-008  0.3821472E+03  0.7957747E-01  0.3441862E+00
         13   -1    0    0    0    0  0.00000000000E+00  0.00000000000E+00  0.14999999963E+04  0.15000000000E+04  0.10566000000E+00 0.  1.
        994   -1    0    0    0    0 -0.00000000000E+00 -0.00000000000E+00  0.11368683772E-12  0.17120000000E+03  0.17120000000E+03 0.  0.
         13    1    1    2    0    0 -0.25867798765E+03  0.66963424957E+02  0.90976246293E+03  0.94819098904E+03  0.10566000000E+00 0.  1.
        994    1    1    2    0    0  0.27723657239E+03 -0.77108000536E+02  0.36022663783E+03  0.49181137789E+03  0.17120000000E+03 0.  0.
        998    1    1    2    0    0 -0.18558584735E+02  0.10144575579E+02  0.23001089552E+03  0.23119763307E+03  0.10000000000E+02 0. -1.
</event>
<event>
 5    1  0.1245771E-008  0.3691281E+03  0.7957747E-01  0.3499908E+00
         13   -1    0    0    0    0  0.00000000000E+00  0.00000000000E+00  0.14999999963E+04  0.15000000000E+04  0.10566000000E+00 0.  1.
        994   -1    0    0    0    0 -0.00000000000E+00 -0.00000000000E+00  0.11368683772E-12  0.17120000000E+03  0.17120000000E+03 0.  0.
         13    1    1    2    0    0  0.92857656066E+00 -0.15452195771E+02  0.66678645258E+01  0.16855390531E+02  0.10566000000E+00 0.  1.
        994    1    1    2    0    0 -0.25259279105E+01  0.13304668663E+02  0.11117958320E+02  0.17209428671E+03  0.17120000000E+03 0.  0.
        998    1    1    2    0    0  0.15973513498E+01  0.21475271073E+01  0.14822141734E+04  0.14822503228E+04  0.10000000000E+02 0.  1.
</event>
<event>
 5    1  0.1245771E-008  0.3716559E+03  0.7957747E-01  0.3488315E+00
         13   -1    0    0    0    0  0.00000000000E+00  0.00000000000E+00  0.14999999963E+04  0.15000000000E+04  0.10566000000E+00 0.  1.
        994   -1    0    0    0    0 -0.00000000000E+00 -0.00000000000E+00  0.11368683772E-12  0.17120000000E+03  0.17120000000E+03 0.  0.
         13    1    1    2    0    0 -0.38359737194E+02 -0.41956143624E+02  0.17741811290E+03  0.18630347655E+03  0.10566000000E+00 0.  1.
        994    1    1    2    0    0  0.25873084625E+02  0.39380719057E+02  0.16078317893E+02  0.17829248399E+03  0.17120000000E+03 0.  0.
        998    1    1    2    0    0  0.12486652568E+02  0.25754245672E+01  0.13065035655E+04  0.13066040395E+04  0.10000000000E+02 0.  1.
</event>
<event>
 5    1  0.1245771E-008  0.3727533E+03  0.7957747E-01  0.3483332E+00
         13   -1    0    0    0    0  0.00000000000E+00  0.00000000000E+00  0.14999999963E+04  0.15000000000E+04  0.10566000000E+00 0. -1.
        994   -1    0    0    0    0 -0.00000000000E+00 -0.00000000000E+00  0.11368683772E-12  0.17120000000E+03  0.17120000000E+03 0.  0.
         13    1    1    2    0    0 -0.82114828579E+02 -0.28628676687E+02  0.46823264361E+03  0.47623971475E+03  0.10566000000E+00 0. -1.
        994    1    1    2    0    0  0.45586614760E+02  0.30273869249E+02  0.18164627927E+02  0.18064894218E+03  0.17120000000E+03 0.  0.
        998    1    1    2    0    0  0.36528213819E+02 -0.16451925617E+01  0.10136027247E+04  0.10143113431E+04  0.10000000000E+02 0.  1.
</event>
<event>
 5    1  0.1245771E-008  0.3812107E+03  0.7957747E-01  0.3445904E+00
         13   -1    0    0    0    0  0.00000000000E+00  0.00000000000E+00  0.14999999963E+04  0.15000000000E+04  0.10566000000E+00 0. -1.
        994   -1    0    0    0    0 -0.00000000000E+00 -0.00000000000E+00  0.11368683772E-12  0.17120000000E+03  0.17120000000E+03 0.  0.
         13    1    1    2    0    0 -0.17326547318E+02  0.19040252562E+02  0.98187868803E+02  0.10150669536E+03  0.10566000000E+00 0. -1.
        994    1    1    2    0    0  0.63097510228E+01 -0.19909079165E+01  0.36690152390E+01  0.17136708653E+03  0.17120000000E+03 0.  0.
        998    1    1    2    0    0  0.11016796295E+02 -0.17049344646E+02  0.13981431122E+04  0.13983262181E+04  0.10000000000E+02 0. -1.
</event>
<event>
 5    1  0.1245771E-008  0.3817372E+03  0.7957747E-01  0.3443629E+00
         13   -1    0    0    0    0  0.00000000000E+00  0.00000000000E+00  0.14999999963E+04  0.15000000000E+04  0.10566000000E+00 0.  1.
        994   -1    0    0    0    0 -0.00000000000E+00 -0.00000000000E+00  0.11368683772E-12  0.17120000000E+03  0.17120000000E+03 0.  0.
         13    1    1    2    0    0  0.13943029673E+02 -0.14385185413E+02  0.60643017983E+02  0.63866489100E+02  0.10566000000E+00 0.  1.
        994    1    1    2    0    0 -0.67232153343E+01  0.10599134605E+02  0.37826119732E+01  0.17170116899E+03  0.17120000000E+03 0.  0.
        998    1    1    2    0    0 -0.72198143383E+01  0.37860508074E+01  0.14355743663E+04  0.14356323419E+04  0.10000000000E+02 0.  1.
</event>
<event>
 5    1  0.1245771E-008  0.3842681E+03  0.7957747E-01  0.3432782E+00
         13   -1    0    0    0    0  0.00000000000E+00  0.00000000000E+00  0.14999999963E+04  0.15000000000E+04  0.10566000000E+00 0.  1.
        994   -1    0    0    0    0 -0.00000000000E+00 -0.00000000000E+00  0.11368683772E-12  0.17120000000E+03  0.17120000000E+03 0.  0.
         13    1    1    2    0    0 -0.51493578750E+01 -0.16667168317E+02  0.74136831706E+02  0.76161613465E+02  0.10566000000E+00 0.  1.
        994    1    1    2    0    0  0.67956559912E+01  0.13929920912E+02  0.27862321793E+01  0.17192273476E+03  0.17120000000E+03 0.  0.
        998    1    1    2    0    0 -0.16462981163E+01  0.27372474048E+01  0.14230769324E+04  0.14231156518E+04  0.10000000000E+02 0.  1.
</event>
<event>
 5    1  0.1245771E-008  0.3725835E+03  0.7957747E-01  0.3484101E+00
         13   -1    0    0    0    0  0.00000000000E+00  0.00000000000E+00  0.14999999963E+04  0.15000000000E+04  0.10566000000E+00 0.  1.
        994   -1    0    0    0    0 -0.00000000000E+00 -0.00000000000E+00  0.11368683772E-12  0.17120000000E+03  0.17120000000E+03 0.  0.
         13    1    1    2    0    0 -0.20080872417E+02 -0.54111672861E+02  0.26001875896E+03  0.26634766894E+03  0.10566000000E+00 0.  1.
        994    1    1    2    0    0  0.65393318776E+01 -0.28375688870E+01  0.80991042919E+01  0.17153964600E+03  0.17120000000E+03 0.  0.
        998    1    1    2    0    0  0.13541540540E+02  0.56949241748E+02  0.12318821330E+04  0.12333126851E+04  0.10000000000E+02 0.  1.
</event>
<event>
 5    1  0.1245771E-008  0.3699707E+03  0.7957747E-01  0.3496025E+00
         13   -1    0    0    0    0  0.00000000000E+00  0.00000000000E+00  0.14999999963E+04  0.15000000000E+04  0.10566000000E+00 0. -1.
        994   -1    0    0    0    0 -0.00000000000E+00 -0.00000000000E+00  0.11368683772E-12  0.17120000000E+03  0.17120000000E+03 0.  0.
         13    1    1    2    0    0  0.73894171458E+02 -0.66351152095E+02  0.38496794472E+03  0.39757157040E+03  0.10566000000E+00 0. -1.
        994    1    1    2    0    0 -0.81996649900E+02  0.58387672925E+02  0.45186462554E+02  0.20367578978E+03  0.17120000000E+03 0.  0.
        998    1    1    2    0    0  0.81024784417E+01  0.79634791701E+01  0.10698455890E+04  0.10699526398E+04  0.10000000000E+02 0. -1.
</event>
<event>
 5    1  0.1245771E-008  0.3834933E+03  0.7957747E-01  0.3436087E+00
         13   -1    0    0    0    0  0.00000000000E+00  0.00000000000E+00  0.14999999963E+04  0.15000000000E+04  0.10566000000E+00 0. -1.
        994   -1    0    0    0    0 -0.00000000000E+00 -0.00000000000E+00  0.11368683772E-12  0.17120000000E+03  0.17120000000E+03 0.  0.
         13    1    1    2    0    0 -0.19001821018E+02  0.36284810122E+01  0.80493898239E+02  0.82785952276E+02  0.10566000000E+00 0. -1.
        994    1    1    2    0    0  0.70692307145E+01 -0.71666785320E+00  0.25468860015E+01  0.17136631601E+03  0.17120000000E+03 0.  0.
        998    1    1    2    0    0  0.11932590303E+02 -0.29118131590E+01  0.14169592120E+04  0.14170477317E+04  0.10000000000E+02 0. -1.
</event>
<event>
 5    1  0.1245771E-008  0.3836368E+03  0.7957747E-01  0.3435474E+00
         13   -1    0    0    0    0  0.00000000000E+00  0.00000000000E+00  0.14999999963E+04  0.15000000000E+04  0.10566000000E+00 0.  1.
        994   -1    0    0    0    0 -0.00000000000E+00 -0.00000000000E+00  0.11368683772E-12  0.17120000000E+03  0.17120000000E+03 0.  0.
         13    1    1    2    0    0  0.14423451585E+02  0.28904401238E+01  0.45096609469E+02  0.47435281693E+02  0.10566000000E+00 0.  1.
        994    1    1    2    0    0 -0.14975435751E+02 -0.37011546866E+01  0.30948761243E+01  0.17192143694E+03  0.17120000000E+03 0.  0.
        998    1    1    2    0    0  0.55198416595E+00  0.81071456275E+00  0.14518085107E+04  0.14518432814E+04  0.10000000000E+02 0.  1.
</event>
<event>
 5    1  0.1245771E-008  0.2812345E+03  0.7957747E-01  0.4039820E+00
         13   -1    0    0    0    0  0.00000000000E+00  0.00000000000E+00  0.14999999963E+04  0.15000000000E+04  0.10566000000E+00 0.  1.
        994   -1    0    0    0    0 -0.00000000000E+00 -0.00000000000E+00  0.11368683772E-12  0.17120000000E+03  0.17120000000E+03 0.  0.
         13    1    1    2    0    0 -0.32646140100E+02  0.12601831142E+03  0.69089793633E+03  0.70305501553E+03  0.10566000000E+00 0.  1.
        994    1    1    2    0    0 -0.69081488284E+01 -0.38291647709E+02  0.24110582276E+02  0.17721380585E+03  0.17120000000E+03 0.  0.
        998    1    1    2    0    0  0.39554288928E+02 -0.87726663708E+02  0.78499147768E+03  0.79093117863E+03  0.10000000000E+02 0.  1.
</event>
<event>
 5    1  0.1245771E-008  0.3847075E+03  0.7957747E-01  0.3430914E+00
         13   -1    0    0    0    0  0.00000000000E+00  0.00000000000E+00  0.14999999963E+04  0.15000000000E+04  0.10566000000E+00 0.  1.
        994   -1    0    0    0    0 -0.00000000000E+00 -0.00000000000E+00  0.11368683772E-12  0.17120000000E+03  0.17120000000E+03 0.  0.
         13    1    1    2    0    0 -0.77723380667E+02  0.95435420796E+02  0.32237089360E+03  0.34506788846E+03  0.10566000000E+00 0.  1.
        994    1    1    2    0    0  0.56222326520E+02 -0.98851074225E+02  0.68351834700E+02  0.21659616382E+03  0.17120000000E+03 0.  0.
        998    1    1    2    0    0  0.21501054148E+02  0.34156534296E+01  0.11092772680E+04  0.11095359477E+04  0.10000000000E+02 0.  1.
</event>
<event>
 5    1  0.1245771E-008  0.3798363E+03  0.7957747E-01  0.3451871E+00
         13   -1    0    0    0    0  0.00000000000E+00  0.00000000000E+00  0.14999999963E+04  0.15000000000E+04  0.10566000000E+00 0. -1.
        994   -1    0    0    0    0 -0.00000000000E+00 -0.00000000000E+00  0.11368683772E-12  0.17120000000E+03  0.17120000000E+03 0.  0.
         13    1    1    2    0    0  0.24066283339E+02 -0.25653332707E+01  0.71187351096E+02  0.75189208325E+02  0.10566000000E+00 0. -1.
        994    1    1    2    0    0 -0.43434518768E+01  0.30563110214E+01  0.43101440556E+01  0.17133658090E+03  0.17120000000E+03 0.  0.
        998    1    1    2    0    0 -0.19722831462E+02 -0.49097775069E+00  0.14245025011E+04  0.14246742108E+04  0.10000000000E+02 0. -1.
</event>
<event>
 5    1  0.1245771E-008  0.3743516E+03  0.7957747E-01  0.3476128E+00
         13   -1    0    0    0    0  0.00000000000E+00  0.00000000000E+00  0.14999999963E+04  0.15000000000E+04  0.10566000000E+00 0.  1.
        994   -1    0    0    0    0 -0.00000000000E+00 -0.00000000000E+00  0.11368683772E-12  0.17120000000E+03  0.17120000000E+03 0.  0.
         13    1    1    2    0    0 -0.53243285198E+02 -0.22989766395E+01  0.15372208817E+03  0.16269795409E+03  0.10566000000E+00 0.  1.
        994    1    1    2    0    0  0.83146759445E+02  0.49372308488E+02  0.39567996226E+02  0.20056439060E+03  0.17120000000E+03 0.  0.
        998    1    1    2    0    0 -0.29903474246E+02 -0.47073331849E+02  0.13067099119E+04  0.13079376553E+04  0.10000000000E+02 0.  1.
</event>
<event>
 5    1  0.1245771E-008  0.3835170E+03  0.7957747E-01  0.3435986E+00
         13   -1    0    0    0    0  0.00000000000E+00  0.00000000000E+00  0.14999999963E+04  0.15000000000E+04  0.10566000000E+00 0. -1.
        994   -1    0    0    0    0 -0.00000000000E+00 -0.00000000000E+00  0.11368683772E-12  0.17120000000E+03  0.17120000000E+03 0.  0.
         13    1    1    2    0    0  0.13564329838E+00 -0.14777421502E+02  0.47025700670E+02  0.49293186882E+02  0.10566000000E+00 0. -1.
        994    1    1    2    0    0  0.57074817494E+01  0.25693257295E+01  0.24976817963E+01  0.17133258650E+03  0.17120000000E+03 0.  0.
        998    1    1    2    0    0 -0.58431250477E+01  0.12208095773E+02  0.14504766138E+04  0.14505742266E+04  0.10000000000E+02 0. -1.
</event>
<event>
 5    1  0.1245771E-008  0.3826500E+03  0.7957747E-01  0.3439701E+00
         13   -1    0    0    0    0  0.00000000000E+00  0.00000000000E+00  0.14999999963E+04  0.15000000000E+04  0.10566000000E+00 0. -1.
        994   -1    0    0    0    0 -0.00000000000E+00 -0.00000000000E+00  0.11368683772E-12  0.17120000000E+03  0.17120000000E+03 0.  0.
         13    1    1    2    0    0 -0.19673031099E+02  0.17508332248E+02  0.12063186209E+03  0.12347318400E+03  0.10566000000E+00 0. -1.
        994    1    1    2    0    0  0.14872788936E+02 -0.11549511488E+02  0.39773649378E+01  0.17227840984E+03  0.17120000000E+03 0.  0.
        998    1    1    2    0    0  0.48002421631E+01 -0.59588207595E+01  0.13753907692E+04  0.13754484062E+04  0.10000000000E+02 0. -1.
</event>
<event>
 5    1  0.1245771E-008  0.3706525E+03  0.7957747E-01  0.3492898E+00
         13   -1    0    0    0    0  0.00000000000E+00  0.00000000000E+00  0.14999999963E+04  0.15000000000E+04  0.10566000000E+00 0. -1.
        994   -1    0    0    0    0 -0.00000000000E+00 -0.00000000000E+00  0.11368683772E-12  0.17120000000E+03  0.17120000000E+03 0.  0.
         13    1    1    2    0    0 -0.35671168075E+02  0.43453655589E+02  0.13855938154E+03  0.14953048450E+03  0.10566000000E+00 0. -1.
        994    1    1    2    0    0  0.11427261897E+02 -0.30318750809E+02  0.14971621809E+02  0.17488109796E+03  0.17120000000E+03 0.  0.
        998    1    1    2    0    0  0.24243906178E+02 -0.13134904780E+02  0.13464689929E+04  0.13467884175E+04  0.10000000000E+02 0. -1.
</event>
<event>
 5    1  0.1245771E-008  0.3775523E+03  0.7957747E-01  0.3461886E+00
         13   -1    0    0    0    0  0.00000000000E+00  0.00000000000E+00  0.14999999963E+04  0.15000000000E+04  0.10566000000E+00 0. -1.
        994   -1    0    0    0    0 -0.00000000000E+00 -0.00000000000E+00  0.11368683772E-12  0.17120000000E+03  0.17120000000E+03 0.  0.
         13    1    1    2    0    0  0.17571974536E+02 -0.12860018437E+02  0.41395850807E+02  0.46773731852E+02  0.10566000000E+00 0. -1.
        994    1    1    2    0    0 -0.44118699422E+02 -0.28407604606E+02  0.14710386619E+02  0.17966437352E+03  0.17120000000E+03 0.  0.
        998    1    1    2    0    0  0.26546724887E+02  0.41267623043E+02  0.14438937589E+04  0.14447618946E+04  0.10000000000E+02 0. -1.
</event>
<event>
 5    1  0.1245771E-008  0.3842905E+03  0.7957747E-01  0.3432687E+00
         13   -1    0    0    0    0  0.00000000000E+00  0.00000000000E+00  0.14999999963E+04  0.15000000000E+04  0.10566000000E+00 0.  1.
        994   -1    0    0    0    0 -0.00000000000E+00 -0.00000000000E+00  0.11368683772E-12  0.17120000000E+03  0.17120000000E+03 0.  0.
         13    1    1    2    0    0 -0.74751026974E+01 -0.72077859679E+01  0.24831250755E+02  0.26915265501E+02  0.10566000000E+00 0.  1.
        994    1    1    2    0    0  0.15420520970E+02  0.21669711089E+02  0.43179533173E+01  0.17330739617E+03  0.17120000000E+03 0.  0.
        998    1    1    2    0    0 -0.79454182722E+01 -0.14461925121E+02  0.14708507922E+04  0.14709773383E+04  0.10000000000E+02 0.  1.
</event>
<event>
 5    1  0.1245771E-008  0.3688050E+03  0.7957747E-01  0.3501401E+00
         13   -1    0    0    0    0  0.00000000000E+00  0.00000000000E+00  0.14999999963E+04  0.15000000000E+04  0.10566000000E+00 0.  1.
        994   -1    0    0    0    0 -0.00000000000E+00 -0.00000000000E+00  0.11368683772E-12  0.17120000000E+03  0.17120000000E+03 0.  0.
         13    1    1    2    0    0  0.14286568190E+02 -0.11431539237E+02  0.12435614803E+02  0.22123331565E+02  0.10566000000E+00 0.  1.
        994    1    1    2    0    0 -0.18562073907E+02  0.51129055076E+01  0.11183099412E+02  0.17264180868E+03  0.17120000000E+03 0.  0.
        998    1    1    2    0    0  0.42755057171E+01  0.63186337294E+01  0.14763812821E+04  0.14764348598E+04  0.10000000000E+02 0.  1.
</event>
<event>
 5    1  0.1245771E-008  0.3686778E+03  0.7957747E-01  0.3501990E+00
         13   -1    0    0    0    0  0.00000000000E+00  0.00000000000E+00  0.14999999963E+04  0.15000000000E+04  0.10566000000E+00 0.  1.
        994   -1    0    0    0    0 -0.00000000000E+00 -0.00000000000E+00  0.11368683772E-12  0.17120000000E+03  0.17120000000E+03 0.  0.
         13    1    1    2    0    0  0.40616402875E+02  0.44985741054E+02  0.20304232705E+03  0.21189527323E+03  0.10566000000E+00 0.  1.
        994    1    1    2    0    0 -0.12491421227E+02 -0.74243341769E+01  0.10695592227E+02  0.17214816884E+03  0.17120000000E+03 0.  0.
        998    1    1    2    0    0 -0.28124981648E+02 -0.37561406877E+02  0.12862620770E+04  0.12871565579E+04  0.10000000000E+02 0.  1.
</event>
<event>
 5    1  0.1245771E-008  0.3738648E+03  0.7957747E-01  0.3478315E+00
         13   -1    0    0    0    0  0.00000000000E+00  0.00000000000E+00  0.14999999963E+04  0.15000000000E+04  0.10566000000E+00 0.  1.
        994   -1    0    0    0    0 -0.00000000000E+00 -0.00000000000E+00  0.11368683772E-12  0.17120000000E+03  0.17120000000E+03 0.  0.
         13    1    1    2    0    0  0.29252189503E+01 -0.26005391130E+02  0.46849742290E+02  0.53663272266E+02  0.10566000000E+00 0.  1.
        994    1    1    2    0    0  0.20749193396E+02  0.92857323354E+00  0.87362105702E+01  0.17267643919E+03  0.17120000000E+03 0.  0.
        998    1    1    2    0    0 -0.23674412347E+02  0.25076817896E+02  0.14444140434E+04  0.14448602885E+04  0.10000000000E+02 0.  1.
</event>
<event>
 5    1  0.1245771E-008  0.3766367E+03  0.7957747E-01  0.3465935E+00
         13   -1    0    0    0    0  0.00000000000E+00  0.00000000000E+00  0.14999999963E+04  0.15000000000E+04  0.10566000000E+00 0. -1.
        994   -1    0    0    0    0 -0.00000000000E+00 -0.00000000000E+00  0.11368683772E-12  0.17120000000E+03  0.17120000000E+03 0.  0.
         13    1    1    2    0    0 -0.54551927126E+02 -0.37673832342E+01  0.24100345529E+03  0.24712908076E+03  0.10566000000E+00 0. -1.
        994    1    1    2    0    0  0.38319433717E+02  0.10388544378E+02  0.11187984109E+02  0.17609915344E+03  0.17120000000E+03 0.  0.
        998    1    1    2    0    0  0.16232493409E+02 -0.66211611442E+01  0.12478085569E+04  0.12479717658E+04  0.10000000000E+02 0. -1.
</event>
<event>
 5    1  0.1245771E-008  0.3808249E+03  0.7957747E-01  0.3447575E+00
         13   -1    0    0    0    0  0.00000000000E+00  0.00000000000E+00  0.14999999963E+04  0.15000000000E+04  0.10566000000E+00 0. -1.
        994   -1    0    0    0    0 -0.00000000000E+00 -0.00000000000E+00  0.11368683772E-12  0.17120000000E+03  0.17120000000E+03 0.  0.
         13    1    1    2    0    0 -0.11729239447E+02  0.72405637256E+01  0.23631493041E+02  0.27357986923E+02  0.10566000000E+00 0. -1.
        994    1    1    2    0    0  0.19519437664E+02  0.16890148794E+01  0.49981021930E+01  0.17238991340E+03  0.17120000000E+03 0.  0.
        998    1    1    2    0    0 -0.77901982169E+01 -0.89295786050E+01  0.14713704010E+04  0.14714520997E+04  0.10000000000E+02 0. -1.
</event>
<event>
 5    1  0.1245771E-008  0.3709397E+03  0.7957747E-01  0.3491583E+00
         13   -1    0    0    0    0  0.00000000000E+00  0.00000000000E+00  0.14999999963E+04  0.15000000000E+04  0.10566000000E+00 0.  1.
        994   -1    0    0    0    0 -0.00000000000E+00 -0.00000000000E+00  0.11368683772E-12  0.17120000000E+03  0.17120000000E+03 0.  0.
         13    1    1    2    0    0  0.17112686567E+02  0.55970324352E+02  0.24403660447E+03  0.25095696192E+03  0.10566000000E+00 0.  1.
        994    1    1    2    0    0 -0.79762192560E+00  0.51401661042E+01  0.88719953449E+01  0.17150862897E+03  0.17120000000E+03 0.  0.
        998    1    1    2    0    0 -0.16315064642E+02 -0.61110490456E+02  0.12470913965E+04  0.12487344091E+04  0.10000000000E+02 0.  1.
</event>
<event>
 5    1  0.1245771E-008  0.3802231E+03  0.7957747E-01  0.3450188E+00
         13   -1    0    0    0    0  0.00000000000E+00  0.00000000000E+00  0.14999999963E+04  0.15000000000E+04  0.10566000000E+00 0. -1.
        994   -1    0    0    0    0 -0.00000000000E+00 -0.00000000000E+00  0.11368683772E-12  0.17120000000E+03  0.17120000000E+03 0.  0.
         13    1    1    2    0    0 -0.29165702016E+01 -0.18829158136E+02  0.44551775191E+02  0.48455292947E+02  0.10566000000E+00 0. -1.
        994    1    1    2    0    0  0.48207078865E+01  0.61754515992E+01  0.42256238197E+01  0.17143124372E+03  0.17120000000E+03 0.  0.
        998    1    1    2    0    0 -0.19041376848E+01  0.12653706537E+02  0.14512225973E+04  0.14513134633E+04  0.10000000000E+02 0. -1.
</event>
<event>
 5    1  0.1245771E-008  0.3851046E+03  0.7957747E-01  0.3429229E+00
         13   -1    0    0    0    0  0.00000000000E+00  0.00000000000E+00  0.14999999963E+04  0.15000000000E+04  0.10566000000E+00 0.  1.
        994   -1    0    0    0    0 -0.00000000000E+00 -0.00000000000E+00  0.11368683772E-12  0.17120000000E+03  0.17120000000E+03 0.  0.
         13    1    1    2    0    0 -0.40709794493E+01 -0.14314069016E+02  0.70959249670E+02  0.72503046304E+02  0.10566000000E+00 0.  1.
        994    1    1    2    0    0  0.35835471569E+01  0.75971825394E+01  0.18102203174E+01  0.17141550656E+03  0.17120000000E+03 0.  0.
        998    1    1    2    0    0  0.48743229233E+00  0.67168864764E+01  0.14272305263E+04  0.14272814471E+04  0.10000000000E+02 0.  1.
</event>
<event>
 5    1  0.1245771E-008  0.3847671E+03  0.7957747E-01  0.3430660E+00
         13   -1    0    0    0    0  0.00000000000E+00  0.00000000000E+00  0.14999999963E+04  0.15000000000E+04  0.10566000000E+00 0.  1.
        994   -1    0    0    0    0 -0.00000000000E+00 -0.00000000000E+00  0.11368683772E-12  0.17120000000E+03  0.17120000000E+03 0.  0.
         13    1    1    2    0    0  0.37464540470E+01 -0.11724619645E+02  0.42590419616E+02  0.44333482052E+02  0.10566000000E+00 0.  1.
        994    1    1    2    0    0 -0.88585835123E+01  0.87812021631E+01  0.22580173712E+01  0.17166864203E+03  0.17120000000E+03 0.  0.
        998    1    1    2    0    0  0.51121294653E+01  0.29434174818E+01  0.14551515593E+04  0.14551978759E+04  0.10000000000E+02 0.  1.
</event>
<event>
 5    1  0.1245771E-008  0.3800509E+03  0.7957747E-01  0.3450937E+00
         13   -1    0    0    0    0  0.00000000000E+00  0.00000000000E+00  0.14999999963E+04  0.15000000000E+04  0.10566000000E+00 0.  1.
        994   -1    0    0    0    0 -0.00000000000E+00 -0.00000000000E+00  0.11368683772E-12  0.17120000000E+03  0.17120000000E+03 0.  0.
         13    1    1    2    0    0 -0.54009816609E+01 -0.26282621053E+02  0.83519194228E+02  0.87723507345E+02  0.10566000000E+00 0.  1.
        994    1    1    2    0    0 -0.65855972075E+01  0.25216403281E+02  0.63810293133E+01  0.17328991494E+03  0.17120000000E+03 0.  0.
        998    1    1    2    0    0  0.11986578868E+02  0.10662177717E+01  0.14100997727E+04  0.14101865777E+04  0.10000000000E+02 0.  1.
</event>
<event>
 5    1  0.1245771E-008  0.3842484E+03  0.7957747E-01  0.3432866E+00
         13   -1    0    0    0    0  0.00000000000E+00  0.00000000000E+00  0.14999999963E+04  0.15000000000E+04  0.10566000000E+00 0. -1.
        994   -1    0    0    0    0 -0.00000000000E+00 -0.00000000000E+00  0.11368683772E-12  0.17120000000E+03  0.17120000000E+03 0.  0.
         13    1    1    2    0    0 -0.10179290859E+02 -0.90814467957E+01  0.44860605791E+02  0.46888972630E+02  0.10566000000E+00 0. -1.
        994    1    1    2    0    0  0.88398189892E+01  0.11878977762E+02  0.27268819891E+01  0.17186078202E+03  0.17120000000E+03 0.  0.
        998    1    1    2    0    0  0.13394718696E+01 -0.27975309667E+01  0.14524125085E+04  0.14524502453E+04  0.10000000000E+02 0. -1.
</event>
<event>
 5    1  0.1245771E-008  0.3855739E+03  0.7957747E-01  0.3427242E+00
         13   -1    0    0    0    0  0.00000000000E+00  0.00000000000E+00  0.14999999963E+04  0.15000000000E+04  0.10566000000E+00 0.  1.
        994   -1    0    0    0    0 -0.00000000000E+00 -0.00000000000E+00  0.11368683772E-12  0.17120000000E+03  0.17120000000E+03 0.  0.
         13    1    1    2    0    0  0.17940091901E+00  0.11717668785E+02  0.51888520355E+02  0.53195541685E+02  0.10566000000E+00 0.  1.
        994    1    1    2    0    0  0.16056388674E+02 -0.66260089238E+01  0.23364959193E+01  0.17209477280E+03  0.17120000000E+03 0.  0.
        998    1    1    2    0    0 -0.16235789593E+02 -0.50916598616E+01  0.14457749800E+04  0.14459096855E+04  0.10000000000E+02 0.  1.
</event>
<event>
 5    1  0.1245771E-008  0.3803418E+03  0.7957747E-01  0.3449672E+00
         13   -1    0    0    0    0  0.00000000000E+00  0.00000000000E+00  0.14999999963E+04  0.15000000000E+04  0.10566000000E+00 0. -1.
        994   -1    0    0    0    0 -0.00000000000E+00 -0.00000000000E+00  0.11368683772E-12  0.17120000000E+03  0.17120000000E+03 0.  0.
         13    1    1    2    0    0 -0.16733506838E+01  0.12669560132E+02  0.18857073542E+02  0.22779777063E+02  0.10566000000E+00 0. -1.
        994    1    1    2    0    0  0.71257829439E+00 -0.11152264230E+02  0.43778290914E+01  0.17162017991E+03  0.17120000000E+03 0.  0.
        998    1    1    2    0    0  0.96077238940E+00 -0.15172959014E+01  0.14767650936E+04  0.14768000430E+04  0.10000000000E+02 0. -1.
</event>
<event>
 5    1  0.1245771E-008  0.3739518E+03  0.7957747E-01  0.3477924E+00
         13   -1    0    0    0    0  0.00000000000E+00  0.00000000000E+00  0.14999999963E+04  0.15000000000E+04  0.10566000000E+00 0.  1.
        994   -1    0    0    0    0 -0.00000000000E+00 -0.00000000000E+00  0.11368683772E-12  0.17120000000E+03  0.17120000000E+03 0.  0.
         13    1    1    2    0    0  0.44446611028E+02  0.36600947090E+02  0.21293469897E+03  0.22058179379E+03  0.10566000000E+00 0.  1.
        994    1    1    2    0    0 -0.38465440700E+02 -0.23076919135E+02  0.14113108118E+02  0.17754085205E+03  0.17120000000E+03 0.  0.
        998    1    1    2    0    0 -0.59811703279E+01 -0.13524027955E+02  0.12729521892E+04  0.12730773542E+04  0.10000000000E+02 0.  1.
</event>
<event>
 5    1  0.1245771E-008  0.3858912E+03  0.7957747E-01  0.3425901E+00
         13   -1    0    0    0    0  0.00000000000E+00  0.00000000000E+00  0.14999999963E+04  0.15000000000E+04  0.10566000000E+00 0. -1.
        994   -1    0    0    0    0 -0.00000000000E+00 -0.00000000000E+00  0.11368683772E-12  0.17120000000E+03  0.17120000000E+03 0.  0.
         13    1    1    2    0    0 -0.93631546873E+01  0.55276626539E+01  0.47252454244E+02  0.48487413998E+02  0.10566000000E+00 0. -1.
        994    1    1    2    0    0  0.13356332485E+02 -0.11117803998E+02  0.21792314028E+01  0.17209353920E+03  0.17120000000E+03 0.  0.
        998    1    1    2    0    0 -0.39931777974E+01  0.55901413445E+01  0.14505683106E+04  0.14506190468E+04  0.10000000000E+02 0. -1.
</event>
<event>
 5    1  0.1245771E-008  0.3770403E+03  0.7957747E-01  0.3464148E+00
         13   -1    0    0    0    0  0.00000000000E+00  0.00000000000E+00  0.14999999963E+04  0.15000000000E+04  0.10566000000E+00 0.  1.
        994   -1    0    0    0    0 -0.00000000000E+00 -0.00000000000E+00  0.11368683772E-12  0.17120000000E+03  0.17120000000E+03 0.  0.
         13    1    1    2    0    0  0.43571173277E+02  0.32402591793E+02  0.27340795660E+03  0.27874773002E+03  0.10566000000E+00 0.  1.
        994    1    1    2    0    0 -0.28526911153E+02 -0.30531626271E+01  0.84184755845E+01  0.17379130356E+03  0.17120000000E+03 0.  0.
        998    1    1    2    0    0 -0.15044262124E+02 -0.29349429165E+02  0.12181735641E+04  0.12186609664E+04  0.10000000000E+02 0.  1.
</event>
<event>
 5    1  0.1245771E-008  0.3791362E+03  0.7957747E-01  0.3454929E+00
         13   -1    0    0    0    0  0.00000000000E+00  0.00000000000E+00  0.14999999963E+04  0.15000000000E+04  0.10566000000E+00 0. -1.
        994   -1    0    0    0    0 -0.00000000000E+00 -0.00000000000E+00  0.11368683772E-12  0.17120000000E+03  0.17120000000E+03 0.  0.
         13    1    1    2    0    0  0.10704921366E+02  0.24861509592E+02  0.69042356671E+02  0.74158938635E+02  0.10566000000E+00 0. -1.
        994    1    1    2    0    0 -0.44523874156E+02 -0.33479249874E+02  0.15044636358E+02  0.18066271509E+03  0.17120000000E+03 0.  0.
        998    1    1    2    0    0  0.33818952789E+02  0.86177402816E+01  0.14159130032E+04  0.14163783463E+04  0.10000000000E+02 0. -1.
</event>
<event>
 5    1  0.1245771E-008  0.3803423E+03  0.7957747E-01  0.3449669E+00
         13   -1    0    0    0    0  0.00000000000E+00  0.00000000000E+00  0.14999999963E+04  0.15000000000E+04  0.10566000000E+00 0. -1.
        994   -1    0    0    0    0 -0.00000000000E+00 -0.00000000000E+00  0.11368683772E-12  0.17120000000E+03  0.17120000000E+03 0.  0.
         13    1    1    2    0    0 -0.85548756450E+02 -0.33422212573E+02  0.49773695371E+03  0.50614002043E+03  0.10566000000E+00 0. -1.
        994    1    1    2    0    0  0.12042874551E+03  0.20159109255E+02  0.55465950851E+02  0.21747501957E+03  0.17120000000E+03 0.  0.
        998    1    1    2    0    0 -0.34879989064E+02  0.13263103318E+02  0.94679709171E+03  0.94758496000E+03  0.10000000000E+02 0. -1.
</event>
<event>
 5    1  0.1245771E-008  0.3758730E+03  0.7957747E-01  0.3469328E+00
         13   -1    0    0    0    0  0.00000000000E+00  0.00000000000E+00  0.14999999963E+04  0.15000000000E+04  0.10566000000E+00 0. -1.
        994   -1    0    0    0    0 -0.00000000000E+00 -0.00000000000E+00  0.11368683772E-12  0.17120000000E+03  0.17120000000E+03 0.  0.
         13    1    1    2    0    0 -0.64239614986E+01  0.11107170441E+02  0.10352370323E+02  0.16486941859E+02  0.10566000000E+00 0. -1.
        994    1    1    2    0    0  0.57872577050E+01 -0.10612368939E+02  0.67264736513E+01  0.17175796975E+03  0.17120000000E+03 0.  0.
        998    1    1    2    0    0  0.63670379361E+00 -0.49480150150E+00  0.14829211523E+04  0.14829550884E+04  0.10000000000E+02 0. -1.
</event>
<event>
 5    1  0.1245771E-008  0.3828220E+03  0.7957747E-01  0.3438962E+00
         13   -1    0    0    0    0  0.00000000000E+00  0.00000000000E+00  0.14999999963E+04  0.15000000000E+04  0.10566000000E+00 0. -1.
        994   -1    0    0    0    0 -0.00000000000E+00 -0.00000000000E+00  0.11368683772E-12  0.17120000000E+03  0.17120000000E+03 0.  0.
         13    1    1    2    0    0 -0.19319461083E+02  0.22982506822E+02  0.16045067478E+03  0.16323561927E+03  0.10566000000E+00 0. -1.
        994    1    1    2    0    0  0.20745153717E+02 -0.10745434520E+02  0.45252461016E+01  0.17284601129E+03  0.17120000000E+03 0.  0.
        998    1    1    2    0    0 -0.14256926344E+01 -0.12237072302E+02  0.13350240754E+04  0.13351183694E+04  0.10000000000E+02 0. -1.
</event>
<event>
 5    1  0.1245771E-008  0.3809354E+03  0.7957747E-01  0.3447096E+00
         13   -1    0    0    0    0  0.00000000000E+00  0.00000000000E+00  0.14999999963E+04  0.15000000000E+04  0.10566000000E+00 0.  1.
        994   -1    0    0    0    0 -0.00000000000E+00 -0.00000000000E+00  0.11368683772E-12  0.17120000000E+03  0.17120000000E+03 0.  0.
         13    1    1    2    0    0  0.64049435312E+01 -0.12938974664E+02  0.26987226175E+02  0.30606566414E+02  0.10566000000E+00 0.  1.
        994    1    1    2    0    0 -0.32517087654E+01  0.99272308894E+01  0.40254823206E+01  0.17156563768E+03  0.17120000000E+03 0.  0.
        998    1    1    2    0    0 -0.31532347658E+01  0.30117437745E+01  0.14689872878E+04  0.14690277959E+04  0.10000000000E+02 0.  1.
</event>
<event>
 5    1  0.1245771E-008  0.3888832E+03  0.7957747E-01  0.3413368E+00
         13   -1    0    0    0    0  0.00000000000E+00  0.00000000000E+00  0.14999999963E+04  0.15000000000E+04  0.10566000000E+00 0.  1.
        994   -1    0    0    0    0 -0.00000000000E+00 -0.00000000000E+00  0.11368683772E-12  0.17120000000E+03  0.17120000000E+03 0.  0.
         13    1    1    2    0    0 -0.26091633459E+02 -0.26640398609E+02  0.23651242574E+02  0.44157407237E+02  0.10566000000E+00 0.  1.
        994    1    1    2    0    0  0.24472470772E+02  0.29617317662E+02  0.26844320045E+02  0.17749970380E+03  0.17120000000E+03 0.  0.
        998    1    1    2    0    0  0.16191626872E+01 -0.29769190534E+01  0.14495044337E+04  0.14495428890E+04  0.10000000000E+02 0.  1.
</event>
<event>
 5    1  0.1245771E-008  0.3763975E+03  0.7957747E-01  0.3466996E+00
         13   -1    0    0    0    0  0.00000000000E+00  0.00000000000E+00  0.14999999963E+04  0.15000000000E+04  0.10566000000E+00 0.  1.
        994   -1    0    0    0    0 -0.00000000000E+00 -0.00000000000E+00  0.11368683772E-12  0.17120000000E+03  0.17120000000E+03 0.  0.
         13    1    1    2    0    0  0.47681510289E+02 -0.14438709626E+02  0.18155145489E+03  0.18826296688E+03  0.10566000000E+00 0.  1.
        994    1    1    2    0    0 -0.46125158082E+02  0.22343249514E+02  0.14902003547E+02  0.17932724477E+03  0.17120000000E+03 0.  0.
        998    1    1    2    0    0 -0.15563522071E+01 -0.79045398879E+01  0.13035465378E+04  0.13036097884E+04  0.10000000000E+02 0.  1.
</event>
<event>
 5    1  0.1245771E-008  0.3807079E+03  0.7957747E-01  0.3448082E+00
         13   -1    0    0    0    0  0.00000000000E+00  0.00000000000E+00  0.14999999963E+04  0.15000000000E+04  0.10566000000E+00 0. -1.
        994   -1    0    0    0    0 -0.00000000000E+00 -0.00000000000E+00  0.11368683772E-12  0.17120000000E+03  0.17120000000E+03 0.  0.
         13    1    1    2    0    0  0.71523308488E+01 -0.10435745130E+02  0.20070812525E+02  0.23725709524E+02  0.10566000000E+00 0. -1.
        994    1    1    2    0    0  0.15130200055E+02  0.11412476182E+02  0.49750254526E+01  0.17231760921E+03  0.17120000000E+03 0.  0.
        998    1    1    2    0    0 -0.22282530904E+02 -0.97673105198E+00  0.14749541583E+04  0.14751566813E+04  0.10000000000E+02 0. -1.
</event>
<event>
 5    1  0.1245771E-008  0.3780650E+03  0.7957747E-01  0.3459628E+00
         13   -1    0    0    0    0  0.00000000000E+00  0.00000000000E+00  0.14999999963E+04  0.15000000000E+04  0.10566000000E+00 0. -1.
        994   -1    0    0    0    0 -0.00000000000E+00 -0.00000000000E+00  0.11368683772E-12  0.17120000000E+03  0.17120000000E+03 0.  0.
         13    1    1    2    0    0 -0.10037455394E+02 -0.83713233080E+01  0.14126661050E+02  0.19245864002E+02  0.10566000000E+00 0. -1.
        994    1    1    2    0    0  0.21160441809E+02  0.47819283075E+01  0.66981518014E+01  0.17269897618E+03  0.17120000000E+03 0.  0.
        998    1    1    2    0    0 -0.11122986415E+02  0.35893950005E+01  0.14791751834E+04  0.14792551598E+04  0.10000000000E+02 0. -1.
</event>
<event>
 5    1  0.1245771E-008  0.3810738E+03  0.7957747E-01  0.3446496E+00
         13   -1    0    0    0    0  0.00000000000E+00  0.00000000000E+00  0.14999999963E+04  0.15000000000E+04  0.10566000000E+00 0. -1.
        994   -1    0    0    0    0 -0.00000000000E+00 -0.00000000000E+00  0.11368683772E-12  0.17120000000E+03  0.17120000000E+03 0.  0.
         13    1    1    2    0    0 -0.15893040425E+02 -0.12179806817E+02  0.50361049532E+02  0.54195783065E+02  0.10566000000E+00 0. -1.
        994    1    1    2    0    0  0.36022454264E+02  0.74736053073E+01  0.81137947552E+01  0.17529616554E+03  0.17120000000E+03 0.  0.
        998    1    1    2    0    0 -0.20129413838E+02  0.47062015095E+01  0.14415251520E+04  0.14417080514E+04  0.10000000000E+02 0. -1.
</event>
<event>
 5    1  0.1245771E-008  0.3744078E+03  0.7957747E-01  0.3475875E+00
         13   -1    0    0    0    0  0.00000000000E+00  0.00000000000E+00  0.14999999963E+04  0.15000000000E+04  0.10566000000E+00 0. -1.
        994   -1    0    0    0    0 -0.00000000000E+00 -0.00000000000E+00  0.11368683772E-12  0.17120000000E+03  0.17120000000E+03 0.  0.
         13    1    1    2    0    0  0.77004676777E+01  0.23337666137E+02  0.41589831349E+02  0.48308064532E+02  0.10566000000E+00 0. -1.
        994    1    1    2    0    0  0.72567927957E+00 -0.76836119276E+01  0.71860361097E+01  0.17152446944E+03  0.17120000000E+03 0.  0.
        998    1    1    2    0    0 -0.84261469573E+01 -0.15654054210E+02  0.14512241288E+04  0.14513674660E+04  0.10000000000E+02 0. -1.
</event>
<event>
 5    1  0.1245771E-008  0.3840171E+03  0.7957747E-01  0.3433851E+00
         13   -1    0    0    0    0  0.00000000000E+00  0.00000000000E+00  0.14999999963E+04  0.15000000000E+04  0.10566000000E+00 0. -1.
        994   -1    0    0    0    0 -0.00000000000E+00 -0.00000000000E+00  0.11368683772E-12  0.17120000000E+03  0.17120000000E+03 0.  0.
         13    1    1    2    0    0 -0.47564170600E+01  0.22388603029E+02  0.12232897416E+03  0.12445184664E+03  0.10566000000E+00 0. -1.
        994    1    1    2    0    0  0.77052081813E+01 -0.13733340354E+02  0.29374396857E+01  0.17194779272E+03  0.17120000000E+03 0.  0.
        998    1    1    2    0    0 -0.29487911213E+01 -0.86552626753E+01  0.13747335824E+04  0.13748003606E+04  0.10000000000E+02 0. -1.
</event>
<event>
 5    1  0.1245771E-008  0.3806015E+03  0.7957747E-01  0.3448543E+00
         13   -1    0    0    0    0  0.00000000000E+00  0.00000000000E+00  0.14999999963E+04  0.15000000000E+04  0.10566000000E+00 0. -1.
        994   -1    0    0    0    0 -0.00000000000E+00 -0.00000000000E+00  0.11368683772E-12  0.17120000000E+03  0.17120000000E+03 0.  0.
         13    1    1    2    0    0 -0.85512081079E+01 -0.22053602673E+02  0.93869794857E+01  0.25448204237E+02  0.10566000000E+00 0. -1.
        994    1    1    2    0    0  0.94616313771E+01  0.23941305582E+02  0.19068297530E+02  0.17417160662E+03  0.17120000000E+03 0.  0.
        998    1    1    2    0    0 -0.91042326921E+00 -0.18877029090E+01  0.14715447193E+04  0.14715801891E+04  0.10000000000E+02 0. -1.
</event>
<event>
 5    1  0.1245771E-008  0.3778844E+03  0.7957747E-01  0.3460422E+00
         13   -1    0    0    0    0  0.00000000000E+00  0.00000000000E+00  0.14999999963E+04  0.15000000000E+04  0.10566000000E+00 0.  1.
        994   -1    0    0    0    0 -0.00000000000E+00 -0.00000000000E+00  0.11368683772E-12  0.17120000000E+03  0.17120000000E+03 0.  0.
         13    1    1    2    0    0  0.16186168983E+02  0.17158727513E+02  0.11645417921E+02  0.26306670614E+02  0.10566000000E+00 0.  1.
        994    1    1    2    0    0 -0.17227852206E+02 -0.15430379858E+02  0.17095562149E+02  0.17359894516E+03  0.17120000000E+03 0.  0.
        998    1    1    2    0    0  0.10416832223E+01 -0.17283476544E+01  0.14712590162E+04  0.14712943842E+04  0.10000000000E+02 0.  1.
</event>
<event>
 5    1  0.1245771E-008  0.3785266E+03  0.7957747E-01  0.3457599E+00
         13   -1    0    0    0    0  0.00000000000E+00  0.00000000000E+00  0.14999999963E+04  0.15000000000E+04  0.10566000000E+00 0. -1.
        994   -1    0    0    0    0 -0.00000000000E+00 -0.00000000000E+00  0.11368683772E-12  0.17120000000E+03  0.17120000000E+03 0.  0.
         13    1    1    2    0    0 -0.53471411452E+02  0.88751489189E+00  0.30958237956E+03  0.31416753560E+03  0.10566000000E+00 0. -1.
        994    1    1    2    0    0  0.25504145538E+02 -0.36035698169E+02  0.11454176272E+02  0.17717130449E+03  0.17120000000E+03 0.  0.
        998    1    1    2    0    0  0.27967265914E+02  0.35148183277E+02  0.11789634404E+04  0.11798611599E+04  0.10000000000E+02 0. -1.
</event>
<event>
 5    1  0.1245771E-008  0.3818448E+03  0.7957747E-01  0.3443165E+00
         13   -1    0    0    0    0  0.00000000000E+00  0.00000000000E+00  0.14999999963E+04  0.15000000000E+04  0.10566000000E+00 0.  1.
        994   -1    0    0    0    0 -0.00000000000E+00 -0.00000000000E+00  0.11368683772E-12  0.17120000000E+03  0.17120000000E+03 0.  0.
         13    1    1    2    0    0 -0.27479490439E+02  0.30576069943E+01  0.11909364935E+03  0.12226111334E+03  0.10566000000E+00 0.  1.
        994    1    1    2    0    0  0.17026561221E+02  0.10830296948E+02  0.45589623111E+01  0.17244542109E+03  0.17120000000E+03 0.  0.
        998    1    1    2    0    0  0.10452929218E+02 -0.13887903943E+02  0.13763473846E+04  0.13764934656E+04  0.10000000000E+02 0.  1.
</event>
<event>
 5    1  0.1245771E-008  0.3831694E+03  0.7957747E-01  0.3437473E+00
         13   -1    0    0    0    0  0.00000000000E+00  0.00000000000E+00  0.14999999963E+04  0.15000000000E+04  0.10566000000E+00 0. -1.
        994   -1    0    0    0    0 -0.00000000000E+00 -0.00000000000E+00  0.11368683772E-12  0.17120000000E+03  0.17120000000E+03 0.  0.
         13    1    1    2    0    0  0.13491743501E+02  0.12950470000E+02  0.75101916539E+02  0.77395418778E+02  0.10566000000E+00 0. -1.
        994    1    1    2    0    0  0.15230730402E+02 -0.84771856217E+01  0.35475380312E+01  0.17212165131E+03  0.17120000000E+03 0.  0.
        998    1    1    2    0    0 -0.28722473902E+02 -0.44732843788E+01  0.14213505417E+04  0.14216829299E+04  0.10000000000E+02 0. -1.
</event>
<event>
 5    1  0.1245771E-008  0.3804074E+03  0.7957747E-01  0.3449386E+00
         13   -1    0    0    0    0  0.00000000000E+00  0.00000000000E+00  0.14999999963E+04  0.15000000000E+04  0.10566000000E+00 0. -1.
        994   -1    0    0    0    0 -0.00000000000E+00 -0.00000000000E+00  0.11368683772E-12  0.17120000000E+03  0.17120000000E+03 0.  0.
         13    1    1    2    0    0 -0.31376932233E+02 -0.23314146911E+02  0.16008037413E+03  0.16478409714E+03  0.10566000000E+00 0. -1.
        994    1    1    2    0    0  0.35177409257E+02  0.39524851045E+02  0.13331245351E+02  0.17968535298E+03  0.17120000000E+03 0.  0.
        998    1    1    2    0    0 -0.38004770235E+01 -0.16210704135E+02  0.13265883768E+04  0.13267305499E+04  0.10000000000E+02 0. -1.
</event>
<event>
 5    1  0.1245771E-008  0.3799251E+03  0.7957747E-01  0.3451485E+00
         13   -1    0    0    0    0  0.00000000000E+00  0.00000000000E+00  0.14999999963E+04  0.15000000000E+04  0.10566000000E+00 0.  1.
        994   -1    0    0    0    0 -0.00000000000E+00 -0.00000000000E+00  0.11368683772E-12  0.17120000000E+03  0.17120000000E+03 0.  0.
         13    1    1    2    0    0  0.24753535848E+02  0.15393690029E+02  0.10317049951E+03  0.10720945090E+03  0.10566000000E+00 0.  1.
        994    1    1    2    0    0 -0.35035754372E+01 -0.18393803627E+02  0.53441814151E+01  0.17230382273E+03  0.17120000000E+03 0.  0.
        998    1    1    2    0    0 -0.21249960411E+02  0.30001135973E+01  0.13914853154E+04  0.13916867264E+04  0.10000000000E+02 0.  1.
</event>
<event>
 5    1  0.1245771E-008  0.3744963E+03  0.7957747E-01  0.3475479E+00
         13   -1    0    0    0    0  0.00000000000E+00  0.00000000000E+00  0.14999999963E+04  0.15000000000E+04  0.10566000000E+00 0. -1.
        994   -1    0    0    0    0 -0.00000000000E+00 -0.00000000000E+00  0.11368683772E-12  0.17120000000E+03  0.17120000000E+03 0.  0.
         13    1    1    2    0    0  0.24758608770E+02 -0.29610595529E+02  0.97898895714E+02  0.10523298448E+03  0.10566000000E+00 0. -1.
        994    1    1    2    0    0 -0.25493855793E+02  0.31475273112E+02  0.12544510366E+02  0.17637299748E+03  0.17120000000E+03 0.  0.
        998    1    1    2    0    0  0.73524702230E+00 -0.18646775830E+01  0.13895565902E+04  0.13895940180E+04  0.10000000000E+02 0. -1.
</event>
<event>
 5    1  0.1245771E-008  0.3834846E+03  0.7957747E-01  0.3436125E+00
         13   -1    0    0    0    0  0.00000000000E+00  0.00000000000E+00  0.14999999963E+04  0.15000000000E+04  0.10566000000E+00 0.  1.
        994   -1    0    0    0    0 -0.00000000000E+00 -0.00000000000E+00  0.11368683772E-12  0.17120000000E+03  0.17120000000E+03 0.  0.
         13    1    1    2    0    0 -0.73360656179E+01 -0.77216496476E+01  0.23845610660E+02  0.26116394158E+02  0.10566000000E+00 0.  1.
        994    1    1    2    0    0  0.39991912474E+01 -0.84791380999E+01  0.26749075653E+01  0.17147735840E+03  0.17120000000E+03 0.  0.
        998    1    1    2    0    0  0.33368743705E+01  0.16200787747E+02  0.14734794781E+04  0.14736062474E+04  0.10000000000E+02 0.  1.
</event>
<event>
 5    1  0.1245771E-008  0.3833347E+03  0.7957747E-01  0.3436766E+00
         13   -1    0    0    0    0  0.00000000000E+00  0.00000000000E+00  0.14999999963E+04  0.15000000000E+04  0.10566000000E+00 0. -1.
        994   -1    0    0    0    0 -0.00000000000E+00 -0.00000000000E+00  0.11368683772E-12  0.17120000000E+03  0.17120000000E+03 0.  0.
         13    1    1    2    0    0  0.77864097890E+00 -0.12341561912E+02  0.29697890843E+02  0.32169804425E+02  0.10566000000E+00 0. -1.
        994    1    1    2    0    0 -0.26968404417E+01  0.13730688316E+02  0.31069030528E+01  0.17179900348E+03  0.17120000000E+03 0.  0.
        998    1    1    2    0    0  0.19181994628E+01 -0.13891264034E+01  0.14671952024E+04  0.14672311921E+04  0.10000000000E+02 0. -1.
</event>
<event>
 5    1  0.1245771E-008  0.3825780E+03  0.7957747E-01  0.3440009E+00
         13   -1    0    0    0    0  0.00000000000E+00  0.00000000000E+00  0.14999999963E+04  0.15000000000E+04  0.10566000000E+00 0.  1.
        994   -1    0    0    0    0 -0.00000000000E+00 -0.00000000000E+00  0.11368683772E-12  0.17120000000E+03  0.17120000000E+03 0.  0.
         13    1    1    2    0    0 -0.20102626779E+02  0.45458590114E+01  0.75871449311E+02  0.78621043126E+02  0.10566000000E+00 0.  1.
        994    1    1    2    0    0  0.65610243440E+01 -0.90868669100E+01  0.32538978636E+01  0.17159733693E+03  0.17120000000E+03 0.  0.
        998    1    1    2    0    0  0.13541602435E+02  0.45410078986E+01  0.14208746491E+04  0.14209816199E+04  0.10000000000E+02 0.  1.
</event>
<event>
 5    1  0.1245771E-008  0.3801155E+03  0.7957747E-01  0.3450656E+00
         13   -1    0    0    0    0  0.00000000000E+00  0.00000000000E+00  0.14999999963E+04  0.15000000000E+04  0.10566000000E+00 0. -1.
        994   -1    0    0    0    0 -0.00000000000E+00 -0.00000000000E+00  0.11368683772E-12  0.17120000000E+03  0.17120000000E+03 0.  0.
         13    1    1    2    0    0 -0.80941342511E+02  0.69563117249E+01  0.46952335700E+03  0.47649982700E+03  0.10566000000E+00 0. -1.
        994    1    1    2    0    0  0.10034111838E+03  0.27913026228E+02  0.41218495200E+02  0.20458709983E+03  0.17120000000E+03 0.  0.
        998    1    1    2    0    0 -0.19399775865E+02 -0.34869337953E+02  0.98925814408E+03  0.99011307317E+03  0.10000000000E+02 0. -1.
</event>
<event>
 5    1  0.1245771E-008  0.3778797E+03  0.7957747E-01  0.3460443E+00
         13   -1    0    0    0    0  0.00000000000E+00  0.00000000000E+00  0.14999999963E+04  0.15000000000E+04  0.10566000000E+00 0. -1.
        994   -1    0    0    0    0 -0.00000000000E+00 -0.00000000000E+00  0.11368683772E-12  0.17120000000E+03  0.17120000000E+03 0.  0.
         13    1    1    2    0    0  0.16226964740E+02 -0.31947439490E+02  0.12706248436E+03  0.13201832968E+03  0.10566000000E+00 0. -1.
        994    1    1    2    0    0 -0.98623899229E+00  0.13959657825E+02  0.58668782754E+01  0.17187118716E+03  0.17120000000E+03 0.  0.
        998    1    1    2    0    0 -0.15240725747E+02  0.17987781665E+02  0.13670706336E+04  0.13673104832E+04  0.10000000000E+02 0. -1.
</event>
<event>
 5    1  0.1245771E-008  0.3779982E+03  0.7957747E-01  0.3459922E+00
         13   -1    0    0    0    0  0.00000000000E+00  0.00000000000E+00  0.14999999963E+04  0.15000000000E+04  0.10566000000E+00 0. -1.
        994   -1    0    0    0    0 -0.00000000000E+00 -0.00000000000E+00  0.11368683772E-12  0.17120000000E+03  0.17120000000E+03 0.  0.
         13    1    1    2    0    0 -0.44306422269E+02 -0.17360818206E+02  0.23351139515E+03  0.23831080523E+03  0.10566000000E+00 0. -1.
        994    1    1    2    0    0  0.11892133572E+02  0.20195523439E+02  0.69977180739E+01  0.17293839963E+03  0.17120000000E+03 0.  0.
        998    1    1    2    0    0  0.32414288697E+02 -0.28347052330E+01  0.12594908831E+04  0.12599507951E+04  0.10000000000E+02 0. -1.
</event>
<event>
 5    1  0.1245771E-008  0.3832983E+03  0.7957747E-01  0.3436922E+00
         13   -1    0    0    0    0  0.00000000000E+00  0.00000000000E+00  0.14999999963E+04  0.15000000000E+04  0.10566000000E+00 0.  1.
        994   -1    0    0    0    0 -0.00000000000E+00 -0.00000000000E+00  0.11368683772E-12  0.17120000000E+03  0.17120000000E+03 0.  0.
         13    1    1    2    0    0  0.23323025530E+01  0.16074839248E+02  0.50773359805E+02  0.53308398231E+02  0.10566000000E+00 0.  1.
        994    1    1    2    0    0  0.18414082258E+01 -0.18597860554E+02  0.36332158357E+01  0.17225536700E+03  0.17120000000E+03 0.  0.
        998    1    1    2    0    0 -0.41737107789E+01  0.25230213067E+01  0.14455934206E+04  0.14456362348E+04  0.10000000000E+02 0.  1.
</event>
<event>
 5    1  0.1245771E-008  0.3790390E+03  0.7957747E-01  0.3455353E+00
         13   -1    0    0    0    0  0.00000000000E+00  0.00000000000E+00  0.14999999963E+04  0.15000000000E+04  0.10566000000E+00 0.  1.
        994   -1    0    0    0    0 -0.00000000000E+00 -0.00000000000E+00  0.11368683772E-12  0.17120000000E+03  0.17120000000E+03 0.  0.
         13    1    1    2    0    0  0.58767333316E+02  0.32602134440E+02  0.37866640873E+03  0.38458387759E+03  0.10566000000E+00 0.  1.
        994    1    1    2    0    0 -0.54199950380E+02 -0.33880059980E+02  0.18444232641E+02  0.18367123564E+03  0.17120000000E+03 0.  0.
        998    1    1    2    0    0 -0.45673829361E+01  0.12779255400E+01  0.11028893549E+04  0.11029448868E+04  0.10000000000E+02 0.  0.
</event>
<event>
 5    1  0.1245771E-008  0.3843790E+03  0.7957747E-01  0.3432310E+00
         13   -1    0    0    0    0  0.00000000000E+00  0.00000000000E+00  0.14999999963E+04  0.15000000000E+04  0.10566000000E+00 0. -1.
        994   -1    0    0    0    0 -0.00000000000E+00 -0.00000000000E+00  0.11368683772E-12  0.17120000000E+03  0.17120000000E+03 0.  0.
         13    1    1    2    0    0 -0.60127667700E+01 -0.16060608328E+02  0.78755830818E+02  0.80601417829E+02  0.10566000000E+00 0. -1.
        994    1    1    2    0    0  0.88041319456E+01  0.18155990305E+01  0.22050851512E+01  0.17145002636E+03  0.17120000000E+03 0.  0.
        998    1    1    2    0    0 -0.27913651756E+01  0.14245009298E+02  0.14190390803E+04  0.14191485558E+04  0.10000000000E+02 0. -1.
</event>
<event>
 5    1  0.1245771E-008  0.3827487E+03  0.7957747E-01  0.3439277E+00
         13   -1    0    0    0    0  0.00000000000E+00  0.00000000000E+00  0.14999999963E+04  0.15000000000E+04  0.10566000000E+00 0.  1.
        994   -1    0    0    0    0 -0.00000000000E+00 -0.00000000000E+00  0.11368683772E-12  0.17120000000E+03  0.17120000000E+03 0.  0.
         13    1    1    2    0    0  0.75003325415E+01  0.10101009159E+02  0.28095811719E+02  0.30784268294E+02  0.10566000000E+00 0.  1.
        994    1    1    2    0    0 -0.78397478973E+01 -0.94455161623E+00  0.29586136219E+01  0.17140754715E+03  0.17120000000E+03 0.  0.
        998    1    1    2    0    0  0.33941535578E+00 -0.91564575424E+01  0.14689455709E+04  0.14690081846E+04  0.10000000000E+02 0.  1.
</event>
<event>
 5    1  0.1245771E-008  0.3861278E+03  0.7957747E-01  0.3424903E+00
         13   -1    0    0    0    0  0.00000000000E+00  0.00000000000E+00  0.14999999963E+04  0.15000000000E+04  0.10566000000E+00 0.  1.
        994   -1    0    0    0    0 -0.00000000000E+00 -0.00000000000E+00  0.11368683772E-12  0.17120000000E+03  0.17120000000E+03 0.  0.
         13    1    1    2    0    0  0.52622045334E+01  0.11808278633E+02  0.74079011640E+02  0.75198652717E+02  0.10566000000E+00 0.  1.
        994    1    1    2    0    0  0.22765199761E-01 -0.18167336634E+02  0.21534719577E+01  0.17217470802E+03  0.17120000000E+03 0.  0.
        998    1    1    2    0    0 -0.52849697332E+01  0.63590580010E+01  0.14237675127E+04  0.14238266393E+04  0.10000000000E+02 0.  1.
</event>
<event>
 5    1  0.1245771E-008  0.3806977E+03  0.7957747E-01  0.3448126E+00
         13   -1    0    0    0    0  0.00000000000E+00  0.00000000000E+00  0.14999999963E+04  0.15000000000E+04  0.10566000000E+00 0.  1.
        994   -1    0    0    0    0 -0.00000000000E+00 -0.00000000000E+00  0.11368683772E-12  0.17120000000E+03  0.17120000000E+03 0.  0.
         13    1    1    2    0    0  0.30763132591E+01  0.13948113979E+02  0.25392975383E+02  0.29134652043E+02  0.10566000000E+00 0.  1.
        994    1    1    2    0    0 -0.53131555448E+01 -0.99183013988E+01  0.42037432014E+01  0.17162084309E+03  0.17120000000E+03 0.  0.
        998    1    1    2    0    0  0.22368422857E+01 -0.40298125797E+01  0.14704032777E+04  0.14704445049E+04  0.10000000000E+02 0.  1.
</event>
<event>
 5    1  0.1245771E-008  0.3740785E+03  0.7957747E-01  0.3477354E+00
         13   -1    0    0    0    0  0.00000000000E+00  0.00000000000E+00  0.14999999963E+04  0.15000000000E+04  0.10566000000E+00 0. -1.
        994   -1    0    0    0    0 -0.00000000000E+00 -0.00000000000E+00  0.11368683772E-12  0.17120000000E+03  0.17120000000E+03 0.  0.
         13    1    1    2    0    0  0.99178805804E+01 -0.56932419194E+02  0.20774933859E+03  0.21563734268E+03  0.10566000000E+00 0. -1.
        994    1    1    2    0    0  0.82248569239E+01  0.54174315311E+02  0.17460559952E+02  0.18060126208E+03  0.17120000000E+03 0.  0.
        998    1    1    2    0    0 -0.18142737504E+02  0.27581038827E+01  0.12747900977E+04  0.12749613952E+04  0.10000000000E+02 0.  1.
</event>
<event>
 5    1  0.1245771E-008  0.3831597E+03  0.7957747E-01  0.3437515E+00
         13   -1    0    0    0    0  0.00000000000E+00  0.00000000000E+00  0.14999999963E+04  0.15000000000E+04  0.10566000000E+00 0. -1.
        994   -1    0    0    0    0 -0.00000000000E+00 -0.00000000000E+00  0.11368683772E-12  0.17120000000E+03  0.17120000000E+03 0.  0.
         13    1    1    2    0    0 -0.12637435788E+02 -0.27118213402E+01  0.32226977442E+02  0.34722442272E+02  0.10566000000E+00 0. -1.
        994    1    1    2    0    0  0.56314392671E+01  0.56875067008E+01  0.27585536998E+01  0.17140919012E+03  0.17120000000E+03 0.  0.
        998    1    1    2    0    0  0.70059965206E+01 -0.29756853607E+01  0.14650144651E+04  0.14650683676E+04  0.10000000000E+02 0. -1.
</event>
<event>
 5    1  0.1245771E-008  0.3845988E+03  0.7957747E-01  0.3431375E+00
         13   -1    0    0    0    0  0.00000000000E+00  0.00000000000E+00  0.14999999963E+04  0.15000000000E+04  0.10566000000E+00 0.  1.
        994   -1    0    0    0    0 -0.00000000000E+00 -0.00000000000E+00  0.11368683772E-12  0.17120000000E+03  0.17120000000E+03 0.  0.
         13    1    1    2    0    0 -0.11032124876E+02 -0.17146324814E+01  0.33070540012E+02  0.34904434168E+02  0.10566000000E+00 0.  1.
        994    1    1    2    0    0  0.11569171975E+02  0.37100694740E+01  0.23156710823E+01  0.17164618460E+03  0.17120000000E+03 0.  0.
        998    1    1    2    0    0 -0.53704709822E+00 -0.19954369926E+01  0.14646137852E+04  0.14646493812E+04  0.10000000000E+02 0.  1.
</event>
<event>
 5    1  0.1245771E-008  0.3831569E+03  0.7957747E-01  0.3437527E+00
         13   -1    0    0    0    0  0.00000000000E+00  0.00000000000E+00  0.14999999963E+04  0.15000000000E+04  0.10566000000E+00 0. -1.
        994   -1    0    0    0    0 -0.00000000000E+00 -0.00000000000E+00  0.11368683772E-12  0.17120000000E+03  0.17120000000E+03 0.  0.
         13    1    1    2    0    0  0.17021475260E+02  0.92446088895E+01  0.73177181193E+02  0.75697453226E+02  0.10566000000E+00 0. -1.
        994    1    1    2    0    0 -0.11243245102E+02 -0.39194926306E+01  0.30171446758E+01  0.17164007733E+03  0.17120000000E+03 0.  0.
        998    1    1    2    0    0 -0.57782301579E+01 -0.53251162588E+01  0.14238056704E+04  0.14238624694E+04  0.10000000000E+02 0. -1.
</event>
<event>
 5    1  0.1245771E-008  0.3847135E+03  0.7957747E-01  0.3430888E+00
         13   -1    0    0    0    0  0.00000000000E+00  0.00000000000E+00  0.14999999963E+04  0.15000000000E+04  0.10566000000E+00 0. -1.
        994   -1    0    0    0    0 -0.00000000000E+00 -0.00000000000E+00  0.11368683772E-12  0.17120000000E+03  0.17120000000E+03 0.  0.
         13    1    1    2    0    0  0.97443366899E+01 -0.11211603413E+02  0.63495099871E+02  0.65209593008E+02  0.10566000000E+00 0. -1.
        994    1    1    2    0    0 -0.45943225347E+01  0.41200457765E+01  0.18978103869E+01  0.17132169816E+03  0.17120000000E+03 0.  0.
        998    1    1    2    0    0 -0.51500141552E+01  0.70915576367E+01  0.14346070860E+04  0.14346687088E+04  0.10000000000E+02 0. -1.
</event>
<event>
 5    1  0.1245771E-008  0.3814205E+03  0.7957747E-01  0.3444997E+00
         13   -1    0    0    0    0  0.00000000000E+00  0.00000000000E+00  0.14999999963E+04  0.15000000000E+04  0.10566000000E+00 0.  1.
        994   -1    0    0    0    0 -0.00000000000E+00 -0.00000000000E+00  0.11368683772E-12  0.17120000000E+03  0.17120000000E+03 0.  0.
         13    1    1    2    0    0 -0.16259245492E+02 -0.23388216978E+02  0.11620658398E+03  0.11964678467E+03  0.10566000000E+00 0.  1.
        994    1    1    2    0    0  0.20826044480E+02  0.89862862014E+01  0.51314941931E+01  0.17277224806E+03  0.17120000000E+03 0.  0.
        998    1    1    2    0    0 -0.45667989877E+01  0.14401930777E+02  0.13786619181E+04  0.13787809673E+04  0.10000000000E+02 0.  1.
</event>
<event>
 5    1  0.1245771E-008  0.3844244E+03  0.7957747E-01  0.3432117E+00
         13   -1    0    0    0    0  0.00000000000E+00  0.00000000000E+00  0.14999999963E+04  0.15000000000E+04  0.10566000000E+00 0. -1.
        994   -1    0    0    0    0 -0.00000000000E+00 -0.00000000000E+00  0.11368683772E-12  0.17120000000E+03  0.17120000000E+03 0.  0.
         13    1    1    2    0    0  0.32896108619E+01 -0.11958204217E+02  0.38673589934E+02  0.40613765032E+02  0.10566000000E+00 0. -1.
        994    1    1    2    0    0 -0.85148032439E+00  0.14746894240E+02  0.26354327240E+01  0.17185628128E+03  0.17120000000E+03 0.  0.
        998    1    1    2    0    0 -0.24381305375E+01 -0.27886900224E+01  0.14586909736E+04  0.14587299537E+04  0.10000000000E+02 0. -1.
</event>
<event>
 5    1  0.1245771E-008  0.3817696E+03  0.7957747E-01  0.3443489E+00
         13   -1    0    0    0    0  0.00000000000E+00  0.00000000000E+00  0.14999999963E+04  0.15000000000E+04  0.10566000000E+00 0. -1.
        994   -1    0    0    0    0 -0.00000000000E+00 -0.00000000000E+00  0.11368683772E-12  0.17120000000E+03  0.17120000000E+03 0.  0.
         13    1    1    2    0    0 -0.48799280468E+02  0.13320596616E+03  0.52532234033E+03  0.54414039696E+03  0.10566000000E+00 0. -1.
        994    1    1    2    0    0  0.38487713997E+02 -0.88627923174E+02  0.52204849532E+02  0.20339862145E+03  0.17120000000E+03 0.  0.
        998    1    1    2    0    0  0.10311566471E+02 -0.44578042983E+02  0.92247280642E+03  0.92366098158E+03  0.10000000000E+02 0. -1.
</event>
<event>
 5    1  0.1245771E-008  0.3831236E+03  0.7957747E-01  0.3437670E+00
         13   -1    0    0    0    0  0.00000000000E+00  0.00000000000E+00  0.14999999963E+04  0.15000000000E+04  0.10566000000E+00 0.  1.
        994   -1    0    0    0    0 -0.00000000000E+00 -0.00000000000E+00  0.11368683772E-12  0.17120000000E+03  0.17120000000E+03 0.  0.
         13    1    1    2    0    0  0.16344894074E+02  0.58155561827E+01  0.62550080451E+02  0.64911478064E+02  0.10566000000E+00 0.  1.
        994    1    1    2    0    0  0.11060327990E+02 -0.21589894846E+02  0.45141170932E+01  0.17296899048E+03  0.17120000000E+03 0.  0.
        998    1    1    2    0    0 -0.27405222065E+02  0.15774338663E+02  0.14329357987E+04  0.14333195315E+04  0.10000000000E+02 0.  1.
</event>
<event>
 5    1  0.1245771E-008  0.3779342E+03  0.7957747E-01  0.3460203E+00
         13   -1    0    0    0    0  0.00000000000E+00  0.00000000000E+00  0.14999999963E+04  0.15000000000E+04  0.10566000000E+00 0.  1.
        994   -1    0    0    0    0 -0.00000000000E+00 -0.00000000000E+00  0.11368683772E-12  0.17120000000E+03  0.17120000000E+03 0.  0.
         13    1    1    2    0    0  0.23907985689E+02  0.12189329948E+02  0.67278407172E+02  0.72433188387E+02  0.10566000000E+00 0.  1.
        994    1    1    2    0    0 -0.19897917471E+02 -0.11326910495E+01  0.65176912537E+01  0.17247936227E+03  0.17120000000E+03 0.  0.
        998    1    1    2    0    0 -0.40100682183E+01 -0.11056638899E+02  0.14262038979E+04  0.14262874493E+04  0.10000000000E+02 0.  1.
</event>
<event>
 5    1  0.1245771E-008  0.3843265E+03  0.7957747E-01  0.3432534E+00
         13   -1    0    0    0    0  0.00000000000E+00  0.00000000000E+00  0.14999999963E+04  0.15000000000E+04  0.10566000000E+00 0.  1.
        994   -1    0    0    0    0 -0.00000000000E+00 -0.00000000000E+00  0.11368683772E-12  0.17120000000E+03  0.17120000000E+03 0.  0.
         13    1    1    2    0    0  0.14445822631E+02 -0.14864162836E+01  0.51039775806E+02  0.53065630150E+02  0.10566000000E+00 0.  1.
        994    1    1    2    0    0 -0.20147830972E+02 -0.15917728047E+02  0.41408864937E+01  0.17316436152E+03  0.17120000000E+03 0.  0.
        998    1    1    2    0    0  0.57020083406E+01  0.17404144331E+02  0.14448193340E+04  0.14449700083E+04  0.10000000000E+02 0.  1.
</event>
<event>
 5    1  0.1245771E-008  0.3750435E+03  0.7957747E-01  0.3473028E+00
         13   -1    0    0    0    0  0.00000000000E+00  0.00000000000E+00  0.14999999963E+04  0.15000000000E+04  0.10566000000E+00 0.  1.
        994   -1    0    0    0    0 -0.00000000000E+00 -0.00000000000E+00  0.11368683772E-12  0.17120000000E+03  0.17120000000E+03 0.  0.
         13    1    1    2    0    0 -0.22165643268E+02 -0.11567416661E+02  0.44708353814E+02  0.51224690673E+02  0.10566000000E+00 0.  1.
        994    1    1    2    0    0  0.22342746891E+02 -0.13064168100E+02  0.89364402483E+01  0.17337580798E+03  0.17120000000E+03 0.  0.
        998    1    1    2    0    0 -0.17710362235E+00  0.24631584761E+02  0.14463552022E+04  0.14465995014E+04  0.10000000000E+02 0.  1.
</event>
<event>
 5    1  0.1245771E-008  0.3724520E+03  0.7957747E-01  0.3484697E+00
         13   -1    0    0    0    0  0.00000000000E+00  0.00000000000E+00  0.14999999963E+04  0.15000000000E+04  0.10566000000E+00 0. -1.
        994   -1    0    0    0    0 -0.00000000000E+00 -0.00000000000E+00  0.11368683772E-12  0.17120000000E+03  0.17120000000E+03 0.  0.
         13    1    1    2    0    0 -0.28583569080E+02  0.91078682904E+01  0.50932887511E+02  0.59111283867E+02  0.10566000000E+00 0. -1.
        994    1    1    2    0    0  0.33486039149E+02 -0.76863194734E+01  0.12050994731E+02  0.17502874278E+03  0.17120000000E+03 0.  0.
        998    1    1    2    0    0 -0.49024700689E+01 -0.14215488170E+01  0.14370161140E+04  0.14370599734E+04  0.10000000000E+02 0. -1.
</event>
<event>
 5    1  0.1245771E-008  0.3860489E+03  0.7957747E-01  0.3425236E+00
         13   -1    0    0    0    0  0.00000000000E+00  0.00000000000E+00  0.14999999963E+04  0.15000000000E+04  0.10566000000E+00 0.  1.
        994   -1    0    0    0    0 -0.00000000000E+00 -0.00000000000E+00  0.11368683772E-12  0.17120000000E+03  0.17120000000E+03 0.  0.
         13    1    1    2    0    0  0.64920372705E+01  0.10525280233E+02  0.69660077754E+02  0.70749315676E+02  0.10566000000E+00 0.  1.
        994    1    1    2    0    0 -0.18733197936E+00 -0.97109462025E+01  0.14195386121E+01  0.17148117290E+03  0.17120000000E+03 0.  0.
        998    1    1    2    0    0 -0.63047052911E+01 -0.81433403033E+00  0.14289203799E+04  0.14289695114E+04  0.10000000000E+02 0.  1.
</event>
<event>
 5    1  0.1245771E-008  0.3875519E+03  0.7957747E-01  0.3418921E+00
         13   -1    0    0    0    0  0.00000000000E+00  0.00000000000E+00  0.14999999963E+04  0.15000000000E+04  0.10566000000E+00 0.  1.
        994   -1    0    0    0    0 -0.00000000000E+00 -0.00000000000E+00  0.11368683772E-12  0.17120000000E+03  0.17120000000E+03 0.  0.
         13    1    1    2    0    0  0.30451219682E+02  0.56429396326E+02  0.88704808379E+02  0.10945367853E+03  0.10566000000E+00 0.  1.
        994    1    1    2    0    0 -0.30679920146E+02 -0.53726465978E+02  0.34948712865E+02  0.18536084586E+03  0.17120000000E+03 0.  0.
        998    1    1    2    0    0  0.22870046466E+00 -0.27029303476E+01  0.13763464750E+04  0.13763854756E+04  0.10000000000E+02 0.  1.
</event>
<event>
 5    1  0.1245771E-008  0.3754139E+03  0.7957747E-01  0.3471374E+00
         13   -1    0    0    0    0  0.00000000000E+00  0.00000000000E+00  0.14999999963E+04  0.15000000000E+04  0.10566000000E+00 0. -1.
        994   -1    0    0    0    0 -0.00000000000E+00 -0.00000000000E+00  0.11368683772E-12  0.17120000000E+03  0.17120000000E+03 0.  0.
         13    1    1    2    0    0  0.29440775299E+02 -0.41342560558E+02  0.28527808946E+03  0.28975777135E+03  0.10566000000E+00 0. -1.
        994    1    1    2    0    0  0.11165257360E+02 -0.13581167336E+02  0.75162906360E+01  0.17226446442E+03  0.17120000000E+03 0.  0.
        998    1    1    2    0    0 -0.40606032659E+02  0.54923727894E+02  0.12072056162E+04  0.12091777642E+04  0.10000000000E+02 0. -1.
</event>
<event>
 5    1  0.1245771E-008  0.3700354E+03  0.7957747E-01  0.3495728E+00
         13   -1    0    0    0    0  0.00000000000E+00  0.00000000000E+00  0.14999999963E+04  0.15000000000E+04  0.10566000000E+00 0.  1.
        994   -1    0    0    0    0 -0.00000000000E+00 -0.00000000000E+00  0.11368683772E-12  0.17120000000E+03  0.17120000000E+03 0.  0.
         13    1    1    2    0    0 -0.73078186287E+02 -0.32145666757E+02  0.29725959385E+03  0.30779383116E+03  0.10566000000E+00 0.  1.
        994    1    1    2    0    0  0.73605255196E+02  0.26660446377E+01  0.28246550026E+02  0.18849973203E+03  0.17120000000E+03 0.  0.
        998    1    1    2    0    0 -0.52706890850E+00  0.29479622119E+02  0.11744938524E+04  0.11749064368E+04  0.10000000000E+02 0. -1.
</event>
<event>
 5    1  0.1245771E-008  0.3809827E+03  0.7957747E-01  0.3446891E+00
         13   -1    0    0    0    0  0.00000000000E+00  0.00000000000E+00  0.14999999963E+04  0.15000000000E+04  0.10566000000E+00 0.  1.
        994   -1    0    0    0    0 -0.00000000000E+00 -0.00000000000E+00  0.11368683772E-12  0.17120000000E+03  0.17120000000E+03 0.  0.
         13    1    1    2    0    0  0.39674201777E+02 -0.61197770645E+02  0.33684748504E+03  0.34465264944E+03  0.10566000000E+00 0.  1.
        994    1    1    2    0    0 -0.68174614320E+02  0.10341061512E+03  0.56571178851E+02  0.21874933516E+03  0.17120000000E+03 0.  0.
        998    1    1    2    0    0  0.28500412544E+02 -0.42212844472E+02  0.11065813324E+04  0.11077980154E+04  0.10000000000E+02 0.  1.
</event>
<event>
 5    1  0.1245771E-008  0.3826988E+03  0.7957747E-01  0.3439491E+00
         13   -1    0    0    0    0  0.00000000000E+00  0.00000000000E+00  0.14999999963E+04  0.15000000000E+04  0.10566000000E+00 0.  1.
        994   -1    0    0    0    0 -0.00000000000E+00 -0.00000000000E+00  0.11368683772E-12  0.17120000000E+03  0.17120000000E+03 0.  0.
         13    1    1    2    0    0 -0.65651591572E+01 -0.23172847769E+02  0.95089034466E+02  0.98091884619E+02  0.10566000000E+00 0.  1.
        994    1    1    2    0    0  0.19255810466E+02  0.25266614732E+02  0.61279747750E+01  0.17423025033E+03  0.17120000000E+03 0.  0.
        998    1    1    2    0    0 -0.12690651309E+02 -0.20937669631E+01  0.13987829870E+04  0.13988778650E+04  0.10000000000E+02 0.  1.
</event>
<event>
 5    1  0.1245771E-008  0.3776068E+03  0.7957747E-01  0.3461646E+00
         13   -1    0    0    0    0  0.00000000000E+00  0.00000000000E+00  0.14999999963E+04  0.15000000000E+04  0.10566000000E+00 0.  1.
        994   -1    0    0    0    0 -0.00000000000E+00 -0.00000000000E+00  0.11368683772E-12  0.17120000000E+03  0.17120000000E+03 0.  0.
         13    1    1    2    0    0  0.18416226030E+02 -0.45975121599E+02  0.19592411025E+03  0.20208695487E+03  0.10566000000E+00 0.  1.
        994    1    1    2    0    0 -0.40324963626E+02  0.40539580060E+02  0.16443513658E+02  0.18124400510E+03  0.17120000000E+03 0.  0.
        998    1    1    2    0    0  0.21908737597E+02  0.54355415391E+01  0.12876323724E+04  0.12878690400E+04  0.10000000000E+02 0.  1.
</event>
<event>
 5    1  0.1245771E-008  0.3827251E+03  0.7957747E-01  0.3439378E+00
         13   -1    0    0    0    0  0.00000000000E+00  0.00000000000E+00  0.14999999963E+04  0.15000000000E+04  0.10566000000E+00 0.  1.
        994   -1    0    0    0    0 -0.00000000000E+00 -0.00000000000E+00  0.11368683772E-12  0.17120000000E+03  0.17120000000E+03 0.  0.
         13    1    1    2    0    0 -0.12835461682E+02  0.25122906885E+02  0.12778742448E+03  0.13086461152E+03  0.10566000000E+00 0.  1.
        994    1    1    2    0    0  0.22617190229E+02 -0.26205979844E+02  0.67440379725E+01  0.17479477315E+03  0.17120000000E+03 0.  0.
        998    1    1    2    0    0 -0.97817285472E+01  0.10830729583E+01  0.13654685338E+04  0.13655406153E+04  0.10000000000E+02 0.  1.
</event>
<event>
 5    1  0.1245771E-008  0.3806824E+03  0.7957747E-01  0.3448192E+00
         13   -1    0    0    0    0  0.00000000000E+00  0.00000000000E+00  0.14999999963E+04  0.15000000000E+04  0.10566000000E+00 0. -1.
        994   -1    0    0    0    0 -0.00000000000E+00 -0.00000000000E+00  0.11368683772E-12  0.17120000000E+03  0.17120000000E+03 0.  0.
         13    1    1    2    0    0  0.14408168174E+02 -0.37294718601E+01  0.27450439140E+02  0.31225663219E+02  0.10566000000E+00 0. -1.
        994    1    1    2    0    0 -0.14327524839E+02 -0.12926044444E+01  0.44796043144E+01  0.17186173410E+03  0.17120000000E+03 0.  0.
        998    1    1    2    0    0 -0.80643334174E-01  0.50220763044E+01  0.14680699528E+04  0.14681126027E+04  0.10000000000E+02 0. -1.
</event>
<event>
 5    1  0.1245771E-008  0.3844659E+03  0.7957747E-01  0.3431940E+00
         13   -1    0    0    0    0  0.00000000000E+00  0.00000000000E+00  0.14999999963E+04  0.15000000000E+04  0.10566000000E+00 0.  1.
        994   -1    0    0    0    0 -0.00000000000E+00 -0.00000000000E+00  0.11368683772E-12  0.17120000000E+03  0.17120000000E+03 0.  0.
         13    1    1    2    0    0 -0.42185469412E+01 -0.13251118195E+02  0.53084059670E+02  0.54875466530E+02  0.10566000000E+00 0.  1.
        994    1    1    2    0    0  0.85905177085E+01 -0.18021802602E+01  0.21493832004E+01  0.17143834080E+03  0.17120000000E+03 0.  0.
        998    1    1    2    0    0 -0.43719707673E+01  0.15053298455E+02  0.14447665534E+04  0.14448861927E+04  0.10000000000E+02 0.  1.
</event>
<event>
 5    1  0.1245771E-008  0.3716056E+03  0.7957747E-01  0.3488544E+00
         13   -1    0    0    0    0  0.00000000000E+00  0.00000000000E+00  0.14999999963E+04  0.15000000000E+04  0.10566000000E+00 0.  1.
        994   -1    0    0    0    0 -0.00000000000E+00 -0.00000000000E+00  0.11368683772E-12  0.17120000000E+03  0.17120000000E+03 0.  0.
         13    1    1    2    0    0  0.30142154563E+02  0.65522524156E+02  0.29813908742E+03  0.30673877692E+03  0.10566000000E+00 0.  1.
        994    1    1    2    0    0 -0.12340200970E+02 -0.44137016912E+02  0.15689342716E+02  0.17792119687E+03  0.17120000000E+03 0.  0.
        998    1    1    2    0    0 -0.17801953593E+02 -0.21385507245E+02  0.11861715661E+04  0.11865400262E+04  0.10000000000E+02 0.  1.
</event>
<event>
 5    1  0.1245771E-008  0.3757185E+03  0.7957747E-01  0.3470016E+00
         13   -1    0    0    0    0  0.00000000000E+00  0.00000000000E+00  0.14999999963E+04  0.15000000000E+04  0.10566000000E+00 0.  1.
        994   -1    0    0    0    0 -0.00000000000E+00 -0.00000000000E+00  0.11368683772E-12  0.17120000000E+03  0.17120000000E+03 0.  0.
         13    1    1    2    0    0  0.29208429439E+01  0.16266644749E+02  0.18643989194E+02  0.24914745674E+02  0.10566000000E+00 0.  1.
        994    1    1    2    0    0 -0.15920923714E+02 -0.15194722510E+02  0.79544047645E+01  0.17279197886E+03  0.17120000000E+03 0.  0.
        998    1    1    2    0    0  0.13000080770E+02 -0.10719222386E+01  0.14734016023E+04  0.14734932755E+04  0.10000000000E+02 0.  1.
</event>
<event>
 5    1  0.1245771E-008  0.3851630E+03  0.7957747E-01  0.3428981E+00
         13   -1    0    0    0    0  0.00000000000E+00  0.00000000000E+00  0.14999999963E+04  0.15000000000E+04  0.10566000000E+00 0. -1.
        994   -1    0    0    0    0 -0.00000000000E+00 -0.00000000000E+00  0.11368683772E-12  0.17120000000E+03  0.17120000000E+03 0.  0.
         13    1    1    2    0    0  0.90687613083E+01  0.17010076987E+02  0.11570173531E+03  0.11729658080E+03  0.10566000000E+00 0. -1.
        994    1    1    2    0    0 -0.14741720431E+02 -0.10959110220E+02  0.26590944612E+01  0.17220316838E+03  0.17120000000E+03 0.  0.
        998    1    1    2    0    0  0.56729591223E+01 -0.60509667670E+01  0.13816391665E+04  0.13817002508E+04  0.10000000000E+02 0. -1.
</event>
<event>
 5    1  0.1245771E-008  0.3849058E+03  0.7957747E-01  0.3430072E+00
         13   -1    0    0    0    0  0.00000000000E+00  0.00000000000E+00  0.14999999963E+04  0.15000000000E+04  0.10566000000E+00 0.  1.
        994   -1    0    0    0    0 -0.00000000000E+00 -0.00000000000E+00  0.11368683772E-12  0.17120000000E+03  0.17120000000E+03 0.  0.
         13    1    1    2    0    0  0.71728384844E+01  0.94861334725E+01  0.40294606121E+02  0.42013126362E+02  0.10566000000E+00 0.  1.
        994    1    1    2    0    0 -0.71449172703E+01 -0.15235350523E+02  0.26089710196E+01  0.17204479788E+03  0.17120000000E+03 0.  0.
        998    1    1    2    0    0 -0.27921214096E-01  0.57492170505E+01  0.14570964191E+04  0.14571420758E+04  0.10000000000E+02 0.  1.
</event>
<event>
 5    1  0.1245771E-008  0.3815418E+03  0.7957747E-01  0.3444473E+00
         13   -1    0    0    0    0  0.00000000000E+00  0.00000000000E+00  0.14999999963E+04  0.15000000000E+04  0.10566000000E+00 0. -1.
        994   -1    0    0    0    0 -0.00000000000E+00 -0.00000000000E+00  0.11368683772E-12  0.17120000000E+03  0.17120000000E+03 0.  0.
         13    1    1    2    0    0 -0.28891613734E+02  0.35355247282E+01  0.10739482656E+03  0.11126942624E+03  0.10566000000E+00 0. -1.
        994    1    1    2    0    0  0.43739671454E+02 -0.67685997384E+01  0.98999326944E+01  0.17710567882E+03  0.17120000000E+03 0.  0.
        998    1    1    2    0    0 -0.14848057720E+02  0.32330750102E+01  0.13827052370E+04  0.13828248949E+04  0.10000000000E+02 0. -1.
</event>
<event>
 5    1  0.1245771E-008  0.3858321E+03  0.7957747E-01  0.3426151E+00
         13   -1    0    0    0    0  0.00000000000E+00  0.00000000000E+00  0.14999999963E+04  0.15000000000E+04  0.10566000000E+00 0.  1.
        994   -1    0    0    0    0 -0.00000000000E+00 -0.00000000000E+00  0.11368683772E-12  0.17120000000E+03  0.17120000000E+03 0.  0.
         13    1    1    2    0    0 -0.13775037733E+02 -0.71862153579E+01  0.86116867729E+02  0.87507253569E+02  0.10566000000E+00 0.  1.
        994    1    1    2    0    0  0.26559213160E+02  0.10486829842E+02  0.38963781121E+01  0.17360871858E+03  0.17120000000E+03 0.  0.
        998    1    1    2    0    0 -0.12784175427E+02 -0.33006144837E+01  0.14099867504E+04  0.14100840279E+04  0.10000000000E+02 0.  1.
</event>
<event>
 5    1  0.1245771E-008  0.3783041E+03  0.7957747E-01  0.3458576E+00
         13   -1    0    0    0    0  0.00000000000E+00  0.00000000000E+00  0.14999999963E+04  0.15000000000E+04  0.10566000000E+00 0.  1.
        994   -1    0    0    0    0 -0.00000000000E+00 -0.00000000000E+00  0.11368683772E-12  0.17120000000E+03  0.17120000000E+03 0.  0.
         13    1    1    2    0    0  0.75928545725E+01  0.92659514488E+01  0.12151906551E+02  0.17064269503E+02  0.10566000000E+00 0.  1.
        994    1    1    2    0    0 -0.50000149776E+01 -0.78895171660E+01  0.52850399024E+01  0.17153604950E+03  0.17120000000E+03 0.  0.
        998    1    1    2    0    0 -0.25928395950E+01 -0.13764342828E+01  0.14825630498E+04  0.14825996810E+04  0.10000000000E+02 0.  1.
</event>
<event>
 5    1  0.1245771E-008  0.3712898E+03  0.7957747E-01  0.3489984E+00
         13   -1    0    0    0    0  0.00000000000E+00  0.00000000000E+00  0.14999999963E+04  0.15000000000E+04  0.10566000000E+00 0. -1.
        994   -1    0    0    0    0 -0.00000000000E+00 -0.00000000000E+00  0.11368683772E-12  0.17120000000E+03  0.17120000000E+03 0.  0.
         13    1    1    2    0    0 -0.49545491747E+01  0.80909478869E+02  0.23645257470E+03  0.24996144217E+03  0.10566000000E+00 0. -1.
        994    1    1    2    0    0  0.20495639951E+02 -0.78757067529E+02  0.35258947682E+02  0.19280918115E+03  0.17120000000E+03 0.  0.
        998    1    1    2    0    0 -0.15541090776E+02 -0.21524113402E+01  0.12282884739E+04  0.12284293767E+04  0.10000000000E+02 0. -1.
</event>
<event>
 5    1  0.1245771E-008  0.3725303E+03  0.7957747E-01  0.3484342E+00
         13   -1    0    0    0    0  0.00000000000E+00  0.00000000000E+00  0.14999999963E+04  0.15000000000E+04  0.10566000000E+00 0.  1.
        994   -1    0    0    0    0 -0.00000000000E+00 -0.00000000000E+00  0.11368683772E-12  0.17120000000E+03  0.17120000000E+03 0.  0.
         13    1    1    2    0    0  0.82660579851E+02  0.52378895696E+02  0.43699134319E+03  0.44781443183E+03  0.10566000000E+00 0.  1.
        994    1    1    2    0    0 -0.37678276078E+02 -0.16441829195E+02  0.18267821200E+02  0.17701169319E+03  0.17120000000E+03 0.  0.
        998    1    1    2    0    0 -0.44982303773E+02 -0.35937066501E+02  0.10447408319E+04  0.10463738750E+04  0.10000000000E+02 0.  1.
</event>
<event>
 5    1  0.1245771E-008  0.3837871E+03  0.7957747E-01  0.3434833E+00
         13   -1    0    0    0    0  0.00000000000E+00  0.00000000000E+00  0.14999999963E+04  0.15000000000E+04  0.10566000000E+00 0.  1.
        994   -1    0    0    0    0 -0.00000000000E+00 -0.00000000000E+00  0.11368683772E-12  0.17120000000E+03  0.17120000000E+03 0.  0.
         13    1    1    2    0    0 -0.25102350197E+02 -0.13481397029E+02  0.16816577836E+03  0.17056264604E+03  0.10566000000E+00 0.  1.
        994    1    1    2    0    0  0.21194037751E+02  0.14320419748E+02  0.43966402199E+01  0.17315609173E+03  0.17120000000E+03 0.  0.
        998    1    1    2    0    0  0.39083124465E+01 -0.83902271848E+00  0.13274375777E+04  0.13274812622E+04  0.10000000000E+02 0.  1.
</event>
<event>
 5    1  0.1245771E-008  0.3835582E+03  0.7957747E-01  0.3435810E+00
         13   -1    0    0    0    0  0.00000000000E+00  0.00000000000E+00  0.14999999963E+04  0.15000000000E+04  0.10566000000E+00 0. -1.
        994   -1    0    0    0    0 -0.00000000000E+00 -0.00000000000E+00  0.11368683772E-12  0.17120000000E+03  0.17120000000E+03 0.  0.
         13    1    1    2    0    0  0.11430334428E+02 -0.12697300874E+02  0.60744474170E+02  0.63101317742E+02  0.10566000000E+00 0. -1.
        994    1    1    2    0    0 -0.92960269452E+01  0.10126064741E+02  0.29722175060E+01  0.17177667880E+03  0.17120000000E+03 0.  0.
        998    1    1    2    0    0 -0.21343074830E+01  0.25712361323E+01  0.14362833046E+04  0.14363220035E+04  0.10000000000E+02 0. -1.
</event>
<event>
 5    1  0.1245771E-008  0.3857203E+03  0.7957747E-01  0.3426623E+00
         13   -1    0    0    0    0  0.00000000000E+00  0.00000000000E+00  0.14999999963E+04  0.15000000000E+04  0.10566000000E+00 0.  1.
        994   -1    0    0    0    0 -0.00000000000E+00 -0.00000000000E+00  0.11368683772E-12  0.17120000000E+03  0.17120000000E+03 0.  0.
         13    1    1    2    0    0  0.31921225139E+02  0.50020080658E+02  0.99015158487E+02  0.11543390255E+03  0.10566000000E+00 0.  1.
        994    1    1    2    0    0 -0.20370069056E+02  0.32008114343E+02  0.24851943398E+02  0.17710595187E+03  0.17120000000E+03 0.  0.
        998    1    1    2    0    0 -0.11551156083E+02 -0.82028195001E+02  0.13761328944E+04  0.13786601456E+04  0.10000000000E+02 0.  1.
</event>
<event>
 5    1  0.1245771E-008  0.3826073E+03  0.7957747E-01  0.3439884E+00
         13   -1    0    0    0    0  0.00000000000E+00  0.00000000000E+00  0.14999999963E+04  0.15000000000E+04  0.10566000000E+00 0.  1.
        994   -1    0    0    0    0 -0.00000000000E+00 -0.00000000000E+00  0.11368683772E-12  0.17120000000E+03  0.17120000000E+03 0.  0.
         13    1    1    2    0    0 -0.10293744512E+03  0.12608154664E+03  0.45033985962E+03  0.47885141154E+03  0.10566000000E+00 0.  1.
        994    1    1    2    0    0  0.11268646842E+03 -0.12709912741E+03  0.13266924584E+03  0.27525078954E+03  0.17120000000E+03 0.  0.
        998    1    1    2    0    0 -0.97490232940E+01  0.10175807759E+01  0.91699089082E+03  0.91709779892E+03  0.10000000000E+02 0.  0.
</event>
<event>
 5    1  0.1245771E-008  0.3840785E+03  0.7957747E-01  0.3433590E+00
         13   -1    0    0    0    0  0.00000000000E+00  0.00000000000E+00  0.14999999963E+04  0.15000000000E+04  0.10566000000E+00 0.  1.
        994   -1    0    0    0    0 -0.00000000000E+00 -0.00000000000E+00  0.11368683772E-12  0.17120000000E+03  0.17120000000E+03 0.  0.
         13    1    1    2    0    0 -0.19071618544E+02 -0.29864678612E+01  0.78148189170E+02  0.80497181682E+02  0.10566000000E+00 0.  1.
        994    1    1    2    0    0  0.29521468220E+02  0.33690135396E+02  0.87351930242E+01  0.17717868355E+03  0.17120000000E+03 0.  0.
        998    1    1    2    0    0 -0.10449849676E+02 -0.30703667535E+02  0.14131166141E+04  0.14135241348E+04  0.10000000000E+02 0.  1.
</event>
<event>
 5    1  0.1245771E-008  0.3741932E+03  0.7957747E-01  0.3476839E+00
         13   -1    0    0    0    0  0.00000000000E+00  0.00000000000E+00  0.14999999963E+04  0.15000000000E+04  0.10566000000E+00 0. -1.
        994   -1    0    0    0    0 -0.00000000000E+00 -0.00000000000E+00  0.11368683772E-12  0.17120000000E+03  0.17120000000E+03 0.  0.
         13    1    1    2    0    0  0.10998512967E+02  0.72126010299E+02  0.36958772609E+03  0.37672035661E+03  0.10566000000E+00 0. -1.
        994    1    1    2    0    0  0.11639127857E+02 -0.45569267423E+02  0.14670971107E+02  0.17814798574E+03  0.17120000000E+03 0.  0.
        998    1    1    2    0    0 -0.22637640823E+02 -0.26556742876E+02  0.11157412991E+04  0.11163316576E+04  0.10000000000E+02 0.  1.
</event>
<event>
 5    1  0.1245771E-008  0.3835676E+03  0.7957747E-01  0.3435770E+00
         13   -1    0    0    0    0  0.00000000000E+00  0.00000000000E+00  0.14999999963E+04  0.15000000000E+04  0.10566000000E+00 0. -1.
        994   -1    0    0    0    0 -0.00000000000E+00 -0.00000000000E+00  0.11368683772E-12  0.17120000000E+03  0.17120000000E+03 0.  0.
         13    1    1    2    0    0  0.22994645793E+02  0.11565591168E+02  0.14248295193E+03  0.14478922401E+03  0.10566000000E+00 0. -1.
        994    1    1    2    0    0 -0.91222311097E+01 -0.13341633082E+02  0.32064886570E+01  0.17199109234E+03  0.17120000000E+03 0.  0.
        998    1    1    2    0    0 -0.13872414683E+02  0.17760419141E+01  0.13543105557E+04  0.13544196837E+04  0.10000000000E+02 0. -1.
</event>
<event>
 5    1  0.1245771E-008  0.3724681E+03  0.7957747E-01  0.3484624E+00
         13   -1    0    0    0    0  0.00000000000E+00  0.00000000000E+00  0.14999999963E+04  0.15000000000E+04  0.10566000000E+00 0. -1.
        994   -1    0    0    0    0 -0.00000000000E+00 -0.00000000000E+00  0.11368683772E-12  0.17120000000E+03  0.17120000000E+03 0.  0.
         13    1    1    2    0    0 -0.15743558691E+03 -0.67007824603E+02  0.10085425494E+04  0.10229536146E+04  0.10566000000E+00 0. -1.
        994    1    1    2    0    0  0.13260547822E+03  0.55676913625E+02  0.82607373482E+02  0.23836432140E+03  0.17120000000E+03 0.  0.
        998    1    1    2    0    0  0.24830108689E+02  0.11330910978E+02  0.40885007341E+03  0.40988206397E+03  0.10000000000E+02 0. -1.
</event>
<event>
 5    1  0.1245771E-008  0.3758722E+03  0.7957747E-01  0.3469331E+00
         13   -1    0    0    0    0  0.00000000000E+00  0.00000000000E+00  0.14999999963E+04  0.15000000000E+04  0.10566000000E+00 0.  1.
        994   -1    0    0    0    0 -0.00000000000E+00 -0.00000000000E+00  0.11368683772E-12  0.17120000000E+03  0.17120000000E+03 0.  0.
         13    1    1    2    0    0  0.27361556461E+02 -0.33560017685E+02  0.14578221144E+03  0.15207693413E+03  0.10566000000E+00 0.  1.
        994    1    1    2    0    0 -0.96048573527E+01  0.29594798585E+02  0.95196284711E+01  0.17426465136E+03  0.17120000000E+03 0.  0.
        998    1    1    2    0    0 -0.17756699109E+02  0.39652191004E+01  0.13446981564E+04  0.13448584145E+04  0.10000000000E+02 0.  1.
</event>
<event>
 5    1  0.1245771E-008  0.3848436E+03  0.7957747E-01  0.3430336E+00
         13   -1    0    0    0    0  0.00000000000E+00  0.00000000000E+00  0.14999999963E+04  0.15000000000E+04  0.10566000000E+00 0.  1.
        994   -1    0    0    0    0 -0.00000000000E+00 -0.00000000000E+00  0.11368683772E-12  0.17120000000E+03  0.17120000000E+03 0.  0.
         13    1    1    2    0    0 -0.23775470514E+01  0.14973798059E+02  0.70654499787E+02  0.72262970203E+02  0.10566000000E+00 0.  1.
        994    1    1    2    0    0  0.12005676281E+02 -0.63435270778E+00  0.21835142394E+01  0.17163550449E+03  0.17120000000E+03 0.  0.
        998    1    1    2    0    0 -0.96281292297E+01 -0.14339445352E+02  0.14271619823E+04  0.14273015253E+04  0.10000000000E+02 0.  1.
</event>
<event>
 5    1  0.1245771E-008  0.3859980E+03  0.7957747E-01  0.3425451E+00
         13   -1    0    0    0    0  0.00000000000E+00  0.00000000000E+00  0.14999999963E+04  0.15000000000E+04  0.10566000000E+00 0. -1.
        994   -1    0    0    0    0 -0.00000000000E+00 -0.00000000000E+00  0.11368683772E-12  0.17120000000E+03  0.17120000000E+03 0.  0.
         13    1    1    2    0    0  0.94661819066E+01 -0.61418304518E+01  0.63792346565E+02  0.64782754846E+02  0.10566000000E+00 0. -1.
        994    1    1    2    0    0  0.30454585810E+01 -0.95157342820E+01  0.14627661619E+01  0.17149753264E+03  0.17120000000E+03 0.  0.
        998    1    1    2    0    0 -0.12511640488E+02  0.15657564734E+02  0.14347448836E+04  0.14349197125E+04  0.10000000000E+02 0. -1.
</event>
<event>
 5    1  0.1245771E-008  0.3863441E+03  0.7957747E-01  0.3423992E+00
         13   -1    0    0    0    0  0.00000000000E+00  0.00000000000E+00  0.14999999963E+04  0.15000000000E+04  0.10566000000E+00 0.  1.
        994   -1    0    0    0    0 -0.00000000000E+00 -0.00000000000E+00  0.11368683772E-12  0.17120000000E+03  0.17120000000E+03 0.  0.
         13    1    1    2    0    0  0.22505673185E+01 -0.10161240742E+02  0.55810059609E+02  0.56772262455E+02  0.10566000000E+00 0.  1.
        994    1    1    2    0    0 -0.25832052022E+01  0.99350669076E+01  0.13093941544E+01  0.17151248647E+03  0.17120000000E+03 0.  0.
        998    1    1    2    0    0  0.33263788374E+00  0.22617383473E+00  0.14428805425E+04  0.14429152511E+04  0.10000000000E+02 0.  1.
</event>
<event>
 5    1  0.1245771E-008  0.3810516E+03  0.7957747E-01  0.3446592E+00
         13   -1    0    0    0    0  0.00000000000E+00  0.00000000000E+00  0.14999999963E+04  0.15000000000E+04  0.10566000000E+00 0. -1.
        994   -1    0    0    0    0 -0.00000000000E+00 -0.00000000000E+00  0.11368683772E-12  0.17120000000E+03  0.17120000000E+03 0.  0.
         13    1    1    2    0    0  0.66568854039E+01 -0.22976592491E+02  0.64731887163E+02  0.69010624584E+02  0.10566000000E+00 0. -1.
        994    1    1    2    0    0 -0.15395279915E+02  0.55983882656E+02  0.14916534173E+02  0.18139226211E+03  0.17120000000E+03 0.  0.
        998    1    1    2    0    0  0.87383945107E+01 -0.33007290165E+02  0.14203515749E+04  0.14207971133E+04  0.10000000000E+02 0. -1.
</event>
<event>
 5    1  0.1245771E-008  0.3825444E+03  0.7957747E-01  0.3440154E+00
         13   -1    0    0    0    0  0.00000000000E+00  0.00000000000E+00  0.14999999963E+04  0.15000000000E+04  0.10566000000E+00 0. -1.
        994   -1    0    0    0    0 -0.00000000000E+00 -0.00000000000E+00  0.11368683772E-12  0.17120000000E+03  0.17120000000E+03 0.  0.
         13    1    1    2    0    0  0.92433856728E+01 -0.45922935491E+01  0.18318469468E+02  0.21026336496E+02  0.10566000000E+00 0. -1.
        994    1    1    2    0    0  0.16941424540E+02  0.16877143748E+02  0.47522588623E+01  0.17292736571E+03  0.17120000000E+03 0.  0.
        998    1    1    2    0    0 -0.26184810213E+02 -0.12284850199E+02  0.14769292679E+04  0.14772462978E+04  0.10000000000E+02 0. -1.
</event>
<event>
 5    1  0.1245771E-008  0.3718627E+03  0.7957747E-01  0.3487374E+00
         13   -1    0    0    0    0  0.00000000000E+00  0.00000000000E+00  0.14999999963E+04  0.15000000000E+04  0.10566000000E+00 0. -1.
        994   -1    0    0    0    0 -0.00000000000E+00 -0.00000000000E+00  0.11368683772E-12  0.17120000000E+03  0.17120000000E+03 0.  0.
         13    1    1    2    0    0  0.35688549425E+02 -0.13533936620E+02  0.91342384694E+02  0.98996375722E+02  0.10566000000E+00 0. -1.
        994    1    1    2    0    0 -0.14368791970E+01  0.78527393560E+01  0.85176501938E+01  0.17159755389E+03  0.17120000000E+03 0.  0.
        998    1    1    2    0    0 -0.34251670228E+02  0.56811972645E+01  0.14001399614E+04  0.14006060704E+04  0.10000000000E+02 0. -1.
</event>
<event>
 5    1  0.1245771E-008  0.3698724E+03  0.7957747E-01  0.3496478E+00
         13   -1    0    0    0    0  0.00000000000E+00  0.00000000000E+00  0.14999999963E+04  0.15000000000E+04  0.10566000000E+00 0. -1.
        994   -1    0    0    0    0 -0.00000000000E+00 -0.00000000000E+00  0.11368683772E-12  0.17120000000E+03  0.17120000000E+03 0.  0.
         13    1    1    2    0    0  0.59468114431E+02  0.74680499710E+02  0.36024160940E+03  0.37267635018E+03  0.10566000000E+00 0. -1.
        994    1    1    2    0    0 -0.56704245763E+02 -0.78689270621E+02  0.42619863740E+02  0.20132875002E+03  0.17120000000E+03 0.  0.
        998    1    1    2    0    0 -0.27638686678E+01  0.40087709108E+01  0.10971385231E+04  0.10971948998E+04  0.10000000000E+02 0. -1.
</event>
<event>
 5    1  0.1245771E-008  0.3845769E+03  0.7957747E-01  0.3431469E+00
         13   -1    0    0    0    0  0.00000000000E+00  0.00000000000E+00  0.14999999963E+04  0.15000000000E+04  0.10566000000E+00 0. -1.
        994   -1    0    0    0    0 -0.00000000000E+00 -0.00000000000E+00  0.11368683772E-12  0.17120000000E+03  0.17120000000E+03 0.  0.
         13    1    1    2    0    0 -0.13094846166E+02  0.87524715140E+00  0.45672267960E+02  0.47520608985E+02  0.10566000000E+00 0. -1.
        994    1    1    2    0    0  0.12307681386E+02 -0.28627695690E+01  0.23663613237E+01  0.17168201460E+03  0.17120000000E+03 0.  0.
        998    1    1    2    0    0  0.78716478000E+00  0.19875224176E+01  0.14519613670E+04  0.14519973764E+04  0.10000000000E+02 0. -1.
</event>
<event>
 5    1  0.1245771E-008  0.3771113E+03  0.7957747E-01  0.3463834E+00
         13   -1    0    0    0    0  0.00000000000E+00  0.00000000000E+00  0.14999999963E+04  0.15000000000E+04  0.10566000000E+00 0. -1.
        994   -1    0    0    0    0 -0.00000000000E+00 -0.00000000000E+00  0.11368683772E-12  0.17120000000E+03  0.17120000000E+03 0.  0.
         13    1    1    2    0    0 -0.24079304779E+01  0.15234567915E+02  0.18766601427E+02  0.24291699856E+02  0.10566000000E+00 0. -1.
        994    1    1    2    0    0  0.15170963693E+01 -0.12497679120E+02  0.61336082712E+01  0.17177181001E+03  0.17120000000E+03 0.  0.
        998    1    1    2    0    0  0.89083410864E+00 -0.27368887945E+01  0.14750997866E+04  0.14751364901E+04  0.10000000000E+02 0. -1.
</event>
<event>
 5    1  0.1245771E-008  0.3820077E+03  0.7957747E-01  0.3442463E+00
         13   -1    0    0    0    0  0.00000000000E+00  0.00000000000E+00  0.14999999963E+04  0.15000000000E+04  0.10566000000E+00 0.  1.
        994   -1    0    0    0    0 -0.00000000000E+00 -0.00000000000E+00  0.11368683772E-12  0.17120000000E+03  0.17120000000E+03 0.  0.
         13    1    1    2    0    0 -0.15680950857E+02  0.91348535974E+01  0.49425923299E+02  0.52652358238E+02  0.10566000000E+00 0.  1.
        994    1    1    2    0    0  0.21665217428E+02 -0.76097776268E+01  0.48761358754E+01  0.17280193015E+03  0.17120000000E+03 0.  0.
        998    1    1    2    0    0 -0.59842665711E+01 -0.15250759706E+01  0.14456979371E+04  0.14457457116E+04  0.10000000000E+02 0.  1.
</event>
<event>
 5    1  0.1245771E-008  0.3848650E+03  0.7957747E-01  0.3430245E+00
         13   -1    0    0    0    0  0.00000000000E+00  0.00000000000E+00  0.14999999963E+04  0.15000000000E+04  0.10566000000E+00 0. -1.
        994   -1    0    0    0    0 -0.00000000000E+00 -0.00000000000E+00  0.11368683772E-12  0.17120000000E+03  0.17120000000E+03 0.  0.
         13    1    1    2    0    0 -0.17079762880E+02  0.54521147486E+00  0.70380589246E+02  0.72425506987E+02  0.10566000000E+00 0. -1.
        994    1    1    2    0    0  0.43576703781E+02  0.86492900282E+01  0.82180999531E+01  0.17706133541E+03  0.17120000000E+03 0.  0.
        998    1    1    2    0    0 -0.26496940901E+02 -0.91945015030E+01  0.14214013071E+04  0.14217131576E+04  0.10000000000E+02 0. -1.
</event>
<event>
 5    1  0.1245771E-008  0.3836563E+03  0.7957747E-01  0.3435391E+00
         13   -1    0    0    0    0  0.00000000000E+00  0.00000000000E+00  0.14999999963E+04  0.15000000000E+04  0.10566000000E+00 0.  1.
        994   -1    0    0    0    0 -0.00000000000E+00 -0.00000000000E+00  0.11368683772E-12  0.17120000000E+03  0.17120000000E+03 0.  0.
         13    1    1    2    0    0 -0.13122163511E+02 -0.65103137589E+01  0.43527351756E+02  0.45926211202E+02  0.10566000000E+00 0.  1.
        994    1    1    2    0    0  0.19344763936E+02  0.11577018271E+02  0.39792755340E+01  0.17272383124E+03  0.17120000000E+03 0.  0.
        998    1    1    2    0    0 -0.62226004248E+01 -0.50667045122E+01  0.14524933690E+04  0.14525499576E+04  0.10000000000E+02 0.  1.
</event>
<event>
 5    1  0.1245771E-008  0.3807167E+03  0.7957747E-01  0.3448044E+00
         13   -1    0    0    0    0  0.00000000000E+00  0.00000000000E+00  0.14999999963E+04  0.15000000000E+04  0.10566000000E+00 0. -1.
        994   -1    0    0    0    0 -0.00000000000E+00 -0.00000000000E+00  0.11368683772E-12  0.17120000000E+03  0.17120000000E+03 0.  0.
         13    1    1    2    0    0  0.40413560508E+02 -0.17940774136E+02  0.22359490687E+03  0.22792503327E+03  0.10566000000E+00 0. -1.
        994    1    1    2    0    0 -0.40508941996E+02  0.15213688831E+02  0.10041725412E+02  0.17686918035E+03  0.17120000000E+03 0.  0.
        998    1    1    2    0    0  0.95381488188E-01  0.27270853046E+01  0.12663633640E+04  0.12664057864E+04  0.10000000000E+02 0.  0.
</event>
<event>
 5    1  0.1245771E-008  0.3702883E+03  0.7957747E-01  0.3494567E+00
         13   -1    0    0    0    0  0.00000000000E+00  0.00000000000E+00  0.14999999963E+04  0.15000000000E+04  0.10566000000E+00 0.  1.
        994   -1    0    0    0    0 -0.00000000000E+00 -0.00000000000E+00  0.11368683772E-12  0.17120000000E+03  0.17120000000E+03 0.  0.
         13    1    1    2    0    0  0.66570939663E+02  0.49440178650E+02  0.30442381120E+03  0.31551527580E+03  0.10566000000E+00 0.  1.
        994    1    1    2    0    0 -0.50004182765E+02 -0.66850697659E+02  0.33592783677E+02  0.19340979599E+03  0.17120000000E+03 0.  0.
        998    1    1    2    0    0 -0.16566756898E+02  0.17410519010E+02  0.11619834014E+04  0.11622749282E+04  0.10000000000E+02 0.  1.
</event>
<event>
 5    1  0.1245771E-008  0.3848599E+03  0.7957747E-01  0.3430267E+00
         13   -1    0    0    0    0  0.00000000000E+00  0.00000000000E+00  0.14999999963E+04  0.15000000000E+04  0.10566000000E+00 0. -1.
        994   -1    0    0    0    0 -0.00000000000E+00 -0.00000000000E+00  0.11368683772E-12  0.17120000000E+03  0.17120000000E+03 0.  0.
         13    1    1    2    0    0 -0.19002175787E+02  0.54886461682E+01  0.10952987174E+03  0.11130144603E+03  0.10566000000E+00 0. -1.
        994    1    1    2    0    0  0.17579736514E+02 -0.62046036360E+01  0.28440319909E+01  0.17223551539E+03  0.17120000000E+03 0.  0.
        998    1    1    2    0    0  0.14224392725E+01  0.71595746775E+00  0.13876260925E+04  0.13876630386E+04  0.10000000000E+02 0.  0.
</event>
<event>
 5    1  0.1245771E-008  0.3806848E+03  0.7957747E-01  0.3448182E+00
         13   -1    0    0    0    0  0.00000000000E+00  0.00000000000E+00  0.14999999963E+04  0.15000000000E+04  0.10566000000E+00 0. -1.
        994   -1    0    0    0    0 -0.00000000000E+00 -0.00000000000E+00  0.11368683772E-12  0.17120000000E+03  0.17120000000E+03 0.  0.
         13    1    1    2    0    0  0.73737340978E+02 -0.78709463966E+02  0.55398232017E+03  0.56438355521E+03  0.10566000000E+00 0. -1.
        994    1    1    2    0    0 -0.96394440390E+02  0.10765658631E+03  0.76900638822E+02  0.23686489180E+03  0.17120000000E+03 0.  0.
        998    1    1    2    0    0  0.22657099411E+02 -0.28947122346E+02  0.86911703729E+03  0.86995155299E+03  0.10000000000E+02 0. -1.
</event>
<event>
 5    1  0.1245771E-008  0.4129014E+03  0.7957747E-01  0.3319324E+00
         13   -1    0    0    0    0  0.00000000000E+00  0.00000000000E+00  0.14999999963E+04  0.15000000000E+04  0.10566000000E+00 0.  1.
        994   -1    0    0    0    0 -0.00000000000E+00 -0.00000000000E+00  0.11368683772E-12  0.17120000000E+03  0.17120000000E+03 0.  0.
         13    1    1    2    0    0 -0.59338291226E+02  0.62773000640E+02  0.10134010855E+03  0.13315896958E+03  0.10566000000E+00 0.  1.
        994    1    1    2    0    0  0.40567207430E+02 -0.14735368082E+02  0.43464888745E+02  0.18182812199E+03  0.17120000000E+03 0.  0.
        998    1    1    2    0    0  0.18771083796E+02 -0.48037632559E+02  0.13551949990E+04  0.13562129084E+04  0.10000000000E+02 0.  1.
</event>
<event>
 5    1  0.1245771E-008  0.3684814E+03  0.7957747E-01  0.3502899E+00
         13   -1    0    0    0    0  0.00000000000E+00  0.00000000000E+00  0.14999999963E+04  0.15000000000E+04  0.10566000000E+00 0.  1.
        994   -1    0    0    0    0 -0.00000000000E+00 -0.00000000000E+00  0.11368683772E-12  0.17120000000E+03  0.17120000000E+03 0.  0.
         13    1    1    2    0    0  0.12006594876E+00 -0.18954006206E+02  0.13808581539E+02  0.23451158932E+02  0.10566000000E+00 0.  1.
        994    1    1    2    0    0  0.62723980733E+01  0.22150222898E+01  0.10218867812E+02  0.17163366383E+03  0.17120000000E+03 0.  0.
        998    1    1    2    0    0 -0.63924640221E+01  0.16738983916E+02  0.14759725469E+04  0.14761151772E+04  0.10000000000E+02 0.  1.
</event>
<event>
 5    1  0.1245771E-008  0.3775810E+03  0.7957747E-01  0.3461759E+00
         13   -1    0    0    0    0  0.00000000000E+00  0.00000000000E+00  0.14999999963E+04  0.15000000000E+04  0.10566000000E+00 0. -1.
        994   -1    0    0    0    0 -0.00000000000E+00 -0.00000000000E+00  0.11368683772E-12  0.17120000000E+03  0.17120000000E+03 0.  0.
         13    1    1    2    0    0  0.89134700391E+01 -0.16942962177E+02  0.31951618390E+02  0.37248234821E+02  0.10566000000E+00 0. -1.
        994    1    1    2    0    0  0.91474224219E+00  0.16004142068E+02  0.62256803775E+01  0.17206152508E+03  0.17120000000E+03 0.  0.
        998    1    1    2    0    0 -0.98282122813E+01  0.93882010845E+00  0.14618226975E+04  0.14618902401E+04  0.10000000000E+02 0. -1.
</event>
<event>
 5    1  0.1245771E-008  0.3645317E+03  0.7957747E-01  0.3521406E+00
         13   -1    0    0    0    0  0.00000000000E+00  0.00000000000E+00  0.14999999963E+04  0.15000000000E+04  0.10566000000E+00 0.  1.
        994   -1    0    0    0    0 -0.00000000000E+00 -0.00000000000E+00  0.11368683772E-12  0.17120000000E+03  0.17120000000E+03 0.  0.
         13    1    1    2    0    0  0.22832136331E+02  0.19823845548E+03  0.11765110063E+04  0.11933138526E+04  0.10566000000E+00 0.  1.
        994    1    1    2    0    0 -0.33230169345E+01 -0.18401476920E+03  0.13065407602E+03  0.28328855484E+03  0.17120000000E+03 0.  0.
        998    1    1    2    0    0 -0.19509119396E+02 -0.14223686286E+02  0.19283491399E+03  0.19459759260E+03  0.10000000000E+02 0.  0.
</event>
<event>
 5    1  0.1245771E-008  0.3812116E+03  0.7957747E-01  0.3445900E+00
         13   -1    0    0    0    0  0.00000000000E+00  0.00000000000E+00  0.14999999963E+04  0.15000000000E+04  0.10566000000E+00 0. -1.
        994   -1    0    0    0    0 -0.00000000000E+00 -0.00000000000E+00  0.11368683772E-12  0.17120000000E+03  0.17120000000E+03 0.  0.
         13    1    1    2    0    0 -0.20871059315E+02  0.35416939957E+02  0.19829614073E+03  0.20251254614E+03  0.10566000000E+00 0. -1.
        994    1    1    2    0    0  0.24127545843E+02 -0.41379471301E+02  0.11200182743E+02  0.17812715460E+03  0.17120000000E+03 0.  0.
        998    1    1    2    0    0 -0.32564865270E+01  0.59625313432E+01  0.12905036728E+04  0.12905602993E+04  0.10000000000E+02 0. -1.
</event>
<event>
 5    1  0.1245771E-008  0.3711413E+03  0.7957747E-01  0.3490662E+00
         13   -1    0    0    0    0  0.00000000000E+00  0.00000000000E+00  0.14999999963E+04  0.15000000000E+04  0.10566000000E+00 0.  1.
        994   -1    0    0    0    0 -0.00000000000E+00 -0.00000000000E+00  0.11368683772E-12  0.17120000000E+03  0.17120000000E+03 0.  0.
         13    1    1    2    0    0  0.20469111138E+02  0.37200047606E+02  0.95175599430E+02  0.10421724398E+03  0.10566000000E+00 0.  1.
        994    1    1    2    0    0 -0.17322755939E+02 -0.38355752178E+02  0.14798827413E+02  0.17691717523E+03  0.17120000000E+03 0.  0.
        998    1    1    2    0    0 -0.31463551989E+01  0.11557045719E+01  0.13900255694E+04  0.13900655808E+04  0.10000000000E+02 0.  1.
</event>
<event>
 5    1  0.1245771E-008  0.3799587E+03  0.7957747E-01  0.3451338E+00
         13   -1    0    0    0    0  0.00000000000E+00  0.00000000000E+00  0.14999999963E+04  0.15000000000E+04  0.10566000000E+00 0. -1.
        994   -1    0    0    0    0 -0.00000000000E+00 -0.00000000000E+00  0.11368683772E-12  0.17120000000E+03  0.17120000000E+03 0.  0.
         13    1    1    2    0    0  0.69917393997E+01 -0.34180137745E+02  0.15210805061E+03  0.15605779847E+03  0.10566000000E+00 0. -1.
        994    1    1    2    0    0 -0.26360904400E+02  0.87366073758E+01  0.67367479671E+01  0.17356857251E+03  0.17120000000E+03 0.  0.
        998    1    1    2    0    0  0.19369165000E+02  0.25443530369E+02  0.13411551977E+04  0.13415736290E+04  0.10000000000E+02 0. -1.
</event>
<event>
 5    1  0.1245771E-008  0.3782789E+03  0.7957747E-01  0.3458687E+00
         13   -1    0    0    0    0  0.00000000000E+00  0.00000000000E+00  0.14999999963E+04  0.15000000000E+04  0.10566000000E+00 0.  1.
        994   -1    0    0    0    0 -0.00000000000E+00 -0.00000000000E+00  0.11368683772E-12  0.17120000000E+03  0.17120000000E+03 0.  0.
         13    1    1    2    0    0 -0.69508429990E+01 -0.84839391561E+01  0.97310249243E+01  0.14662723216E+02  0.10566000000E+00 0.  1.
        994    1    1    2    0    0  0.28291569902E+01  0.10566142162E+02  0.54068131575E+01  0.17163426557E+03  0.17120000000E+03 0.  0.
        998    1    1    2    0    0  0.41216860088E+01 -0.20822030061E+01  0.14848621582E+04  0.14849030112E+04  0.10000000000E+02 0.  1.
</event>
<event>
 5    1  0.1245771E-008  0.2952547E+03  0.7957747E-01  0.3930490E+00
         13   -1    0    0    0    0  0.00000000000E+00  0.00000000000E+00  0.14999999963E+04  0.15000000000E+04  0.10566000000E+00 0.  1.
        994   -1    0    0    0    0 -0.00000000000E+00 -0.00000000000E+00  0.11368683772E-12  0.17120000000E+03  0.17120000000E+03 0.  0.
         13    1    1    2    0    0 -0.12170047837E+03 -0.19336363240E+03  0.65188901618E+03  0.69076754509E+03  0.10566000000E+00 0.  1.
        994    1    1    2    0    0  0.11159256916E+03  0.11133821374E+03  0.14888965988E+03  0.27627281833E+03  0.17120000000E+03 0.  0.
        998    1    1    2    0    0  0.10107909215E+02  0.82025418657E+02  0.69922132022E+03  0.70415963658E+03  0.10000000000E+02 0.  1.
</event>
<event>
 5    1  0.1245771E-008  0.4046062E+03  0.7957747E-01  0.3350551E+00
         13   -1    0    0    0    0  0.00000000000E+00  0.00000000000E+00  0.14999999963E+04  0.15000000000E+04  0.10566000000E+00 0. -1.
        994   -1    0    0    0    0 -0.00000000000E+00 -0.00000000000E+00  0.11368683772E-12  0.17120000000E+03  0.17120000000E+03 0.  0.
         13    1    1    2    0    0  0.13664807916E+02  0.72462236643E+02  0.80546330572E+02  0.10920267967E+03  0.10566000000E+00 0. -1.
        994    1    1    2    0    0 -0.10877572389E+02 -0.49016749117E+02  0.40685843401E+02  0.18299109576E+03  0.17120000000E+03 0.  0.
        998    1    1    2    0    0 -0.27872355268E+01 -0.23445487526E+02  0.13787678223E+04  0.13790062246E+04  0.10000000000E+02 0. -1.
</event>
<event>
 5    1  0.1245771E-008  0.3795084E+03  0.7957747E-01  0.3453302E+00
         13   -1    0    0    0    0  0.00000000000E+00  0.00000000000E+00  0.14999999963E+04  0.15000000000E+04  0.10566000000E+00 0. -1.
        994   -1    0    0    0    0 -0.00000000000E+00 -0.00000000000E+00  0.11368683772E-12  0.17120000000E+03  0.17120000000E+03 0.  0.
         13    1    1    2    0    0 -0.11016790205E+02  0.21994943976E+02  0.67513391578E+02  0.71855524724E+02  0.10566000000E+00 0. -1.
        994    1    1    2    0    0 -0.22005577915E+01 -0.18373108740E+02  0.55288474951E+01  0.17228587213E+03  0.17120000000E+03 0.  0.
        998    1    1    2    0    0  0.13217347996E+02 -0.36218352360E+01  0.14269577572E+04  0.14270586032E+04  0.10000000000E+02 0. -1.
</event>
<event>
 5    1  0.1245771E-008  0.3853554E+03  0.7957747E-01  0.3428166E+00
         13   -1    0    0    0    0  0.00000000000E+00  0.00000000000E+00  0.14999999963E+04  0.15000000000E+04  0.10566000000E+00 0.  1.
        994   -1    0    0    0    0 -0.00000000000E+00 -0.00000000000E+00  0.11368683772E-12  0.17120000000E+03  0.17120000000E+03 0.  0.
         13    1    1    2    0    0 -0.61634434101E+01 -0.17508412381E+02  0.11035609333E+03  0.11190626004E+03  0.10566000000E+00 0.  1.
        994    1    1    2    0    0  0.32347170868E+01  0.20488723629E+02  0.28683618652E+01  0.17247584959E+03  0.17120000000E+03 0.  0.
        998    1    1    2    0    0  0.29287263233E+01 -0.29803112476E+01  0.13867755411E+04  0.13868178904E+04  0.10000000000E+02 0.  1.
</event>
<event>
 5    1  0.1245771E-008  0.3848419E+03  0.7957747E-01  0.3430343E+00
         13   -1    0    0    0    0  0.00000000000E+00  0.00000000000E+00  0.14999999963E+04  0.15000000000E+04  0.10566000000E+00 0.  1.
        994   -1    0    0    0    0 -0.00000000000E+00 -0.00000000000E+00  0.11368683772E-12  0.17120000000E+03  0.17120000000E+03 0.  0.
         13    1    1    2    0    0 -0.73104516247E+01  0.77821147080E+01  0.32872771287E+02  0.34563481717E+02  0.10566000000E+00 0.  1.
        994    1    1    2    0    0  0.53613474507E+01 -0.69980594257E+01  0.19644200240E+01  0.17143808162E+03  0.17120000000E+03 0.  0.
        998    1    1    2    0    0  0.19491041740E+01 -0.78405528230E+00  0.14651628050E+04  0.14651984367E+04  0.10000000000E+02 0.  1.
</event>
<event>
 5    1  0.1245771E-008  0.3780759E+03  0.7957747E-01  0.3459580E+00
         13   -1    0    0    0    0  0.00000000000E+00  0.00000000000E+00  0.14999999963E+04  0.15000000000E+04  0.10566000000E+00 0.  1.
        994   -1    0    0    0    0 -0.00000000000E+00 -0.00000000000E+00  0.11368683772E-12  0.17120000000E+03  0.17120000000E+03 0.  0.
         13    1    1    2    0    0  0.31676772192E+02  0.92671044031E+01  0.10036450594E+03  0.10565198691E+03  0.10566000000E+00 0.  1.
        994    1    1    2    0    0 -0.29798210808E+02 -0.26400994241E+01  0.81242097383E+01  0.17398375291E+03  0.17120000000E+03 0.  0.
        998    1    1    2    0    0 -0.18785613846E+01 -0.66270049790E+01  0.13915112806E+04  0.13915642602E+04  0.10000000000E+02 0.  1.
</event>
<event>
 5    1  0.2560421E-008  0.3861988E+03  0.7957747E-01  0.3424604E+00
         13   -1    0    0    0    0  0.00000000000E+00  0.00000000000E+00  0.14999999963E+04  0.15000000000E+04  0.10566000000E+00 0. -1.
        994   -1    0    0    0    0 -0.00000000000E+00 -0.00000000000E+00  0.11368683772E-12  0.17120000000E+03  0.17120000000E+03 0.  0.
         13    1    1    2    0    0 -0.73752564203E+01 -0.71404311756E+01  0.50210457457E+02  0.51249208450E+02  0.10566000000E+00 0. -1.
        994    1    1    2    0    0  0.69903650289E+01  0.85653589510E+01  0.14366465783E+01  0.17156262568E+03  0.17120000000E+03 0.  0.
        998    1    1    2    0    0  0.38489139137E+00 -0.14249277754E+01  0.14483528922E+04  0.14483881659E+04  0.10000000000E+02 0.  0.
</event>
<event>
 5    1  0.1245771E-008  0.3845684E+03  0.7957747E-01  0.3431505E+00
         13   -1    0    0    0    0  0.00000000000E+00  0.00000000000E+00  0.14999999963E+04  0.15000000000E+04  0.10566000000E+00 0. -1.
        994   -1    0    0    0    0 -0.00000000000E+00 -0.00000000000E+00  0.11368683772E-12  0.17120000000E+03  0.17120000000E+03 0.  0.
         13    1    1    2    0    0 -0.12484040675E+02 -0.11089897762E+02  0.72565241234E+02  0.74461819098E+02  0.10566000000E+00 0. -1.
        994    1    1    2    0    0  0.98572568207E+01  0.14468344556E+02  0.28545925419E+01  0.17211649312E+03  0.17120000000E+03 0.  0.
        998    1    1    2    0    0  0.26267838539E+01 -0.33784467943E+01  0.14245801625E+04  0.14246216878E+04  0.10000000000E+02 0. -1.
</event>
<event>
 5    1  0.1245771E-008  0.3751303E+03  0.7957747E-01  0.3472640E+00
         13   -1    0    0    0    0  0.00000000000E+00  0.00000000000E+00  0.14999999963E+04  0.15000000000E+04  0.10566000000E+00 0.  1.
        994   -1    0    0    0    0 -0.00000000000E+00 -0.00000000000E+00  0.11368683772E-12  0.17120000000E+03  0.17120000000E+03 0.  0.
         13    1    1    2    0    0  0.10036152148E+02 -0.19018615703E+02  0.10946348073E+02  0.24130184280E+02  0.10566000000E+00 0.  1.
        994    1    1    2    0    0 -0.63509761817E+01  0.14909940266E+02  0.14613202351E+02  0.17258512943E+03  0.17120000000E+03 0.  0.
        998    1    1    2    0    0 -0.36851759660E+01  0.41086754372E+01  0.14744404459E+04  0.14744846863E+04  0.10000000000E+02 0.  1.
</event>
<event>
 5    1  0.1245771E-008  0.3820575E+03  0.7957747E-01  0.3442248E+00
         13   -1    0    0    0    0  0.00000000000E+00  0.00000000000E+00  0.14999999963E+04  0.15000000000E+04  0.10566000000E+00 0. -1.
        994   -1    0    0    0    0 -0.00000000000E+00 -0.00000000000E+00  0.11368683772E-12  0.17120000000E+03  0.17120000000E+03 0.  0.
         13    1    1    2    0    0 -0.10378014274E+02  0.12704523041E+02  0.47088814468E+02  0.49864573577E+02  0.10566000000E+00 0. -1.
        994    1    1    2    0    0 -0.39530037900E+02 -0.14308996364E+02  0.89886893140E+01  0.17651517728E+03  0.17120000000E+03 0.  0.
        998    1    1    2    0    0  0.49908052174E+02  0.16044733227E+01  0.14439224925E+04  0.14448202491E+04  0.10000000000E+02 0. -1.
</event>
<event>
 5    1  0.1245771E-008  0.3703407E+03  0.7957747E-01  0.3494327E+00
         13   -1    0    0    0    0  0.00000000000E+00  0.00000000000E+00  0.14999999963E+04  0.15000000000E+04  0.10566000000E+00 0.  1.
        994   -1    0    0    0    0 -0.00000000000E+00 -0.00000000000E+00  0.11368683772E-12  0.17120000000E+03  0.17120000000E+03 0.  0.
         13    1    1    2    0    0  0.15739082206E+03 -0.10034377507E+02  0.80121827518E+03  0.81659249032E+03  0.10566000000E+00 0.  1.
        994    1    1    2    0    0 -0.13643733818E+03  0.13366016362E+02  0.77097036586E+02  0.23248051681E+03  0.17120000000E+03 0.  0.
        998    1    1    2    0    0 -0.20953483877E+02 -0.33316388557E+01  0.62168468452E+03  0.62212699288E+03  0.10000000000E+02 0.  0.
</event>
<event>
 5    1  0.1245771E-008  0.3758511E+03  0.7957747E-01  0.3469425E+00
         13   -1    0    0    0    0  0.00000000000E+00  0.00000000000E+00  0.14999999963E+04  0.15000000000E+04  0.10566000000E+00 0.  1.
        994   -1    0    0    0    0 -0.00000000000E+00 -0.00000000000E+00  0.11368683772E-12  0.17120000000E+03  0.17120000000E+03 0.  0.
         13    1    1    2    0    0  0.15099547877E+02 -0.25372562381E+01  0.15713951567E+02  0.21940224547E+02  0.10566000000E+00 0.  1.
        994    1    1    2    0    0 -0.18334752518E+02  0.11239487643E+02  0.78114938644E+01  0.17272217191E+03  0.17120000000E+03 0.  0.
        998    1    1    2    0    0  0.32352046413E+01 -0.87022314048E+01  0.14764745508E+04  0.14765376035E+04  0.10000000000E+02 0.  1.
</event>
<event>
 5    1  0.1245771E-008  0.3714808E+03  0.7957747E-01  0.3489113E+00
         13   -1    0    0    0    0  0.00000000000E+00  0.00000000000E+00  0.14999999963E+04  0.15000000000E+04  0.10566000000E+00 0.  1.
        994   -1    0    0    0    0 -0.00000000000E+00 -0.00000000000E+00  0.11368683772E-12  0.17120000000E+03  0.17120000000E+03 0.  0.
         13    1    1    2    0    0 -0.74521553465E+02  0.11738774434E+02  0.18591307810E+03  0.20063634897E+03  0.10566000000E+00 0.  1.
        994    1    1    2    0    0  0.96333085914E+02 -0.30100974696E+02  0.48436136152E+02  0.20455227059E+03  0.17120000000E+03 0.  0.
        998    1    1    2    0    0 -0.21811532450E+02  0.18362200262E+02  0.12656507820E+04  0.12660113804E+04  0.10000000000E+02 0.  1.
</event>
<event>
 5    1  0.1245771E-008  0.3720702E+03  0.7957747E-01  0.3486431E+00
         13   -1    0    0    0    0  0.00000000000E+00  0.00000000000E+00  0.14999999963E+04  0.15000000000E+04  0.10566000000E+00 0.  1.
        994   -1    0    0    0    0 -0.00000000000E+00 -0.00000000000E+00  0.11368683772E-12  0.17120000000E+03  0.17120000000E+03 0.  0.
         13    1    1    2    0    0  0.31285667298E+02  0.95487685688E+02  0.57598251217E+03  0.58468158564E+03  0.10566000000E+00 0.  1.
        994    1    1    2    0    0  0.18374455429E+02 -0.78227747796E+02  0.30696345227E+02  0.19159568562E+03  0.17120000000E+03 0.  0.
        998    1    1    2    0    0 -0.49660122726E+02 -0.17259937891E+02  0.89332113888E+03  0.89492272874E+03  0.10000000000E+02 0.  1.
</event>
<event>
 5    1  0.1245771E-008  0.3809902E+03  0.7957747E-01  0.3446858E+00
         13   -1    0    0    0    0  0.00000000000E+00  0.00000000000E+00  0.14999999963E+04  0.15000000000E+04  0.10566000000E+00 0.  1.
        994   -1    0    0    0    0 -0.00000000000E+00 -0.00000000000E+00  0.11368683772E-12  0.17120000000E+03  0.17120000000E+03 0.  0.
         13    1    1    2    0    0 -0.17534088280E+02  0.31805646393E+01  0.42435850562E+02  0.46025784298E+02  0.10566000000E+00 0.  1.
        994    1    1    2    0    0  0.11558503406E+02  0.50125812064E+00  0.40802537780E+01  0.17163897789E+03  0.17120000000E+03 0.  0.
        998    1    1    2    0    0  0.59755848745E+01 -0.36818227600E+01  0.14534838919E+04  0.14535352378E+04  0.10000000000E+02 0.  1.
</event>
<event>
 5    1  0.1245771E-008  0.3767003E+03  0.7957747E-01  0.3465653E+00
         13   -1    0    0    0    0  0.00000000000E+00  0.00000000000E+00  0.14999999963E+04  0.15000000000E+04  0.10566000000E+00 0.  1.
        994   -1    0    0    0    0 -0.00000000000E+00 -0.00000000000E+00  0.11368683772E-12  0.17120000000E+03  0.17120000000E+03 0.  0.
         13    1    1    2    0    0 -0.87312802729E+01  0.17181802760E+02  0.28954532341E+02  0.34782548906E+02  0.10566000000E+00 0.  1.
        994    1    1    2    0    0  0.13360745897E+02 -0.16813034624E+02  0.73684753585E+01  0.17269893484E+03  0.17120000000E+03 0.  0.
        998    1    1    2    0    0 -0.46294656241E+01 -0.36876813603E+00  0.14636769886E+04  0.14637185163E+04  0.10000000000E+02 0.  1.
</event>
<event>
 5    1  0.1245771E-008  0.4035138E+03  0.7957747E-01  0.3354758E+00
         13   -1    0    0    0    0  0.00000000000E+00  0.00000000000E+00  0.14999999963E+04  0.15000000000E+04  0.10566000000E+00 0.  1.
        994   -1    0    0    0    0 -0.00000000000E+00 -0.00000000000E+00  0.11368683772E-12  0.17120000000E+03  0.17120000000E+03 0.  0.
         13    1    1    2    0    0 -0.29079733101E+02 -0.14217973970E+02  0.50581393965E+01  0.32762441900E+02  0.10566000000E+00 0.  1.
        994    1    1    2    0    0  0.31615035448E+02  0.91381878113E+01  0.34208428718E+02  0.17765886845E+03  0.17120000000E+03 0.  0.
        998    1    1    2    0    0 -0.25353023466E+01  0.50797861592E+01  0.14607334282E+04  0.14607786897E+04  0.10000000000E+02 0.  1.
</event>
<event>
 5    1  0.1245771E-008  0.3813922E+03  0.7957747E-01  0.3445119E+00
         13   -1    0    0    0    0  0.00000000000E+00  0.00000000000E+00  0.14999999963E+04  0.15000000000E+04  0.10566000000E+00 0.  1.
        994   -1    0    0    0    0 -0.00000000000E+00 -0.00000000000E+00  0.11368683772E-12  0.17120000000E+03  0.17120000000E+03 0.  0.
         13    1    1    2    0    0  0.33064966969E+02 -0.28849502770E+01  0.13419870235E+03  0.13824224338E+03  0.10566000000E+00 0.  1.
        994    1    1    2    0    0 -0.47047431417E+02 -0.55398692491E-01  0.10832846325E+02  0.17787707675E+03  0.17120000000E+03 0.  0.
        998    1    1    2    0    0  0.13982464447E+02  0.29403489695E+01  0.13549684476E+04  0.13550806799E+04  0.10000000000E+02 0.  1.
</event>
<event>
 5    1  0.1245771E-008  0.3795508E+03  0.7957747E-01  0.3453117E+00
         13   -1    0    0    0    0  0.00000000000E+00  0.00000000000E+00  0.14999999963E+04  0.15000000000E+04  0.10566000000E+00 0.  1.
        994   -1    0    0    0    0 -0.00000000000E+00 -0.00000000000E+00  0.11368683772E-12  0.17120000000E+03  0.17120000000E+03 0.  0.
         13    1    1    2    0    0  0.56797131967E+02  0.89714969764E+01  0.99769983246E+02  0.11515408234E+03  0.10566000000E+00 0.  1.
        994    1    1    2    0    0 -0.23966200516E+02 -0.43301722620E+02  0.24995032921E+02  0.17995446541E+03  0.17120000000E+03 0.  0.
        998    1    1    2    0    0 -0.32830931450E+02  0.34330225644E+02  0.13752349801E+04  0.13760914523E+04  0.10000000000E+02 0.  1.
</event>
<event>
 5    1  0.1245771E-008  0.3945153E+03  0.7957747E-01  0.3390293E+00
         13   -1    0    0    0    0  0.00000000000E+00  0.00000000000E+00  0.14999999963E+04  0.15000000000E+04  0.10566000000E+00 0. -1.
        994   -1    0    0    0    0 -0.00000000000E+00 -0.00000000000E+00  0.11368683772E-12  0.17120000000E+03  0.17120000000E+03 0.  0.
         13    1    1    2    0    0 -0.10378690672E+03  0.92416321817E+02  0.31172294625E+03  0.34129709188E+03  0.10566000000E+00 0. -1.
        994    1    1    2    0    0  0.10716060279E+03 -0.73816352856E+02  0.92785362126E+02  0.23420250247E+03  0.17120000000E+03 0.  0.
        998    1    1    2    0    0 -0.33736960647E+01 -0.18599968962E+02  0.10954916879E+04  0.10957004057E+04  0.10000000000E+02 0. -1.
</event>
<event>
 5    1  0.1245771E-008  0.3763527E+03  0.7957747E-01  0.3467195E+00
         13   -1    0    0    0    0  0.00000000000E+00  0.00000000000E+00  0.14999999963E+04  0.15000000000E+04  0.10566000000E+00 0.  1.
        994   -1    0    0    0    0 -0.00000000000E+00 -0.00000000000E+00  0.11368683772E-12  0.17120000000E+03  0.17120000000E+03 0.  0.
         13    1    1    2    0    0  0.40838517691E+01  0.46033110094E+02  0.21990919618E+03  0.22471268500E+03  0.10566000000E+00 0.  1.
        994    1    1    2    0    0 -0.17725319004E+01  0.56654182037E+01  0.61049667921E+01  0.17141163745E+03  0.17120000000E+03 0.  0.
        998    1    1    2    0    0 -0.23113198687E+01 -0.51698528298E+02  0.12739858333E+04  0.12750756776E+04  0.10000000000E+02 0.  1.
</event>
<event>
 5    1  0.1245771E-008  0.3689213E+03  0.7957747E-01  0.3500863E+00
         13   -1    0    0    0    0  0.00000000000E+00  0.00000000000E+00  0.14999999963E+04  0.15000000000E+04  0.10566000000E+00 0.  1.
        994   -1    0    0    0    0 -0.00000000000E+00 -0.00000000000E+00  0.11368683772E-12  0.17120000000E+03  0.17120000000E+03 0.  0.
         13    1    1    2    0    0  0.49708517245E+01 -0.19650744988E+02  0.16502412544E+02  0.26138131709E+02  0.10566000000E+00 0.  1.
        994    1    1    2    0    0 -0.82846345778E+01  0.16765353955E+02  0.11048600640E+02  0.17257237276E+03  0.17120000000E+03 0.  0.
        998    1    1    2    0    0  0.33137828532E+01  0.28853910327E+01  0.14724489831E+04  0.14724894955E+04  0.10000000000E+02 0.  1.
</event>
<event>
 5    1  0.1245771E-008  0.3843279E+03  0.7957747E-01  0.3432527E+00
         13   -1    0    0    0    0  0.00000000000E+00  0.00000000000E+00  0.14999999963E+04  0.15000000000E+04  0.10566000000E+00 0. -1.
        994   -1    0    0    0    0 -0.00000000000E+00 -0.00000000000E+00  0.11368683772E-12  0.17120000000E+03  0.17120000000E+03 0.  0.
         13    1    1    2    0    0  0.62223517274E+01 -0.13448996665E+02  0.53088583175E+02  0.55118073260E+02  0.10566000000E+00 0. -1.
        994    1    1    2    0    0 -0.75574591242E+01  0.16917283656E+02  0.30964750018E+01  0.17222757570E+03  0.17120000000E+03 0.  0.
        998    1    1    2    0    0  0.13351073969E+01 -0.34682869910E+01  0.14438149381E+04  0.14438543510E+04  0.10000000000E+02 0. -1.
</event>
<event>
 5    1  0.1245771E-008  0.3920780E+03  0.7957747E-01  0.3400197E+00
         13   -1    0    0    0    0  0.00000000000E+00  0.00000000000E+00  0.14999999963E+04  0.15000000000E+04  0.10566000000E+00 0.  1.
        994   -1    0    0    0    0 -0.00000000000E+00 -0.00000000000E+00  0.11368683772E-12  0.17120000000E+03  0.17120000000E+03 0.  0.
         13    1    1    2    0    0 -0.58906669297E+02 -0.68696389456E+02  0.17330298709E+03  0.19550735564E+03  0.10566000000E+00 0.  1.
        994    1    1    2    0    0  0.10398532806E+02  0.62909729689E+02  0.38715310578E+02  0.18674602766E+03  0.17120000000E+03 0.  0.
        998    1    1    2    0    0  0.48508136491E+02  0.57866597669E+01  0.12879816986E+04  0.12889466167E+04  0.10000000000E+02 0.  1.
</event>
<event>
 5    1  0.1245771E-008  0.3685638E+03  0.7957747E-01  0.3502518E+00
         13   -1    0    0    0    0  0.00000000000E+00  0.00000000000E+00  0.14999999963E+04  0.15000000000E+04  0.10566000000E+00 0.  1.
        994   -1    0    0    0    0 -0.00000000000E+00 -0.00000000000E+00  0.11368683772E-12  0.17120000000E+03  0.17120000000E+03 0.  0.
         13    1    1    2    0    0  0.62345216317E+01 -0.53153949510E+02  0.11969803725E+03  0.13111766812E+03  0.10566000000E+00 0.  1.
        994    1    1    2    0    0  0.10832227340E+02  0.69504945082E+02  0.27597612045E+02  0.18713455782E+03  0.17120000000E+03 0.  0.
        998    1    1    2    0    0 -0.17066748972E+02 -0.16350995571E+02  0.13527043470E+04  0.13529477741E+04  0.10000000000E+02 0.  1.
</event>
<event>
 5    1  0.1245771E-008  0.3803555E+03  0.7957747E-01  0.3449612E+00
         13   -1    0    0    0    0  0.00000000000E+00  0.00000000000E+00  0.14999999963E+04  0.15000000000E+04  0.10566000000E+00 0. -1.
        994   -1    0    0    0    0 -0.00000000000E+00 -0.00000000000E+00  0.11368683772E-12  0.17120000000E+03  0.17120000000E+03 0.  0.
         13    1    1    2    0    0  0.66486641073E+01  0.26988526120E+02  0.91748991084E+02  0.95866958883E+02  0.10566000000E+00 0. -1.
        994    1    1    2    0    0 -0.75883184774E+01 -0.25720487758E+02  0.63586665486E+01  0.17340414847E+03  0.17120000000E+03 0.  0.
        998    1    1    2    0    0  0.93965437010E+00 -0.12680383625E+01  0.14018923386E+04  0.14019288926E+04  0.10000000000E+02 0. -1.
</event>
<event>
 5    1  0.1303034E-008  0.3848240E+03  0.7957747E-01  0.3430419E+00
         13   -1    0    0    0    0  0.00000000000E+00  0.00000000000E+00  0.14999999963E+04  0.15000000000E+04  0.10566000000E+00 0.  1.
        994   -1    0    0    0    0 -0.00000000000E+00 -0.00000000000E+00  0.11368683772E-12  0.17120000000E+03  0.17120000000E+03 0.  0.
         13    1    1    2    0    0 -0.44601658347E+01 -0.95108929367E+01  0.31771600033E+02  0.33463351542E+02  0.10566000000E+00 0.  1.
        994    1    1    2    0    0  0.26033917534E+01  0.72218251254E+01  0.19114981114E+01  0.17138268942E+03  0.17120000000E+03 0.  0.
        998    1    1    2    0    0  0.18567740813E+01  0.22890678113E+01  0.14663168981E+04  0.14663539590E+04  0.10000000000E+02 0.  1.
</event>
<event>
 5    1  0.1245771E-008  0.3833366E+03  0.7957747E-01  0.3436758E+00
         13   -1    0    0    0    0  0.00000000000E+00  0.00000000000E+00  0.14999999963E+04  0.15000000000E+04  0.10566000000E+00 0.  1.
        994   -1    0    0    0    0 -0.00000000000E+00 -0.00000000000E+00  0.11368683772E-12  0.17120000000E+03  0.17120000000E+03 0.  0.
         13    1    1    2    0    0  0.11037035757E+02 -0.49046317918E+01  0.28300582455E+02  0.30770208037E+02  0.10566000000E+00 0.  1.
        994    1    1    2    0    0 -0.12270145813E+02  0.62349062583E+01  0.30848407900E+01  0.17178005349E+03  0.17120000000E+03 0.  0.
        998    1    1    2    0    0  0.12331100560E+01 -0.13302744666E+01  0.14686145730E+04  0.14686497385E+04  0.10000000000E+02 0.  1.
</event>
<event>
 5    1  0.1245771E-008  0.3778341E+03  0.7957747E-01  0.3460644E+00
         13   -1    0    0    0    0  0.00000000000E+00  0.00000000000E+00  0.14999999963E+04  0.15000000000E+04  0.10566000000E+00 0. -1.
        994   -1    0    0    0    0 -0.00000000000E+00 -0.00000000000E+00  0.11368683772E-12  0.17120000000E+03  0.17120000000E+03 0.  0.
         13    1    1    2    0    0 -0.12029108951E+02 -0.10732189705E+02  0.23916475622E+02  0.28842474378E+02  0.10566000000E+00 0. -1.
        994    1    1    2    0    0  0.57598878371E+00 -0.14801479366E+02  0.59696103617E+01  0.17194328077E+03  0.17120000000E+03 0.  0.
        998    1    1    2    0    0  0.11453120167E+02  0.25533669071E+02  0.14701139103E+04  0.14704142449E+04  0.10000000000E+02 0. -1.
</event>
<event>
 5    1  0.1245771E-008  0.3829376E+03  0.7957747E-01  0.3438466E+00
         13   -1    0    0    0    0  0.00000000000E+00  0.00000000000E+00  0.14999999963E+04  0.15000000000E+04  0.10566000000E+00 0. -1.
        994   -1    0    0    0    0 -0.00000000000E+00 -0.00000000000E+00  0.11368683772E-12  0.17120000000E+03  0.17120000000E+03 0.  0.
         13    1    1    2    0    0 -0.25644309212E+02 -0.42721300521E+02  0.29574899133E+03  0.29991701710E+03  0.10566000000E+00 0. -1.
        994    1    1    2    0    0  0.52239535333E+02  0.53569588559E+02  0.21419919968E+02  0.18806095512E+03  0.17120000000E+03 0.  0.
        998    1    1    2    0    0 -0.26595226121E+02 -0.10848288038E+02  0.11828310850E+04  0.11832220278E+04  0.10000000000E+02 0. -1.
</event>
<event>
 5    1  0.1245771E-008  0.3685368E+03  0.7957747E-01  0.3502643E+00
         13   -1    0    0    0    0  0.00000000000E+00  0.00000000000E+00  0.14999999963E+04  0.15000000000E+04  0.10566000000E+00 0.  1.
        994   -1    0    0    0    0 -0.00000000000E+00 -0.00000000000E+00  0.11368683772E-12  0.17120000000E+03  0.17120000000E+03 0.  0.
         13    1    1    2    0    0  0.17325448362E+02 -0.12688512572E+02  0.18906164797E+02  0.28611601556E+02  0.10566000000E+00 0.  1.
        994    1    1    2    0    0 -0.22759891206E+01  0.43063852273E+00  0.10185869311E+02  0.17151838826E+03  0.17120000000E+03 0.  0.
        998    1    1    2    0    0 -0.15049459242E+02  0.12257874049E+02  0.14709079622E+04  0.14710700102E+04  0.10000000000E+02 0.  1.
</event>
<event>
 5    1  0.1245771E-008  0.3797328E+03  0.7957747E-01  0.3452323E+00
         13   -1    0    0    0    0  0.00000000000E+00  0.00000000000E+00  0.14999999963E+04  0.15000000000E+04  0.10566000000E+00 0.  1.
        994   -1    0    0    0    0 -0.00000000000E+00 -0.00000000000E+00  0.11368683772E-12  0.17120000000E+03  0.17120000000E+03 0.  0.
         13    1    1    2    0    0  0.32295010504E+01  0.10714367789E+02  0.12703268442E+02  0.16929605645E+02  0.10566000000E+00 0.  1.
        994    1    1    2    0    0 -0.53614348168E+01 -0.10372049273E+02  0.47243339518E+01  0.17166270335E+03  0.17120000000E+03 0.  0.
        998    1    1    2    0    0  0.21319337663E+01 -0.34231851612E+00  0.14825723939E+04  0.14826076910E+04  0.10000000000E+02 0.  1.
</event>
<event>
 5    1  0.1245771E-008  0.3812451E+03  0.7957747E-01  0.3445755E+00
         13   -1    0    0    0    0  0.00000000000E+00  0.00000000000E+00  0.14999999963E+04  0.15000000000E+04  0.10566000000E+00 0. -1.
        994   -1    0    0    0    0 -0.00000000000E+00 -0.00000000000E+00  0.11368683772E-12  0.17120000000E+03  0.17120000000E+03 0.  0.
         13    1    1    2    0    0 -0.11282417009E+02 -0.14375456015E+01  0.17123281113E+02  0.20556687259E+02  0.10566000000E+00 0. -1.
        994    1    1    2    0    0  0.59289319990E+01 -0.46489896265E+01  0.36949506559E+01  0.17140553667E+03  0.17120000000E+03 0.  0.
        998    1    1    2    0    0  0.53534850104E+01  0.60865352280E+01  0.14791817645E+04  0.14792377761E+04  0.10000000000E+02 0. -1.
</event>
<event>
 5    1  0.1245771E-008  0.3717488E+03  0.7957747E-01  0.3487892E+00
         13   -1    0    0    0    0  0.00000000000E+00  0.00000000000E+00  0.14999999963E+04  0.15000000000E+04  0.10566000000E+00 0. -1.
        994   -1    0    0    0    0 -0.00000000000E+00 -0.00000000000E+00  0.11368683772E-12  0.17120000000E+03  0.17120000000E+03 0.  0.
         13    1    1    2    0    0  0.82941766410E+02 -0.16821192784E+02  0.26643578836E+03  0.27955380452E+03  0.10566000000E+00 0. -1.
        994    1    1    2    0    0 -0.70874744381E+02  0.35866796330E+01  0.29798637033E+02  0.18770586680E+03  0.17120000000E+03 0.  0.
        998    1    1    2    0    0 -0.12067022029E+02  0.13234513151E+02  0.12037655709E+04  0.12039403287E+04  0.10000000000E+02 0. -1.
</event>
<event>
 5    1  0.1245771E-008  0.3785320E+03  0.7957747E-01  0.3457576E+00
         13   -1    0    0    0    0  0.00000000000E+00  0.00000000000E+00  0.14999999963E+04  0.15000000000E+04  0.10566000000E+00 0.  1.
        994   -1    0    0    0    0 -0.00000000000E+00 -0.00000000000E+00  0.11368683772E-12  0.17120000000E+03  0.17120000000E+03 0.  0.
         13    1    1    2    0    0 -0.20311143392E+02 -0.93433479557E+01  0.48136523574E+02  0.53075199130E+02  0.10566000000E+00 0.  1.
        994    1    1    2    0    0  0.18732240253E+02  0.11916555714E+02  0.65335558151E+01  0.17275713727E+03  0.17120000000E+03 0.  0.
        998    1    1    2    0    0  0.15789031382E+01 -0.25732077585E+01  0.14453299169E+04  0.14453676636E+04  0.10000000000E+02 0.  1.
</event>
<event>
 5    1  0.1245771E-008  0.3746565E+03  0.7957747E-01  0.3474761E+00
         13   -1    0    0    0    0  0.00000000000E+00  0.00000000000E+00  0.14999999963E+04  0.15000000000E+04  0.10566000000E+00 0. -1.
        994   -1    0    0    0    0 -0.00000000000E+00 -0.00000000000E+00  0.11368683772E-12  0.17120000000E+03  0.17120000000E+03 0.  0.
         13    1    1    2    0    0 -0.22908193667E+02  0.39971309490E+02  0.82457515884E+02  0.94454984036E+02  0.10566000000E+00 0. -1.
        994    1    1    2    0    0 -0.53162288792E+02 -0.25925755213E+02  0.25962217366E+02  0.18298046470E+03  0.17120000000E+03 0.  0.
        998    1    1    2    0    0  0.76070482459E+02 -0.14045554277E+02  0.13915802630E+04  0.13937645513E+04  0.10000000000E+02 0. -1.
</event>
<event>
 5    1  0.1245771E-008  0.3705970E+03  0.7957747E-01  0.3493152E+00
         13   -1    0    0    0    0  0.00000000000E+00  0.00000000000E+00  0.14999999963E+04  0.15000000000E+04  0.10566000000E+00 0.  1.
        994   -1    0    0    0    0 -0.00000000000E+00 -0.00000000000E+00  0.11368683772E-12  0.17120000000E+03  0.17120000000E+03 0.  0.
         13    1    1    2    0    0 -0.59444964393E+02 -0.90972702792E+02  0.61433706671E+03  0.62387481047E+03  0.10566000000E+00 0.  1.
        994    1    1    2    0    0  0.20556633403E+02  0.71407397127E+02  0.28258364918E+02  0.18875795806E+03  0.17120000000E+03 0.  0.
        998    1    1    2    0    0  0.38888330990E+02  0.19565305665E+02  0.85740456465E+03  0.85856723147E+03  0.10000000000E+02 0.  1.
</event>
<event>
 5    1  0.1245771E-008  0.3706733E+03  0.7957747E-01  0.3492802E+00
         13   -1    0    0    0    0  0.00000000000E+00  0.00000000000E+00  0.14999999963E+04  0.15000000000E+04  0.10566000000E+00 0. -1.
        994   -1    0    0    0    0 -0.00000000000E+00 -0.00000000000E+00  0.11368683772E-12  0.17120000000E+03  0.17120000000E+03 0.  0.
         13    1    1    2    0    0  0.45594677686E+02 -0.17302580978E+02  0.95697690799E+02  0.10740723034E+03  0.10566000000E+00 0. -1.
        994    1    1    2    0    0 -0.46189564409E+02  0.12864660957E+02  0.19395239722E+02  0.17884236267E+03  0.17120000000E+03 0.  0.
        998    1    1    2    0    0  0.59488672356E+00  0.44379200217E+01  0.13849070658E+04  0.13849504070E+04  0.10000000000E+02 0. -1.
</event>
<event>
 5    1  0.1245771E-008  0.3835640E+03  0.7957747E-01  0.3435785E+00
         13   -1    0    0    0    0  0.00000000000E+00  0.00000000000E+00  0.14999999963E+04  0.15000000000E+04  0.10566000000E+00 0. -1.
        994   -1    0    0    0    0 -0.00000000000E+00 -0.00000000000E+00  0.11368683772E-12  0.17120000000E+03  0.17120000000E+03 0.  0.
         13    1    1    2    0    0 -0.89725985752E+01 -0.14050696516E+02  0.64849303494E+02  0.66957993738E+02  0.10566000000E+00 0. -1.
        994    1    1    2    0    0 -0.28256666859E+02  0.10062505524E+02  0.53230422676E+01  0.17388924066E+03  0.17120000000E+03 0.  0.
        998    1    1    2    0    0  0.37229265434E+02  0.39881909924E+01  0.14298276505E+04  0.14303527656E+04  0.10000000000E+02 0. -1.
</event>
<event>
 5    1  0.1245771E-008  0.2748091E+03  0.7957747E-01  0.4094077E+00
         13   -1    0    0    0    0  0.00000000000E+00  0.00000000000E+00  0.14999999963E+04  0.15000000000E+04  0.10566000000E+00 0. -1.
        994   -1    0    0    0    0 -0.00000000000E+00 -0.00000000000E+00  0.11368683772E-12  0.17120000000E+03  0.17120000000E+03 0.  0.
         13    1    1    2    0    0 -0.14069787493E+02  0.19078381518E+03  0.46799667471E+03  0.50558611705E+03  0.10566000000E+00 0. -1.
        994    1    1    2    0    0  0.32470951018E+02 -0.16690141940E+03  0.15229177906E+03  0.28532905991E+03  0.17120000000E+03 0.  0.
        998    1    1    2    0    0 -0.18401163524E+02 -0.23882395773E+02  0.87971154251E+03  0.88028482304E+03  0.10000000000E+02 0. -1.
</event>
<event>
 5    1  0.1245771E-008  0.3786809E+03  0.7957747E-01  0.3456922E+00
         13   -1    0    0    0    0  0.00000000000E+00  0.00000000000E+00  0.14999999963E+04  0.15000000000E+04  0.10566000000E+00 0. -1.
        994   -1    0    0    0    0 -0.00000000000E+00 -0.00000000000E+00  0.11368683772E-12  0.17120000000E+03  0.17120000000E+03 0.  0.
         13    1    1    2    0    0  0.59042310238E+02  0.39887185828E+02  0.20724629251E+03  0.21915295780E+03  0.10566000000E+00 0. -1.
        994    1    1    2    0    0  0.18970352104E+02  0.24729646300E+01  0.16925417259E+02  0.17309505932E+03  0.17120000000E+03 0.  0.
        998    1    1    2    0    0 -0.78012662342E+02 -0.42360150458E+02  0.12758282865E+04  0.12789519829E+04  0.10000000000E+02 0. -1.
</event>
<event>
 5    1  0.1245771E-008  0.3857153E+03  0.7957747E-01  0.3426644E+00
         13   -1    0    0    0    0  0.00000000000E+00  0.00000000000E+00  0.14999999963E+04  0.15000000000E+04  0.10566000000E+00 0. -1.
        994   -1    0    0    0    0 -0.00000000000E+00 -0.00000000000E+00  0.11368683772E-12  0.17120000000E+03  0.17120000000E+03 0.  0.
         13    1    1    2    0    0 -0.26855672388E+01 -0.11912044663E+02  0.57337703713E+02  0.58623651460E+02  0.10566000000E+00 0. -1.
        994    1    1    2    0    0  0.86156872912E+00  0.12309155361E+02  0.17751341347E+01  0.17165328050E+03  0.17120000000E+03 0.  0.
        998    1    1    2    0    0  0.18239985096E+01 -0.39711069815E+00  0.14408871584E+04  0.14409230680E+04  0.10000000000E+02 0. -1.
</event>
<event>
 5    1  0.1245771E-008  0.3717134E+03  0.7957747E-01  0.3488053E+00
         13   -1    0    0    0    0  0.00000000000E+00  0.00000000000E+00  0.14999999963E+04  0.15000000000E+04  0.10566000000E+00 0. -1.
        994   -1    0    0    0    0 -0.00000000000E+00 -0.00000000000E+00  0.11368683772E-12  0.17120000000E+03  0.17120000000E+03 0.  0.
         13    1    1    2    0    0  0.26374289180E+02  0.71154536376E+02  0.25652538262E+03  0.26751421321E+03  0.10566000000E+00 0. -1.
        994    1    1    2    0    0 -0.37596831470E+02 -0.20961553374E+02  0.18392989246E+02  0.17748422609E+03  0.17120000000E+03 0.  0.
        998    1    1    2    0    0  0.11222542290E+02 -0.50192983003E+02  0.12250816244E+04  0.12262015607E+04  0.10000000000E+02 0. -1.
</event>
<event>
 5    1  0.1245771E-008  0.3751297E+03  0.7957747E-01  0.3472643E+00
         13   -1    0    0    0    0  0.00000000000E+00  0.00000000000E+00  0.14999999963E+04  0.15000000000E+04  0.10566000000E+00 0. -1.
        994   -1    0    0    0    0 -0.00000000000E+00 -0.00000000000E+00  0.11368683772E-12  0.17120000000E+03  0.17120000000E+03 0.  0.
         13    1    1    2    0    0  0.10522335253E+02 -0.83500758293E+01  0.26007418417E+00  0.13435851597E+02  0.10566000000E+00 0. -1.
        994    1    1    2    0    0 -0.11703922615E+02  0.87683511359E+01  0.14439058651E+02  0.17242909326E+03  0.17120000000E+03 0.  0.
        998    1    1    2    0    0  0.11815873629E+01 -0.41827530663E+00  0.14853008634E+04  0.14853350551E+04  0.10000000000E+02 0.  0.
</event>
<event>
 5    1  0.1245771E-008  0.3846358E+03  0.7957747E-01  0.3431218E+00
         13   -1    0    0    0    0  0.00000000000E+00  0.00000000000E+00  0.14999999963E+04  0.15000000000E+04  0.10566000000E+00 0. -1.
        994   -1    0    0    0    0 -0.00000000000E+00 -0.00000000000E+00  0.11368683772E-12  0.17120000000E+03  0.17120000000E+03 0.  0.
         13    1    1    2    0    0  0.66272963620E+01 -0.17111133321E+02  0.87495804281E+02  0.89399322545E+02  0.10566000000E+00 0. -1.
        994    1    1    2    0    0 -0.43960840154E+01  0.20059366178E+02  0.32007606185E+01  0.17245691808E+03  0.17120000000E+03 0.  0.
        998    1    1    2    0    0 -0.22312123466E+01 -0.29482328576E+01  0.14093034314E+04  0.14093437594E+04  0.10000000000E+02 0. -1.
</event>
<event>
 5    1  0.1245771E-008  0.3789266E+03  0.7957747E-01  0.3455846E+00
         13   -1    0    0    0    0  0.00000000000E+00  0.00000000000E+00  0.14999999963E+04  0.15000000000E+04  0.10566000000E+00 0.  1.
        994   -1    0    0    0    0 -0.00000000000E+00 -0.00000000000E+00  0.11368683772E-12  0.17120000000E+03  0.17120000000E+03 0.  0.
         13    1    1    2    0    0  0.14181753251E+01 -0.25053478222E+02  0.74695251103E+02  0.78797713759E+02  0.10566000000E+00 0.  1.
        994    1    1    2    0    0  0.14061635707E+02 -0.13347319435E+02  0.59379977854E+01  0.17239657871E+03  0.17120000000E+03 0.  0.
        998    1    1    2    0    0 -0.15479811033E+02  0.38400797656E+02  0.14193667474E+04  0.14200057075E+04  0.10000000000E+02 0.  1.
</event>
<event>
 5    1  0.1245771E-008  0.3747878E+03  0.7957747E-01  0.3474172E+00
         13   -1    0    0    0    0  0.00000000000E+00  0.00000000000E+00  0.14999999963E+04  0.15000000000E+04  0.10566000000E+00 0.  1.
        994   -1    0    0    0    0 -0.00000000000E+00 -0.00000000000E+00  0.11368683772E-12  0.17120000000E+03  0.17120000000E+03 0.  0.
         13    1    1    2    0    0 -0.11675565540E+01  0.88293229527E+02  0.51277282043E+03  0.52032012656E+03  0.10566000000E+00 0.  1.
        994    1    1    2    0    0  0.14614578588E+02 -0.61575461176E+02  0.20536053365E+02  0.18367442069E+03  0.17120000000E+03 0.  0.
        998    1    1    2    0    0 -0.13447022034E+02 -0.26717768350E+02  0.96669112249E+03  0.96720545276E+03  0.10000000000E+02 0. -1.
</event>
<event>
 5    1  0.1245771E-008  0.3795818E+03  0.7957747E-01  0.3452981E+00
         13   -1    0    0    0    0  0.00000000000E+00  0.00000000000E+00  0.14999999963E+04  0.15000000000E+04  0.10566000000E+00 0.  1.
        994   -1    0    0    0    0 -0.00000000000E+00 -0.00000000000E+00  0.11368683772E-12  0.17120000000E+03  0.17120000000E+03 0.  0.
         13    1    1    2    0    0 -0.25263567606E+02  0.29915231058E+02  0.18279241845E+03  0.18693915669E+03  0.10566000000E+00 0.  1.
        994    1    1    2    0    0 -0.55570896449E+01 -0.27012811304E+02  0.68946043509E+01  0.17354408313E+03  0.17120000000E+03 0.  0.
        998    1    1    2    0    0  0.30820657251E+02 -0.29024197540E+01  0.13103129735E+04  0.13107167602E+04  0.10000000000E+02 0.  1.
</event>
<event>
 5    1  0.1245771E-008  0.3690988E+03  0.7957747E-01  0.3500043E+00
         13   -1    0    0    0    0  0.00000000000E+00  0.00000000000E+00  0.14999999963E+04  0.15000000000E+04  0.10566000000E+00 0.  1.
        994   -1    0    0    0    0 -0.00000000000E+00 -0.00000000000E+00  0.11368683772E-12  0.17120000000E+03  0.17120000000E+03 0.  0.
         13    1    1    2    0    0  0.46971610346E+02  0.36422612763E+02  0.16009638410E+03  0.17077412645E+03  0.10566000000E+00 0.  1.
        994    1    1    2    0    0 -0.85974684646E+02  0.11722208413E+02  0.36329307382E+02  0.19534153461E+03  0.17120000000E+03 0.  0.
        998    1    1    2    0    0  0.39003074300E+02 -0.48144821176E+02  0.13035743048E+04  0.13050843389E+04  0.10000000000E+02 0.  1.
</event>
<event>
 5    1  0.1245771E-008  0.3813685E+03  0.7957747E-01  0.3445221E+00
         13   -1    0    0    0    0  0.00000000000E+00  0.00000000000E+00  0.14999999963E+04  0.15000000000E+04  0.10566000000E+00 0. -1.
        994   -1    0    0    0    0 -0.00000000000E+00 -0.00000000000E+00  0.11368683772E-12  0.17120000000E+03  0.17120000000E+03 0.  0.
         13    1    1    2    0    0 -0.13711665121E+02 -0.11935956112E+02  0.46653080272E+02  0.50069929814E+02  0.10566000000E+00 0. -1.
        994    1    1    2    0    0  0.13705213765E+02  0.32979661905E+01  0.41055043762E+01  0.17182841625E+03  0.17120000000E+03 0.  0.
        998    1    1    2    0    0  0.64513567281E-02  0.86379899216E+01  0.14492414116E+04  0.14493016539E+04  0.10000000000E+02 0. -1.
</event>
<event>
 5    1  0.1245771E-008  0.3824355E+03  0.7957747E-01  0.3440622E+00
         13   -1    0    0    0    0  0.00000000000E+00  0.00000000000E+00  0.14999999963E+04  0.15000000000E+04  0.10566000000E+00 0. -1.
        994   -1    0    0    0    0 -0.00000000000E+00 -0.00000000000E+00  0.11368683772E-12  0.17120000000E+03  0.17120000000E+03 0.  0.
         13    1    1    2    0    0  0.77508026730E+01  0.16159531411E+02  0.51396250834E+02  0.54431527273E+02  0.10566000000E+00 0. -1.
        994    1    1    2    0    0 -0.54630813984E+02 -0.19280414077E+01  0.12882437759E+02  0.18017669212E+03  0.17120000000E+03 0.  0.
        998    1    1    2    0    0  0.46880011311E+02 -0.14231490003E+02  0.14357213077E+04  0.14365917806E+04  0.10000000000E+02 0. -1.
</event>
<event>
 5    1  0.1245771E-008  0.3834511E+03  0.7957747E-01  0.3436268E+00
         13   -1    0    0    0    0  0.00000000000E+00  0.00000000000E+00  0.14999999963E+04  0.15000000000E+04  0.10566000000E+00 0.  1.
        994   -1    0    0    0    0 -0.00000000000E+00 -0.00000000000E+00  0.11368683772E-12  0.17120000000E+03  0.17120000000E+03 0.  0.
         13    1    1    2    0    0  0.93827197090E+01  0.14838119579E+02  0.65952615692E+02  0.68249277669E+02  0.10566000000E+00 0.  1.
        994    1    1    2    0    0 -0.92000430914E+01  0.42753788816E+00  0.26815240616E+01  0.17146852234E+03  0.17120000000E+03 0.  0.
        998    1    1    2    0    0 -0.18267661765E+00 -0.15265657467E+02  0.14313658565E+04  0.14314822000E+04  0.10000000000E+02 0.  1.
</event>
<event>
 5    1  0.1245771E-008  0.3795127E+03  0.7957747E-01  0.3453283E+00
         13   -1    0    0    0    0  0.00000000000E+00  0.00000000000E+00  0.14999999963E+04  0.15000000000E+04  0.10566000000E+00 0. -1.
        994   -1    0    0    0    0 -0.00000000000E+00 -0.00000000000E+00  0.11368683772E-12  0.17120000000E+03  0.17120000000E+03 0.  0.
         13    1    1    2    0    0  0.21149607485E+02 -0.72897218586E+02  0.15384164802E+03  0.17154758583E+03  0.10566000000E+00 0. -1.
        994    1    1    2    0    0 -0.62571275938E+01  0.82047289930E+02  0.40979809290E+02  0.19431853797E+03  0.17120000000E+03 0.  0.
        998    1    1    2    0    0 -0.14892479891E+02 -0.91500713437E+01  0.13051785390E+04  0.13053338762E+04  0.10000000000E+02 0. -1.
</event>
<event>
 5    1  0.1245771E-008  0.3792639E+03  0.7957747E-01  0.3454370E+00
         13   -1    0    0    0    0  0.00000000000E+00  0.00000000000E+00  0.14999999963E+04  0.15000000000E+04  0.10566000000E+00 0. -1.
        994   -1    0    0    0    0 -0.00000000000E+00 -0.00000000000E+00  0.11368683772E-12  0.17120000000E+03  0.17120000000E+03 0.  0.
         13    1    1    2    0    0 -0.17311336505E+02 -0.35215355850E+02  0.15241028175E+03  0.15738077649E+03  0.10566000000E+00 0. -1.
        994    1    1    2    0    0  0.69854710269E+01  0.41760583501E+02  0.10536348529E+02  0.17667257223E+03  0.17120000000E+03 0.  0.
        998    1    1    2    0    0  0.10325865478E+02 -0.65452276500E+01  0.13370533660E+04  0.13371466513E+04  0.10000000000E+02 0. -1.
</event>
<event>
 5    1  0.1245771E-008  0.3852815E+03  0.7957747E-01  0.3428479E+00
         13   -1    0    0    0    0  0.00000000000E+00  0.00000000000E+00  0.14999999963E+04  0.15000000000E+04  0.10566000000E+00 0. -1.
        994   -1    0    0    0    0 -0.00000000000E+00 -0.00000000000E+00  0.11368683772E-12  0.17120000000E+03  0.17120000000E+03 0.  0.
         13    1    1    2    0    0  0.10811090641E+02  0.14578209838E+02  0.98208018922E+02  0.99871067019E+02  0.10566000000E+00 0. -1.
        994    1    1    2    0    0 -0.18551196631E+02 -0.19579966220E+02  0.38844609221E+01  0.17335527396E+03  0.17120000000E+03 0.  0.
        998    1    1    2    0    0  0.77401059904E+01  0.50017563814E+01  0.13979075164E+04  0.13979736590E+04  0.10000000000E+02 0. -1.
</event>
<event>
 5    1  0.1245771E-008  0.3908370E+03  0.7957747E-01  0.3405288E+00
         13   -1    0    0    0    0  0.00000000000E+00  0.00000000000E+00  0.14999999963E+04  0.15000000000E+04  0.10566000000E+00 0. -1.
        994   -1    0    0    0    0 -0.00000000000E+00 -0.00000000000E+00  0.11368683772E-12  0.17120000000E+03  0.17120000000E+03 0.  0.
         13    1    1    2    0    0 -0.37563086506E+01 -0.13189069555E+02 -0.60474132966E+01  0.14988121364E+02  0.10566000000E+00 0. -1.
        994    1    1    2    0    0  0.46803550513E+01  0.17201213548E+02  0.23612667856E+02  0.17373769181E+03  0.17120000000E+03 0.  0.
        998    1    1    2    0    0 -0.92404640066E+00 -0.40121439932E+01  0.14824347417E+04  0.14824741868E+04  0.10000000000E+02 0. -1.
</event>
<event>
 5    1  0.1245771E-008  0.3830093E+03  0.7957747E-01  0.3438159E+00
         13   -1    0    0    0    0  0.00000000000E+00  0.00000000000E+00  0.14999999963E+04  0.15000000000E+04  0.10566000000E+00 0.  1.
        994   -1    0    0    0    0 -0.00000000000E+00 -0.00000000000E+00  0.11368683772E-12  0.17120000000E+03  0.17120000000E+03 0.  0.
         13    1    1    2    0    0  0.76348593403E+01 -0.91371338715E+01  0.26300849902E+02  0.28870818522E+02  0.10566000000E+00 0.  1.
        994    1    1    2    0    0 -0.88178635390E+00  0.73982485213E+01  0.28054993020E+01  0.17138501234E+03  0.17120000000E+03 0.  0.
        998    1    1    2    0    0 -0.67530729864E+01  0.17388853502E+01  0.14708936471E+04  0.14709441691E+04  0.10000000000E+02 0.  1.
</event>
<event>
 5    1  0.1245771E-008  0.3770394E+03  0.7957747E-01  0.3464152E+00
         13   -1    0    0    0    0  0.00000000000E+00  0.00000000000E+00  0.14999999963E+04  0.15000000000E+04  0.10566000000E+00 0. -1.
        994   -1    0    0    0    0 -0.00000000000E+00 -0.00000000000E+00  0.11368683772E-12  0.17120000000E+03  0.17120000000E+03 0.  0.
         13    1    1    2    0    0 -0.22687643190E+02 -0.33124113246E+02  0.17880437020E+03  0.18325651420E+03  0.10566000000E+00 0. -1.
        994    1    1    2    0    0 -0.16259834638E+02 -0.59055042161E+01  0.66460865276E+01  0.17220008034E+03  0.17120000000E+03 0.  0.
        998    1    1    2    0    0  0.38947477828E+02  0.39029617462E+02  0.13145495396E+04  0.13157434055E+04  0.10000000000E+02 0. -1.
</event>
<event>
 5    1  0.1245771E-008  0.3699206E+03  0.7957747E-01  0.3496256E+00
         13   -1    0    0    0    0  0.00000000000E+00  0.00000000000E+00  0.14999999963E+04  0.15000000000E+04  0.10566000000E+00 0. -1.
        994   -1    0    0    0    0 -0.00000000000E+00 -0.00000000000E+00  0.11368683772E-12  0.17120000000E+03  0.17120000000E+03 0.  0.
         13    1    1    2    0    0 -0.43350271417E+02 -0.14023391445E+02  0.11433084532E+03  0.12307499703E+03  0.10566000000E+00 0. -1.
        994    1    1    2    0    0  0.12843927706E+02  0.73158925278E+01  0.10066592558E+02  0.17213153415E+03  0.17120000000E+03 0.  0.
        998    1    1    2    0    0  0.30506343711E+02  0.67074989168E+01  0.13756025584E+04  0.13759934688E+04  0.10000000000E+02 0.  0.
</event>
<event>
 5    1  0.1245771E-008  0.3810747E+03  0.7957747E-01  0.3446492E+00
         13   -1    0    0    0    0  0.00000000000E+00  0.00000000000E+00  0.14999999963E+04  0.15000000000E+04  0.10566000000E+00 0.  1.
        994   -1    0    0    0    0 -0.00000000000E+00 -0.00000000000E+00  0.11368683772E-12  0.17120000000E+03  0.17120000000E+03 0.  0.
         13    1    1    2    0    0 -0.15205679014E+02  0.21721561175E+00  0.31788446330E+02  0.35238847045E+02  0.10566000000E+00 0.  1.
        994    1    1    2    0    0  0.83805788160E+00 -0.55382307326E+01  0.36961562947E+01  0.17133147963E+03  0.17120000000E+03 0.  0.
        998    1    1    2    0    0  0.14367621132E+02  0.53210151208E+01  0.14645153937E+04  0.14646296733E+04  0.10000000000E+02 0.  1.
</event>
<event>
 5    1  0.1245771E-008  0.3929790E+03  0.7957747E-01  0.3396521E+00
         13   -1    0    0    0    0  0.00000000000E+00  0.00000000000E+00  0.14999999963E+04  0.15000000000E+04  0.10566000000E+00 0. -1.
        994   -1    0    0    0    0 -0.00000000000E+00 -0.00000000000E+00  0.11368683772E-12  0.17120000000E+03  0.17120000000E+03 0.  0.
         13    1    1    2    0    0 -0.35667675413E+02  0.78425495505E+01  0.17631686160E+02  0.40553374381E+02  0.10566000000E+00 0. -1.
        994    1    1    2    0    0  0.50029822424E+02 -0.74991906774E+01  0.33452695206E+02  0.18162528406E+03  0.17120000000E+03 0.  0.
        998    1    1    2    0    0 -0.14362147011E+02 -0.34335887318E+00  0.14489156149E+04  0.14490213416E+04  0.10000000000E+02 0. -1.
</event>
<event>
 5    1  0.1245771E-008  0.3714705E+03  0.7957747E-01  0.3489160E+00
         13   -1    0    0    0    0  0.00000000000E+00  0.00000000000E+00  0.14999999963E+04  0.15000000000E+04  0.10566000000E+00 0.  1.
        994   -1    0    0    0    0 -0.00000000000E+00 -0.00000000000E+00  0.11368683772E-12  0.17120000000E+03  0.17120000000E+03 0.  0.
         13    1    1    2    0    0  0.23517419602E+02 -0.55505854612E+02  0.21883132766E+03  0.22698266464E+03  0.10566000000E+00 0.  1.
        994    1    1    2    0    0 -0.66245293590E+01  0.28413742492E+02  0.11436452301E+02  0.17404441270E+03  0.17120000000E+03 0.  0.
        998    1    1    2    0    0 -0.16892890243E+02  0.27092112120E+02  0.12697322163E+04  0.12701729227E+04  0.10000000000E+02 0.  1.
</event>
<event>
 5    1  0.1245771E-008  0.3853801E+03  0.7957747E-01  0.3428062E+00
         13   -1    0    0    0    0  0.00000000000E+00  0.00000000000E+00  0.14999999963E+04  0.15000000000E+04  0.10566000000E+00 0.  1.
        994   -1    0    0    0    0 -0.00000000000E+00 -0.00000000000E+00  0.11368683772E-12  0.17120000000E+03  0.17120000000E+03 0.  0.
         13    1    1    2    0    0  0.30360664271E+01 -0.13097651628E+02  0.65177427344E+02  0.66549788705E+02  0.10566000000E+00 0.  1.
        994    1    1    2    0    0  0.91157047582E+01  0.60850182083E+01  0.18362249331E+01  0.17156029623E+03  0.17120000000E+03 0.  0.
        998    1    1    2    0    0 -0.12151771185E+02  0.70126334200E+01  0.14329863440E+04  0.14330899151E+04  0.10000000000E+02 0.  1.
</event>
<event>
 5    1  0.1245771E-008  0.3853951E+03  0.7957747E-01  0.3427998E+00
         13   -1    0    0    0    0  0.00000000000E+00  0.00000000000E+00  0.14999999963E+04  0.15000000000E+04  0.10566000000E+00 0. -1.
        994   -1    0    0    0    0 -0.00000000000E+00 -0.00000000000E+00  0.11368683772E-12  0.17120000000E+03  0.17120000000E+03 0.  0.
         13    1    1    2    0    0 -0.11567846121E+02  0.77038857311E+00  0.44512790999E+02  0.45997916137E+02  0.10566000000E+00 0. -1.
        994    1    1    2    0    0  0.17554104933E+02 -0.39007516223E+00  0.24473628238E+01  0.17211545062E+03  0.17120000000E+03 0.  0.
        998    1    1    2    0    0 -0.59862588115E+01 -0.38031341088E+00  0.14530398425E+04  0.14530866332E+04  0.10000000000E+02 0. -1.
</event>
<event>
 5    1  0.1245771E-008  0.3747986E+03  0.7957747E-01  0.3474124E+00
         13   -1    0    0    0    0  0.00000000000E+00  0.00000000000E+00  0.14999999963E+04  0.15000000000E+04  0.10566000000E+00 0.  1.
        994   -1    0    0    0    0 -0.00000000000E+00 -0.00000000000E+00  0.11368683772E-12  0.17120000000E+03  0.17120000000E+03 0.  0.
         13    1    1    2    0    0 -0.56050661810E+01  0.18273502572E+02  0.23591584083E+02  0.30362998315E+02  0.10566000000E+00 0.  1.
        994    1    1    2    0    0 -0.12582569643E+01 -0.22699736381E+02  0.85422488444E+01  0.17291405743E+03  0.17120000000E+03 0.  0.
        998    1    1    2    0    0  0.68633231453E+01  0.44262338094E+01  0.14678661634E+04  0.14679229443E+04  0.10000000000E+02 0.  1.
</event>
<event>
 5    1  0.1245771E-008  0.3792365E+03  0.7957747E-01  0.3454490E+00
         13   -1    0    0    0    0  0.00000000000E+00  0.00000000000E+00  0.14999999963E+04  0.15000000000E+04  0.10566000000E+00 0.  1.
        994   -1    0    0    0    0 -0.00000000000E+00 -0.00000000000E+00  0.11368683772E-12  0.17120000000E+03  0.17120000000E+03 0.  0.
         13    1    1    2    0    0  0.99174213742E+01 -0.19859605716E+02  0.51633213921E+02  0.56202839160E+02  0.10566000000E+00 0.  1.
        994    1    1    2    0    0 -0.87363989402E+01  0.18657800473E+02  0.59427864663E+01  0.17253751736E+03  0.17120000000E+03 0.  0.
        998    1    1    2    0    0 -0.11810224340E+01  0.12018052426E+01  0.14424239959E+04  0.14424596435E+04  0.10000000000E+02 0.  1.
</event>
<event>
 5    1  0.1245771E-008  0.3707813E+03  0.7957747E-01  0.3492308E+00
         13   -1    0    0    0    0  0.00000000000E+00  0.00000000000E+00  0.14999999963E+04  0.15000000000E+04  0.10566000000E+00 0.  1.
        994   -1    0    0    0    0 -0.00000000000E+00 -0.00000000000E+00  0.11368683772E-12  0.17120000000E+03  0.17120000000E+03 0.  0.
         13    1    1    2    0    0  0.17339094797E+02 -0.33573886686E+02  0.75959757465E+02  0.84839530844E+02  0.10566000000E+00 0.  1.
        994    1    1    2    0    0  0.11298208284E+02  0.38994271836E+02  0.14566315815E+02  0.17654976721E+03  0.17120000000E+03 0.  0.
        998    1    1    2    0    0 -0.28637303081E+02 -0.54203851499E+01  0.14094739230E+04  0.14098107019E+04  0.10000000000E+02 0.  1.
</event>
<event>
 5    1  0.1245771E-008  0.3778660E+03  0.7957747E-01  0.3460503E+00
         13   -1    0    0    0    0  0.00000000000E+00  0.00000000000E+00  0.14999999963E+04  0.15000000000E+04  0.10566000000E+00 0.  1.
        994   -1    0    0    0    0 -0.00000000000E+00 -0.00000000000E+00  0.11368683772E-12  0.17120000000E+03  0.17120000000E+03 0.  0.
         13    1    1    2    0    0 -0.86151005195E+02 -0.39870273846E+02  0.25999628335E+03  0.27678459667E+03  0.10566000000E+00 0.  1.
        994    1    1    2    0    0  0.59593490150E+02  0.64189001310E+02  0.43288248919E+02  0.19711652506E+03  0.17120000000E+03 0.  0.
        998    1    1    2    0    0  0.26557515046E+02 -0.24318727464E+02  0.11967154640E+04  0.11972988783E+04  0.10000000000E+02 0.  1.
</event>
<event>
 5    1  0.1245771E-008  0.4202722E+03  0.7957747E-01  0.3292597E+00
         13   -1    0    0    0    0  0.00000000000E+00  0.00000000000E+00  0.14999999963E+04  0.15000000000E+04  0.10566000000E+00 0. -1.
        994   -1    0    0    0    0 -0.00000000000E+00 -0.00000000000E+00  0.11368683772E-12  0.17120000000E+03  0.17120000000E+03 0.  0.
         13    1    1    2    0    0 -0.81964749421E+01  0.52969262856E+02  0.21602088837E+02  0.57789154823E+02  0.10566000000E+00 0. -1.
        994    1    1    2    0    0  0.13717178411E+02 -0.33650864164E+02  0.46162865376E+02  0.18099997730E+03  0.17120000000E+03 0.  0.
        998    1    1    2    0    0 -0.55207034688E+01 -0.19318398692E+02  0.14322350421E+04  0.14324108679E+04  0.10000000000E+02 0. -1.
</event>
<event>
 5    1  0.1245771E-008  0.3856061E+03  0.7957747E-01  0.3427106E+00
         13   -1    0    0    0    0  0.00000000000E+00  0.00000000000E+00  0.14999999963E+04  0.15000000000E+04  0.10566000000E+00 0.  1.
        994   -1    0    0    0    0 -0.00000000000E+00 -0.00000000000E+00  0.11368683772E-12  0.17120000000E+03  0.17120000000E+03 0.  0.
         13    1    1    2    0    0 -0.36788130862E+01  0.11989949642E+02  0.50385537062E+02  0.51923078368E+02  0.10566000000E+00 0.  1.
        994    1    1    2    0    0  0.32196984048E+02 -0.28520115305E+02  0.74254410476E+01  0.17667659702E+03  0.17120000000E+03 0.  0.
        998    1    1    2    0    0 -0.28518170962E+02  0.16530165664E+02  0.14421890182E+04  0.14426003246E+04  0.10000000000E+02 0.  1.
</event>
<event>
 5    1  0.1245771E-008  0.3818917E+03  0.7957747E-01  0.3442963E+00
         13   -1    0    0    0    0  0.00000000000E+00  0.00000000000E+00  0.14999999963E+04  0.15000000000E+04  0.10566000000E+00 0.  1.
        994   -1    0    0    0    0 -0.00000000000E+00 -0.00000000000E+00  0.11368683772E-12  0.17120000000E+03  0.17120000000E+03 0.  0.
         13    1    1    2    0    0  0.22829368557E+02 -0.20992776516E+02  0.14967394654E+03  0.15285345325E+03  0.10566000000E+00 0.  1.
        994    1    1    2    0    0 -0.11919366249E+02  0.14828814126E+02  0.43846734373E+01  0.17230969323E+03  0.17120000000E+03 0.  0.
        998    1    1    2    0    0 -0.10910002308E+02  0.61639623898E+01  0.13459413763E+04  0.13460368535E+04  0.10000000000E+02 0.  1.
</event>
<event>
 5    1  0.1245771E-008  0.3852711E+03  0.7957747E-01  0.3428523E+00
         13   -1    0    0    0    0  0.00000000000E+00  0.00000000000E+00  0.14999999963E+04  0.15000000000E+04  0.10566000000E+00 0.  1.
        994   -1    0    0    0    0 -0.00000000000E+00 -0.00000000000E+00  0.11368683772E-12  0.17120000000E+03  0.17120000000E+03 0.  0.
         13    1    1    2    0    0  0.11115659411E+02 -0.14434675709E+01  0.41378023256E+02  0.42869493295E+02  0.10566000000E+00 0.  1.
        994    1    1    2    0    0 -0.99439948032E+01  0.48023177860E+01  0.18963929645E+01  0.17156626007E+03  0.17120000000E+03 0.  0.
        998    1    1    2    0    0 -0.11716646077E+01 -0.33588502151E+01  0.14567255801E+04  0.14567642466E+04  0.10000000000E+02 0.  1.
</event>
<event>
 5    1  0.1245771E-008  0.3806784E+03  0.7957747E-01  0.3448210E+00
         13   -1    0    0    0    0  0.00000000000E+00  0.00000000000E+00  0.14999999963E+04  0.15000000000E+04  0.10566000000E+00 0.  1.
        994   -1    0    0    0    0 -0.00000000000E+00 -0.00000000000E+00  0.11368683772E-12  0.17120000000E+03  0.17120000000E+03 0.  0.
         13    1    1    2    0    0  0.19853263367E+02  0.12606137853E+01  0.51571060098E+02  0.55275008974E+02  0.10566000000E+00 0.  1.
        994    1    1    2    0    0 -0.98281667063E+01  0.89939532837E+01  0.43832809829E+01  0.17177350555E+03  0.17120000000E+03 0.  0.
        998    1    1    2    0    0 -0.10025096661E+02 -0.10254567069E+02  0.14440456552E+04  0.14441514855E+04  0.10000000000E+02 0.  1.
</event>
<event>
 5    1  0.1245771E-008  0.3784192E+03  0.7957747E-01  0.3458070E+00
         13   -1    0    0    0    0  0.00000000000E+00  0.00000000000E+00  0.14999999963E+04  0.15000000000E+04  0.10566000000E+00 0.  1.
        994   -1    0    0    0    0 -0.00000000000E+00 -0.00000000000E+00  0.11368683772E-12  0.17120000000E+03  0.17120000000E+03 0.  0.
         13    1    1    2    0    0 -0.29845287547E+02  0.72001908341E+01  0.98497001378E+02  0.10317099583E+03  0.10566000000E+00 0.  1.
        994    1    1    2    0    0  0.77251362926E+01 -0.40853810942E+01  0.51899067234E+01  0.17150143790E+03  0.17120000000E+03 0.  0.
        998    1    1    2    0    0  0.22120151254E+02 -0.31148097399E+01  0.13963130882E+04  0.13965275663E+04  0.10000000000E+02 0.  1.
</event>
<event>
 5    1  0.1245771E-008  0.3831071E+03  0.7957747E-01  0.3437740E+00
         13   -1    0    0    0    0  0.00000000000E+00  0.00000000000E+00  0.14999999963E+04  0.15000000000E+04  0.10566000000E+00 0. -1.
        994   -1    0    0    0    0 -0.00000000000E+00 -0.00000000000E+00  0.11368683772E-12  0.17120000000E+03  0.17120000000E+03 0.  0.
         13    1    1    2    0    0  0.53698106957E+01 -0.26072488493E+02  0.13909659818E+03  0.14162091764E+03  0.10566000000E+00 0. -1.
        994    1    1    2    0    0 -0.65149021050E+01  0.12964095116E+02  0.32697285676E+01  0.17184482197E+03  0.17120000000E+03 0.  0.
        998    1    1    2    0    0  0.11450914094E+01  0.13108393377E+02  0.13576336695E+04  0.13577342604E+04  0.10000000000E+02 0. -1.
</event>
<event>
 5    1  0.1245771E-008  0.3685837E+03  0.7957747E-01  0.3502425E+00
         13   -1    0    0    0    0  0.00000000000E+00  0.00000000000E+00  0.14999999963E+04  0.15000000000E+04  0.10566000000E+00 0. -1.
        994   -1    0    0    0    0 -0.00000000000E+00 -0.00000000000E+00  0.11368683772E-12  0.17120000000E+03  0.17120000000E+03 0.  0.
         13    1    1    2    0    0 -0.86986783615E+02  0.21469940867E+02  0.27472209049E+03  0.28896348741E+03  0.10566000000E+00 0. -1.
        994    1    1    2    0    0  0.11350726023E+03 -0.85861419026E+01  0.56728679161E+02  0.21327260254E+03  0.17120000000E+03 0.  0.
        998    1    1    2    0    0 -0.26520476611E+02 -0.12883798965E+02  0.11685492266E+04  0.11689639100E+04  0.10000000000E+02 0. -1.
</event>
<event>
 5    1  0.1245771E-008  0.3713064E+03  0.7957747E-01  0.3489908E+00
         13   -1    0    0    0    0  0.00000000000E+00  0.00000000000E+00  0.14999999963E+04  0.15000000000E+04  0.10566000000E+00 0.  1.
        994   -1    0    0    0    0 -0.00000000000E+00 -0.00000000000E+00  0.11368683772E-12  0.17120000000E+03  0.17120000000E+03 0.  0.
         13    1    1    2    0    0  0.18024429861E+01 -0.27729977347E+02  0.24306767963E+02  0.36919243996E+02  0.10566000000E+00 0.  1.
        994    1    1    2    0    0 -0.24400607046E+02  0.78975320163E+02  0.36030732333E+02  0.19349455933E+03  0.17120000000E+03 0.  0.
        998    1    1    2    0    0  0.22598164060E+02 -0.51245342816E+02  0.14396624960E+04  0.14407861967E+04  0.10000000000E+02 0.  1.
</event>
<event>
 5    1  0.1245771E-008  0.3767789E+03  0.7957747E-01  0.3465305E+00
         13   -1    0    0    0    0  0.00000000000E+00  0.00000000000E+00  0.14999999963E+04  0.15000000000E+04  0.10566000000E+00 0.  1.
        994   -1    0    0    0    0 -0.00000000000E+00 -0.00000000000E+00  0.11368683772E-12  0.17120000000E+03  0.17120000000E+03 0.  0.
         13    1    1    2    0    0  0.22202775019E+03 -0.26410305556E+02  0.86046131932E+03  0.88903741165E+03  0.10566000000E+00 0.  1.
        994    1    1    2    0    0 -0.23686281766E+03  0.44280170637E+02  0.23710859763E+03  0.37893885387E+03  0.17120000000E+03 0.  0.
        998    1    1    2    0    0  0.14835067472E+02 -0.17869865081E+02  0.40243007932E+03  0.40322373448E+03  0.10000000000E+02 0.  1.
</event>
<event>
 5    1  0.1245771E-008  0.3848565E+03  0.7957747E-01  0.3430281E+00
         13   -1    0    0    0    0  0.00000000000E+00  0.00000000000E+00  0.14999999963E+04  0.15000000000E+04  0.10566000000E+00 0.  1.
        994   -1    0    0    0    0 -0.00000000000E+00 -0.00000000000E+00  0.11368683772E-12  0.17120000000E+03  0.17120000000E+03 0.  0.
         13    1    1    2    0    0  0.41225937414E+01  0.12346860998E+02  0.53483084162E+02  0.55044456680E+02  0.10566000000E+00 0.  1.
        994    1    1    2    0    0 -0.54519341565E+01  0.62331962403E+01  0.19270678056E+01  0.17141099706E+03  0.17120000000E+03 0.  0.
        998    1    1    2    0    0  0.13293404151E+01 -0.18580057239E+02  0.14445898443E+04  0.14447445463E+04  0.10000000000E+02 0.  1.
</event>
<event>
 5    1  0.1245771E-008  0.3805368E+03  0.7957747E-01  0.3448825E+00
         13   -1    0    0    0    0  0.00000000000E+00  0.00000000000E+00  0.14999999963E+04  0.15000000000E+04  0.10566000000E+00 0.  1.
        994   -1    0    0    0    0 -0.00000000000E+00 -0.00000000000E+00  0.11368683772E-12  0.17120000000E+03  0.17120000000E+03 0.  0.
         13    1    1    2    0    0  0.22342665428E+02 -0.52978294443E+01  0.70098808225E+02  0.73763919187E+02  0.10566000000E+00 0.  1.
        994    1    1    2    0    0 -0.26105320185E+01  0.69310644745E+01  0.40455115522E+01  0.17140787816E+03  0.17120000000E+03 0.  0.
        998    1    1    2    0    0 -0.19732133409E+02 -0.16332350301E+01  0.14258556765E+04  0.14260282027E+04  0.10000000000E+02 0.  1.
</event>
<event>
 5    1  0.1245771E-008  0.3822392E+03  0.7957747E-01  0.3441466E+00
         13   -1    0    0    0    0  0.00000000000E+00  0.00000000000E+00  0.14999999963E+04  0.15000000000E+04  0.10566000000E+00 0.  1.
        994   -1    0    0    0    0 -0.00000000000E+00 -0.00000000000E+00  0.11368683772E-12  0.17120000000E+03  0.17120000000E+03 0.  0.
         13    1    1    2    0    0  0.95408498099E+01  0.27993552590E+02  0.13320149573E+03  0.13644528732E+03  0.10566000000E+00 0.  1.
        994    1    1    2    0    0 -0.12249230817E+02 -0.27185159434E+02  0.59629437695E+01  0.17387947909E+03  0.17120000000E+03 0.  0.
        998    1    1    2    0    0  0.27083810068E+01 -0.80839315609E+00  0.13608355568E+04  0.13608752336E+04  0.10000000000E+02 0.  1.
</event>
<event>
 5    1  0.1245771E-008  0.3826441E+03  0.7957747E-01  0.3439725E+00
         13   -1    0    0    0    0  0.00000000000E+00  0.00000000000E+00  0.14999999963E+04  0.15000000000E+04  0.10566000000E+00 0. -1.
        994   -1    0    0    0    0 -0.00000000000E+00 -0.00000000000E+00  0.11368683772E-12  0.17120000000E+03  0.17120000000E+03 0.  0.
         13    1    1    2    0    0  0.78172786268E+01  0.66745742305E+01  0.17612030636E+02  0.20392512681E+02  0.10566000000E+00 0. -1.
        994    1    1    2    0    0 -0.62859027349E+01 -0.78167299523E+01  0.31378133469E+01  0.17152230092E+03  0.17120000000E+03 0.  0.
        998    1    1    2    0    0 -0.15313758919E+01  0.11421557218E+01  0.14792501523E+04  0.14792851864E+04  0.10000000000E+02 0. -1.
</event>
<event>
 5    1  0.1245771E-008  0.3832282E+03  0.7957747E-01  0.3437222E+00
         13   -1    0    0    0    0  0.00000000000E+00  0.00000000000E+00  0.14999999963E+04  0.15000000000E+04  0.10566000000E+00 0. -1.
        994   -1    0    0    0    0 -0.00000000000E+00 -0.00000000000E+00  0.11368683772E-12  0.17120000000E+03  0.17120000000E+03 0.  0.
         13    1    1    2    0    0 -0.10797607733E+02 -0.19573475346E+01  0.22864545559E+02  0.25361745795E+02  0.10566000000E+00 0. -1.
        994    1    1    2    0    0  0.10132366080E+02  0.28853576807E+01  0.28795704706E+01  0.17154801677E+03  0.17120000000E+03 0.  0.
        998    1    1    2    0    0  0.66524165280E+00 -0.92801014611E+00  0.14742558802E+04  0.14742902374E+04  0.10000000000E+02 0. -1.
</event>
<event>
 5    1  0.1245771E-008  0.3819442E+03  0.7957747E-01  0.3442737E+00
         13   -1    0    0    0    0  0.00000000000E+00  0.00000000000E+00  0.14999999963E+04  0.15000000000E+04  0.10566000000E+00 0.  1.
        994   -1    0    0    0    0 -0.00000000000E+00 -0.00000000000E+00  0.11368683772E-12  0.17120000000E+03  0.17120000000E+03 0.  0.
         13    1    1    2    0    0  0.25413445531E+02  0.50219383039E+01  0.10061172263E+03  0.10389318059E+03  0.10566000000E+00 0.  1.
        994    1    1    2    0    0 -0.22986748507E+02 -0.64780219767E+01  0.50517184083E+01  0.17293153337E+03  0.17120000000E+03 0.  0.
        998    1    1    2    0    0 -0.24266970242E+01  0.14560836728E+01  0.13943365552E+04  0.13943752860E+04  0.10000000000E+02 0.  0.
</event>
<event>
 5    1  0.1245771E-008  0.3847061E+03  0.7957747E-01  0.3430920E+00
         13   -1    0    0    0    0  0.00000000000E+00  0.00000000000E+00  0.14999999963E+04  0.15000000000E+04  0.10566000000E+00 0. -1.
        994   -1    0    0    0    0 -0.00000000000E+00 -0.00000000000E+00  0.11368683772E-12  0.17120000000E+03  0.17120000000E+03 0.  0.
         13    1    1    2    0    0  0.36635583179E+01 -0.19485158999E+02  0.10803484888E+03  0.10983912244E+03  0.10566000000E+00 0. -1.
        994    1    1    2    0    0 -0.26692425816E+01  0.15195553107E+02  0.25600707489E+01  0.17191283737E+03  0.17120000000E+03 0.  0.
        998    1    1    2    0    0 -0.99431573639E+00  0.42896058924E+01  0.13894050766E+04  0.13894480402E+04  0.10000000000E+02 0. -1.
</event>
<event>
 5    1  0.1245771E-008  0.3828995E+03  0.7957747E-01  0.3438630E+00
         13   -1    0    0    0    0  0.00000000000E+00  0.00000000000E+00  0.14999999963E+04  0.15000000000E+04  0.10566000000E+00 0. -1.
        994   -1    0    0    0    0 -0.00000000000E+00 -0.00000000000E+00  0.11368683772E-12  0.17120000000E+03  0.17120000000E+03 0.  0.
         13    1    1    2    0    0 -0.11340874586E+02 -0.78683898245E+01  0.34952176418E+02  0.37579153732E+02  0.10566000000E+00 0. -1.
        994    1    1    2    0    0  0.85546908991E+01  0.83817145283E+00  0.29212663050E+01  0.17144054090E+03  0.17120000000E+03 0.  0.
        998    1    1    2    0    0  0.27861836870E+01  0.70302183717E+01  0.14621265536E+04  0.14621803054E+04  0.10000000000E+02 0. -1.
</event>
<event>
 5    1  0.1245771E-008  0.3783618E+03  0.7957747E-01  0.3458323E+00
         13   -1    0    0    0    0  0.00000000000E+00  0.00000000000E+00  0.14999999963E+04  0.15000000000E+04  0.10566000000E+00 0.  1.
        994   -1    0    0    0    0 -0.00000000000E+00 -0.00000000000E+00  0.11368683772E-12  0.17120000000E+03  0.17120000000E+03 0.  0.
         13    1    1    2    0    0 -0.21796145282E+02  0.29367110046E+02  0.13704427126E+03  0.14184020076E+03  0.10566000000E+00 0.  1.
        994    1    1    2    0    0 -0.22306495271E+02 -0.38908405965E+02  0.11753031912E+02  0.17736690093E+03  0.17120000000E+03 0.  0.
        998    1    1    2    0    0  0.44102640554E+02  0.95412959195E+01  0.13512026931E+04  0.13519928983E+04  0.10000000000E+02 0.  1.
</event>
<event>
 5    1  0.1731162E-008  0.3860580E+03  0.7957747E-01  0.3425198E+00
         13   -1    0    0    0    0  0.00000000000E+00  0.00000000000E+00  0.14999999963E+04  0.15000000000E+04  0.10566000000E+00 0.  1.
        994   -1    0    0    0    0 -0.00000000000E+00 -0.00000000000E+00  0.11368683772E-12  0.17120000000E+03  0.17120000000E+03 0.  0.
         13    1    1    2    0    0  0.89040921538E+01 -0.87286686847E+01  0.71556203333E+02  0.72634522877E+02  0.10566000000E+00 0.  1.
        994    1    1    2    0    0 -0.46251318893E+01  0.61506435591E+01  0.12998982519E+01  0.17137780485E+03  0.17120000000E+03 0.  0.
        998    1    1    2    0    0 -0.42789602645E+01  0.25780251256E+01  0.14271438947E+04  0.14271876723E+04  0.10000000000E+02 0.  0.
</event>
<event>
 5    1  0.1245771E-008  0.3800863E+03  0.7957747E-01  0.3450783E+00
         13   -1    0    0    0    0  0.00000000000E+00  0.00000000000E+00  0.14999999963E+04  0.15000000000E+04  0.10566000000E+00 0.  1.
        994   -1    0    0    0    0 -0.00000000000E+00 -0.00000000000E+00  0.11368683772E-12  0.17120000000E+03  0.17120000000E+03 0.  0.
         13    1    1    2    0    0 -0.29332340589E+02 -0.34814860733E+02  0.22781673991E+03  0.23232076721E+03  0.10566000000E+00 0.  1.
        994    1    1    2    0    0  0.27010448730E+02  0.28140760258E+02  0.91910869020E+01  0.17582770773E+03  0.17120000000E+03 0.  0.
        998    1    1    2    0    0  0.23218918588E+01  0.66741004749E+01  0.12629921695E+04  0.12630515251E+04  0.10000000000E+02 0.  1.
</event>
<event>
 5    1  0.1245771E-008  0.3791610E+03  0.7957747E-01  0.3454820E+00
         13   -1    0    0    0    0  0.00000000000E+00  0.00000000000E+00  0.14999999963E+04  0.15000000000E+04  0.10566000000E+00 0. -1.
        994   -1    0    0    0    0 -0.00000000000E+00 -0.00000000000E+00  0.11368683772E-12  0.17120000000E+03  0.17120000000E+03 0.  0.
         13    1    1    2    0    0  0.52222141621E+02  0.31191999448E+02  0.30141649727E+03  0.30749310382E+03  0.10566000000E+00 0. -1.
        994    1    1    2    0    0 -0.54250918498E+02 -0.44004781818E+02  0.21092406587E+02  0.18610188768E+03  0.17120000000E+03 0.  0.
        998    1    1    2    0    0  0.20287768779E+01  0.12812782371E+02  0.11774910924E+04  0.11776050085E+04  0.10000000000E+02 0. -1.
</event>
<event>
 5    1  0.1245771E-008  0.3767049E+03  0.7957747E-01  0.3465633E+00
         13   -1    0    0    0    0  0.00000000000E+00  0.00000000000E+00  0.14999999963E+04  0.15000000000E+04  0.10566000000E+00 0.  1.
        994   -1    0    0    0    0 -0.00000000000E+00 -0.00000000000E+00  0.11368683772E-12  0.17120000000E+03  0.17120000000E+03 0.  0.
         13    1    1    2    0    0  0.37870936565E+02  0.52426952727E+02  0.27896601560E+03  0.28636487604E+03  0.10566000000E+00 0.  1.
        994    1    1    2    0    0 -0.39285337847E+02 -0.58798010663E+02  0.22897838824E+02  0.18663947827E+03  0.17120000000E+03 0.  0.
        998    1    1    2    0    0  0.14144012820E+01  0.63710579355E+01  0.11981361419E+04  0.11981956457E+04  0.10000000000E+02 0.  1.
</event>
<event>
 5    1  0.1245771E-008  0.3794641E+03  0.7957747E-01  0.3453495E+00
         13   -1    0    0    0    0  0.00000000000E+00  0.00000000000E+00  0.14999999963E+04  0.15000000000E+04  0.10566000000E+00 0.  1.
        994   -1    0    0    0    0 -0.00000000000E+00 -0.00000000000E+00  0.11368683772E-12  0.17120000000E+03  0.17120000000E+03 0.  0.
         13    1    1    2    0    0 -0.78804166894E+01  0.21092146945E+02  0.52913031668E+02  0.57504606027E+02  0.10566000000E+00 0.  1.
        994    1    1    2    0    0  0.11186811607E+02 -0.27095278742E+02  0.72868998177E+01  0.17384429180E+03  0.17120000000E+03 0.  0.
        998    1    1    2    0    0 -0.33063949181E+01  0.60031317972E+01  0.14398000648E+04  0.14398511022E+04  0.10000000000E+02 0.  1.
</event>
<event>
 5    1  0.1245771E-008  0.3789226E+03  0.7957747E-01  0.3455863E+00
         13   -1    0    0    0    0  0.00000000000E+00  0.00000000000E+00  0.14999999963E+04  0.15000000000E+04  0.10566000000E+00 0.  1.
        994   -1    0    0    0    0 -0.00000000000E+00 -0.00000000000E+00  0.11368683772E-12  0.17120000000E+03  0.17120000000E+03 0.  0.
         13    1    1    2    0    0 -0.76532256352E+01  0.21362876067E+02  0.52411634508E+02  0.57113351612E+02  0.10566000000E+00 0.  1.
        994    1    1    2    0    0  0.51634701522E+01 -0.18527500665E+02  0.59200338363E+01  0.17237870085E+03  0.17120000000E+03 0.  0.
        998    1    1    2    0    0  0.24897554831E+01 -0.28353754028E+01  0.14416683279E+04  0.14417079475E+04  0.10000000000E+02 0.  1.
</event>
<event>
 5    1  0.1245771E-008  0.3736884E+03  0.7957747E-01  0.3479109E+00
         13   -1    0    0    0    0  0.00000000000E+00  0.00000000000E+00  0.14999999963E+04  0.15000000000E+04  0.10566000000E+00 0. -1.
        994   -1    0    0    0    0 -0.00000000000E+00 -0.00000000000E+00  0.11368683772E-12  0.17120000000E+03  0.17120000000E+03 0.  0.
         13    1    1    2    0    0  0.43772147296E+02  0.17102302322E+02  0.77994455237E+02  0.91058419904E+02  0.10566000000E+00 0. -1.
        994    1    1    2    0    0 -0.39397249995E+02 -0.18467599194E+02  0.19638046828E+02  0.17773094387E+03  0.17120000000E+03 0.  0.
        998    1    1    2    0    0 -0.43748973005E+01  0.13652968719E+01  0.14023674942E+04  0.14024106362E+04  0.10000000000E+02 0. -1.
</event>
<event>
 5    1  0.1245771E-008  0.3842301E+03  0.7957747E-01  0.3432944E+00
         13   -1    0    0    0    0  0.00000000000E+00  0.00000000000E+00  0.14999999963E+04  0.15000000000E+04  0.10566000000E+00 0. -1.
        994   -1    0    0    0    0 -0.00000000000E+00 -0.00000000000E+00  0.11368683772E-12  0.17120000000E+03  0.17120000000E+03 0.  0.
         13    1    1    2    0    0 -0.21700467362E+02  0.16400606176E+02  0.15677178465E+03  0.15911409049E+03  0.10566000000E+00 0. -1.
        994    1    1    2    0    0  0.33886335759E+02 -0.12334356500E+02  0.63119788294E+01  0.17507056057E+03  0.17120000000E+03 0.  0.
        998    1    1    2    0    0 -0.12185868397E+02 -0.40662496757E+01  0.13369162328E+04  0.13370153489E+04  0.10000000000E+02 0. -1.
</event>
<event>
 5    1  0.1245771E-008  0.3713792E+03  0.7957747E-01  0.3489576E+00
         13   -1    0    0    0    0  0.00000000000E+00  0.00000000000E+00  0.14999999963E+04  0.15000000000E+04  0.10566000000E+00 0.  1.
        994   -1    0    0    0    0 -0.00000000000E+00 -0.00000000000E+00  0.11368683772E-12  0.17120000000E+03  0.17120000000E+03 0.  0.
         13    1    1    2    0    0 -0.28232267706E+02 -0.33943430629E+01  0.45058165201E+02  0.53280689935E+02  0.10566000000E+00 0.  1.
        994    1    1    2    0    0  0.15418904620E+02 -0.51030292729E+02  0.18393713520E+02  0.18024872286E+03  0.17120000000E+03 0.  0.
        998    1    1    2    0    0  0.12813363086E+02  0.54424635792E+02  0.14365481176E+04  0.14376705872E+04  0.10000000000E+02 0.  1.
</event>
<event>
 5    1  0.1245771E-008  0.3767243E+03  0.7957747E-01  0.3465547E+00
         13   -1    0    0    0    0  0.00000000000E+00  0.00000000000E+00  0.14999999963E+04  0.15000000000E+04  0.10566000000E+00 0. -1.
        994   -1    0    0    0    0 -0.00000000000E+00 -0.00000000000E+00  0.11368683772E-12  0.17120000000E+03  0.17120000000E+03 0.  0.
         13    1    1    2    0    0  0.13856620654E+02 -0.18616232896E+00 -0.14202048640E+00  0.13859001632E+02  0.10566000000E+00 0. -1.
        994    1    1    2    0    0 -0.17791357095E+02  0.23509913667E+01  0.15693402665E+02  0.17285190897E+03  0.17120000000E+03 0.  0.
        998    1    1    2    0    0  0.39347364402E+01 -0.21648290378E+01  0.14844486141E+04  0.14844890894E+04  0.10000000000E+02 0. -1.
</event>
<event>
 5    1  0.1245771E-008  0.3823131E+03  0.7957747E-01  0.3441148E+00
         13   -1    0    0    0    0  0.00000000000E+00  0.00000000000E+00  0.14999999963E+04  0.15000000000E+04  0.10566000000E+00 0. -1.
        994   -1    0    0    0    0 -0.00000000000E+00 -0.00000000000E+00  0.11368683772E-12  0.17120000000E+03  0.17120000000E+03 0.  0.
         13    1    1    2    0    0  0.12870565619E+03 -0.83656188435E+02  0.51790869596E+03  0.54017861149E+03  0.10566000000E+00 0. -1.
        994    1    1    2    0    0 -0.13176380330E+03  0.30534893348E+02  0.87949003146E+02  0.23524146473E+03  0.17120000000E+03 0.  0.
        998    1    1    2    0    0  0.30581471178E+01  0.53121295087E+02  0.89414229717E+03  0.89577992378E+03  0.10000000000E+02 0. -1.
</event>
<event>
 5    1  0.1245771E-008  0.3697872E+03  0.7957747E-01  0.3496869E+00
         13   -1    0    0    0    0  0.00000000000E+00  0.00000000000E+00  0.14999999963E+04  0.15000000000E+04  0.10566000000E+00 0. -1.
        994   -1    0    0    0    0 -0.00000000000E+00 -0.00000000000E+00  0.11368683772E-12  0.17120000000E+03  0.17120000000E+03 0.  0.
         13    1    1    2    0    0 -0.32901875421E+02 -0.25104995483E+02  0.84639887864E+02  0.94216325475E+02  0.10566000000E+00 0. -1.
        994    1    1    2    0    0  0.33622359937E+02  0.17413095240E+02  0.14357424438E+02  0.17592400237E+03  0.17120000000E+03 0.  0.
        998    1    1    2    0    0 -0.72048451621E+00  0.76919002428E+01  0.14010026840E+04  0.14010596722E+04  0.10000000000E+02 0. -1.
</event>
<event>
 5    1  0.1245771E-008  0.3776316E+03  0.7957747E-01  0.3461536E+00
         13   -1    0    0    0    0  0.00000000000E+00  0.00000000000E+00  0.14999999963E+04  0.15000000000E+04  0.10566000000E+00 0.  1.
        994   -1    0    0    0    0 -0.00000000000E+00 -0.00000000000E+00  0.11368683772E-12  0.17120000000E+03  0.17120000000E+03 0.  0.
         13    1    1    2    0    0  0.44041621144E+01 -0.17350995316E+02  0.28023581774E+02  0.33253360460E+02  0.10566000000E+00 0.  1.
        994    1    1    2    0    0 -0.98116723924E+01  0.78225241988E+01  0.58642075186E+01  0.17175939488E+03  0.17120000000E+03 0.  0.
        998    1    1    2    0    0  0.54075102780E+01  0.95284711169E+01  0.14661122070E+04  0.14661872447E+04  0.10000000000E+02 0.  1.
</event>
<event>
 5    1  0.1245771E-008  0.3717899E+03  0.7957747E-01  0.3487705E+00
         13   -1    0    0    0    0  0.00000000000E+00  0.00000000000E+00  0.14999999963E+04  0.15000000000E+04  0.10566000000E+00 0.  1.
        994   -1    0    0    0    0 -0.00000000000E+00 -0.00000000000E+00  0.11368683772E-12  0.17120000000E+03  0.17120000000E+03 0.  0.
         13    1    1    2    0    0 -0.89926247515E+02  0.87228293833E+02  0.73590969557E+03  0.74649755287E+03  0.10566000000E+00 0.  1.
        994    1    1    2    0    0  0.46190455506E+02 -0.92726369646E+02  0.46169514982E+02  0.20536017608E+03  0.17120000000E+03 0.  0.
        998    1    1    2    0    0  0.43735792009E+02  0.54980758135E+01  0.71792078573E+03  0.71934227105E+03  0.10000000000E+02 0.  1.
</event>
<event>
 5    1  0.1245771E-008  0.3780329E+03  0.7957747E-01  0.3459769E+00
         13   -1    0    0    0    0  0.00000000000E+00  0.00000000000E+00  0.14999999963E+04  0.15000000000E+04  0.10566000000E+00 0.  1.
        994   -1    0    0    0    0 -0.00000000000E+00 -0.00000000000E+00  0.11368683772E-12  0.17120000000E+03  0.17120000000E+03 0.  0.
         13    1    1    2    0    0 -0.41963696724E+02 -0.80440459644E+01  0.19900913285E+03  0.20354435547E+03  0.10566000000E+00 0.  1.
        994    1    1    2    0    0  0.72422541948E+01 -0.10873556580E+01  0.53099212777E+01  0.17143881664E+03  0.17120000000E+03 0.  0.
        998    1    1    2    0    0  0.34721442529E+02  0.91314016224E+01  0.12956809421E+04  0.12962168279E+04  0.10000000000E+02 0.  1.
</event>
<event>
 5    1  0.1245771E-008  0.3820938E+03  0.7957747E-01  0.3442092E+00
         13   -1    0    0    0    0  0.00000000000E+00  0.00000000000E+00  0.14999999963E+04  0.15000000000E+04  0.10566000000E+00 0. -1.
        994   -1    0    0    0    0 -0.00000000000E+00 -0.00000000000E+00  0.11368683772E-12  0.17120000000E+03  0.17120000000E+03 0.  0.
         13    1    1    2    0    0 -0.47767226899E+02 -0.18279040640E+03  0.86976688910E+03  0.89004971388E+03  0.10566000000E+00 0. -1.
        994    1    1    2    0    0  0.79654909537E+02  0.20821573580E+03  0.19082103530E+03  0.33973637539E+03  0.17120000000E+03 0.  0.
        998    1    1    2    0    0 -0.31887682638E+02 -0.25425329403E+02  0.43941207188E+03  0.44141391073E+03  0.10000000000E+02 0.  1.
</event>
<event>
 5    1  0.1245771E-008  0.3852171E+03  0.7957747E-01  0.3428752E+00
         13   -1    0    0    0    0  0.00000000000E+00  0.00000000000E+00  0.14999999963E+04  0.15000000000E+04  0.10566000000E+00 0.  1.
        994   -1    0    0    0    0 -0.00000000000E+00 -0.00000000000E+00  0.11368683772E-12  0.17120000000E+03  0.17120000000E+03 0.  0.
         13    1    1    2    0    0 -0.55366990167E+02  0.17183326115E+03  0.10303682145E+04  0.10460644539E+04  0.10566000000E+00 0.  1.
        994    1    1    2    0    0  0.56536702464E+02 -0.19311513588E+03  0.14835871699E+03  0.30300099561E+03  0.17120000000E+03 0.  0.
        998    1    1    2    0    0 -0.11697122980E+01  0.21281874730E+02  0.32127306481E+03  0.32213455044E+03  0.10000000000E+02 0.  1.
</event>
<event>
 5    1  0.1245771E-008  0.3855917E+03  0.7957747E-01  0.3427167E+00
         13   -1    0    0    0    0  0.00000000000E+00  0.00000000000E+00  0.14999999963E+04  0.15000000000E+04  0.10566000000E+00 0.  1.
        994   -1    0    0    0    0 -0.00000000000E+00 -0.00000000000E+00  0.11368683772E-12  0.17120000000E+03  0.17120000000E+03 0.  0.
         13    1    1    2    0    0  0.11908594403E+02  0.25564953453E+01  0.51695363518E+02  0.53110941079E+02  0.10566000000E+00 0.  1.
        994    1    1    2    0    0 -0.19068679476E+02 -0.97304765722E+01  0.28424031006E+01  0.17255670363E+03  0.17120000000E+03 0.  0.
        998    1    1    2    0    0  0.71600850734E+01  0.71739812268E+01  0.14454622297E+04  0.14455323553E+04  0.10000000000E+02 0.  1.
</event>
<event>
 5    1  0.1245771E-008  0.3806028E+03  0.7957747E-01  0.3448538E+00
         13   -1    0    0    0    0  0.00000000000E+00  0.00000000000E+00  0.14999999963E+04  0.15000000000E+04  0.10566000000E+00 0.  1.
        994   -1    0    0    0    0 -0.00000000000E+00 -0.00000000000E+00  0.11368683772E-12  0.17120000000E+03  0.17120000000E+03 0.  0.
         13    1    1    2    0    0  0.15504586798E+02 -0.83469923832E+02  0.18262124650E+03  0.20139054406E+03  0.10566000000E+00 0.  1.
        994    1    1    2    0    0 -0.18934856470E+02  0.86336281967E+02  0.45612475450E+02  0.19799601079E+03  0.17120000000E+03 0.  0.
        998    1    1    2    0    0  0.34302696721E+01 -0.28663581349E+01  0.12717662743E+04  0.12718134452E+04  0.10000000000E+02 0.  0.
</event>
<event>
 5    1  0.1245771E-008  0.3895920E+03  0.7957747E-01  0.3410427E+00
         13   -1    0    0    0    0  0.00000000000E+00  0.00000000000E+00  0.14999999963E+04  0.15000000000E+04  0.10566000000E+00 0. -1.
        994   -1    0    0    0    0 -0.00000000000E+00 -0.00000000000E+00  0.11368683772E-12  0.17120000000E+03  0.17120000000E+03 0.  0.
         13    1    1    2    0    0 -0.47212508700E+02 -0.42967991428E+02  0.83286188825E+02  0.10493745603E+03  0.10566000000E+00 0. -1.
        994    1    1    2    0    0  0.19321374016E+02  0.65701856068E+02  0.39538524387E+02  0.18858097543E+03  0.17120000000E+03 0.  0.
        998    1    1    2    0    0  0.27891134684E+02 -0.22733864640E+02  0.13771752831E+04  0.13776815685E+04  0.10000000000E+02 0. -1.
</event>
<event>
 5    1  0.1245771E-008  0.3835188E+03  0.7957747E-01  0.3435978E+00
         13   -1    0    0    0    0  0.00000000000E+00  0.00000000000E+00  0.14999999963E+04  0.15000000000E+04  0.10566000000E+00 0. -1.
        994   -1    0    0    0    0 -0.00000000000E+00 -0.00000000000E+00  0.11368683772E-12  0.17120000000E+03  0.17120000000E+03 0.  0.
         13    1    1    2    0    0  0.28424052672E+01  0.10185611199E+02  0.22823971369E+02  0.25154935426E+02  0.10566000000E+00 0. -1.
        994    1    1    2    0    0 -0.77781085355E+01 -0.53437791163E+01  0.26616297671E+01  0.17148055056E+03  0.17120000000E+03 0.  0.
        998    1    1    2    0    0  0.49357032683E+01 -0.48418320823E+01  0.14745143951E+04  0.14745645140E+04  0.10000000000E+02 0. -1.
</event>
<event>
 5    1  0.1245771E-008  0.3778193E+03  0.7957747E-01  0.3460709E+00
         13   -1    0    0    0    0  0.00000000000E+00  0.00000000000E+00  0.14999999963E+04  0.15000000000E+04  0.10566000000E+00 0. -1.
        994   -1    0    0    0    0 -0.00000000000E+00 -0.00000000000E+00  0.11368683772E-12  0.17120000000E+03  0.17120000000E+03 0.  0.
         13    1    1    2    0    0  0.23147229477E+02 -0.12835847463E+02  0.63180520071E+02  0.68500675128E+02  0.10566000000E+00 0. -1.
        994    1    1    2    0    0 -0.13419423717E+02  0.25445718458E+02  0.80296323486E+01  0.17378573162E+03  0.17120000000E+03 0.  0.
        998    1    1    2    0    0 -0.97278057593E+01 -0.12609870996E+02  0.14287898439E+04  0.14289135932E+04  0.10000000000E+02 0. -1.
</event>
<event>
 5    1  0.1245771E-008  0.3758274E+03  0.7957747E-01  0.3469531E+00
         13   -1    0    0    0    0  0.00000000000E+00  0.00000000000E+00  0.14999999963E+04  0.15000000000E+04  0.10566000000E+00 0. -1.
        994   -1    0    0    0    0 -0.00000000000E+00 -0.00000000000E+00  0.11368683772E-12  0.17120000000E+03  0.17120000000E+03 0.  0.
         13    1    1    2    0    0 -0.15261406671E+01 -0.11366216871E+02  0.76418482150E+01  0.13781473051E+02  0.10566000000E+00 0. -1.
        994    1    1    2    0    0  0.14487582892E+01  0.97667228432E+01  0.65850043239E+01  0.17161086812E+03  0.17120000000E+03 0.  0.
        998    1    1    2    0    0  0.77382377901E-01  0.15994940276E+01  0.14857731437E+04  0.14858076588E+04  0.10000000000E+02 0. -1.
</event>
<event>
 5    1  0.1245771E-008  0.3762498E+03  0.7957747E-01  0.3467652E+00
         13   -1    0    0    0    0  0.00000000000E+00  0.00000000000E+00  0.14999999963E+04  0.15000000000E+04  0.10566000000E+00 0.  1.
        994   -1    0    0    0    0 -0.00000000000E+00 -0.00000000000E+00  0.11368683772E-12  0.17120000000E+03  0.17120000000E+03 0.  0.
         13    1    1    2    0    0 -0.60111069391E+02 -0.10250151776E+02  0.24844184908E+03  0.25581589047E+03  0.10566000000E+00 0.  1.
        994    1    1    2    0    0  0.64612940334E+02  0.92339820735E+01  0.20597354712E+02  0.18437404781E+03  0.17120000000E+03 0.  0.
        998    1    1    2    0    0 -0.45018709432E+01  0.10161697029E+01  0.12309607925E+04  0.12310100617E+04  0.10000000000E+02 0.  1.
</event>
<event>
 5    1  0.1245771E-008  0.3774227E+03  0.7957747E-01  0.3462458E+00
         13   -1    0    0    0    0  0.00000000000E+00  0.00000000000E+00  0.14999999963E+04  0.15000000000E+04  0.10566000000E+00 0. -1.
        994   -1    0    0    0    0 -0.00000000000E+00 -0.00000000000E+00  0.11368683772E-12  0.17120000000E+03  0.17120000000E+03 0.  0.
         13    1    1    2    0    0 -0.21654037683E+01  0.11500612159E+02  0.10166421047E+02  0.15502268687E+02  0.10566000000E+00 0. -1.
        994    1    1    2    0    0  0.63825429128E+01 -0.67332132397E+01  0.57301062976E+01  0.17154692400E+03  0.17120000000E+03 0.  0.
        998    1    1    2    0    0 -0.42171391446E+01 -0.47673989192E+01  0.14841034689E+04  0.14841508073E+04  0.10000000000E+02 0. -1.
</event>
<event>
 5    1  0.1245771E-008  0.3749068E+03  0.7957747E-01  0.3473640E+00
         13   -1    0    0    0    0  0.00000000000E+00  0.00000000000E+00  0.14999999963E+04  0.15000000000E+04  0.10566000000E+00 0. -1.
        994   -1    0    0    0    0 -0.00000000000E+00 -0.00000000000E+00  0.11368683772E-12  0.17120000000E+03  0.17120000000E+03 0.  0.
         13    1    1    2    0    0  0.12899513974E+02  0.53923200855E+01  0.11545040972E+02  0.18132118237E+02  0.10566000000E+00 0. -1.
        994    1    1    2    0    0 -0.12213515750E+02  0.43595893641E+01  0.72986205818E+01  0.17184552903E+03  0.17120000000E+03 0.  0.
        998    1    1    2    0    0 -0.68599822376E+00 -0.97519094496E+01  0.14811563347E+04  0.14812223527E+04  0.10000000000E+02 0. -1.
</event>
<event>
 5    1  0.1245771E-008  0.3808808E+03  0.7957747E-01  0.3447332E+00
         13   -1    0    0    0    0  0.00000000000E+00  0.00000000000E+00  0.14999999963E+04  0.15000000000E+04  0.10566000000E+00 0. -1.
        994   -1    0    0    0    0 -0.00000000000E+00 -0.00000000000E+00  0.11368683772E-12  0.17120000000E+03  0.17120000000E+03 0.  0.
         13    1    1    2    0    0  0.71845414235E+01 -0.28289940435E+02  0.18384363941E+02  0.34495425304E+02  0.10566000000E+00 0. -1.
        994    1    1    2    0    0 -0.18789130064E+01  0.21901960547E+02  0.18570431047E+02  0.17360163334E+03  0.17120000000E+03 0.  0.
        998    1    1    2    0    0 -0.53056284170E+01  0.63879798887E+01  0.14630452013E+04  0.14631029414E+04  0.10000000000E+02 0. -1.
</event>
<event>
 5    1  0.1245771E-008  0.3817885E+03  0.7957747E-01  0.3443408E+00
         13   -1    0    0    0    0  0.00000000000E+00  0.00000000000E+00  0.14999999963E+04  0.15000000000E+04  0.10566000000E+00 0. -1.
        994   -1    0    0    0    0 -0.00000000000E+00 -0.00000000000E+00  0.11368683772E-12  0.17120000000E+03  0.17120000000E+03 0.  0.
         13    1    1    2    0    0  0.77713957240E+01 -0.26474138284E+02  0.13153539279E+03  0.13439808522E+03  0.10566000000E+00 0. -1.
        994    1    1    2    0    0 -0.52845264021E+01 -0.27616565028E+01  0.33511772112E+01  0.17133657915E+03  0.17120000000E+03 0.  0.
        998    1    1    2    0    0 -0.24868693218E+01  0.29235794786E+02  0.13651134263E+04  0.13654653356E+04  0.10000000000E+02 0. -1.
</event>
<event>
 5    1  0.1245771E-008  0.3819917E+03  0.7957747E-01  0.3442532E+00
         13   -1    0    0    0    0  0.00000000000E+00  0.00000000000E+00  0.14999999963E+04  0.15000000000E+04  0.10566000000E+00 0.  1.
        994   -1    0    0    0    0 -0.00000000000E+00 -0.00000000000E+00  0.11368683772E-12  0.17120000000E+03  0.17120000000E+03 0.  0.
         13    1    1    2    0    0 -0.23482359109E+02 -0.23703663253E+02  0.19818742165E+03  0.20097649142E+03  0.10566000000E+00 0.  1.
        994    1    1    2    0    0 -0.13410547433E+01  0.10002864917E+02  0.34694301708E+01  0.17153230798E+03  0.17120000000E+03 0.  0.
        998    1    1    2    0    0  0.24823413852E+02  0.13700798336E+02  0.12983431445E+04  0.12986912006E+04  0.10000000000E+02 0.  1.
</event>
<event>
 5    1  0.1245771E-008  0.3837949E+03  0.7957747E-01  0.3434799E+00
         13   -1    0    0    0    0  0.00000000000E+00  0.00000000000E+00  0.14999999963E+04  0.15000000000E+04  0.10566000000E+00 0. -1.
        994   -1    0    0    0    0 -0.00000000000E+00 -0.00000000000E+00  0.11368683772E-12  0.17120000000E+03  0.17120000000E+03 0.  0.
         13    1    1    2    0    0 -0.38810789418E+01 -0.22957514872E+02  0.13325860478E+03  0.13527740822E+03  0.10566000000E+00 0. -1.
        994    1    1    2    0    0 -0.89878104264E+01  0.39998752052E+01  0.25492191120E+01  0.17150136517E+03  0.17120000000E+03 0.  0.
        998    1    1    2    0    0  0.12868889368E+02  0.18957639667E+02  0.13641921724E+04  0.13644212266E+04  0.10000000000E+02 0. -1.
</event>
<event>
 5    1  0.1245771E-008  0.3849236E+03  0.7957747E-01  0.3429996E+00
         13   -1    0    0    0    0  0.00000000000E+00  0.00000000000E+00  0.14999999963E+04  0.15000000000E+04  0.10566000000E+00 0. -1.
        994   -1    0    0    0    0 -0.00000000000E+00 -0.00000000000E+00  0.11368683772E-12  0.17120000000E+03  0.17120000000E+03 0.  0.
         13    1    1    2    0    0  0.19119515486E+02  0.11175289300E+02  0.12654503082E+03  0.12846827995E+03  0.10566000000E+00 0. -1.
        994    1    1    2    0    0 -0.27861185578E+02 -0.14316850525E+02  0.49024514106E+01  0.17411114812E+03  0.17120000000E+03 0.  0.
        998    1    1    2    0    0  0.87416700918E+01  0.31415612249E+01  0.13685525140E+04  0.13686205719E+04  0.10000000000E+02 0. -1.
</event>
<event>
 5    1  0.1245771E-008  0.3778455E+03  0.7957747E-01  0.3460594E+00
         13   -1    0    0    0    0  0.00000000000E+00  0.00000000000E+00  0.14999999963E+04  0.15000000000E+04  0.10566000000E+00 0.  1.
        994   -1    0    0    0    0 -0.00000000000E+00 -0.00000000000E+00  0.11368683772E-12  0.17120000000E+03  0.17120000000E+03 0.  0.
         13    1    1    2    0    0 -0.16000190833E+02 -0.31867984100E+02  0.13039714449E+03  0.13518506194E+03  0.10566000000E+00 0.  1.
        994    1    1    2    0    0 -0.24415531348E+01  0.75143312314E+01  0.54349314842E+01  0.17146837853E+03  0.17120000000E+03 0.  0.
        998    1    1    2    0    0  0.18441743968E+02  0.24353652869E+02  0.13641679203E+04  0.13645465595E+04  0.10000000000E+02 0.  1.
</event>
<event>
 5    1  0.1245771E-008  0.3836909E+03  0.7957747E-01  0.3435243E+00
         13   -1    0    0    0    0  0.00000000000E+00  0.00000000000E+00  0.14999999963E+04  0.15000000000E+04  0.10566000000E+00 0. -1.
        994   -1    0    0    0    0 -0.00000000000E+00 -0.00000000000E+00  0.11368683772E-12  0.17120000000E+03  0.17120000000E+03 0.  0.
         13    1    1    2    0    0  0.38137822612E+01  0.11980924696E+02  0.35676856440E+02  0.37827724505E+02  0.10566000000E+00 0. -1.
        994    1    1    2    0    0 -0.13950991092E+02  0.76358274569E+01  0.31172951915E+01  0.17196538472E+03  0.17120000000E+03 0.  0.
        998    1    1    2    0    0  0.10137208831E+02 -0.19616752153E+02  0.14612058446E+04  0.14614068908E+04  0.10000000000E+02 0. -1.
</event>
<event>
 5    1  0.1245771E-008  0.3853370E+03  0.7957747E-01  0.3428244E+00
         13   -1    0    0    0    0  0.00000000000E+00  0.00000000000E+00  0.14999999963E+04  0.15000000000E+04  0.10566000000E+00 0. -1.
        994   -1    0    0    0    0 -0.00000000000E+00 -0.00000000000E+00  0.11368683772E-12  0.17120000000E+03  0.17120000000E+03 0.  0.
         13    1    1    2    0    0 -0.14557550594E+02 -0.22598044948E+01  0.73239943642E+02  0.74706957537E+02  0.10566000000E+00 0. -1.
        994    1    1    2    0    0  0.12867234609E+02 -0.45550284137E+01  0.20752231272E+01  0.17175581667E+03  0.17120000000E+03 0.  0.
        998    1    1    2    0    0  0.16903159850E+01  0.68148329084E+01  0.14246848295E+04  0.14247372258E+04  0.10000000000E+02 0. -1.
</event>
<event>
 5    1  0.1245771E-008  0.3860414E+03  0.7957747E-01  0.3425267E+00
         13   -1    0    0    0    0  0.00000000000E+00  0.00000000000E+00  0.14999999963E+04  0.15000000000E+04  0.10566000000E+00 0.  1.
        994   -1    0    0    0    0 -0.00000000000E+00 -0.00000000000E+00  0.11368683772E-12  0.17120000000E+03  0.17120000000E+03 0.  0.
         13    1    1    2    0    0  0.11641897238E+02  0.12900561376E+01  0.56210081164E+02  0.57417614062E+02  0.10566000000E+00 0.  1.
        994    1    1    2    0    0 -0.22032365856E+02 -0.83834751931E+01  0.29374743256E+01  0.17284032098E+03  0.17120000000E+03 0.  0.
        998    1    1    2    0    0  0.10390468618E+02  0.70934190555E+01  0.14408524408E+04  0.14409420650E+04  0.10000000000E+02 0.  1.
</event>
<event>
 5    1  0.1245771E-008  0.3718695E+03  0.7957747E-01  0.3487343E+00
         13   -1    0    0    0    0  0.00000000000E+00  0.00000000000E+00  0.14999999963E+04  0.15000000000E+04  0.10566000000E+00 0. -1.
        994   -1    0    0    0    0 -0.00000000000E+00 -0.00000000000E+00  0.11368683772E-12  0.17120000000E+03  0.17120000000E+03 0.  0.
         13    1    1    2    0    0 -0.12936967516E+02  0.12020935758E+02  0.15220817386E+02  0.23314211780E+02  0.10566000000E+00 0. -1.
        994    1    1    2    0    0  0.34979477706E+01 -0.12956625324E+02  0.89141738525E+01  0.17195642551E+03  0.17120000000E+03 0.  0.
        998    1    1    2    0    0  0.94390197450E+01  0.93568956609E+00  0.14758650050E+04  0.14759293627E+04  0.10000000000E+02 0. -1.
</event>
<event>
 5    1  0.1245771E-008  0.3837211E+03  0.7957747E-01  0.3435114E+00
         13   -1    0    0    0    0  0.00000000000E+00  0.00000000000E+00  0.14999999963E+04  0.15000000000E+04  0.10566000000E+00 0. -1.
        994   -1    0    0    0    0 -0.00000000000E+00 -0.00000000000E+00  0.11368683772E-12  0.17120000000E+03  0.17120000000E+03 0.  0.
         13    1    1    2    0    0  0.17084762649E+02  0.59730862294E+01  0.70201218908E+02  0.72496821821E+02  0.10566000000E+00 0. -1.
        994    1    1    2    0    0 -0.14293807550E+02 -0.61565981541E+01  0.30666900071E+01  0.17193330458E+03  0.17120000000E+03 0.  0.
        998    1    1    2    0    0 -0.27909550990E+01  0.18351192477E+00  0.14267320874E+04  0.14267698736E+04  0.10000000000E+02 0. -1.
</event>
<event>
 5    1  0.1245771E-008  0.3820819E+03  0.7957747E-01  0.3442143E+00
         13   -1    0    0    0    0  0.00000000000E+00  0.00000000000E+00  0.14999999963E+04  0.15000000000E+04  0.10566000000E+00 0. -1.
        994   -1    0    0    0    0 -0.00000000000E+00 -0.00000000000E+00  0.11368683772E-12  0.17120000000E+03  0.17120000000E+03 0.  0.
         13    1    1    2    0    0 -0.10875080259E+02 -0.66916473709E+01  0.25383996121E+02  0.28414854184E+02  0.10566000000E+00 0. -1.
        994    1    1    2    0    0  0.22507313610E+01  0.10001675178E+02  0.34349094098E+01  0.17154106768E+03  0.17120000000E+03 0.  0.
        998    1    1    2    0    0  0.86243488981E+01 -0.33100278069E+01  0.14711810907E+04  0.14712440781E+04  0.10000000000E+02 0. -1.
</event>
<event>
 5    1  0.1245771E-008  0.3856321E+03  0.7957747E-01  0.3426996E+00
         13   -1    0    0    0    0  0.00000000000E+00  0.00000000000E+00  0.14999999963E+04  0.15000000000E+04  0.10566000000E+00 0. -1.
        994   -1    0    0    0    0 -0.00000000000E+00 -0.00000000000E+00  0.11368683772E-12  0.17120000000E+03  0.17120000000E+03 0.  0.
         13    1    1    2    0    0 -0.61467944310E+01 -0.10600585006E+02  0.56218319306E+02  0.57538387828E+02  0.10566000000E+00 0. -1.
        994    1    1    2    0    0  0.84338019778E+01  0.82642216903E+01  0.17743372303E+01  0.17161589276E+03  0.17120000000E+03 0.  0.
        998    1    1    2    0    0 -0.22870075468E+01  0.23363633153E+01  0.14420073397E+04  0.14420457194E+04  0.10000000000E+02 0. -1.
</event>
<event>
 5    1  0.1245771E-008  0.3840156E+03  0.7957747E-01  0.3433858E+00
         13   -1    0    0    0    0  0.00000000000E+00  0.00000000000E+00  0.14999999963E+04  0.15000000000E+04  0.10566000000E+00 0. -1.
        994   -1    0    0    0    0 -0.00000000000E+00 -0.00000000000E+00  0.11368683772E-12  0.17120000000E+03  0.17120000000E+03 0.  0.
         13    1    1    2    0    0  0.12273643460E+02 -0.20590169057E+02  0.12675047165E+03  0.12899725041E+03  0.10566000000E+00 0. -1.
        994    1    1    2    0    0 -0.23227467289E+02  0.13126611882E+02  0.44716213788E+01  0.17332414308E+03  0.17120000000E+03 0.  0.
        998    1    1    2    0    0  0.10953823829E+02  0.74635571743E+01  0.13687779033E+04  0.13688786065E+04  0.10000000000E+02 0. -1.
</event>
<event>
 5    1  0.1245771E-008  0.3849570E+03  0.7957747E-01  0.3429854E+00
         13   -1    0    0    0    0  0.00000000000E+00  0.00000000000E+00  0.14999999963E+04  0.15000000000E+04  0.10566000000E+00 0.  1.
        994   -1    0    0    0    0 -0.00000000000E+00 -0.00000000000E+00  0.11368683772E-12  0.17120000000E+03  0.17120000000E+03 0.  0.
         13    1    1    2    0    0 -0.58435295067E+02 -0.13381013599E+03  0.39040186045E+03  0.41681345949E+03  0.10566000000E+00 0.  1.
        994    1    1    2    0    0  0.10548716369E+02  0.15525040676E+03  0.11500332482E+03  0.25835860530E+03  0.17120000000E+03 0.  0.
        998    1    1    2    0    0  0.47886578698E+02 -0.21440270769E+02  0.99459481101E+03  0.99602793521E+03  0.10000000000E+02 0.  1.
</event>
<event>
 5    1  0.1245771E-008  0.3688181E+03  0.7957747E-01  0.3501341E+00
         13   -1    0    0    0    0  0.00000000000E+00  0.00000000000E+00  0.14999999963E+04  0.15000000000E+04  0.10566000000E+00 0.  1.
        994   -1    0    0    0    0 -0.00000000000E+00 -0.00000000000E+00  0.11368683772E-12  0.17120000000E+03  0.17120000000E+03 0.  0.
         13    1    1    2    0    0 -0.11222585996E+03 -0.63056395838E+02  0.45359794307E+03  0.47151018846E+03  0.10566000000E+00 0.  1.
        994    1    1    2    0    0  0.10249651389E+03  0.12722232211E+03  0.10995230602E+03  0.26094061432E+03  0.17120000000E+03 0.  0.
        998    1    1    2    0    0  0.97293460701E+01 -0.64165926270E+02  0.93644974719E+03  0.93874919722E+03  0.10000000000E+02 0.  1.
</event>
<event>
 5    1  0.1245771E-008  0.3766147E+03  0.7957747E-01  0.3466033E+00
         13   -1    0    0    0    0  0.00000000000E+00  0.00000000000E+00  0.14999999963E+04  0.15000000000E+04  0.10566000000E+00 0. -1.
        994   -1    0    0    0    0 -0.00000000000E+00 -0.00000000000E+00  0.11368683772E-12  0.17120000000E+03  0.17120000000E+03 0.  0.
         13    1    1    2    0    0 -0.24962963020E+02 -0.25328505995E+01  0.51405185854E+02  0.57202003038E+02  0.10566000000E+00 0. -1.
        994    1    1    2    0    0  0.16641379239E+02  0.56058762871E+01  0.68950864411E+01  0.17223630154E+03  0.17120000000E+03 0.  0.
        998    1    1    2    0    0  0.83215837819E+01 -0.30730256876E+01  0.14416997240E+04  0.14417616954E+04  0.10000000000E+02 0.  0.
</event>
<event>
 5    1  0.1245771E-008  0.3707177E+03  0.7957747E-01  0.3492599E+00
         13   -1    0    0    0    0  0.00000000000E+00  0.00000000000E+00  0.14999999963E+04  0.15000000000E+04  0.10566000000E+00 0.  1.
        994   -1    0    0    0    0 -0.00000000000E+00 -0.00000000000E+00  0.11368683772E-12  0.17120000000E+03  0.17120000000E+03 0.  0.
         13    1    1    2    0    0 -0.14221006695E+02  0.10861169241E+02  0.13987548800E+02  0.22712655374E+02  0.10566000000E+00 0.  1.
        994    1    1    2    0    0  0.12800729321E+02 -0.10404803645E+02  0.98335111745E+01  0.17227378371E+03  0.17120000000E+03 0.  0.
        998    1    1    2    0    0  0.14202773734E+01 -0.45636559645E+00  0.14761789363E+04  0.14762135609E+04  0.10000000000E+02 0.  1.
</event>
<event>
 5    1  0.1245771E-008  0.3828104E+03  0.7957747E-01  0.3439012E+00
         13   -1    0    0    0    0  0.00000000000E+00  0.00000000000E+00  0.14999999963E+04  0.15000000000E+04  0.10566000000E+00 0. -1.
        994   -1    0    0    0    0 -0.00000000000E+00 -0.00000000000E+00  0.11368683772E-12  0.17120000000E+03  0.17120000000E+03 0.  0.
         13    1    1    2    0    0  0.13265474097E+02 -0.80028856385E+01  0.43209547062E+02  0.45903105591E+02  0.10566000000E+00 0. -1.
        994    1    1    2    0    0 -0.74189749468E+01  0.79553471272E+01  0.31131921557E+01  0.17157348485E+03  0.17120000000E+03 0.  0.
        998    1    1    2    0    0 -0.58464991498E+01  0.47538511311E-01  0.14536772571E+04  0.14537234096E+04  0.10000000000E+02 0. -1.
</event>
<event>
 5    1  0.1245771E-008  0.3745850E+03  0.7957747E-01  0.3475081E+00
         13   -1    0    0    0    0  0.00000000000E+00  0.00000000000E+00  0.14999999963E+04  0.15000000000E+04  0.10566000000E+00 0. -1.
        994   -1    0    0    0    0 -0.00000000000E+00 -0.00000000000E+00  0.11368683772E-12  0.17120000000E+03  0.17120000000E+03 0.  0.
         13    1    1    2    0    0 -0.22686343091E+01 -0.89452203618E+02  0.53663480257E+03  0.54404390074E+03  0.10566000000E+00 0. -1.
        994    1    1    2    0    0 -0.38650063736E+01  0.58873235335E+02  0.18834981825E+02  0.18205821227E+03  0.17120000000E+03 0.  0.
        998    1    1    2    0    0  0.61336406827E+01  0.30578968283E+02  0.94453021188E+03  0.94509788700E+03  0.10000000000E+02 0. -1.
</event>
<event>
 5    1  0.1245771E-008  0.4085279E+03  0.7957747E-01  0.3335631E+00
         13   -1    0    0    0    0  0.00000000000E+00  0.00000000000E+00  0.14999999963E+04  0.15000000000E+04  0.10566000000E+00 0.  1.
        994   -1    0    0    0    0 -0.00000000000E+00 -0.00000000000E+00  0.11368683772E-12  0.17120000000E+03  0.17120000000E+03 0.  0.
         13    1    1    2    0    0 -0.52366645612E+02 -0.89817354727E+01  0.30087939514E+02  0.61059253295E+02  0.10566000000E+00 0. -1.
        994    1    1    2    0    0  0.52403814593E+02  0.74477124445E+01  0.44428284518E+02  0.18462107320E+03  0.17120000000E+03 0.  0.
        998    1    1    2    0    0 -0.37168980839E-01  0.15340230282E+01  0.14254837722E+04  0.14255196735E+04  0.10000000000E+02 0.  1.
</event>
<event>
 5    1  0.1245771E-008  0.3852064E+03  0.7957747E-01  0.3428797E+00
         13   -1    0    0    0    0  0.00000000000E+00  0.00000000000E+00  0.14999999963E+04  0.15000000000E+04  0.10566000000E+00 0. -1.
        994   -1    0    0    0    0 -0.00000000000E+00 -0.00000000000E+00  0.11368683772E-12  0.17120000000E+03  0.17120000000E+03 0.  0.
         13    1    1    2    0    0  0.12527230403E+02  0.16224645816E+02  0.12151535534E+03  0.12323215239E+03  0.10566000000E+00 0. -1.
        994    1    1    2    0    0 -0.42339641577E+02 -0.39744566590E+01  0.74937800456E+01  0.17656171242E+03  0.17120000000E+03 0.  0.
        998    1    1    2    0    0  0.29812411174E+02 -0.12250189157E+02  0.13709908609E+04  0.13714061352E+04  0.10000000000E+02 0. -1.
</event>
<event>
 5    1  0.1245771E-008  0.3826294E+03  0.7957747E-01  0.3439789E+00
         13   -1    0    0    0    0  0.00000000000E+00  0.00000000000E+00  0.14999999963E+04  0.15000000000E+04  0.10566000000E+00 0. -1.
        994   -1    0    0    0    0 -0.00000000000E+00 -0.00000000000E+00  0.11368683772E-12  0.17120000000E+03  0.17120000000E+03 0.  0.
         13    1    1    2    0    0  0.90437115293E+01  0.29213431152E+02  0.15176156820E+03  0.15481213785E+03  0.10566000000E+00 0. -1.
        994    1    1    2    0    0 -0.53886510321E+01 -0.29414315577E+02  0.57809815276E+01  0.17388818036E+03  0.17120000000E+03 0.  0.
        998    1    1    2    0    0 -0.36550604972E+01  0.20088442521E+00  0.13424574466E+04  0.13424996818E+04  0.10000000000E+02 0. -1.
</event>
<event>
 5    1  0.1330693E-008  0.3862054E+03  0.7957747E-01  0.3424576E+00
         13   -1    0    0    0    0  0.00000000000E+00  0.00000000000E+00  0.14999999963E+04  0.15000000000E+04  0.10566000000E+00 0.  1.
        994   -1    0    0    0    0 -0.00000000000E+00 -0.00000000000E+00  0.11368683772E-12  0.17120000000E+03  0.17120000000E+03 0.  0.
         13    1    1    2    0    0 -0.11290203607E+02  0.48265167515E+01  0.71172667684E+02  0.72224121668E+02  0.10566000000E+00 0.  1.
        994    1    1    2    0    0  0.13323236319E+02 -0.20243639286E+01  0.16279728189E+01  0.17173729057E+03  0.17120000000E+03 0.  0.
        998    1    1    2    0    0 -0.20330327123E+01 -0.28021528229E+01  0.14271993558E+04  0.14272385878E+04  0.10000000000E+02 0.  1.
</event>
<event>
 5    1  0.1245771E-008  0.3800503E+03  0.7957747E-01  0.3450940E+00
         13   -1    0    0    0    0  0.00000000000E+00  0.00000000000E+00  0.14999999963E+04  0.15000000000E+04  0.10566000000E+00 0. -1.
        994   -1    0    0    0    0 -0.00000000000E+00 -0.00000000000E+00  0.11368683772E-12  0.17120000000E+03  0.17120000000E+03 0.  0.
         13    1    1    2    0    0 -0.10379175611E+02  0.22251060727E+02  0.84228059856E+02  0.87733768989E+02  0.10566000000E+00 0. -1.
        994    1    1    2    0    0 -0.52219444456E+01  0.16598463533E+02  0.51204001120E+01  0.17215817202E+03  0.17120000000E+03 0.  0.
        998    1    1    2    0    0  0.15601120057E+02 -0.38849524260E+02  0.14106515363E+04  0.14113080590E+04  0.10000000000E+02 0. -1.
</event>
<event>
 5    1  0.1245771E-008  0.3851269E+03  0.7957747E-01  0.3429134E+00
         13   -1    0    0    0    0  0.00000000000E+00  0.00000000000E+00  0.14999999963E+04  0.15000000000E+04  0.10566000000E+00 0.  1.
        994   -1    0    0    0    0 -0.00000000000E+00 -0.00000000000E+00  0.11368683772E-12  0.17120000000E+03  0.17120000000E+03 0.  0.
         13    1    1    2    0    0  0.15169354687E+02 -0.46256076914E+01  0.81874799280E+02  0.83396639557E+02  0.10566000000E+00 0.  1.
        994    1    1    2    0    0 -0.81960278149E+01 -0.22751962319E+00  0.17881736114E+01  0.17140555476E+03  0.17120000000E+03 0.  0.
        998    1    1    2    0    0 -0.69733268723E+01  0.48531273146E+01  0.14163370234E+04  0.14163978057E+04  0.10000000000E+02 0.  1.
</event>
<event>
 5    1  0.1245771E-008  0.3813511E+03  0.7957747E-01  0.3445296E+00
         13   -1    0    0    0    0  0.00000000000E+00  0.00000000000E+00  0.14999999963E+04  0.15000000000E+04  0.10566000000E+00 0.  1.
        994   -1    0    0    0    0 -0.00000000000E+00 -0.00000000000E+00  0.11368683772E-12  0.17120000000E+03  0.17120000000E+03 0.  0.
         13    1    1    2    0    0  0.19458354586E+02 -0.36066362185E+01  0.60716348250E+02  0.63860171444E+02  0.10566000000E+00 0.  1.
        994    1    1    2    0    0  0.52595016463E+01 -0.12032701943E+02  0.40267882539E+01  0.17175011877E+03  0.17120000000E+03 0.  0.
        998    1    1    2    0    0 -0.24717856232E+02  0.15639338162E+02  0.14352568598E+04  0.14355897098E+04  0.10000000000E+02 0.  1.
</event>
<event>
 5    1  0.1245771E-008  0.3855865E+03  0.7957747E-01  0.3427189E+00
         13   -1    0    0    0    0  0.00000000000E+00  0.00000000000E+00  0.14999999963E+04  0.15000000000E+04  0.10566000000E+00 0.  1.
        994   -1    0    0    0    0 -0.00000000000E+00 -0.00000000000E+00  0.11368683772E-12  0.17120000000E+03  0.17120000000E+03 0.  0.
         13    1    1    2    0    0  0.89397260812E+01  0.82524621603E+01  0.54564319242E+02  0.55904364163E+02  0.10566000000E+00 0.  1.
        994    1    1    2    0    0 -0.81633082618E+01 -0.74524547742E+01  0.17403913902E+01  0.17156528683E+03  0.17120000000E+03 0.  0.
        998    1    1    2    0    0 -0.77641781935E+00 -0.80000738605E+00  0.14436952856E+04  0.14437303490E+04  0.10000000000E+02 0.  1.
</event>
<event>
 5    1  0.1597799E-008  0.3857809E+03  0.7957747E-01  0.3426367E+00
         13   -1    0    0    0    0  0.00000000000E+00  0.00000000000E+00  0.14999999963E+04  0.15000000000E+04  0.10566000000E+00 0.  1.
        994   -1    0    0    0    0 -0.00000000000E+00 -0.00000000000E+00  0.11368683772E-12  0.17120000000E+03  0.17120000000E+03 0.  0.
         13    1    1    2    0    0 -0.10132707621E+02  0.11274864001E+01  0.43437018821E+02  0.44617583500E+02  0.10566000000E+00 0.  1.
        994    1    1    2    0    0  0.10063878385E+01 -0.72334949683E+01  0.14179170493E+01  0.17136156732E+03  0.17120000000E+03 0.  0.
        998    1    1    2    0    0  0.91263197830E+01  0.61060085681E+01  0.14551450604E+04  0.14552208492E+04  0.10000000000E+02 0.  1.
</event>
<event>
 5    1  0.1245771E-008  0.3696076E+03  0.7957747E-01  0.3497696E+00
         13   -1    0    0    0    0  0.00000000000E+00  0.00000000000E+00  0.14999999963E+04  0.15000000000E+04  0.10566000000E+00 0. -1.
        994   -1    0    0    0    0 -0.00000000000E+00 -0.00000000000E+00  0.11368683772E-12  0.17120000000E+03  0.17120000000E+03 0.  0.
         13    1    1    2    0    0  0.20264339352E+02 -0.46699318176E+02  0.11456560155E+03  0.12536649469E+03  0.10566000000E+00 0. -1.
        994    1    1    2    0    0 -0.13792389597E+02  0.34980424402E+02  0.15683713944E+02  0.17598090517E+03  0.17120000000E+03 0.  0.
        998    1    1    2    0    0 -0.64719497552E+01  0.11718893774E+02  0.13697506808E+04  0.13698526001E+04  0.10000000000E+02 0. -1.
</event>
<event>
 5    1  0.1245771E-008  0.3897282E+03  0.7957747E-01  0.3409864E+00
         13   -1    0    0    0    0  0.00000000000E+00  0.00000000000E+00  0.14999999963E+04  0.15000000000E+04  0.10566000000E+00 0.  1.
        994   -1    0    0    0    0 -0.00000000000E+00 -0.00000000000E+00  0.11368683772E-12  0.17120000000E+03  0.17120000000E+03 0.  0.
         13    1    1    2    0    0  0.12281396637E+03  0.15626191446E+02  0.41629410031E+03  0.43431352421E+03  0.10566000000E+00 0.  1.
        994    1    1    2    0    0 -0.39490115411E+02 -0.43752331040E+02  0.34951539615E+02  0.18440386603E+03  0.17120000000E+03 0.  0.
        998    1    1    2    0    0 -0.83323850963E+02  0.28126139594E+02  0.10487543564E+04  0.10524826098E+04  0.10000000000E+02 0.  1.
</event>
<event>
 5    1  0.1245771E-008  0.3842328E+03  0.7957747E-01  0.3432933E+00
         13   -1    0    0    0    0  0.00000000000E+00  0.00000000000E+00  0.14999999963E+04  0.15000000000E+04  0.10566000000E+00 0. -1.
        994   -1    0    0    0    0 -0.00000000000E+00 -0.00000000000E+00  0.11368683772E-12  0.17120000000E+03  0.17120000000E+03 0.  0.
         13    1    1    2    0    0  0.14415079216E+02 -0.60700820849E+01  0.57682831427E+02  0.59765881662E+02  0.10566000000E+00 0. -1.
        994    1    1    2    0    0 -0.17478260071E+02  0.74464267064E+01  0.32023919817E+01  0.17228068423E+03  0.17120000000E+03 0.  0.
        998    1    1    2    0    0  0.30631808559E+01 -0.13763446215E+01  0.14391147729E+04  0.14391534341E+04  0.10000000000E+02 0. -1.
</event>
<event>
 5    1  0.1245771E-008  0.3777315E+03  0.7957747E-01  0.3461096E+00
         13   -1    0    0    0    0  0.00000000000E+00  0.00000000000E+00  0.14999999963E+04  0.15000000000E+04  0.10566000000E+00 0. -1.
        994   -1    0    0    0    0 -0.00000000000E+00 -0.00000000000E+00  0.11368683772E-12  0.17120000000E+03  0.17120000000E+03 0.  0.
         13    1    1    2    0    0  0.11114594011E+02  0.36056364809E+02  0.40572980593E+02  0.55405537282E+02  0.10566000000E+00 0. -1.
        994    1    1    2    0    0 -0.10593900762E+02 -0.33140504096E+02  0.19449267259E+02  0.17577894567E+03  0.17120000000E+03 0.  0.
        998    1    1    2    0    0 -0.52069324890E+00 -0.29158607127E+01  0.14399777484E+04  0.14400155170E+04  0.10000000000E+02 0. -1.
</event>
<event>
 5    1  0.1245771E-008  0.3855536E+03  0.7957747E-01  0.3427328E+00
         13   -1    0    0    0    0  0.00000000000E+00  0.00000000000E+00  0.14999999963E+04  0.15000000000E+04  0.10566000000E+00 0. -1.
        994   -1    0    0    0    0 -0.00000000000E+00 -0.00000000000E+00  0.11368683772E-12  0.17120000000E+03  0.17120000000E+03 0.  0.
         13    1    1    2    0    0  0.79856111499E+01  0.89651651258E+01  0.53323867392E+02  0.54658852612E+02  0.10566000000E+00 0. -1.
        994    1    1    2    0    0 -0.13120088644E+02  0.25006492363E+00  0.19210283588E+01  0.17171292790E+03  0.17120000000E+03 0.  0.
        998    1    1    2    0    0  0.51344774945E+01 -0.92152300494E+01  0.14447551005E+04  0.14448282195E+04  0.10000000000E+02 0. -1.
</event>
<event>
 5    1  0.1245771E-008  0.3703788E+03  0.7957747E-01  0.3494152E+00
         13   -1    0    0    0    0  0.00000000000E+00  0.00000000000E+00  0.14999999963E+04  0.15000000000E+04  0.10566000000E+00 0.  1.
        994   -1    0    0    0    0 -0.00000000000E+00 -0.00000000000E+00  0.11368683772E-12  0.17120000000E+03  0.17120000000E+03 0.  0.
         13    1    1    2    0    0  0.20287623444E+02  0.66578468702E+01  0.21956499447E+02  0.30627008047E+02  0.10566000000E+00 0.  1.
        994    1    1    2    0    0 -0.40908464169E+00 -0.50045205520E+01  0.91582718095E+01  0.17151829791E+03  0.17120000000E+03 0.  0.
        998    1    1    2    0    0 -0.19878538802E+02 -0.16533263182E+01  0.14688852250E+04  0.14690546940E+04  0.10000000000E+02 0.  1.
</event>
<event>
 5    1  0.1245771E-008  0.3799206E+03  0.7957747E-01  0.3451504E+00
         13   -1    0    0    0    0  0.00000000000E+00  0.00000000000E+00  0.14999999963E+04  0.15000000000E+04  0.10566000000E+00 0.  1.
        994   -1    0    0    0    0 -0.00000000000E+00 -0.00000000000E+00  0.11368683772E-12  0.17120000000E+03  0.17120000000E+03 0.  0.
         13    1    1    2    0    0 -0.19027308115E+02 -0.13728266528E+02  0.65409684434E+02  0.69490587404E+02  0.10566000000E+00 0.  1.
        994    1    1    2    0    0  0.11873496043E+02  0.30227014009E+01  0.46753647438E+01  0.17170153077E+03  0.17120000000E+03 0.  0.
        998    1    1    2    0    0  0.71538120718E+01  0.10705565127E+02  0.14299149471E+04  0.14300078818E+04  0.10000000000E+02 0.  1.
</event>
<event>
 5    1  0.1245771E-008  0.3823751E+03  0.7957747E-01  0.3440882E+00
         13   -1    0    0    0    0  0.00000000000E+00  0.00000000000E+00  0.14999999963E+04  0.15000000000E+04  0.10566000000E+00 0. -1.
        994   -1    0    0    0    0 -0.00000000000E+00 -0.00000000000E+00  0.11368683772E-12  0.17120000000E+03  0.17120000000E+03 0.  0.
         13    1    1    2    0    0 -0.18628046393E+02  0.50771723775E+01  0.67203401659E+02  0.69922029078E+02  0.10566000000E+00 0. -1.
        994    1    1    2    0    0 -0.70157593819E+00  0.57298698569E+01  0.30495266378E+01  0.17132443851E+03  0.17120000000E+03 0.  0.
        998    1    1    2    0    0  0.19329622331E+02 -0.10807042234E+02  0.14297470680E+04  0.14299535324E+04  0.10000000000E+02 0. -1.
</event>
<event>
 5    1  0.1245771E-008  0.3849989E+03  0.7957747E-01  0.3429677E+00
         13   -1    0    0    0    0  0.00000000000E+00  0.00000000000E+00  0.14999999963E+04  0.15000000000E+04  0.10566000000E+00 0. -1.
        994   -1    0    0    0    0 -0.00000000000E+00 -0.00000000000E+00  0.11368683772E-12  0.17120000000E+03  0.17120000000E+03 0.  0.
         13    1    1    2    0    0  0.84667186033E+01  0.94668232675E+01  0.48819634643E+02  0.50444761446E+02  0.10566000000E+00 0. -1.
        994    1    1    2    0    0 -0.84758922937E+01 -0.67033564792E+01  0.20148035997E+01  0.17155254347E+03  0.17120000000E+03 0.  0.
        998    1    1    2    0    0  0.91736904514E-02 -0.27634667883E+01  0.14491655580E+04  0.14492026951E+04  0.10000000000E+02 0. -1.
</event>
<event>
 5    1  0.1245771E-008  0.3838192E+03  0.7957747E-01  0.3434696E+00
         13   -1    0    0    0    0  0.00000000000E+00  0.00000000000E+00  0.14999999963E+04  0.15000000000E+04  0.10566000000E+00 0.  1.
        994   -1    0    0    0    0 -0.00000000000E+00 -0.00000000000E+00  0.11368683772E-12  0.17120000000E+03  0.17120000000E+03 0.  0.
         13    1    1    2    0    0 -0.13632977314E+02 -0.91606572882E+01  0.60690040810E+02  0.62873427853E+02  0.10566000000E+00 0.  1.
        994    1    1    2    0    0  0.99594364485E+01  0.24170018245E+01  0.25643545984E+01  0.17152564877E+03  0.17120000000E+03 0.  0.
        998    1    1    2    0    0  0.36735408657E+01  0.67436554637E+01  0.14367456009E+04  0.14368009234E+04  0.10000000000E+02 0.  1.
</event>
<event>
 5    1  0.1245771E-008  0.3838701E+03  0.7957747E-01  0.3434478E+00
         13   -1    0    0    0    0  0.00000000000E+00  0.00000000000E+00  0.14999999963E+04  0.15000000000E+04  0.10566000000E+00 0. -1.
        994   -1    0    0    0    0 -0.00000000000E+00 -0.00000000000E+00  0.11368683772E-12  0.17120000000E+03  0.17120000000E+03 0.  0.
         13    1    1    2    0    0  0.69672204532E+01 -0.82599418748E+01  0.27192224778E+02  0.29260845050E+02  0.10566000000E+00 0. -1.
        994    1    1    2    0    0  0.11051403243E+00 -0.62675575435E+01  0.23218656008E+01  0.17133045716E+03  0.17120000000E+03 0.  0.
        998    1    1    2    0    0 -0.70777344857E+01  0.14527499418E+02  0.14704859059E+04  0.14706086978E+04  0.10000000000E+02 0. -1.
</event>
<event>
 5    1  0.1245771E-008  0.3842324E+03  0.7957747E-01  0.3432934E+00
         13   -1    0    0    0    0  0.00000000000E+00  0.00000000000E+00  0.14999999963E+04  0.15000000000E+04  0.10566000000E+00 0. -1.
        994   -1    0    0    0    0 -0.00000000000E+00 -0.00000000000E+00  0.11368683772E-12  0.17120000000E+03  0.17120000000E+03 0.  0.
         13    1    1    2    0    0 -0.11067835603E+02 -0.57220515476E+01  0.38088843783E+02  0.40075055129E+02  0.10566000000E+00 0. -1.
        994    1    1    2    0    0  0.65780682592E+01  0.61881183871E+01  0.22806576201E+01  0.17145321575E+03  0.17120000000E+03 0.  0.
        998    1    1    2    0    0  0.44897673439E+01 -0.46606683945E+00  0.14596304949E+04  0.14596717291E+04  0.10000000000E+02 0. -1.
</event>
<event>
 5    1  0.1245771E-008  0.3793875E+03  0.7957747E-01  0.3453830E+00
         13   -1    0    0    0    0  0.00000000000E+00  0.00000000000E+00  0.14999999963E+04  0.15000000000E+04  0.10566000000E+00 0.  1.
        994   -1    0    0    0    0 -0.00000000000E+00 -0.00000000000E+00  0.11368683772E-12  0.17120000000E+03  0.17120000000E+03 0.  0.
         13    1    1    2    0    0  0.14125765152E+02 -0.86181044093E+01  0.36485580240E+02  0.40062672081E+02  0.10566000000E+00 0.  1.
        994    1    1    2    0    0  0.67569402413E+02 -0.34389918013E+01  0.19931550140E+02  0.18515981610E+03  0.17120000000E+03 0.  0.
        998    1    1    2    0    0 -0.81695167565E+02  0.12057096211E+02  0.14435828659E+04  0.14459775118E+04  0.10000000000E+02 0.  1.
</event>
<event>
 5    1  0.1245771E-008  0.3733603E+03  0.7957747E-01  0.3480589E+00
         13   -1    0    0    0    0  0.00000000000E+00  0.00000000000E+00  0.14999999963E+04  0.15000000000E+04  0.10566000000E+00 0.  1.
        994   -1    0    0    0    0 -0.00000000000E+00 -0.00000000000E+00  0.11368683772E-12  0.17120000000E+03  0.17120000000E+03 0.  0.
         13    1    1    2    0    0 -0.29603044183E+02 -0.30713686134E+02  0.11214200320E+03  0.11998129348E+03  0.10566000000E+00 0.  1.
        994    1    1    2    0    0  0.29430321739E+02  0.25259962656E+02  0.12682171610E+02  0.17599570173E+03  0.17120000000E+03 0.  0.
        998    1    1    2    0    0  0.17272244373E+00  0.54537234781E+01  0.13751758215E+04  0.13752230048E+04  0.10000000000E+02 0.  1.
</event>
<event>
 5    1  0.1245771E-008  0.3847842E+03  0.7957747E-01  0.3430588E+00
         13   -1    0    0    0    0  0.00000000000E+00  0.00000000000E+00  0.14999999963E+04  0.15000000000E+04  0.10566000000E+00 0.  1.
        994   -1    0    0    0    0 -0.00000000000E+00 -0.00000000000E+00  0.11368683772E-12  0.17120000000E+03  0.17120000000E+03 0.  0.
         13    1    1    2    0    0  0.28780724470E+01  0.14338839190E+02  0.59273403743E+02  0.61051070143E+02  0.10566000000E+00 0.  1.
        994    1    1    2    0    0 -0.99858444105E+01 -0.14182558751E+02  0.27280733598E+01  0.17209806636E+03  0.17120000000E+03 0.  0.
        998    1    1    2    0    0  0.71077719635E+01 -0.15628043914E+00  0.14379985192E+04  0.14380508635E+04  0.10000000000E+02 0.  1.
</event>
<event>
 5    1  0.1245771E-008  0.3789755E+03  0.7957747E-01  0.3455632E+00
         13   -1    0    0    0    0  0.00000000000E+00  0.00000000000E+00  0.14999999963E+04  0.15000000000E+04  0.10566000000E+00 0.  1.
        994   -1    0    0    0    0 -0.00000000000E+00 -0.00000000000E+00  0.11368683772E-12  0.17120000000E+03  0.17120000000E+03 0.  0.
         13    1    1    2    0    0  0.52376322592E+01 -0.52382245324E+02  0.19978757660E+03  0.20660691989E+03  0.10566000000E+00 0.  1.
        994    1    1    2    0    0  0.18431354949E+01  0.90375470141E+02  0.32566780266E+02  0.19631902080E+03  0.17120000000E+03 0.  0.
        998    1    1    2    0    0 -0.70807677542E+01 -0.37993224817E+02  0.12676456394E+04  0.12682740593E+04  0.10000000000E+02 0.  1.
</event>
<event>
 5    1  0.1245771E-008  0.3843596E+03  0.7957747E-01  0.3432393E+00
         13   -1    0    0    0    0  0.00000000000E+00  0.00000000000E+00  0.14999999963E+04  0.15000000000E+04  0.10566000000E+00 0. -1.
        994   -1    0    0    0    0 -0.00000000000E+00 -0.00000000000E+00  0.11368683772E-12  0.17120000000E+03  0.17120000000E+03 0.  0.
         13    1    1    2    0    0 -0.10290893225E+02  0.11371408584E+02  0.57602908586E+02  0.59609711107E+02  0.10566000000E+00 0. -1.
        994    1    1    2    0    0  0.92526960737E+01 -0.15551424637E+02  0.30283208616E+01  0.17218034127E+03  0.17120000000E+03 0.  0.
        998    1    1    2    0    0  0.10381971516E+01  0.41800160531E+01  0.14393687668E+04  0.14394099476E+04  0.10000000000E+02 0. -1.
</event>
<event>
 5    1  0.1245771E-008  0.3858702E+03  0.7957747E-01  0.3425990E+00
         13   -1    0    0    0    0  0.00000000000E+00  0.00000000000E+00  0.14999999963E+04  0.15000000000E+04  0.10566000000E+00 0. -1.
        994   -1    0    0    0    0 -0.00000000000E+00 -0.00000000000E+00  0.11368683772E-12  0.17120000000E+03  0.17120000000E+03 0.  0.
         13    1    1    2    0    0  0.23630758654E+00 -0.14147550349E+02  0.76859801169E+02  0.78151450543E+02  0.10566000000E+00 0. -1.
        994    1    1    2    0    0  0.65303034259E+01  0.21249708693E+02  0.28210637845E+01  0.17266034108E+03  0.17120000000E+03 0.  0.
        998    1    1    2    0    0 -0.67666110125E+01 -0.71021583434E+01  0.14203191313E+04  0.14203882084E+04  0.10000000000E+02 0. -1.
</event>
<event>
 5    1  0.1245771E-008  0.3841026E+03  0.7957747E-01  0.3433487E+00
         13   -1    0    0    0    0  0.00000000000E+00  0.00000000000E+00  0.14999999963E+04  0.15000000000E+04  0.10566000000E+00 0. -1.
        994   -1    0    0    0    0 -0.00000000000E+00 -0.00000000000E+00  0.11368683772E-12  0.17120000000E+03  0.17120000000E+03 0.  0.
         13    1    1    2    0    0 -0.10835006265E+02 -0.12362589139E+02  0.59088085729E+02  0.61332242826E+02  0.10566000000E+00 0. -1.
        994    1    1    2    0    0  0.21403351246E+02  0.18058642681E+02  0.46671498284E+01  0.17353800825E+03  0.17120000000E+03 0.  0.
        998    1    1    2    0    0 -0.10568344981E+02 -0.56960535424E+01  0.14362447607E+04  0.14363297489E+04  0.10000000000E+02 0. -1.
</event>
<event>
 5    1  0.1245771E-008  0.3823863E+03  0.7957747E-01  0.3440833E+00
         13   -1    0    0    0    0  0.00000000000E+00  0.00000000000E+00  0.14999999963E+04  0.15000000000E+04  0.10566000000E+00 0.  1.
        994   -1    0    0    0    0 -0.00000000000E+00 -0.00000000000E+00  0.11368683772E-12  0.17120000000E+03  0.17120000000E+03 0.  0.
         13    1    1    2    0    0  0.80114353111E+01 -0.82680464329E+01  0.21655705356E+02  0.24525994905E+02  0.10566000000E+00 0.  1.
        994    1    1    2    0    0 -0.53834999452E+01  0.20697206592E+01  0.30437040515E+01  0.17132416627E+03  0.17120000000E+03 0.  0.
        998    1    1    2    0    0 -0.26279353660E+01  0.61983257737E+01  0.14753005869E+04  0.14753498388E+04  0.10000000000E+02 0.  1.
</event>
<event>
 5    1  0.1245771E-008  0.3851295E+03  0.7957747E-01  0.3429123E+00
         13   -1    0    0    0    0  0.00000000000E+00  0.00000000000E+00  0.14999999963E+04  0.15000000000E+04  0.10566000000E+00 0. -1.
        994   -1    0    0    0    0 -0.00000000000E+00 -0.00000000000E+00  0.11368683772E-12  0.17120000000E+03  0.17120000000E+03 0.  0.
         13    1    1    2    0    0  0.84939511818E+01  0.45306238803E+02  0.52630251778E+02  0.69962540316E+02  0.10566000000E+00 0. -1.
        994    1    1    2    0    0 -0.18207997586E+02  0.34759355966E+01  0.20443898108E+02  0.17340993707E+03  0.17120000000E+03 0.  0.
        998    1    1    2    0    0  0.97140464046E+01 -0.48782174399E+02  0.14269258464E+04  0.14278275226E+04  0.10000000000E+02 0. -1.
</event>
<event>
 5    1  0.1245771E-008  0.3803510E+03  0.7957747E-01  0.3449632E+00
         13   -1    0    0    0    0  0.00000000000E+00  0.00000000000E+00  0.14999999963E+04  0.15000000000E+04  0.10566000000E+00 0. -1.
        994   -1    0    0    0    0 -0.00000000000E+00 -0.00000000000E+00  0.11368683772E-12  0.17120000000E+03  0.17120000000E+03 0.  0.
         13    1    1    2    0    0 -0.91490301728E+01 -0.97503618633E+01  0.21860762754E+02  0.25625737488E+02  0.10566000000E+00 0. -1.
        994    1    1    2    0    0 -0.65602363825E+01 -0.15522756515E+01  0.41078402668E+01  0.17138191449E+03  0.17120000000E+03 0.  0.
        998    1    1    2    0    0  0.15709266555E+02  0.11302637515E+02  0.14740313933E+04  0.14741923480E+04  0.10000000000E+02 0. -1.
</event>
<event>
 5    1  0.1245771E-008  0.3810790E+03  0.7957747E-01  0.3446474E+00
         13   -1    0    0    0    0  0.00000000000E+00  0.00000000000E+00  0.14999999963E+04  0.15000000000E+04  0.10566000000E+00 0. -1.
        994   -1    0    0    0    0 -0.00000000000E+00 -0.00000000000E+00  0.11368683772E-12  0.17120000000E+03  0.17120000000E+03 0.  0.
         13    1    1    2    0    0 -0.16570763934E+02 -0.30429099914E+01  0.38493488092E+02  0.42019154062E+02  0.10566000000E+00 0. -1.
        994    1    1    2    0    0  0.85039712701E+01  0.42949073668E+01  0.38918619031E+01  0.17150903867E+03  0.17120000000E+03 0.  0.
        998    1    1    2    0    0  0.80667926639E+01 -0.12519973753E+01  0.14576146463E+04  0.14576718073E+04  0.10000000000E+02 0. -1.
</event>
<event>
 5    1  0.1245771E-008  0.3786273E+03  0.7957747E-01  0.3457158E+00
         13   -1    0    0    0    0  0.00000000000E+00  0.00000000000E+00  0.14999999963E+04  0.15000000000E+04  0.10566000000E+00 0. -1.
        994   -1    0    0    0    0 -0.00000000000E+00 -0.00000000000E+00  0.11368683772E-12  0.17120000000E+03  0.17120000000E+03 0.  0.
         13    1    1    2    0    0  0.39193409548E+02 -0.10764096718E+03  0.50288678216E+03  0.51576916154E+03  0.10566000000E+00 0. -1.
        994    1    1    2    0    0  0.58401142706E+02  0.77461348214E+02  0.50342794351E+02  0.20311275410E+03  0.17120000000E+03 0.  0.
        998    1    1    2    0    0 -0.97594552255E+02  0.30179618968E+02  0.94677041977E+03  0.95231808435E+03  0.10000000000E+02 0. -1.
</event>
<event>
 5    1  0.1245771E-008  0.3849862E+03  0.7957747E-01  0.3429731E+00
         13   -1    0    0    0    0  0.00000000000E+00  0.00000000000E+00  0.14999999963E+04  0.15000000000E+04  0.10566000000E+00 0. -1.
        994   -1    0    0    0    0 -0.00000000000E+00 -0.00000000000E+00  0.11368683772E-12  0.17120000000E+03  0.17120000000E+03 0.  0.
         13    1    1    2    0    0 -0.97083041788E+01 -0.16379448488E+02  0.10771143751E+03  0.10938145381E+03  0.10566000000E+00 0. -1.
        994    1    1    2    0    0  0.87836268869E+01  0.12844212597E+02  0.24337060225E+01  0.17192291535E+03  0.17120000000E+03 0.  0.
        998    1    1    2    0    0  0.92467729188E+00  0.35352358908E+01  0.13898548527E+04  0.13898956308E+04  0.10000000000E+02 0. -1.
</event>
<event>
 5    1  0.1245771E-008  0.3714006E+03  0.7957747E-01  0.3489479E+00
         13   -1    0    0    0    0  0.00000000000E+00  0.00000000000E+00  0.14999999963E+04  0.15000000000E+04  0.10566000000E+00 0.  1.
        994   -1    0    0    0    0 -0.00000000000E+00 -0.00000000000E+00  0.11368683772E-12  0.17120000000E+03  0.17120000000E+03 0.  0.
         13    1    1    2    0    0  0.26388046610E+02  0.33257652417E+02  0.98590656497E+02  0.10734304431E+03  0.10566000000E+00 0.  1.
        994    1    1    2    0    0 -0.11257257093E+02 -0.37885659525E+02  0.13933051515E+02  0.17625441543E+03  0.17120000000E+03 0.  0.
        998    1    1    2    0    0 -0.15130789517E+02  0.46280071083E+01  0.13874762883E+04  0.13876025403E+04  0.10000000000E+02 0.  1.
</event>
<event>
 5    1  0.1245771E-008  0.3837918E+03  0.7957747E-01  0.3434813E+00
         13   -1    0    0    0    0  0.00000000000E+00  0.00000000000E+00  0.14999999963E+04  0.15000000000E+04  0.10566000000E+00 0. -1.
        994   -1    0    0    0    0 -0.00000000000E+00 -0.00000000000E+00  0.11368683772E-12  0.17120000000E+03  0.17120000000E+03 0.  0.
         13    1    1    2    0    0 -0.38796622762E+02  0.52951252878E+01  0.33961095629E+02  0.51832262828E+02  0.10566000000E+00 0. -1.
        994    1    1    2    0    0  0.34942539110E+02 -0.57762018788E+01  0.23048888867E+02  0.17633784853E+03  0.17120000000E+03 0.  0.
        998    1    1    2    0    0  0.38540836520E+01  0.48107659099E+00  0.14429900118E+04  0.14430298886E+04  0.10000000000E+02 0. -1.
</event>
<event>
 5    1  0.1245771E-008  0.3826201E+03  0.7957747E-01  0.3439829E+00
         13   -1    0    0    0    0  0.00000000000E+00  0.00000000000E+00  0.14999999963E+04  0.15000000000E+04  0.10566000000E+00 0.  1.
        994   -1    0    0    0    0 -0.00000000000E+00 -0.00000000000E+00  0.11368683772E-12  0.17120000000E+03  0.17120000000E+03 0.  0.
         13    1    1    2    0    0 -0.24850674739E+02 -0.20134772756E+02  0.15635182352E+03  0.15958968949E+03  0.10566000000E+00 0.  1.
        994    1    1    2    0    0  0.22642090147E+02  0.33019479232E+02  0.81471366091E+01  0.17600785803E+03  0.17120000000E+03 0.  0.
        998    1    1    2    0    0  0.22085845922E+01 -0.12884706476E+02  0.13355010362E+04  0.13356024525E+04  0.10000000000E+02 0.  1.
</event>
<event>
 5    1  0.1245771E-008  0.3823349E+03  0.7957747E-01  0.3441055E+00
         13   -1    0    0    0    0  0.00000000000E+00  0.00000000000E+00  0.14999999963E+04  0.15000000000E+04  0.10566000000E+00 0.  1.
        994   -1    0    0    0    0 -0.00000000000E+00 -0.00000000000E+00  0.11368683772E-12  0.17120000000E+03  0.17120000000E+03 0.  0.
         13    1    1    2    0    0 -0.30515308466E+02  0.27457659773E+02  0.39089363820E+02  0.56684183499E+02  0.10566000000E+00 0.  1.
        994    1    1    2    0    0  0.56157064862E+02 -0.11288282524E+02  0.29706989776E+02  0.18295624203E+03  0.17120000000E+03 0.  0.
        998    1    1    2    0    0 -0.25641756395E+02 -0.16169377250E+02  0.14312036427E+04  0.14315595745E+04  0.10000000000E+02 0.  1.
</event>
<event>
 5    1  0.1245771E-008  0.3832478E+03  0.7957747E-01  0.3437138E+00
         13   -1    0    0    0    0  0.00000000000E+00  0.00000000000E+00  0.14999999963E+04  0.15000000000E+04  0.10566000000E+00 0. -1.
        994   -1    0    0    0    0 -0.00000000000E+00 -0.00000000000E+00  0.11368683772E-12  0.17120000000E+03  0.17120000000E+03 0.  0.
         13    1    1    2    0    0  0.16997468226E+02 -0.77936454802E+00  0.43825010476E+02  0.47012381799E+02  0.10566000000E+00 0. -1.
        994    1    1    2    0    0 -0.76181340759E+02 -0.45274677395E+02  0.28925809516E+02  0.19493469560E+03  0.17120000000E+03 0.  0.
        998    1    1    2    0    0  0.59183872533E+02  0.46054041943E+02  0.14272491763E+04  0.14292529226E+04  0.10000000000E+02 0. -1.
</event>
<event>
 5    1  0.1245771E-008  0.3828169E+03  0.7957747E-01  0.3438984E+00
         13   -1    0    0    0    0  0.00000000000E+00  0.00000000000E+00  0.14999999963E+04  0.15000000000E+04  0.10566000000E+00 0.  1.
        994   -1    0    0    0    0 -0.00000000000E+00 -0.00000000000E+00  0.11368683772E-12  0.17120000000E+03  0.17120000000E+03 0.  0.
         13    1    1    2    0    0  0.29889582409E+02 -0.48165550069E+01  0.16024654028E+03  0.16308142498E+03  0.10566000000E+00 0.  1.
        994    1    1    2    0    0 -0.23457122765E+02  0.38178270070E+01  0.45908526929E+01  0.17290265568E+03  0.17120000000E+03 0.  0.
        998    1    1    2    0    0 -0.64324596444E+01  0.99872799986E+00  0.13351626033E+04  0.13352159193E+04  0.10000000000E+02 0.  0.
</event>
<event>
 5    1  0.1245771E-008  0.3774698E+03  0.7957747E-01  0.3462250E+00
         13   -1    0    0    0    0  0.00000000000E+00  0.00000000000E+00  0.14999999963E+04  0.15000000000E+04  0.10566000000E+00 0. -1.
        994   -1    0    0    0    0 -0.00000000000E+00 -0.00000000000E+00  0.11368683772E-12  0.17120000000E+03  0.17120000000E+03 0.  0.
         13    1    1    2    0    0 -0.96703467635E+01 -0.22546212615E+02  0.53527120771E+02  0.58881330928E+02  0.10566000000E+00 0. -1.
        994    1    1    2    0    0 -0.18346155522E+01  0.17915854023E+02  0.65100436949E+01  0.17226771116E+03  0.17120000000E+03 0.  0.
        998    1    1    2    0    0  0.11504962316E+02  0.46303585926E+01  0.14399628318E+04  0.14400509579E+04  0.10000000000E+02 0. -1.
</event>
<event>
 5    1  0.1245771E-008  0.3704720E+03  0.7957747E-01  0.3493725E+00
         13   -1    0    0    0    0  0.00000000000E+00  0.00000000000E+00  0.14999999963E+04  0.15000000000E+04  0.10566000000E+00 0.  1.
        994   -1    0    0    0    0 -0.00000000000E+00 -0.00000000000E+00  0.11368683772E-12  0.17120000000E+03  0.17120000000E+03 0.  0.
         13    1    1    2    0    0  0.55402090210E+01  0.21594690745E+02  0.17388648255E+02  0.28273677450E+02  0.10566000000E+00 0.  1.
        994    1    1    2    0    0  0.25300254934E+01 -0.18231549259E+02  0.12375823135E+02  0.17263079510E+03  0.17120000000E+03 0.  0.
        998    1    1    2    0    0 -0.80702345143E+01 -0.33631414862E+01  0.14702355249E+04  0.14702955275E+04  0.10000000000E+02 0.  1.
</event>
<event>
 5    1  0.1325647E-008  0.3857694E+03  0.7957747E-01  0.3426416E+00
         13   -1    0    0    0    0  0.00000000000E+00  0.00000000000E+00  0.14999999963E+04  0.15000000000E+04  0.10566000000E+00 0.  1.
        994   -1    0    0    0    0 -0.00000000000E+00 -0.00000000000E+00  0.11368683772E-12  0.17120000000E+03  0.17120000000E+03 0.  0.
         13    1    1    2    0    0 -0.63854929690E+01 -0.96834168191E+01  0.54871071245E+02  0.56083765078E+02  0.10566000000E+00 0.  1.
        994    1    1    2    0    0  0.71431963449E+01  0.28101912176E+01  0.14419493107E+01  0.17137806641E+03  0.17120000000E+03 0.  0.
        998    1    1    2    0    0 -0.75770337594E+00  0.68732256014E+01  0.14436869757E+04  0.14437381685E+04  0.10000000000E+02 0.  1.
</event>
<event>
 5    1  0.1245771E-008  0.3857640E+03  0.7957747E-01  0.3426438E+00
         13   -1    0    0    0    0  0.00000000000E+00  0.00000000000E+00  0.14999999963E+04  0.15000000000E+04  0.10566000000E+00 0. -1.
        994   -1    0    0    0    0 -0.00000000000E+00 -0.00000000000E+00  0.11368683772E-12  0.17120000000E+03  0.17120000000E+03 0.  0.
         13    1    1    2    0    0 -0.42407157767E+01  0.11729905425E+02  0.68478258618E+02  0.69605010014E+02  0.10566000000E+00 0. -1.
        994    1    1    2    0    0  0.71282131478E+01  0.61638687003E+01  0.15426790987E+01  0.17146610324E+03  0.17120000000E+03 0.  0.
        998    1    1    2    0    0 -0.28874973711E+01 -0.17893774125E+02  0.14299790586E+04  0.14301288868E+04  0.10000000000E+02 0. -1.
</event>
<event>
 5    1  0.1245771E-008  0.3777552E+03  0.7957747E-01  0.3460992E+00
         13   -1    0    0    0    0  0.00000000000E+00  0.00000000000E+00  0.14999999963E+04  0.15000000000E+04  0.10566000000E+00 0.  1.
        994   -1    0    0    0    0 -0.00000000000E+00 -0.00000000000E+00  0.11368683772E-12  0.17120000000E+03  0.17120000000E+03 0.  0.
         13    1    1    2    0    0  0.83113823867E+01 -0.11918883463E+02  0.17677586014E+02  0.22883336110E+02  0.10566000000E+00 0.  1.
        994    1    1    2    0    0 -0.10304106941E+02  0.77431787921E+01  0.58303401660E+01  0.17178348088E+03  0.17120000000E+03 0.  0.
        998    1    1    2    0    0  0.19927245539E+01  0.41757046704E+01  0.14764920701E+04  0.14765331830E+04  0.10000000000E+02 0.  1.
</event>
<event>
 5    1  0.1245771E-008  0.3845320E+03  0.7957747E-01  0.3431659E+00
         13   -1    0    0    0    0  0.00000000000E+00  0.00000000000E+00  0.14999999963E+04  0.15000000000E+04  0.10566000000E+00 0. -1.
        994   -1    0    0    0    0 -0.00000000000E+00 -0.00000000000E+00  0.11368683772E-12  0.17120000000E+03  0.17120000000E+03 0.  0.
         13    1    1    2    0    0  0.14870564800E+02 -0.12727833236E+02  0.10705266212E+03  0.10882745548E+03  0.10566000000E+00 0. -1.
        994    1    1    2    0    0 -0.67387590680E+01  0.27388219360E+01  0.20369431567E+01  0.17136656954E+03  0.17120000000E+03 0.  0.
        998    1    1    2    0    0 -0.81318057324E+01  0.99890112995E+01  0.13909103910E+04  0.13910059750E+04  0.10000000000E+02 0. -1.
</event>
<event>
 5    1  0.1245771E-008  0.3803828E+03  0.7957747E-01  0.3449493E+00
         13   -1    0    0    0    0  0.00000000000E+00  0.00000000000E+00  0.14999999963E+04  0.15000000000E+04  0.10566000000E+00 0. -1.
        994   -1    0    0    0    0 -0.00000000000E+00 -0.00000000000E+00  0.11368683772E-12  0.17120000000E+03  0.17120000000E+03 0.  0.
         13    1    1    2    0    0 -0.95821448129E+01 -0.24753696484E+02  0.90310441688E+02  0.94130494691E+02  0.10566000000E+00 0. -1.
        994    1    1    2    0    0  0.81681307658E+01  0.89644467832E+01  0.44312512467E+01  0.17168621277E+03  0.17120000000E+03 0.  0.
        998    1    1    2    0    0  0.14140140471E+01  0.15789249701E+02  0.14052583033E+04  0.14053832925E+04  0.10000000000E+02 0. -1.
</event>
<event>
 5    1  0.1245771E-008  0.3806951E+03  0.7957747E-01  0.3448137E+00
         13   -1    0    0    0    0  0.00000000000E+00  0.00000000000E+00  0.14999999963E+04  0.15000000000E+04  0.10566000000E+00 0. -1.
        994   -1    0    0    0    0 -0.00000000000E+00 -0.00000000000E+00  0.11368683772E-12  0.17120000000E+03  0.17120000000E+03 0.  0.
         13    1    1    2    0    0  0.62696061400E+01 -0.16644310197E+02  0.40759956550E+02  0.44471634162E+02  0.10566000000E+00 0. -1.
        994    1    1    2    0    0  0.11673436719E+02  0.14406812089E+02  0.49302566598E+01  0.17227179917E+03  0.17120000000E+03 0.  0.
        998    1    1    2    0    0 -0.17943042859E+02  0.22374981088E+01  0.14543097831E+04  0.14544565667E+04  0.10000000000E+02 0. -1.
</event>
<event>
 5    1  0.1245771E-008  0.3826400E+03  0.7957747E-01  0.3439743E+00
         13   -1    0    0    0    0  0.00000000000E+00  0.00000000000E+00  0.14999999963E+04  0.15000000000E+04  0.10566000000E+00 0.  1.
        994   -1    0    0    0    0 -0.00000000000E+00 -0.00000000000E+00  0.11368683772E-12  0.17120000000E+03  0.17120000000E+03 0.  0.
         13    1    1    2    0    0 -0.20934362300E+02  0.34323921030E+02  0.23010196505E+03  0.23358789472E+03  0.10566000000E+00 0.  1.
        994    1    1    2    0    0  0.86514532759E+01 -0.50955856913E+02  0.11710255255E+02  0.17921472338E+03  0.17120000000E+03 0.  0.
        998    1    1    2    0    0  0.12282909024E+02  0.16631935883E+02  0.12581877760E+04  0.12583973819E+04  0.10000000000E+02 0.  1.
</event>
<event>
 5    1  0.1245771E-008  0.3828614E+03  0.7957747E-01  0.3438793E+00
         13   -1    0    0    0    0  0.00000000000E+00  0.00000000000E+00  0.14999999963E+04  0.15000000000E+04  0.10566000000E+00 0. -1.
        994   -1    0    0    0    0 -0.00000000000E+00 -0.00000000000E+00  0.11368683772E-12  0.17120000000E+03  0.17120000000E+03 0.  0.
         13    1    1    2    0    0 -0.21861983184E+02  0.17240534901E+02  0.12770213743E+03  0.13070206356E+03  0.10566000000E+00 0. -1.
        994    1    1    2    0    0  0.27682742689E+02 -0.18337090837E+02  0.63555761891E+01  0.17450620760E+03  0.17120000000E+03 0.  0.
        998    1    1    2    0    0 -0.58207595050E+01  0.10965559358E+01  0.13659422827E+04  0.13659917288E+04  0.10000000000E+02 0. -1.
</event>
<event>
 5    1  0.1245771E-008  0.3844183E+03  0.7957747E-01  0.3432143E+00
         13   -1    0    0    0    0  0.00000000000E+00  0.00000000000E+00  0.14999999963E+04  0.15000000000E+04  0.10566000000E+00 0. -1.
        994   -1    0    0    0    0 -0.00000000000E+00 -0.00000000000E+00  0.11368683772E-12  0.17120000000E+03  0.17120000000E+03 0.  0.
         13    1    1    2    0    0 -0.12124756667E+02 -0.14313616698E+01  0.40224200347E+02  0.42036364948E+02  0.10566000000E+00 0. -1.
        994    1    1    2    0    0 -0.21665411035E+01  0.76026496834E+01  0.21251767043E+01  0.17139559667E+03  0.17120000000E+03 0.  0.
        998    1    1    2    0    0  0.14291297770E+02 -0.61712880136E+01  0.14576506192E+04  0.14577680384E+04  0.10000000000E+02 0. -1.
</event>
<event>
 5    1  0.1245771E-008  0.3856544E+03  0.7957747E-01  0.3426902E+00
         13   -1    0    0    0    0  0.00000000000E+00  0.00000000000E+00  0.14999999963E+04  0.15000000000E+04  0.10566000000E+00 0.  1.
        994   -1    0    0    0    0 -0.00000000000E+00 -0.00000000000E+00  0.11368683772E-12  0.17120000000E+03  0.17120000000E+03 0.  0.
         13    1    1    2    0    0  0.55118509014E+01 -0.11602709585E+02  0.61699628440E+02  0.63022683882E+02  0.10566000000E+00 0.  1.
        994    1    1    2    0    0 -0.11330860848E+02  0.91233169070E+01  0.20003815748E+01  0.17182859147E+03  0.17120000000E+03 0.  0.
        998    1    1    2    0    0  0.58190099463E+01  0.24793926783E+01  0.14362999863E+04  0.14363487247E+04  0.10000000000E+02 0.  1.
</event>
<event>
 5    1  0.1245771E-008  0.3781159E+03  0.7957747E-01  0.3459404E+00
         13   -1    0    0    0    0  0.00000000000E+00  0.00000000000E+00  0.14999999963E+04  0.15000000000E+04  0.10566000000E+00 0.  1.
        994   -1    0    0    0    0 -0.00000000000E+00 -0.00000000000E+00  0.11368683772E-12  0.17120000000E+03  0.17120000000E+03 0.  0.
         13    1    1    2    0    0 -0.50001122576E+02  0.12103607672E+03  0.46729392229E+03  0.48529729558E+03  0.10566000000E+00 0.  1.
        994    1    1    2    0    0  0.45500479377E+02 -0.90911511349E+02  0.53499995735E+02  0.20617198176E+03  0.17120000000E+03 0.  0.
        998    1    1    2    0    0  0.45006431993E+01 -0.30124565372E+02  0.97920607825E+03  0.97973072266E+03  0.10000000000E+02 0.  1.
</event>
<event>
 5    1  0.1245771E-008  0.3453974E+03  0.7957747E-01  0.3617210E+00
         13   -1    0    0    0    0  0.00000000000E+00  0.00000000000E+00  0.14999999963E+04  0.15000000000E+04  0.10566000000E+00 0.  1.
        994   -1    0    0    0    0 -0.00000000000E+00 -0.00000000000E+00  0.11368683772E-12  0.17120000000E+03  0.17120000000E+03 0.  0.
         13    1    1    2    0    0  0.20207634454E+03 -0.61569981036E+02  0.11372515643E+04  0.11567051669E+04  0.10566000000E+00 0.  1.
        994    1    1    2    0    0 -0.13528967469E+03  0.24994113323E+02  0.10105258306E+03  0.24176241710E+03  0.17120000000E+03 0.  0.
        998    1    1    2    0    0 -0.66786669852E+02  0.36575867713E+02  0.26169584894E+03  0.27273241597E+03  0.10000000000E+02 0. -1.
</event>
<event>
 5    1  0.1245771E-008  0.3824682E+03  0.7957747E-01  0.3440481E+00
         13   -1    0    0    0    0  0.00000000000E+00  0.00000000000E+00  0.14999999963E+04  0.15000000000E+04  0.10566000000E+00 0. -1.
        994   -1    0    0    0    0 -0.00000000000E+00 -0.00000000000E+00  0.11368683772E-12  0.17120000000E+03  0.17120000000E+03 0.  0.
         13    1    1    2    0    0  0.82907184749E+01  0.83481481953E+01  0.22896690665E+02  0.25742905791E+02  0.10566000000E+00 0. -1.
        994    1    1    2    0    0 -0.69940479727E+01 -0.34936583945E+01  0.30950605093E+01  0.17140636440E+03  0.17120000000E+03 0.  0.
        998    1    1    2    0    0 -0.12966705022E+01 -0.48544898007E+01  0.14740082451E+04  0.14740507298E+04  0.10000000000E+02 0. -1.
</event>
<event>
 5    1  0.1245771E-008  0.3854285E+03  0.7957747E-01  0.3427857E+00
         13   -1    0    0    0    0  0.00000000000E+00  0.00000000000E+00  0.14999999963E+04  0.15000000000E+04  0.10566000000E+00 0. -1.
        994   -1    0    0    0    0 -0.00000000000E+00 -0.00000000000E+00  0.11368683772E-12  0.17120000000E+03  0.17120000000E+03 0.  0.
         13    1    1    2    0    0 -0.13320188205E+02  0.77771135451E+01  0.79465484764E+02  0.80948658678E+02  0.10566000000E+00 0. -1.
        994    1    1    2    0    0  0.15795002676E+02 -0.86533860082E+01  0.24834889142E+01  0.17216262927E+03  0.17120000000E+03 0.  0.
        998    1    1    2    0    0 -0.24748144710E+01  0.87627246306E+00  0.14180510226E+04  0.14180887121E+04  0.10000000000E+02 0. -1.
</event>
<event>
 5    1  0.1245771E-008  0.3798133E+03  0.7957747E-01  0.3451972E+00
         13   -1    0    0    0    0  0.00000000000E+00  0.00000000000E+00  0.14999999963E+04  0.15000000000E+04  0.10566000000E+00 0.  1.
        994   -1    0    0    0    0 -0.00000000000E+00 -0.00000000000E+00  0.11368683772E-12  0.17120000000E+03  0.17120000000E+03 0.  0.
         13    1    1    2    0    0 -0.22514776190E+02 -0.44540754432E+02  0.28088404558E+03  0.28528345935E+03  0.10566000000E+00 0.  1.
        994    1    1    2    0    0  0.24981895076E+02  0.24894066448E+02  0.83991701169E+01  0.17499655906E+03  0.17120000000E+03 0.  0.
        998    1    1    2    0    0 -0.24671188853E+01  0.19646687984E+02  0.12107167806E+04  0.12109199816E+04  0.10000000000E+02 0.  1.
</event>
<event>
 5    1  0.1245771E-008  0.3852224E+03  0.7957747E-01  0.3428730E+00
         13   -1    0    0    0    0  0.00000000000E+00  0.00000000000E+00  0.14999999963E+04  0.15000000000E+04  0.10566000000E+00 0.  1.
        994   -1    0    0    0    0 -0.00000000000E+00 -0.00000000000E+00  0.11368683772E-12  0.17120000000E+03  0.17120000000E+03 0.  0.
         13    1    1    2    0    0 -0.31469196375E+01 -0.18601054303E+02  0.10811836355E+03  0.10975196593E+03  0.10566000000E+00 0.  1.
        994    1    1    2    0    0  0.81441390411E+00  0.21949259169E+02  0.31067787893E+01  0.17263118294E+03  0.17120000000E+03 0.  0.
        998    1    1    2    0    0  0.23325057334E+01 -0.33482048660E+01  0.13887748539E+04  0.13888168511E+04  0.10000000000E+02 0.  1.
</event>
<event>
 5    1  0.1245771E-008  0.3851181E+03  0.7957747E-01  0.3429171E+00
         13   -1    0    0    0    0  0.00000000000E+00  0.00000000000E+00  0.14999999963E+04  0.15000000000E+04  0.10566000000E+00 0. -1.
        994   -1    0    0    0    0 -0.00000000000E+00 -0.00000000000E+00  0.11368683772E-12  0.17120000000E+03  0.17120000000E+03 0.  0.
         13    1    1    2    0    0 -0.10194814515E+02  0.35576370862E+01  0.37062897102E+02  0.38603892683E+02  0.10566000000E+00 0. -1.
        994    1    1    2    0    0  0.73703924344E+01  0.13489680271E+00  0.17501752856E+01  0.17136756985E+03  0.17120000000E+03 0.  0.
        998    1    1    2    0    0  0.28244220809E+01 -0.36925338889E+01  0.14611869239E+04  0.14612285375E+04  0.10000000000E+02 0. -1.
</event>
<event>
 5    1  0.1245771E-008  0.3693979E+03  0.7957747E-01  0.3498662E+00
         13   -1    0    0    0    0  0.00000000000E+00  0.00000000000E+00  0.14999999963E+04  0.15000000000E+04  0.10566000000E+00 0. -1.
        994   -1    0    0    0    0 -0.00000000000E+00 -0.00000000000E+00  0.11368683772E-12  0.17120000000E+03  0.17120000000E+03 0.  0.
         13    1    1    2    0    0 -0.21064311216E+02 -0.27377299228E+02  0.55084274145E+02  0.65019305918E+02  0.10566000000E+00 0. -1.
        994    1    1    2    0    0 -0.73597331546E+01  0.10523566542E+02  0.11196319698E+02  0.17204565876E+03  0.17120000000E+03 0.  0.
        998    1    1    2    0    0  0.28424044370E+02  0.16853732686E+02  0.14337194024E+04  0.14341350353E+04  0.10000000000E+02 0. -1.
</event>
<event>
 5    1  0.1245771E-008  0.3818760E+03  0.7957747E-01  0.3443030E+00
         13   -1    0    0    0    0  0.00000000000E+00  0.00000000000E+00  0.14999999963E+04  0.15000000000E+04  0.10566000000E+00 0. -1.
        994   -1    0    0    0    0 -0.00000000000E+00 -0.00000000000E+00  0.11368683772E-12  0.17120000000E+03  0.17120000000E+03 0.  0.
         13    1    1    2    0    0  0.87030594287E+02 -0.28894307332E+03  0.95742092072E+03  0.10038512114E+04  0.10566000000E+00 0. -1.
        994    1    1    2    0    0 -0.88396057251E+02  0.29206676763E+03  0.43043281620E+03  0.55470596622E+03  0.17120000000E+03 0.  0.
        998    1    1    2    0    0  0.13654629637E+01 -0.31236943059E+01  0.11214625935E+03  0.11264282242E+03  0.10000000000E+02 0.  0.
</event>
<event>
 5    1  0.1593406E-008  0.3861785E+03  0.7957747E-01  0.3424689E+00
         13   -1    0    0    0    0  0.00000000000E+00  0.00000000000E+00  0.14999999963E+04  0.15000000000E+04  0.10566000000E+00 0.  1.
        994   -1    0    0    0    0 -0.00000000000E+00 -0.00000000000E+00  0.11368683772E-12  0.17120000000E+03  0.17120000000E+03 0.  0.
         13    1    1    2    0    0  0.41020354707E+01  0.99186878483E+01  0.55324227360E+02  0.56355907948E+02  0.10566000000E+00 0.  1.
        994    1    1    2    0    0 -0.59470908368E+00 -0.90926964611E+01  0.13182082445E+01  0.17144739275E+03  0.17120000000E+03 0.  0.
        998    1    1    2    0    0 -0.35073263870E+01 -0.82599138721E+00  0.14433575607E+04  0.14433966993E+04  0.10000000000E+02 0.  1.
</event>
<event>
 5    1  0.1245771E-008  0.3817225E+03  0.7957747E-01  0.3443693E+00
         13   -1    0    0    0    0  0.00000000000E+00  0.00000000000E+00  0.14999999963E+04  0.15000000000E+04  0.10566000000E+00 0. -1.
        994   -1    0    0    0    0 -0.00000000000E+00 -0.00000000000E+00  0.11368683772E-12  0.17120000000E+03  0.17120000000E+03 0.  0.
         13    1    1    2    0    0 -0.90340427797E+01 -0.68080088248E+01  0.18301691314E+02  0.21515714770E+02  0.10566000000E+00 0. -1.
        994    1    1    2    0    0  0.99510489370E+01 -0.10725569524E+01  0.35992175714E+01  0.17153007935E+03  0.17120000000E+03 0.  0.
        998    1    1    2    0    0 -0.91700615737E+00  0.78805657772E+01  0.14780990874E+04  0.14781542059E+04  0.10000000000E+02 0. -1.
</event>
<event>
 5    1  0.1245771E-008  0.3848074E+03  0.7957747E-01  0.3430490E+00
         13   -1    0    0    0    0  0.00000000000E+00  0.00000000000E+00  0.14999999963E+04  0.15000000000E+04  0.10566000000E+00 0. -1.
        994   -1    0    0    0    0 -0.00000000000E+00 -0.00000000000E+00  0.11368683772E-12  0.17120000000E+03  0.17120000000E+03 0.  0.
         13    1    1    2    0    0  0.11591570070E+02 -0.79689196800E+01  0.55890172325E+02  0.57633243047E+02  0.10566000000E+00 0. -1.
        994    1    1    2    0    0 -0.93891752131E+01  0.10054849135E+02  0.23488438302E+01  0.17176790640E+03  0.17120000000E+03 0.  0.
        998    1    1    2    0    0 -0.22023948566E+01 -0.20859294547E+01  0.14417609801E+04  0.14417988506E+04  0.10000000000E+02 0. -1.
</event>
<event>
 5    1  0.1245771E-008  0.3687432E+03  0.7957747E-01  0.3501687E+00
         13   -1    0    0    0    0  0.00000000000E+00  0.00000000000E+00  0.14999999963E+04  0.15000000000E+04  0.10566000000E+00 0. -1.
        994   -1    0    0    0    0 -0.00000000000E+00 -0.00000000000E+00  0.11368683772E-12  0.17120000000E+03  0.17120000000E+03 0.  0.
         13    1    1    2    0    0  0.12147937244E+02  0.20052761852E+02  0.22141069424E+02  0.32247848865E+02  0.10566000000E+00 0. -1.
        994    1    1    2    0    0 -0.11791736503E+02 -0.18658118708E+02  0.11973294001E+02  0.17303170291E+03  0.17120000000E+03 0.  0.
        998    1    1    2    0    0 -0.35620074093E+00 -0.13946431434E+01  0.14658856329E+04  0.14659204482E+04  0.10000000000E+02 0. -1.
</event>
<event>
 5    1  0.1245771E-008  0.3988500E+03  0.7957747E-01  0.3372976E+00
         13   -1    0    0    0    0  0.00000000000E+00  0.00000000000E+00  0.14999999963E+04  0.15000000000E+04  0.10566000000E+00 0.  1.
        994   -1    0    0    0    0 -0.00000000000E+00 -0.00000000000E+00  0.11368683772E-12  0.17120000000E+03  0.17120000000E+03 0.  0.
         13    1    1    2    0    0 -0.84096154320E+02 -0.52461128544E+02  0.15413982294E+03  0.18325782210E+03  0.10566000000E+00 0.  1.
        994    1    1    2    0    0  0.94889435131E+02  0.38412433054E+02  0.69221058438E+02  0.21114098334E+03  0.17120000000E+03 0.  0.
        998    1    1    2    0    0 -0.10793280811E+02  0.14048695490E+02  0.12766391149E+04  0.12768011946E+04  0.10000000000E+02 0.  1.
</event>
<event>
 5    1  0.1245771E-008  0.3886795E+03  0.7957747E-01  0.3414215E+00
         13   -1    0    0    0    0  0.00000000000E+00  0.00000000000E+00  0.14999999963E+04  0.15000000000E+04  0.10566000000E+00 0.  1.
        994   -1    0    0    0    0 -0.00000000000E+00 -0.00000000000E+00  0.11368683772E-12  0.17120000000E+03  0.17120000000E+03 0.  0.
         13    1    1    2    0    0 -0.40403641369E+02 -0.86843302131E+00  0.31086555392E+02  0.50986208939E+02  0.10566000000E+00 0.  1.
        994    1    1    2    0    0  0.21452931391E+02 -0.24007056562E+02  0.25068431493E+02  0.17599554906E+03  0.17120000000E+03 0.  0.
        998    1    1    2    0    0  0.18950709978E+02  0.24875489583E+02  0.14438450094E+04  0.14442182420E+04  0.10000000000E+02 0.  1.
</event>
<event>
 5    1  0.1245771E-008  0.3757490E+03  0.7957747E-01  0.3469880E+00
         13   -1    0    0    0    0  0.00000000000E+00  0.00000000000E+00  0.14999999963E+04  0.15000000000E+04  0.10566000000E+00 0. -1.
        994   -1    0    0    0    0 -0.00000000000E+00 -0.00000000000E+00  0.11368683772E-12  0.17120000000E+03  0.17120000000E+03 0.  0.
         13    1    1    2    0    0 -0.10953186680E+02 -0.50951162897E+01  0.86943162145E+01  0.14884045382E+02  0.10566000000E+00 0. -1.
        994    1    1    2    0    0  0.10578278031E+02  0.41425162505E+01  0.67323023692E+01  0.17170854464E+03  0.17120000000E+03 0.  0.
        998    1    1    2    0    0  0.37490864941E+00  0.95260003922E+00  0.14845733777E+04  0.14846074100E+04  0.10000000000E+02 0. -1.
</event>
<event>
 5    1  0.1245771E-008  0.3765516E+03  0.7957747E-01  0.3466312E+00
         13   -1    0    0    0    0  0.00000000000E+00  0.00000000000E+00  0.14999999963E+04  0.15000000000E+04  0.10566000000E+00 0. -1.
        994   -1    0    0    0    0 -0.00000000000E+00 -0.00000000000E+00  0.11368683772E-12  0.17120000000E+03  0.17120000000E+03 0.  0.
         13    1    1    2    0    0 -0.12510455631E+01  0.13568438529E+02  0.13070004830E+02  0.18881308996E+02  0.10566000000E+00 0. -1.
        994    1    1    2    0    0 -0.36878930716E+01 -0.13759839164E+02  0.65705929284E+01  0.17191726621E+03  0.17120000000E+03 0.  0.
        998    1    1    2    0    0  0.49389386347E+01  0.19140063458E+00  0.14803593985E+04  0.14804014248E+04  0.10000000000E+02 0. -1.
</event>
<event>
 5    1  0.1245771E-008  0.3834853E+03  0.7957747E-01  0.3436122E+00
         13   -1    0    0    0    0  0.00000000000E+00  0.00000000000E+00  0.14999999963E+04  0.15000000000E+04  0.10566000000E+00 0.  1.
        994   -1    0    0    0    0 -0.00000000000E+00 -0.00000000000E+00  0.11368683772E-12  0.17120000000E+03  0.17120000000E+03 0.  0.
         13    1    1    2    0    0 -0.22610055871E+02 -0.50790666831E+01  0.11015086911E+03  0.11256214584E+03  0.10566000000E+00 0.  1.
        994    1    1    2    0    0  0.15258314870E+02  0.85798404302E+01  0.33973980520E+01  0.17212615184E+03  0.17120000000E+03 0.  0.
        998    1    1    2    0    0  0.73517410015E+01 -0.35007737471E+01  0.13864517291E+04  0.13865117023E+04  0.10000000000E+02 0.  1.
</event>
<event>
 5    1  0.1245771E-008  0.3856417E+03  0.7957747E-01  0.3426955E+00
         13   -1    0    0    0    0  0.00000000000E+00  0.00000000000E+00  0.14999999963E+04  0.15000000000E+04  0.10566000000E+00 0. -1.
        994   -1    0    0    0    0 -0.00000000000E+00 -0.00000000000E+00  0.11368683772E-12  0.17120000000E+03  0.17120000000E+03 0.  0.
         13    1    1    2    0    0  0.45215887877E+01 -0.10071757118E+02  0.44771484346E+02  0.46112710083E+02  0.10566000000E+00 0. -1.
        994    1    1    2    0    0 -0.48034103441E+01  0.14060904161E+02  0.20367982354E+01  0.17185566713E+03  0.17120000000E+03 0.  0.
        998    1    1    2    0    0  0.28182155639E+00 -0.39891470426E+01  0.14531917137E+04  0.14532316228E+04  0.10000000000E+02 0. -1.
</event>
<event>
 5    1  0.1356792E-008  0.3858629E+03  0.7957747E-01  0.3426021E+00
         13   -1    0    0    0    0  0.00000000000E+00  0.00000000000E+00  0.14999999963E+04  0.15000000000E+04  0.10566000000E+00 0. -1.
        994   -1    0    0    0    0 -0.00000000000E+00 -0.00000000000E+00  0.11368683772E-12  0.17120000000E+03  0.17120000000E+03 0.  0.
         13    1    1    2    0    0 -0.13569888644E+02 -0.35440410156E+01  0.83704868130E+02  0.84871775151E+02  0.10566000000E+00 0. -1.
        994    1    1    2    0    0  0.62178168188E+01  0.61237617943E+01  0.14521367763E+01  0.17142844106E+03  0.17120000000E+03 0.  0.
        998    1    1    2    0    0  0.73520718252E+01 -0.25797207787E+01  0.14148429914E+04  0.14148997838E+04  0.10000000000E+02 0. -1.
</event>
<event>
 5    1  0.1245771E-008  0.3848970E+03  0.7957747E-01  0.3430109E+00
         13   -1    0    0    0    0  0.00000000000E+00  0.00000000000E+00  0.14999999963E+04  0.15000000000E+04  0.10566000000E+00 0. -1.
        994   -1    0    0    0    0 -0.00000000000E+00 -0.00000000000E+00  0.11368683772E-12  0.17120000000E+03  0.17120000000E+03 0.  0.
         13    1    1    2    0    0  0.20822943351E+02  0.15268339852E+02  0.15515042217E+03  0.15728439794E+03  0.10566000000E+00 0. -1.
        994    1    1    2    0    0 -0.19421955364E+02 -0.46991915971E+02  0.10233506690E+02  0.17888436817E+03  0.17120000000E+03 0.  0.
        998    1    1    2    0    0 -0.14009879866E+01  0.31723576119E+02  0.13346160674E+04  0.13350312339E+04  0.10000000000E+02 0. -1.
</event>
<event>
 5    1  0.1245771E-008  0.3727664E+03  0.7957747E-01  0.3483273E+00
         13   -1    0    0    0    0  0.00000000000E+00  0.00000000000E+00  0.14999999963E+04  0.15000000000E+04  0.10566000000E+00 0. -1.
        994   -1    0    0    0    0 -0.00000000000E+00 -0.00000000000E+00  0.11368683772E-12  0.17120000000E+03  0.17120000000E+03 0.  0.
         13    1    1    2    0    0  0.59360285491E+01 -0.10356076665E+02 -0.85175751653E-01  0.11937469487E+02  0.10566000000E+00 0. -1.
        994    1    1    2    0    0 -0.35029647964E+01  0.17512525683E+02  0.13535911493E+02  0.17266041879E+03  0.17120000000E+03 0.  0.
        998    1    1    2    0    0 -0.24330637528E+01 -0.71564490187E+01  0.14865492605E+04  0.14866021117E+04  0.10000000000E+02 0. -1.
</event>
<event>
 5    1  0.1245771E-008  0.3844920E+03  0.7957747E-01  0.3431830E+00
         13   -1    0    0    0    0  0.00000000000E+00  0.00000000000E+00  0.14999999963E+04  0.15000000000E+04  0.10566000000E+00 0. -1.
        994   -1    0    0    0    0 -0.00000000000E+00 -0.00000000000E+00  0.11368683772E-12  0.17120000000E+03  0.17120000000E+03 0.  0.
         13    1    1    2    0    0 -0.92954176863E+01  0.68341921060E+01  0.35456290807E+02  0.37286333870E+02  0.10566000000E+00 0. -1.
        994    1    1    2    0    0  0.10154351608E+01 -0.66890606892E+01  0.20333726902E+01  0.17134570098E+03  0.17120000000E+03 0.  0.
        998    1    1    2    0    0  0.82799825255E+01 -0.14513141680E+00  0.14625103328E+04  0.14625679651E+04  0.10000000000E+02 0. -1.
</event>
<event>
 5    1  0.1245771E-008  0.3839057E+03  0.7957747E-01  0.3434327E+00
         13   -1    0    0    0    0  0.00000000000E+00  0.00000000000E+00  0.14999999963E+04  0.15000000000E+04  0.10566000000E+00 0.  1.
        994   -1    0    0    0    0 -0.00000000000E+00 -0.00000000000E+00  0.11368683772E-12  0.17120000000E+03  0.17120000000E+03 0.  0.
         13    1    1    2    0    0  0.24335937101E+01 -0.20171692333E+02  0.10259501915E+03  0.10458761240E+03  0.10566000000E+00 0.  1.
        994    1    1    2    0    0 -0.90583854584E+01  0.11275735160E+00  0.24453223324E+01  0.17145695280E+03  0.17120000000E+03 0.  0.
        998    1    1    2    0    0  0.66247917483E+01  0.20058934982E+02  0.13949596548E+04  0.13951554348E+04  0.10000000000E+02 0.  1.
</event>
<event>
 5    1  0.1245771E-008  0.3693445E+03  0.7957747E-01  0.3498909E+00
         13   -1    0    0    0    0  0.00000000000E+00  0.00000000000E+00  0.14999999963E+04  0.15000000000E+04  0.10566000000E+00 0.  1.
        994   -1    0    0    0    0 -0.00000000000E+00 -0.00000000000E+00  0.11368683772E-12  0.17120000000E+03  0.17120000000E+03 0.  0.
         13    1    1    2    0    0 -0.10766965515E+02 -0.16913874307E+03  0.69092176628E+03  0.71140476541E+03  0.10566000000E+00 0.  1.
        994    1    1    2    0    0  0.10060046096E+02  0.16367521989E+03  0.11124666273E+03  0.26187027724E+03  0.17120000000E+03 0.  0.
        998    1    1    2    0    0  0.70691941900E+00  0.54635231802E+01  0.69783156727E+03  0.69792495735E+03  0.10000000000E+02 0.  0.
</event>
<event>
 5    1  0.1245771E-008  0.3742685E+03  0.7957747E-01  0.3476501E+00
         13   -1    0    0    0    0  0.00000000000E+00  0.00000000000E+00  0.14999999963E+04  0.15000000000E+04  0.10566000000E+00 0. -1.
        994   -1    0    0    0    0 -0.00000000000E+00 -0.00000000000E+00  0.11368683772E-12  0.17120000000E+03  0.17120000000E+03 0.  0.
         13    1    1    2    0    0  0.86739076489E-01 -0.49372269569E+02  0.18982788396E+03  0.19614348120E+03  0.10566000000E+00 0. -1.
        994    1    1    2    0    0 -0.36656267759E+01  0.10121665367E+02  0.74498516404E+01  0.17169981135E+03  0.17120000000E+03 0.  0.
        998    1    1    2    0    0  0.35788876994E+01  0.39250604202E+02  0.13027222607E+04  0.13033567074E+04  0.10000000000E+02 0. -1.
</event>
<event>
 5    1  0.1245771E-008  0.3826645E+03  0.7957747E-01  0.3439638E+00
         13   -1    0    0    0    0  0.00000000000E+00  0.00000000000E+00  0.14999999963E+04  0.15000000000E+04  0.10566000000E+00 0. -1.
        994   -1    0    0    0    0 -0.00000000000E+00 -0.00000000000E+00  0.11368683772E-12  0.17120000000E+03  0.17120000000E+03 0.  0.
         13    1    1    2    0    0  0.99705750989E+01 -0.14853057550E+02  0.55404893544E+02  0.58221465793E+02  0.10566000000E+00 0. -1.
        994    1    1    2    0    0 -0.17390043857E+02  0.71055734218E+01  0.39644233359E+01  0.17227321165E+03  0.17120000000E+03 0.  0.
        998    1    1    2    0    0  0.74194687586E+01  0.77474841280E+01  0.14406306794E+04  0.14407053226E+04  0.10000000000E+02 0. -1.
</event>
<event>
 5    1  0.1245771E-008  0.3815319E+03  0.7957747E-01  0.3444515E+00
         13   -1    0    0    0    0  0.00000000000E+00  0.00000000000E+00  0.14999999963E+04  0.15000000000E+04  0.10566000000E+00 0.  1.
        994   -1    0    0    0    0 -0.00000000000E+00 -0.00000000000E+00  0.11368683772E-12  0.17120000000E+03  0.17120000000E+03 0.  0.
         13    1    1    2    0    0 -0.17921762326E+01 -0.17293346013E+02  0.44225636886E+02  0.47520414918E+02  0.10566000000E+00 0.  1.
        994    1    1    2    0    0 -0.64066202795E+01  0.94722624566E+01  0.37969181412E+01  0.17162349818E+03  0.17120000000E+03 0.  0.
        998    1    1    2    0    0  0.81987965121E+01  0.78210835563E+01  0.14519774413E+04  0.14520560869E+04  0.10000000000E+02 0.  1.
</event>
<event>
 5    1  0.1245771E-008  0.3791589E+03  0.7957747E-01  0.3454829E+00
         13   -1    0    0    0    0  0.00000000000E+00  0.00000000000E+00  0.14999999963E+04  0.15000000000E+04  0.10566000000E+00 0.  1.
        994   -1    0    0    0    0 -0.00000000000E+00 -0.00000000000E+00  0.11368683772E-12  0.17120000000E+03  0.17120000000E+03 0.  0.
         13    1    1    2    0    0  0.25377299903E+01  0.10329504609E+02  0.10998847059E+02  0.15301128705E+02  0.10566000000E+00 0.  1.
        994    1    1    2    0    0 -0.18846551214E+01  0.18537429601E+02  0.57230653174E+01  0.17230606982E+03  0.17120000000E+03 0.  0.
        998    1    1    2    0    0 -0.65307486893E+00 -0.28866934210E+02  0.14832780839E+04  0.14835928015E+04  0.10000000000E+02 0.  1.
</event>
<event>
 5    1  0.1245771E-008  0.3791897E+03  0.7957747E-01  0.3454694E+00
         13   -1    0    0    0    0  0.00000000000E+00  0.00000000000E+00  0.14999999963E+04  0.15000000000E+04  0.10566000000E+00 0. -1.
        994   -1    0    0    0    0 -0.00000000000E+00 -0.00000000000E+00  0.11368683772E-12  0.17120000000E+03  0.17120000000E+03 0.  0.
         13    1    1    2    0    0 -0.12001327163E+02 -0.15309607111E+02  0.39826936990E+02  0.44323943841E+02  0.10566000000E+00 0. -1.
        994    1    1    2    0    0 -0.79419367630E+01  0.23236282762E+02  0.65665518775E+01  0.17307674252E+03  0.17120000000E+03 0.  0.
        998    1    1    2    0    0  0.19943263926E+02 -0.79266756506E+01  0.14536065074E+04  0.14537993136E+04  0.10000000000E+02 0. -1.
</event>
<event>
 5    1  0.1245771E-008  0.3727563E+03  0.7957747E-01  0.3483318E+00
         13   -1    0    0    0    0  0.00000000000E+00  0.00000000000E+00  0.14999999963E+04  0.15000000000E+04  0.10566000000E+00 0. -1.
        994   -1    0    0    0    0 -0.00000000000E+00 -0.00000000000E+00  0.11368683772E-12  0.17120000000E+03  0.17120000000E+03 0.  0.
         13    1    1    2    0    0  0.43618898195E+02 -0.21327956250E+02  0.10202706700E+03  0.11299125436E+03  0.10566000000E+00 0. -1.
        994    1    1    2    0    0 -0.21847562298E+01 -0.11238099450E+02  0.12866570522E+02  0.17206410630E+03  0.17120000000E+03 0.  0.
        998    1    1    2    0    0 -0.41434141965E+02  0.32566055700E+02  0.13851063588E+04  0.13861446393E+04  0.10000000000E+02 0. -1.
</event>
<event>
 5    1  0.1245771E-008  0.3704892E+03  0.7957747E-01  0.3493646E+00
         13   -1    0    0    0    0  0.00000000000E+00  0.00000000000E+00  0.14999999963E+04  0.15000000000E+04  0.10566000000E+00 0.  1.
        994   -1    0    0    0    0 -0.00000000000E+00 -0.00000000000E+00  0.11368683772E-12  0.17120000000E+03  0.17120000000E+03 0.  0.
         13    1    1    2    0    0 -0.12494077468E+02  0.14064368202E+02  0.15596610989E+02  0.24437141058E+02  0.10566000000E+00 0.  1.
        994    1    1    2    0    0  0.12506190615E+02 -0.11301020479E+02  0.99949205589E+01  0.17231789316E+03  0.17120000000E+03 0.  0.
        998    1    1    2    0    0 -0.12113146318E-01 -0.27633477236E+01  0.14744084647E+04  0.14744449658E+04  0.10000000000E+02 0.  1.
</event>
<event>
 5    1  0.1245771E-008  0.2161898E+03  0.7957747E-01  0.4766517E+00
         13   -1    0    0    0    0  0.00000000000E+00  0.00000000000E+00  0.14999999963E+04  0.15000000000E+04  0.10566000000E+00 0. -1.
        994   -1    0    0    0    0 -0.00000000000E+00 -0.00000000000E+00  0.11368683772E-12  0.17120000000E+03  0.17120000000E+03 0.  0.
         13    1    1    2    0    0  0.42072306779E+02 -0.96576108068E+02  0.56132953319E+02  0.11936474881E+03  0.10566000000E+00 0. -1.
        994    1    1    2    0    0  0.49573685188E+02  0.47379152525E+02  0.11177549030E+03  0.21565141917E+03  0.17120000000E+03 0.  0.
        998    1    1    2    0    0 -0.91645991967E+02  0.49196955543E+02  0.13320915527E+04  0.13361838320E+04  0.10000000000E+02 0. -1.
</event>
<event>
 5    1  0.1245771E-008  0.3811824E+03  0.7957747E-01  0.3446026E+00
         13   -1    0    0    0    0  0.00000000000E+00  0.00000000000E+00  0.14999999963E+04  0.15000000000E+04  0.10566000000E+00 0. -1.
        994   -1    0    0    0    0 -0.00000000000E+00 -0.00000000000E+00  0.11368683772E-12  0.17120000000E+03  0.17120000000E+03 0.  0.
         13    1    1    2    0    0  0.51632330655E+01 -0.21743303952E+02  0.67287777222E+02  0.70901948986E+02  0.10566000000E+00 0. -1.
        994    1    1    2    0    0 -0.41179879171E+02  0.12487442012E+02  0.97282048741E+01  0.17679308987E+03  0.17120000000E+03 0.  0.
        998    1    1    2    0    0  0.36016646106E+02  0.92558619398E+01  0.14229840142E+04  0.14235049611E+04  0.10000000000E+02 0. -1.
</event>
<event>
 5    1  0.1245771E-008  0.3772924E+03  0.7957747E-01  0.3463034E+00
         13   -1    0    0    0    0  0.00000000000E+00  0.00000000000E+00  0.14999999963E+04  0.15000000000E+04  0.10566000000E+00 0.  1.
        994   -1    0    0    0    0 -0.00000000000E+00 -0.00000000000E+00  0.11368683772E-12  0.17120000000E+03  0.17120000000E+03 0.  0.
         13    1    1    2    0    0 -0.96328457676E+01 -0.20998781576E+02  0.47534904459E+02  0.52851857595E+02  0.10566000000E+00 0.  1.
        994    1    1    2    0    0 -0.20516177664E+01  0.90888729710E+01  0.57991285802E+01  0.17155141107E+03  0.17120000000E+03 0.  0.
        998    1    1    2    0    0  0.11684463534E+02  0.11909908605E+02  0.14466659632E+04  0.14467967313E+04  0.10000000000E+02 0.  1.
</event>
<event>
 5    1  0.1245771E-008  0.3847738E+03  0.7957747E-01  0.3430632E+00
         13   -1    0    0    0    0  0.00000000000E+00  0.00000000000E+00  0.14999999963E+04  0.15000000000E+04  0.10566000000E+00 0. -1.
        994   -1    0    0    0    0 -0.00000000000E+00 -0.00000000000E+00  0.11368683772E-12  0.17120000000E+03  0.17120000000E+03 0.  0.
         13    1    1    2    0    0 -0.66121368528E+01 -0.87266081829E+01  0.33646464363E+02  0.35383184880E+02  0.10566000000E+00 0. -1.
        994    1    1    2    0    0  0.40256020957E+01  0.10155194060E+02  0.21353010148E+01  0.17156145531E+03  0.17120000000E+03 0.  0.
        998    1    1    2    0    0  0.25865347571E+01 -0.14285858767E+01  0.14642182309E+04  0.14642553598E+04  0.10000000000E+02 0. -1.
</event>
<event>
 5    1  0.1245771E-008  0.3855574E+03  0.7957747E-01  0.3427312E+00
         13   -1    0    0    0    0  0.00000000000E+00  0.00000000000E+00  0.14999999963E+04  0.15000000000E+04  0.10566000000E+00 0. -1.
        994   -1    0    0    0    0 -0.00000000000E+00 -0.00000000000E+00  0.11368683772E-12  0.17120000000E+03  0.17120000000E+03 0.  0.
         13    1    1    2    0    0 -0.60614229446E+01  0.86535559201E+01  0.39932230386E+02  0.41306404658E+02  0.10566000000E+00 0. -1.
        994    1    1    2    0    0  0.57440144491E+01 -0.12778975304E+02  0.19982931427E+01  0.17178396051E+03  0.17120000000E+03 0.  0.
        998    1    1    2    0    0  0.31740849552E+00  0.41254193842E+01  0.14580694728E+04  0.14581096348E+04  0.10000000000E+02 0. -1.
</event>
<event>
 5    1  0.1245771E-008  0.3767564E+03  0.7957747E-01  0.3465404E+00
         13   -1    0    0    0    0  0.00000000000E+00  0.00000000000E+00  0.14999999963E+04  0.15000000000E+04  0.10566000000E+00 0.  1.
        994   -1    0    0    0    0 -0.00000000000E+00 -0.00000000000E+00  0.11368683772E-12  0.17120000000E+03  0.17120000000E+03 0.  0.
         13    1    1    2    0    0 -0.36913319284E+02  0.40064822483E+02  0.21147532110E+03  0.21837949935E+03  0.10566000000E+00 0.  1.
        994    1    1    2    0    0  0.50432833658E+02 -0.35981128406E+02  0.18861149461E+02  0.18303905395E+03  0.17120000000E+03 0.  0.
        998    1    1    2    0    0 -0.13519514374E+02 -0.40836940764E+01  0.12696635257E+04  0.12697814467E+04  0.10000000000E+02 0.  1.
</event>
<event>
 5    1  0.1245771E-008  0.3686221E+03  0.7957747E-01  0.3502247E+00
         13   -1    0    0    0    0  0.00000000000E+00  0.00000000000E+00  0.14999999963E+04  0.15000000000E+04  0.10566000000E+00 0.  1.
        994   -1    0    0    0    0 -0.00000000000E+00 -0.00000000000E+00  0.11368683772E-12  0.17120000000E+03  0.17120000000E+03 0.  0.
         13    1    1    2    0    0 -0.14435048332E+02 -0.36912241551E+02  0.72277667954E+02  0.82431527012E+02  0.10566000000E+00 0.  1.
        994    1    1    2    0    0  0.11360860409E+02  0.35403629881E+02  0.14809325383E+02  0.17581593294E+03  0.17120000000E+03 0.  0.
        998    1    1    2    0    0  0.30741879233E+01  0.15086116694E+01  0.14129130029E+04  0.14129525400E+04  0.10000000000E+02 0.  1.
</event>
<event>
 5    1  0.1245771E-008  0.3776202E+03  0.7957747E-01  0.3461586E+00
         13   -1    0    0    0    0  0.00000000000E+00  0.00000000000E+00  0.14999999963E+04  0.15000000000E+04  0.10566000000E+00 0. -1.
        994   -1    0    0    0    0 -0.00000000000E+00 -0.00000000000E+00  0.11368683772E-12  0.17120000000E+03  0.17120000000E+03 0.  0.
         13    1    1    2    0    0 -0.87948690564E+01 -0.10128452735E+02  0.14388347701E+02  0.19671578232E+02  0.10566000000E+00 0. -1.
        994    1    1    2    0    0  0.10461807169E+02  0.85081494646E+01  0.59522135257E+01  0.17183336947E+03  0.17120000000E+03 0.  0.
        998    1    1    2    0    0 -0.16669381130E+01  0.16203032709E+01  0.14796594351E+04  0.14796950523E+04  0.10000000000E+02 0. -1.
</event>
<event>
 5    1  0.1245771E-008  0.3819511E+03  0.7957747E-01  0.3442707E+00
         13   -1    0    0    0    0  0.00000000000E+00  0.00000000000E+00  0.14999999963E+04  0.15000000000E+04  0.10566000000E+00 0.  1.
        994   -1    0    0    0    0 -0.00000000000E+00 -0.00000000000E+00  0.11368683772E-12  0.17120000000E+03  0.17120000000E+03 0.  0.
         13    1    1    2    0    0 -0.19870608698E+02  0.11929371286E+02  0.85252626361E+02  0.88346887070E+02  0.10566000000E+00 0.  1.
        994    1    1    2    0    0  0.10770295130E+02 -0.56713348863E+01  0.36437577152E+01  0.17167084862E+03  0.17120000000E+03 0.  0.
        998    1    1    2    0    0  0.91003135683E+01 -0.62580363999E+01  0.14111036122E+04  0.14111822643E+04  0.10000000000E+02 0.  1.
</event>
<event>
 5    1  0.1245771E-008  0.3842023E+03  0.7957747E-01  0.3433063E+00
         13   -1    0    0    0    0  0.00000000000E+00  0.00000000000E+00  0.14999999963E+04  0.15000000000E+04  0.10566000000E+00 0. -1.
        994   -1    0    0    0    0 -0.00000000000E+00 -0.00000000000E+00  0.11368683772E-12  0.17120000000E+03  0.17120000000E+03 0.  0.
         13    1    1    2    0    0  0.54476044436E+01  0.23491918820E+02  0.13506537740E+03  0.13720136290E+03  0.10566000000E+00 0. -1.
        994    1    1    2    0    0 -0.60444991224E+01 -0.20933736295E+02  0.35936428313E+01  0.17261839865E+03  0.17120000000E+03 0.  0.
        998    1    1    2    0    0  0.59689467882E+00 -0.25581825250E+01  0.13613409760E+04  0.13613802384E+04  0.10000000000E+02 0. -1.
</event>
<event>
 5    1  0.1245771E-008  0.3845253E+03  0.7957747E-01  0.3431688E+00
         13   -1    0    0    0    0  0.00000000000E+00  0.00000000000E+00  0.14999999963E+04  0.15000000000E+04  0.10566000000E+00 0. -1.
        994   -1    0    0    0    0 -0.00000000000E+00 -0.00000000000E+00  0.11368683772E-12  0.17120000000E+03  0.17120000000E+03 0.  0.
         13    1    1    2    0    0  0.73169445348E+01  0.17522008913E+02  0.97650546156E+02  0.99479640140E+02  0.10566000000E+00 0. -1.
        994    1    1    2    0    0 -0.19271193502E+02 -0.35619958927E+01  0.31320217325E+01  0.17234650061E+03  0.17120000000E+03 0.  0.
        998    1    1    2    0    0  0.11954248967E+02 -0.13960013021E+02  0.13992174284E+04  0.13993738592E+04  0.10000000000E+02 0. -1.
</event>
<event>
 5    1  0.1279303E-008  0.3863242E+03  0.7957747E-01  0.3424075E+00
         13   -1    0    0    0    0  0.00000000000E+00  0.00000000000E+00  0.14999999963E+04  0.15000000000E+04  0.10566000000E+00 0.  1.
        994   -1    0    0    0    0 -0.00000000000E+00 -0.00000000000E+00  0.11368683772E-12  0.17120000000E+03  0.17120000000E+03 0.  0.
         13    1    1    2    0    0  0.80410262053E+01 -0.79578727820E+01  0.66402250936E+02  0.67359156282E+02  0.10566000000E+00 0.  1.
        994    1    1    2    0    0 -0.83423102854E+01  0.34964212424E+01  0.12420789314E+01  0.17144329051E+03  0.17120000000E+03 0.  0.
        998    1    1    2    0    0  0.30128408003E+00  0.44614515396E+01  0.14323556664E+04  0.14323975532E+04  0.10000000000E+02 0.  1.
</event>
<event>
 5    1  0.1245771E-008  0.3902063E+03  0.7957747E-01  0.3407887E+00
         13   -1    0    0    0    0  0.00000000000E+00  0.00000000000E+00  0.14999999963E+04  0.15000000000E+04  0.10566000000E+00 0.  1.
        994   -1    0    0    0    0 -0.00000000000E+00 -0.00000000000E+00  0.11368683772E-12  0.17120000000E+03  0.17120000000E+03 0.  0.
         13    1    1    2    0    0  0.38453853524E+02 -0.16316384166E+01  0.25200276817E+02  0.46004632490E+02  0.10566000000E+00 0.  1.
        994    1    1    2    0    0 -0.26093290002E+02 -0.14571103698E+02  0.25420416792E+02  0.17563830572E+03  0.17120000000E+03 0.  0.
        998    1    1    2    0    0 -0.12360563522E+02  0.16202742115E+02  0.14493793027E+04  0.14495570618E+04  0.10000000000E+02 0.  1.
</event>
<event>
 5    1  0.1245771E-008  0.3847932E+03  0.7957747E-01  0.3430550E+00
         13   -1    0    0    0    0  0.00000000000E+00  0.00000000000E+00  0.14999999963E+04  0.15000000000E+04  0.10566000000E+00 0. -1.
        994   -1    0    0    0    0 -0.00000000000E+00 -0.00000000000E+00  0.11368683772E-12  0.17120000000E+03  0.17120000000E+03 0.  0.
         13    1    1    2    0    0 -0.95011757040E+01 -0.55836040732E+01  0.34900976219E+02  0.36599703268E+02  0.10566000000E+00 0. -1.
        994    1    1    2    0    0  0.65695207000E+01  0.20624765348E+01  0.18888942471E+01  0.17134882647E+03  0.17120000000E+03 0.  0.
        998    1    1    2    0    0  0.29316550040E+01  0.35211275384E+01  0.14632101258E+04  0.14632514703E+04  0.10000000000E+02 0. -1.
</event>
<event>
 5    1  0.1245771E-008  0.3816670E+03  0.7957747E-01  0.3443932E+00
         13   -1    0    0    0    0  0.00000000000E+00  0.00000000000E+00  0.14999999963E+04  0.15000000000E+04  0.10566000000E+00 0.  1.
        994   -1    0    0    0    0 -0.00000000000E+00 -0.00000000000E+00  0.11368683772E-12  0.17120000000E+03  0.17120000000E+03 0.  0.
         13    1    1    2    0    0 -0.85270116657E+01 -0.74868030231E+01  0.19047449566E+02  0.22171572936E+02  0.10566000000E+00 0.  1.
        994    1    1    2    0    0 -0.11088021907E+02  0.58214650605E+00  0.37039743723E+01  0.17159965778E+03  0.17120000000E+03 0.  0.
        998    1    1    2    0    0  0.19615033572E+02  0.69046565170E+01  0.14772485723E+04  0.14774287693E+04  0.10000000000E+02 0.  1.
</event>
<event>
 5    1  0.1245771E-008  0.3835813E+03  0.7957747E-01  0.3435711E+00
         13   -1    0    0    0    0  0.00000000000E+00  0.00000000000E+00  0.14999999963E+04  0.15000000000E+04  0.10566000000E+00 0. -1.
        994   -1    0    0    0    0 -0.00000000000E+00 -0.00000000000E+00  0.11368683772E-12  0.17120000000E+03  0.17120000000E+03 0.  0.
         13    1    1    2    0    0 -0.13808058813E+02  0.47082731337E+00  0.42316782690E+02  0.44515226921E+02  0.10566000000E+00 0. -1.
        994    1    1    2    0    0 -0.27800694332E+01 -0.22775431997E+02  0.40773819492E+01  0.17277880117E+03  0.17120000000E+03 0.  0.
        998    1    1    2    0    0  0.16588128247E+02  0.22304604684E+02  0.14536058316E+04  0.14539059719E+04  0.10000000000E+02 0. -1.
</event>
<event>
 5    1  0.1245771E-008  0.3789075E+03  0.7957747E-01  0.3455929E+00
         13   -1    0    0    0    0  0.00000000000E+00  0.00000000000E+00  0.14999999963E+04  0.15000000000E+04  0.10566000000E+00 0. -1.
        994   -1    0    0    0    0 -0.00000000000E+00 -0.00000000000E+00  0.11368683772E-12  0.17120000000E+03  0.17120000000E+03 0.  0.
         13    1    1    2    0    0 -0.33329907794E+02  0.19962376297E+02  0.18011066686E+03  0.18425320269E+03  0.10566000000E+00 0. -1.
        994    1    1    2    0    0 -0.32948371585E+00 -0.95188068138E+01  0.49900816290E+01  0.17153733459E+03  0.17120000000E+03 0.  0.
        998    1    1    2    0    0  0.33659391510E+02 -0.10443569483E+02  0.13148992478E+04  0.13154094627E+04  0.10000000000E+02 0. -1.
</event>
<event>
 5    1  0.1245771E-008  0.3851530E+03  0.7957747E-01  0.3429024E+00
         13   -1    0    0    0    0  0.00000000000E+00  0.00000000000E+00  0.14999999963E+04  0.15000000000E+04  0.10566000000E+00 0. -1.
        994   -1    0    0    0    0 -0.00000000000E+00 -0.00000000000E+00  0.11368683772E-12  0.17120000000E+03  0.17120000000E+03 0.  0.
         13    1    1    2    0    0  0.10670080119E+02 -0.67287462135E+01  0.49003339526E+02  0.50601038370E+02  0.10566000000E+00 0. -1.
        994    1    1    2    0    0 -0.15066652140E+02  0.67310938112E+01  0.24497939290E+01  0.17201090989E+03  0.17120000000E+03 0.  0.
        998    1    1    2    0    0  0.43965720205E+01 -0.23475976319E-02  0.14485468628E+04  0.14485880517E+04  0.10000000000E+02 0. -1.
</event>
<event>
 5    1  0.1245771E-008  0.3857783E+03  0.7957747E-01  0.3426378E+00
         13   -1    0    0    0    0  0.00000000000E+00  0.00000000000E+00  0.14999999963E+04  0.15000000000E+04  0.10566000000E+00 0. -1.
        994   -1    0    0    0    0 -0.00000000000E+00 -0.00000000000E+00  0.11368683772E-12  0.17120000000E+03  0.17120000000E+03 0.  0.
         13    1    1    2    0    0  0.10164619360E+02 -0.77878300232E+00  0.41149562560E+02  0.42393674677E+02  0.10566000000E+00 0. -1.
        994    1    1    2    0    0 -0.10531762703E+02  0.33314610306E+01  0.16445716440E+01  0.17156386937E+03  0.17120000000E+03 0.  0.
        998    1    1    2    0    0  0.36714334259E+00 -0.25526780283E+01  0.14572058621E+04  0.14572424560E+04  0.10000000000E+02 0. -1.
</event>
<event>
 5    1  0.1245771E-008  0.3791736E+03  0.7957747E-01  0.3454765E+00
         13   -1    0    0    0    0  0.00000000000E+00  0.00000000000E+00  0.14999999963E+04  0.15000000000E+04  0.10566000000E+00 0.  1.
        994   -1    0    0    0    0 -0.00000000000E+00 -0.00000000000E+00  0.11368683772E-12  0.17120000000E+03  0.17120000000E+03 0.  0.
         13    1    1    2    0    0 -0.53063991363E+02  0.17860985920E+01  0.27535413746E+03  0.28042626394E+03  0.10566000000E+00 0.  1.
        994    1    1    2    0    0  0.43546825743E+02 -0.82845589995E+01  0.11165891370E+02  0.17719784728E+03  0.17120000000E+03 0.  0.
        998    1    1    2    0    0  0.95171656202E+01  0.64984604076E+01  0.12134799675E+04  0.12135758888E+04  0.10000000000E+02 0.  1.
</event>
<event>
 5    1  0.1245771E-008  0.3761636E+03  0.7957747E-01  0.3468035E+00
         13   -1    0    0    0    0  0.00000000000E+00  0.00000000000E+00  0.14999999963E+04  0.15000000000E+04  0.10566000000E+00 0. -1.
        994   -1    0    0    0    0 -0.00000000000E+00 -0.00000000000E+00  0.11368683772E-12  0.17120000000E+03  0.17120000000E+03 0.  0.
         13    1    1    2    0    0  0.47900359626E+02  0.52516661282E+01  0.24002806591E+03  0.24481729522E+03  0.10566000000E+00 0. -1.
        994    1    1    2    0    0  0.71942199571E+01 -0.18051033743E+02  0.73619514910E+01  0.17245647262E+03  0.17120000000E+03 0.  0.
        998    1    1    2    0    0 -0.55094579583E+02  0.12799367615E+02  0.12526099789E+04  0.12539262322E+04  0.10000000000E+02 0. -1.
</event>
<event>
 5    1  0.1245771E-008  0.3862057E+03  0.7957747E-01  0.3424575E+00
         13   -1    0    0    0    0  0.00000000000E+00  0.00000000000E+00  0.14999999963E+04  0.15000000000E+04  0.10566000000E+00 0.  1.
        994   -1    0    0    0    0 -0.00000000000E+00 -0.00000000000E+00  0.11368683772E-12  0.17120000000E+03  0.17120000000E+03 0.  0.
         13    1    1    2    0    0 -0.29823213965E+01 -0.11758848938E+02  0.69821146651E+02  0.70867259387E+02  0.10566000000E+00 0.  1.
        994    1    1    2    0    0 -0.69980870265E+01  0.14752107383E+02  0.19065417457E+01  0.17198742046E+03  0.17120000000E+03 0.  0.
        998    1    1    2    0    0  0.99804084230E+01 -0.29932584452E+01  0.14282723079E+04  0.14283453202E+04  0.10000000000E+02 0.  1.
</event>
<event>
 5    1  0.1245771E-008  0.3788661E+03  0.7957747E-01  0.3456111E+00
         13   -1    0    0    0    0  0.00000000000E+00  0.00000000000E+00  0.14999999963E+04  0.15000000000E+04  0.10566000000E+00 0.  1.
        994   -1    0    0    0    0 -0.00000000000E+00 -0.00000000000E+00  0.11368683772E-12  0.17120000000E+03  0.17120000000E+03 0.  0.
         13    1    1    2    0    0  0.14678236833E+02 -0.36485720251E+02  0.18874037761E+03  0.19279419007E+03  0.10566000000E+00 0.  1.
        994    1    1    2    0    0  0.79244577277E+01  0.48118782773E+01  0.49950890821E+01  0.17152359056E+03  0.17120000000E+03 0.  0.
        998    1    1    2    0    0 -0.22602694560E+02  0.31673841974E+02  0.13062645296E+04  0.13068822194E+04  0.10000000000E+02 0.  1.
</event>
<event>
 5    1  0.1245771E-008  0.3840033E+03  0.7957747E-01  0.3433910E+00
         13   -1    0    0    0    0  0.00000000000E+00  0.00000000000E+00  0.14999999963E+04  0.15000000000E+04  0.10566000000E+00 0.  1.
        994   -1    0    0    0    0 -0.00000000000E+00 -0.00000000000E+00  0.11368683772E-12  0.17120000000E+03  0.17120000000E+03 0.  0.
         13    1    1    2    0    0  0.79859581540E+01 -0.11281660214E+02  0.48760128213E+02  0.50681482340E+02  0.10566000000E+00 0.  1.
        994    1    1    2    0    0  0.73158670239E+01 -0.63973838819E+01  0.24374590419E+01  0.17149294340E+03  0.17120000000E+03 0.  0.
        998    1    1    2    0    0 -0.15301825178E+02  0.17679044095E+02  0.14488024090E+04  0.14490255743E+04  0.10000000000E+02 0.  1.
</event>
<event>
 5    1  0.1245771E-008  0.3822739E+03  0.7957747E-01  0.3441317E+00
         13   -1    0    0    0    0  0.00000000000E+00  0.00000000000E+00  0.14999999963E+04  0.15000000000E+04  0.10566000000E+00 0.  1.
        994   -1    0    0    0    0 -0.00000000000E+00 -0.00000000000E+00  0.11368683772E-12  0.17120000000E+03  0.17120000000E+03 0.  0.
         13    1    1    2    0    0 -0.33079658085E+02  0.10438987667E+01  0.18012542971E+03  0.18314075214E+03  0.10566000000E+00 0.  1.
        994    1    1    2    0    0  0.21138121946E+02  0.70969036088E+01  0.46410602592E+01  0.17270832545E+03  0.17120000000E+03 0.  0.
        998    1    1    2    0    0  0.11941536138E+02 -0.81408023755E+01  0.13152335063E+04  0.13153509224E+04  0.10000000000E+02 0.  1.
</event>
<event>
 5    1  0.1245771E-008  0.3837682E+03  0.7957747E-01  0.3434913E+00
         13   -1    0    0    0    0  0.00000000000E+00  0.00000000000E+00  0.14999999963E+04  0.15000000000E+04  0.10566000000E+00 0. -1.
        994   -1    0    0    0    0 -0.00000000000E+00 -0.00000000000E+00  0.11368683772E-12  0.17120000000E+03  0.17120000000E+03 0.  0.
         13    1    1    2    0    0  0.18517884000E+02  0.89984414547E+01  0.97852330617E+02  0.99994868606E+02  0.10566000000E+00 0. -1.
        994    1    1    2    0    0 -0.25555996414E+01 -0.10888748611E+02  0.26560835246E+01  0.17158552012E+03  0.17120000000E+03 0.  0.
        998    1    1    2    0    0 -0.15962284358E+02  0.18903071564E+01  0.13994915821E+04  0.13996196113E+04  0.10000000000E+02 0. -1.
</event>
<event>
 5    1  0.1245771E-008  0.3809594E+03  0.7957747E-01  0.3446992E+00
         13   -1    0    0    0    0  0.00000000000E+00  0.00000000000E+00  0.14999999963E+04  0.15000000000E+04  0.10566000000E+00 0. -1.
        994   -1    0    0    0    0 -0.00000000000E+00 -0.00000000000E+00  0.11368683772E-12  0.17120000000E+03  0.17120000000E+03 0.  0.
         13    1    1    2    0    0 -0.20854825904E+02  0.26890413635E+01  0.59741795323E+02  0.63334413863E+02  0.10566000000E+00 0. -1.
        994    1    1    2    0    0  0.13679394194E+02  0.13624988816E+02  0.48927962866E+01  0.17235470867E+03  0.17120000000E+03 0.  0.
        998    1    1    2    0    0  0.71754317100E+01 -0.16314030179E+02  0.14353654047E+04  0.14355108775E+04  0.10000000000E+02 0. -1.
</event>
<event>
 5    1  0.1245771E-008  0.3689870E+03  0.7957747E-01  0.3500559E+00
         13   -1    0    0    0    0  0.00000000000E+00  0.00000000000E+00  0.14999999963E+04  0.15000000000E+04  0.10566000000E+00 0. -1.
        994   -1    0    0    0    0 -0.00000000000E+00 -0.00000000000E+00  0.11368683772E-12  0.17120000000E+03  0.17120000000E+03 0.  0.
         13    1    1    2    0    0 -0.25360943988E+02 -0.34145365830E+02  0.90445163847E+02  0.99947097582E+02  0.10566000000E+00 0. -1.
        994    1    1    2    0    0  0.16619721533E+02 -0.83971985811E+01  0.11612958176E+02  0.17260077892E+03  0.17120000000E+03 0.  0.
        998    1    1    2    0    0  0.87412224547E+01  0.42542564411E+02  0.13979418743E+04  0.13986521235E+04  0.10000000000E+02 0. -1.
</event>
<event>
 5    1  0.1245771E-008  0.3851602E+03  0.7957747E-01  0.3428993E+00
         13   -1    0    0    0    0  0.00000000000E+00  0.00000000000E+00  0.14999999963E+04  0.15000000000E+04  0.10566000000E+00 0.  1.
        994   -1    0    0    0    0 -0.00000000000E+00 -0.00000000000E+00  0.11368683772E-12  0.17120000000E+03  0.17120000000E+03 0.  0.
         13    1    1    2    0    0  0.81250638511E+01  0.73327050487E+01  0.37826707283E+02  0.39378371904E+02  0.10566000000E+00 0.  1.
        994    1    1    2    0    0 -0.13364232827E+02 -0.19903618681E+01  0.21509117993E+01  0.17174583163E+03  0.17120000000E+03 0.  0.
        998    1    1    2    0    0  0.52391689760E+01 -0.53423431806E+01  0.14600223772E+04  0.14600757965E+04  0.10000000000E+02 0.  1.
</event>
<event>
 5    1  0.1245771E-008  0.3853360E+03  0.7957747E-01  0.3428248E+00
         13   -1    0    0    0    0  0.00000000000E+00  0.00000000000E+00  0.14999999963E+04  0.15000000000E+04  0.10566000000E+00 0. -1.
        994   -1    0    0    0    0 -0.00000000000E+00 -0.00000000000E+00  0.11368683772E-12  0.17120000000E+03  0.17120000000E+03 0.  0.
         13    1    1    2    0    0 -0.24654048155E+02 -0.61027427685E+00  0.14025771796E+03  0.14240938571E+03  0.10566000000E+00 0. -1.
        994    1    1    2    0    0  0.60269295576E+02  0.38848154279E+02  0.18539964669E+02  0.18653347520E+03  0.17120000000E+03 0.  0.
        998    1    1    2    0    0 -0.35615247422E+02 -0.38237880003E+02  0.13412023136E+04  0.13422571391E+04  0.10000000000E+02 0. -1.
</event>
<event>
 5    1  0.1245771E-008  0.3787271E+03  0.7957747E-01  0.3456720E+00
         13   -1    0    0    0    0  0.00000000000E+00  0.00000000000E+00  0.14999999963E+04  0.15000000000E+04  0.10566000000E+00 0. -1.
        994   -1    0    0    0    0 -0.00000000000E+00 -0.00000000000E+00  0.11368683772E-12  0.17120000000E+03  0.17120000000E+03 0.  0.
         13    1    1    2    0    0 -0.28342526815E+00  0.10205950281E+02  0.86854874544E+01  0.13404872524E+02  0.10566000000E+00 0. -1.
        994    1    1    2    0    0 -0.12680701629E+01 -0.11201548057E+02  0.52038193909E+01  0.17164965021E+03  0.17120000000E+03 0.  0.
        998    1    1    2    0    0  0.15514954311E+01  0.99559777625E+00  0.14861106894E+04  0.14861454773E+04  0.10000000000E+02 0. -1.
</event>
<event>
 5    1  0.1245771E-008  0.3798455E+03  0.7957747E-01  0.3451831E+00
         13   -1    0    0    0    0  0.00000000000E+00  0.00000000000E+00  0.14999999963E+04  0.15000000000E+04  0.10566000000E+00 0.  1.
        994   -1    0    0    0    0 -0.00000000000E+00 -0.00000000000E+00  0.11368683772E-12  0.17120000000E+03  0.17120000000E+03 0.  0.
         13    1    1    2    0    0  0.35440933358E+02  0.31400197045E+02  0.23558971504E+03  0.24030097197E+03  0.10566000000E+00 0.  1.
        994    1    1    2    0    0 -0.34417495325E+02 -0.24377676974E+02  0.10183717192E+02  0.17661252281E+03  0.17120000000E+03 0.  0.
        998    1    1    2    0    0 -0.10234380333E+01 -0.70225200707E+01  0.12542265640E+04  0.12542865052E+04  0.10000000000E+02 0.  1.
</event>
<event>
 5    1  0.1245771E-008  0.3912781E+03  0.7957747E-01  0.3403475E+00
         13   -1    0    0    0    0  0.00000000000E+00  0.00000000000E+00  0.14999999963E+04  0.15000000000E+04  0.10566000000E+00 0. -1.
        994   -1    0    0    0    0 -0.00000000000E+00 -0.00000000000E+00  0.11368683772E-12  0.17120000000E+03  0.17120000000E+03 0.  0.
         13    1    1    2    0    0  0.53082416715E+02  0.35530095098E+02  0.11814740669E+03  0.13430916385E+03  0.10566000000E+00 0. -1.
        994    1    1    2    0    0  0.77892193713E+02  0.18508925982E+02  0.47331015998E+02  0.19483182301E+03  0.17120000000E+03 0.  0.
        998    1    1    2    0    0 -0.13097461043E+03 -0.54039021080E+02  0.13345215736E+04  0.13420590131E+04  0.10000000000E+02 0. -1.
</event>
<event>
 5    1  0.1245771E-008  0.3732817E+03  0.7957747E-01  0.3480943E+00
         13   -1    0    0    0    0  0.00000000000E+00  0.00000000000E+00  0.14999999963E+04  0.15000000000E+04  0.10566000000E+00 0.  1.
        994   -1    0    0    0    0 -0.00000000000E+00 -0.00000000000E+00  0.11368683772E-12  0.17120000000E+03  0.17120000000E+03 0.  0.
         13    1    1    2    0    0 -0.25758201718E+01 -0.52926690593E+02  0.20664633903E+03  0.21333211203E+03  0.10566000000E+00 0.  1.
        994    1    1    2    0    0 -0.61790155945E+01  0.10642603436E+02  0.80817050659E+01  0.17183189226E+03  0.17120000000E+03 0.  0.
        998    1    1    2    0    0  0.87548357663E+01  0.42284087157E+02  0.12852719522E+04  0.12860359957E+04  0.10000000000E+02 0.  1.
</event>
<event>
 5    1  0.1245771E-008  0.3804763E+03  0.7957747E-01  0.3449087E+00
         13   -1    0    0    0    0  0.00000000000E+00  0.00000000000E+00  0.14999999963E+04  0.15000000000E+04  0.10566000000E+00 0.  1.
        994   -1    0    0    0    0 -0.00000000000E+00 -0.00000000000E+00  0.11368683772E-12  0.17120000000E+03  0.17120000000E+03 0.  0.
         13    1    1    2    0    0 -0.77437846096E+01 -0.21392733109E+02  0.62002160456E+02  0.66044638656E+02  0.10566000000E+00 0.  1.
        994    1    1    2    0    0  0.56612594167E+01  0.25672447593E+02  0.62030552747E+01  0.17331774958E+03  0.17120000000E+03 0.  0.
        998    1    1    2    0    0  0.20825251928E+01 -0.42797144839E+01  0.14317947805E+04  0.14318376118E+04  0.10000000000E+02 0.  1.
</event>
<event>
 5    1  0.1245771E-008  0.3708475E+03  0.7957747E-01  0.3492005E+00
         13   -1    0    0    0    0  0.00000000000E+00  0.00000000000E+00  0.14999999963E+04  0.15000000000E+04  0.10566000000E+00 0. -1.
        994   -1    0    0    0    0 -0.00000000000E+00 -0.00000000000E+00  0.11368683772E-12  0.17120000000E+03  0.17120000000E+03 0.  0.
         13    1    1    2    0    0  0.33811650613E+02  0.10511603539E+01  0.72469699112E+02  0.79976253405E+02  0.10566000000E+00 0. -1.
        994    1    1    2    0    0  0.26467805620E+02  0.28821437804E+02  0.14124232671E+02  0.17618216130E+03  0.17120000000E+03 0.  0.
        998    1    1    2    0    0 -0.60279456233E+02 -0.29872598158E+02  0.14134060645E+04  0.14150415853E+04  0.10000000000E+02 0. -1.
</event>
<event>
 5    1  0.1245771E-008  0.3845977E+03  0.7957747E-01  0.3431380E+00
         13   -1    0    0    0    0  0.00000000000E+00  0.00000000000E+00  0.14999999963E+04  0.15000000000E+04  0.10566000000E+00 0. -1.
        994   -1    0    0    0    0 -0.00000000000E+00 -0.00000000000E+00  0.11368683772E-12  0.17120000000E+03  0.17120000000E+03 0.  0.
         13    1    1    2    0    0  0.90964538589E+01 -0.12633024130E+02  0.69216658802E+02  0.70945724263E+02  0.10566000000E+00 0. -1.
        994    1    1    2    0    0  0.58825913823E+01  0.76047664578E+01  0.21344700772E+01  0.17148304090E+03  0.17120000000E+03 0.  0.
        998    1    1    2    0    0 -0.14979045241E+02  0.50282576722E+01  0.14286488674E+04  0.14287712348E+04  0.10000000000E+02 0. -1.
</event>
<event>
 5    1  0.1245771E-008  0.3712452E+03  0.7957747E-01  0.3490188E+00
         13   -1    0    0    0    0  0.00000000000E+00  0.00000000000E+00  0.14999999963E+04  0.15000000000E+04  0.10566000000E+00 0.  1.
        994   -1    0    0    0    0 -0.00000000000E+00 -0.00000000000E+00  0.11368683772E-12  0.17120000000E+03  0.17120000000E+03 0.  0.
         13    1    1    2    0    0  0.16699638204E+02  0.78541836891E+02  0.29701348867E+03  0.30767632615E+03  0.10566000000E+00 0.  1.
        994    1    1    2    0    0 -0.10978184542E+02 -0.79690197611E+02  0.31239628333E+02  0.19171959344E+03  0.17120000000E+03 0.  0.
        998    1    1    2    0    0 -0.57214536620E+01  0.11483607197E+01  0.11717468793E+04  0.11718040804E+04  0.10000000000E+02 0.  1.
</event>
<event>
 5    1  0.1245771E-008  0.3839719E+03  0.7957747E-01  0.3434044E+00
         13   -1    0    0    0    0  0.00000000000E+00  0.00000000000E+00  0.14999999963E+04  0.15000000000E+04  0.10566000000E+00 0.  1.
        994   -1    0    0    0    0 -0.00000000000E+00 -0.00000000000E+00  0.11368683772E-12  0.17120000000E+03  0.17120000000E+03 0.  0.
         13    1    1    2    0    0  0.12407110437E+02  0.27647305649E+02  0.16866768435E+03  0.17136834249E+03  0.10566000000E+00 0.  1.
        994    1    1    2    0    0 -0.85202486764E+01 -0.46016268169E+02  0.94017231659E+01  0.17772991862E+03  0.17120000000E+03 0.  0.
        998    1    1    2    0    0 -0.38868617606E+01  0.18368962520E+02  0.13219305888E+04  0.13221017389E+04  0.10000000000E+02 0. -1.
</event>
<event>
 5    1  0.1286782E-008  0.3860542E+03  0.7957747E-01  0.3425214E+00
         13   -1    0    0    0    0  0.00000000000E+00  0.00000000000E+00  0.14999999963E+04  0.15000000000E+04  0.10566000000E+00 0.  1.
        994   -1    0    0    0    0 -0.00000000000E+00 -0.00000000000E+00  0.11368683772E-12  0.17120000000E+03  0.17120000000E+03 0.  0.
         13    1    1    2    0    0 -0.11437705609E+02 -0.25313581085E+00  0.57505546776E+02  0.58632621137E+02  0.10566000000E+00 0.  1.
        994    1    1    2    0    0  0.13192839121E+02  0.21842628283E+01  0.16939575064E+01  0.17172982123E+03  0.17120000000E+03 0.  0.
        998    1    1    2    0    0 -0.17551335117E+01 -0.19311270175E+01  0.14408004920E+04  0.14408375576E+04  0.10000000000E+02 0.  1.
</event>
<event>
 5    1  0.1245771E-008  0.3810440E+03  0.7957747E-01  0.3446625E+00
         13   -1    0    0    0    0  0.00000000000E+00  0.00000000000E+00  0.14999999963E+04  0.15000000000E+04  0.10566000000E+00 0. -1.
        994   -1    0    0    0    0 -0.00000000000E+00 -0.00000000000E+00  0.11368683772E-12  0.17120000000E+03  0.17120000000E+03 0.  0.
         13    1    1    2    0    0  0.37336310325E+02 -0.23431332692E+02  0.24394089625E+03  0.24789150742E+03  0.10566000000E+00 0. -1.
        994    1    1    2    0    0 -0.26013973554E+02  0.26800845299E+02  0.82684244932E+01  0.17542183152E+03  0.17120000000E+03 0.  0.
        998    1    1    2    0    0 -0.11322336771E+02 -0.33695126072E+01  0.12477906755E+04  0.12478866611E+04  0.10000000000E+02 0. -1.
</event>
<event>
 5    1  0.1245771E-008  0.3840830E+03  0.7957747E-01  0.3433571E+00
         13   -1    0    0    0    0  0.00000000000E+00  0.00000000000E+00  0.14999999963E+04  0.15000000000E+04  0.10566000000E+00 0. -1.
        994   -1    0    0    0    0 -0.00000000000E+00 -0.00000000000E+00  0.11368683772E-12  0.17120000000E+03  0.17120000000E+03 0.  0.
         13    1    1    2    0    0 -0.11457390679E+02  0.81010973360E+01  0.47980511149E+02  0.49990401012E+02  0.10566000000E+00 0. -1.
        994    1    1    2    0    0  0.66344953291E+01  0.23633898314E+01  0.22497342806E+01  0.17135957354E+03  0.17120000000E+03 0.  0.
        998    1    1    2    0    0  0.48228953500E+01 -0.10464487167E+02  0.14497697508E+04  0.14498500254E+04  0.10000000000E+02 0. -1.
</event>
<event>
 5    1  0.1245771E-008  0.3826752E+03  0.7957747E-01  0.3439592E+00
         13   -1    0    0    0    0  0.00000000000E+00  0.00000000000E+00  0.14999999963E+04  0.15000000000E+04  0.10566000000E+00 0. -1.
        994   -1    0    0    0    0 -0.00000000000E+00 -0.00000000000E+00  0.11368683772E-12  0.17120000000E+03  0.17120000000E+03 0.  0.
         13    1    1    2    0    0  0.85016987238E+01  0.77501740735E+01  0.22230444698E+02  0.25030939153E+02  0.10566000000E+00 0. -1.
        994    1    1    2    0    0 -0.92416611415E+01 -0.11383124156E+02  0.35014659736E+01  0.17186239868E+03  0.17120000000E+03 0.  0.
        998    1    1    2    0    0  0.73996241774E+00  0.36329500823E+01  0.14742680856E+04  0.14743066622E+04  0.10000000000E+02 0. -1.
</event>
<event>
 5    1  0.1245771E-008  0.3844370E+03  0.7957747E-01  0.3432064E+00
         13   -1    0    0    0    0  0.00000000000E+00  0.00000000000E+00  0.14999999963E+04  0.15000000000E+04  0.10566000000E+00 0.  1.
        994   -1    0    0    0    0 -0.00000000000E+00 -0.00000000000E+00  0.11368683772E-12  0.17120000000E+03  0.17120000000E+03 0.  0.
         13    1    1    2    0    0  0.75864413681E+01  0.22927338344E+02  0.14248484658E+03  0.14451698725E+03  0.10566000000E+00 0.  1.
        994    1    1    2    0    0 -0.11765016657E+02 -0.19839830686E+02  0.36647566112E+01  0.17278571972E+03  0.17120000000E+03 0.  0.
        998    1    1    2    0    0  0.41785752893E+01 -0.30875076583E+01  0.13538503931E+04  0.13538972930E+04  0.10000000000E+02 0.  1.
</event>
<event>
 5    1  0.1245771E-008  0.3700139E+03  0.7957747E-01  0.3495827E+00
         13   -1    0    0    0    0  0.00000000000E+00  0.00000000000E+00  0.14999999963E+04  0.15000000000E+04  0.10566000000E+00 0. -1.
        994   -1    0    0    0    0 -0.00000000000E+00 -0.00000000000E+00  0.11368683772E-12  0.17120000000E+03  0.17120000000E+03 0.  0.
         13    1    1    2    0    0 -0.18126013202E+02 -0.21258165127E+02  0.38550950607E+02  0.47609336226E+02  0.10566000000E+00 0. -1.
        994    1    1    2    0    0  0.39438580728E+02 -0.10858836766E+02  0.15069538181E+02  0.17666308886E+03  0.17120000000E+03 0.  0.
        998    1    1    2    0    0 -0.21312567527E+02  0.32117001894E+02  0.14463795075E+04  0.14469275749E+04  0.10000000000E+02 0. -1.
</event>
<event>
 5    1  0.1245771E-008  0.3807213E+03  0.7957747E-01  0.3448024E+00
         13   -1    0    0    0    0  0.00000000000E+00  0.00000000000E+00  0.14999999963E+04  0.15000000000E+04  0.10566000000E+00 0. -1.
        994   -1    0    0    0    0 -0.00000000000E+00 -0.00000000000E+00  0.11368683772E-12  0.17120000000E+03  0.17120000000E+03 0.  0.
         13    1    1    2    0    0  0.11577296258E+02 -0.45911902651E+01  0.18859705188E+02  0.22601160601E+02  0.10566000000E+00 0. -1.
        994    1    1    2    0    0 -0.84836174155E+01  0.10523613925E+02  0.43790989205E+01  0.17178863386E+03  0.17120000000E+03 0.  0.
        998    1    1    2    0    0 -0.30936788420E+01 -0.59324236596E+01  0.14767611922E+04  0.14768102055E+04  0.10000000000E+02 0. -1.
</event>
<event>
 5    1  0.1245771E-008  0.3852961E+03  0.7957747E-01  0.3428417E+00
         13   -1    0    0    0    0  0.00000000000E+00  0.00000000000E+00  0.14999999963E+04  0.15000000000E+04  0.10566000000E+00 0.  1.
        994   -1    0    0    0    0 -0.00000000000E+00 -0.00000000000E+00  0.11368683772E-12  0.17120000000E+03  0.17120000000E+03 0.  0.
         13    1    1    2    0    0 -0.11969399162E+02  0.18299183490E+01  0.49191832684E+02  0.50660267314E+02  0.10566000000E+00 0.  1.
        994    1    1    2    0    0  0.90103917449E+01 -0.24069022825E+01  0.17690414476E+01  0.17146296931E+03  0.17120000000E+03 0.  0.
        998    1    1    2    0    0  0.29590074171E+01  0.57698393351E+00  0.14490391221E+04  0.14490767634E+04  0.10000000000E+02 0.  1.
</event>
<event>
 5    1  0.1245771E-008  0.2578079E+03  0.7957747E-01  0.4252458E+00
         13   -1    0    0    0    0  0.00000000000E+00  0.00000000000E+00  0.14999999963E+04  0.15000000000E+04  0.10566000000E+00 0. -1.
        994   -1    0    0    0    0 -0.00000000000E+00 -0.00000000000E+00  0.11368683772E-12  0.17120000000E+03  0.17120000000E+03 0.  0.
         13    1    1    2    0    0 -0.91970630282E+02 -0.91644187626E+02  0.59263131701E+03  0.60668702230E+03  0.10566000000E+00 0. -1.
        994    1    1    2    0    0  0.23255970544E+02 -0.38958730271E+02  0.36067194930E+02  0.18074541593E+03  0.17120000000E+03 0.  0.
        998    1    1    2    0    0  0.68714659739E+02  0.13060291790E+03  0.87130148434E+03  0.88376756177E+03  0.10000000000E+02 0. -1.
</event>
<event>
 5    1  0.1245771E-008  0.3858413E+03  0.7957747E-01  0.3426112E+00
         13   -1    0    0    0    0  0.00000000000E+00  0.00000000000E+00  0.14999999963E+04  0.15000000000E+04  0.10566000000E+00 0. -1.
        994   -1    0    0    0    0 -0.00000000000E+00 -0.00000000000E+00  0.11368683772E-12  0.17120000000E+03  0.17120000000E+03 0.  0.
         13    1    1    2    0    0 -0.87523496923E+01 -0.11159004503E+02  0.83464869362E+02  0.84661222459E+02  0.10566000000E+00 0. -1.
        994    1    1    2    0    0  0.64055057359E+01  0.70974519329E+01  0.15128770837E+01  0.17147341813E+03  0.17120000000E+03 0.  0.
        998    1    1    2    0    0  0.23468439564E+01  0.40615525701E+01  0.14150222498E+04  0.14150653594E+04  0.10000000000E+02 0. -1.
</event>
<event>
 5    1  0.1245771E-008  0.3770494E+03  0.7957747E-01  0.3464108E+00
         13   -1    0    0    0    0  0.00000000000E+00  0.00000000000E+00  0.14999999963E+04  0.15000000000E+04  0.10566000000E+00 0. -1.
        994   -1    0    0    0    0 -0.00000000000E+00 -0.00000000000E+00  0.11368683772E-12  0.17120000000E+03  0.17120000000E+03 0.  0.
         13    1    1    2    0    0 -0.35474668470E+01  0.73882880864E+02  0.21861963760E+03  0.23079389444E+03  0.10566000000E+00 0. -1.
        994    1    1    2    0    0 -0.19742517908E+02 -0.61113545155E+01  0.16248391705E+02  0.17320671436E+03  0.17120000000E+03 0.  0.
        998    1    1    2    0    0  0.23289984755E+02 -0.67771526348E+02  0.12651319670E+04  0.12671993912E+04  0.10000000000E+02 0. -1.
</event>
<event>
 5    1  0.1245771E-008  0.3824663E+03  0.7957747E-01  0.3440489E+00
         13   -1    0    0    0    0  0.00000000000E+00  0.00000000000E+00  0.14999999963E+04  0.15000000000E+04  0.10566000000E+00 0.  1.
        994   -1    0    0    0    0 -0.00000000000E+00 -0.00000000000E+00  0.11368683772E-12  0.17120000000E+03  0.17120000000E+03 0.  0.
         13    1    1    2    0    0  0.15295444872E+02  0.14047003939E+02  0.74352079224E+02  0.77197874339E+02  0.10566000000E+00 0.  1.
        994    1    1    2    0    0  0.32226137264E+01 -0.20602546764E+02  0.43365545533E+01  0.17251984198E+03  0.17120000000E+03 0.  0.
        998    1    1    2    0    0 -0.18518058598E+02  0.65555428252E+01  0.14213113625E+04  0.14214822837E+04  0.10000000000E+02 0.  1.
</event>
<event>
 5    1  0.1245771E-008  0.3786604E+03  0.7957747E-01  0.3457012E+00
         13   -1    0    0    0    0  0.00000000000E+00  0.00000000000E+00  0.14999999963E+04  0.15000000000E+04  0.10566000000E+00 0.  1.
        994   -1    0    0    0    0 -0.00000000000E+00 -0.00000000000E+00  0.11368683772E-12  0.17120000000E+03  0.17120000000E+03 0.  0.
         13    1    1    2    0    0  0.19629240227E+02  0.33044574266E+01  0.38021963760E+02  0.42917448701E+02  0.10566000000E+00 0.  1.
        994    1    1    2    0    0 -0.22293278393E+02 -0.94557228259E+01  0.67823905527E+01  0.17303711098E+03  0.17120000000E+03 0.  0.
        998    1    1    2    0    0  0.26640381658E+01  0.61512653993E+01  0.14551956420E+04  0.14552454403E+04  0.10000000000E+02 0.  1.
</event>
<event>
 5    1  0.1245771E-008  0.3697942E+03  0.7957747E-01  0.3496837E+00
         13   -1    0    0    0    0  0.00000000000E+00  0.00000000000E+00  0.14999999963E+04  0.15000000000E+04  0.10566000000E+00 0. -1.
        994   -1    0    0    0    0 -0.00000000000E+00 -0.00000000000E+00  0.11368683772E-12  0.17120000000E+03  0.17120000000E+03 0.  0.
         13    1    1    2    0    0 -0.76971248416E+02 -0.26356396416E+02  0.47125552408E+03  0.47822694702E+03  0.10566000000E+00 0. -1.
        994    1    1    2    0    0  0.53295803710E+01  0.36069038359E+02  0.13990440924E+02  0.17559770042E+03  0.17120000000E+03 0.  0.
        998    1    1    2    0    0  0.71641668045E+02 -0.97126419435E+01  0.10147540313E+04  0.10173753526E+04  0.10000000000E+02 0. -1.
</event>
<event>
 5    1  0.1245771E-008  0.3750916E+03  0.7957747E-01  0.3472813E+00
         13   -1    0    0    0    0  0.00000000000E+00  0.00000000000E+00  0.14999999963E+04  0.15000000000E+04  0.10566000000E+00 0. -1.
        994   -1    0    0    0    0 -0.00000000000E+00 -0.00000000000E+00  0.11368683772E-12  0.17120000000E+03  0.17120000000E+03 0.  0.
         13    1    1    2    0    0 -0.16266184797E+02  0.16507956410E+02  0.37001825619E+02  0.43660596146E+02  0.10566000000E+00 0. -1.
        994    1    1    2    0    0  0.14463256855E+02 -0.18511279830E+02  0.85092234764E+01  0.17301358376E+03  0.17120000000E+03 0.  0.
        998    1    1    2    0    0  0.18029279422E+01  0.20033234198E+01  0.14544889472E+04  0.14545258201E+04  0.10000000000E+02 0. -1.
</event>
<event>
 5    1  0.1245771E-008  0.3861912E+03  0.7957747E-01  0.3424636E+00
         13   -1    0    0    0    0  0.00000000000E+00  0.00000000000E+00  0.14999999963E+04  0.15000000000E+04  0.10566000000E+00 0.  1.
        994   -1    0    0    0    0 -0.00000000000E+00 -0.00000000000E+00  0.11368683772E-12  0.17120000000E+03  0.17120000000E+03 0.  0.
         13    1    1    2    0    0 -0.11344816799E+02  0.44488626122E+01  0.69007210982E+02  0.70074985396E+02  0.10566000000E+00 0.  1.
        994    1    1    2    0    0  0.11640587608E+02 -0.92158912174E+01  0.17623618722E+01  0.17185162743E+03  0.17120000000E+03 0.  0.
        998    1    1    2    0    0 -0.29577080922E+00  0.47670286051E+01  0.14292304234E+04  0.14292733872E+04  0.10000000000E+02 0.  1.
</event>
<event>
 5    1  0.1245771E-008  0.3843772E+03  0.7957747E-01  0.3432318E+00
         13   -1    0    0    0    0  0.00000000000E+00  0.00000000000E+00  0.14999999963E+04  0.15000000000E+04  0.10566000000E+00 0.  1.
        994   -1    0    0    0    0 -0.00000000000E+00 -0.00000000000E+00  0.11368683772E-12  0.17120000000E+03  0.17120000000E+03 0.  0.
         13    1    1    2    0    0 -0.13004209999E+02  0.15368585695E+02  0.10179335615E+03  0.10376512624E+03  0.10566000000E+00 0.  1.
        994    1    1    2    0    0 -0.45490440587E+00 -0.21605849758E+02  0.34801569868E+01  0.17259365914E+03  0.17120000000E+03 0.  0.
        998    1    1    2    0    0  0.13459114404E+02  0.62372640624E+01  0.13947264831E+04  0.13948412146E+04  0.10000000000E+02 0.  1.
</event>
<event>
 5    1  0.1245771E-008  0.3828606E+03  0.7957747E-01  0.3438797E+00
         13   -1    0    0    0    0  0.00000000000E+00  0.00000000000E+00  0.14999999963E+04  0.15000000000E+04  0.10566000000E+00 0.  1.
        994   -1    0    0    0    0 -0.00000000000E+00 -0.00000000000E+00  0.11368683772E-12  0.17120000000E+03  0.17120000000E+03 0.  0.
         13    1    1    2    0    0  0.16804766538E+02 -0.11654953876E+01  0.52590447988E+02  0.55222503941E+02  0.10566000000E+00 0.  1.
        994    1    1    2    0    0 -0.77140695756E+01  0.88956351456E+00  0.28957735007E+01  0.17140047753E+03  0.17120000000E+03 0.  0.
        998    1    1    2    0    0 -0.90906969628E+01  0.27593187309E+00  0.14445137748E+04  0.14445770185E+04  0.10000000000E+02 0.  1.
</event>
<event>
 5    1  0.1245771E-008  0.3851835E+03  0.7957747E-01  0.3428894E+00
         13   -1    0    0    0    0  0.00000000000E+00  0.00000000000E+00  0.14999999963E+04  0.15000000000E+04  0.10566000000E+00 0.  1.
        994   -1    0    0    0    0 -0.00000000000E+00 -0.00000000000E+00  0.11368683772E-12  0.17120000000E+03  0.17120000000E+03 0.  0.
         13    1    1    2    0    0 -0.14881701511E+02 -0.32370182306E+01  0.84178352422E+02  0.85545014509E+02  0.10566000000E+00 0.  1.
        994    1    1    2    0    0 -0.65125723753E+01  0.99776246798E+01  0.20057906787E+01  0.17162584243E+03  0.17120000000E+03 0.  0.
        998    1    1    2    0    0  0.21394273887E+02 -0.67406064492E+01  0.14138158532E+04  0.14140291431E+04  0.10000000000E+02 0.  1.
</event>
<event>
 5    1  0.1245771E-008  0.3796025E+03  0.7957747E-01  0.3452891E+00
         13   -1    0    0    0    0  0.00000000000E+00  0.00000000000E+00  0.14999999963E+04  0.15000000000E+04  0.10566000000E+00 0. -1.
        994   -1    0    0    0    0 -0.00000000000E+00 -0.00000000000E+00  0.11368683772E-12  0.17120000000E+03  0.17120000000E+03 0.  0.
         13    1    1    2    0    0  0.31142509261E+02  0.18072420796E+01  0.10387312320E+03  0.10845625337E+03  0.10566000000E+00 0. -1.
        994    1    1    2    0    0 -0.31718740024E+02  0.32526947127E+01  0.77445016233E+01  0.17431602278E+03  0.17120000000E+03 0.  0.
        998    1    1    2    0    0  0.57623076292E+00 -0.50599367923E+01  0.13883823715E+04  0.13884277239E+04  0.10000000000E+02 0.  1.
</event>
<event>
 5    1  0.1245771E-008  0.3795486E+03  0.7957747E-01  0.3453126E+00
         13   -1    0    0    0    0  0.00000000000E+00  0.00000000000E+00  0.14999999963E+04  0.15000000000E+04  0.10566000000E+00 0.  1.
        994   -1    0    0    0    0 -0.00000000000E+00 -0.00000000000E+00  0.11368683772E-12  0.17120000000E+03  0.17120000000E+03 0.  0.
         13    1    1    2    0    0 -0.26304874535E+02 -0.36977316962E+01  0.14898942309E+02  0.30456678906E+02  0.10566000000E+00 0.  1.
        994    1    1    2    0    0  0.26951157757E+02  0.29460146057E+00  0.18711791988E+02  0.17431587092E+03  0.17120000000E+03 0.  0.
        998    1    1    2    0    0 -0.64628322166E+00  0.34031302356E+01  0.14663892620E+04  0.14664274502E+04  0.10000000000E+02 0.  1.
</event>
<event>
 5    1  0.1245771E-008  0.3789514E+03  0.7957747E-01  0.3455737E+00
         13   -1    0    0    0    0  0.00000000000E+00  0.00000000000E+00  0.14999999963E+04  0.15000000000E+04  0.10566000000E+00 0.  1.
        994   -1    0    0    0    0 -0.00000000000E+00 -0.00000000000E+00  0.11368683772E-12  0.17120000000E+03  0.17120000000E+03 0.  0.
         13    1    1    2    0    0  0.21721008814E+02  0.45367627360E+00  0.63808545834E+02  0.67405858288E+02  0.10566000000E+00 0.  1.
        994    1    1    2    0    0  0.48839394440E+02  0.56870843686E+02  0.23751637071E+02  0.18839628333E+03  0.17120000000E+03 0.  0.
        998    1    1    2    0    0 -0.70560403254E+02 -0.57324519959E+02  0.14124398134E+04  0.14153978584E+04  0.10000000000E+02 0.  1.
</event>
<event>
 5    1  0.1245771E-008  0.3804295E+03  0.7957747E-01  0.3449290E+00
         13   -1    0    0    0    0  0.00000000000E+00  0.00000000000E+00  0.14999999963E+04  0.15000000000E+04  0.10566000000E+00 0. -1.
        994   -1    0    0    0    0 -0.00000000000E+00 -0.00000000000E+00  0.11368683772E-12  0.17120000000E+03  0.17120000000E+03 0.  0.
         13    1    1    2    0    0 -0.17444502014E+02 -0.43082347325E+01  0.40740996306E+02  0.44527648502E+02  0.10566000000E+00 0. -1.
        994    1    1    2    0    0  0.57156837046E+01 -0.27736072205E+01  0.40512360621E+01  0.17136573301E+03  0.17120000000E+03 0.  0.
        998    1    1    2    0    0  0.11728818309E+02  0.70818419530E+01  0.14552077639E+04  0.14553066185E+04  0.10000000000E+02 0. -1.
</event>
<event>
 5    1  0.1245771E-008  0.3692524E+03  0.7957747E-01  0.3499334E+00
         13   -1    0    0    0    0  0.00000000000E+00  0.00000000000E+00  0.14999999963E+04  0.15000000000E+04  0.10566000000E+00 0.  1.
        994   -1    0    0    0    0 -0.00000000000E+00 -0.00000000000E+00  0.11368683772E-12  0.17120000000E+03  0.17120000000E+03 0.  0.
         13    1    1    2    0    0  0.37828392199E+02 -0.98008068511E+01  0.65776404963E+02  0.76508755612E+02  0.10566000000E+00 0.  1.
        994    1    1    2    0    0 -0.37250232501E+02  0.12104536058E+02  0.15912265645E+02  0.17634267723E+03  0.17120000000E+03 0.  0.
        998    1    1    2    0    0 -0.57815969824E+00 -0.23037292074E+01  0.14183113257E+04  0.14183485672E+04  0.10000000000E+02 0.  1.
</event>
<event>
 5    1  0.1245771E-008  0.3726525E+03  0.7957747E-01  0.3483789E+00
         13   -1    0    0    0    0  0.00000000000E+00  0.00000000000E+00  0.14999999963E+04  0.15000000000E+04  0.10566000000E+00 0.  1.
        994   -1    0    0    0    0 -0.00000000000E+00 -0.00000000000E+00  0.11368683772E-12  0.17120000000E+03  0.17120000000E+03 0.  0.
         13    1    1    2    0    0  0.44379557061E+02 -0.40040844413E+01  0.73629016041E+02  0.86062889472E+02  0.10566000000E+00 0.  1.
        994    1    1    2    0    0 -0.41169837553E+02 -0.14775870594E+02  0.19130453406E+02  0.17773209087E+03  0.17120000000E+03 0.  0.
        998    1    1    2    0    0 -0.32097195076E+01  0.18779955036E+02  0.14072405268E+04  0.14074050197E+04  0.10000000000E+02 0.  1.
</event>
<event>
 5    1  0.1245771E-008  0.3851213E+03  0.7957747E-01  0.3429158E+00
         13   -1    0    0    0    0  0.00000000000E+00  0.00000000000E+00  0.14999999963E+04  0.15000000000E+04  0.10566000000E+00 0.  1.
        994   -1    0    0    0    0 -0.00000000000E+00 -0.00000000000E+00  0.11368683772E-12  0.17120000000E+03  0.17120000000E+03 0.  0.
         13    1    1    2    0    0  0.45862119803E+01 -0.17253154948E+02  0.10516334180E+03  0.10666791607E+03  0.10566000000E+00 0.  1.
        994    1    1    2    0    0  0.74737493607E+00  0.77434001763E+01  0.17689163844E+01  0.17138578669E+03  0.17120000000E+03 0.  0.
        998    1    1    2    0    0 -0.53335869164E+01  0.95097547717E+01  0.13930677381E+04  0.13931462972E+04  0.10000000000E+02 0.  1.
</event>
<event>
 5    1  0.1245771E-008  0.3815807E+03  0.7957747E-01  0.3444304E+00
         13   -1    0    0    0    0  0.00000000000E+00  0.00000000000E+00  0.14999999963E+04  0.15000000000E+04  0.10566000000E+00 0. -1.
        994   -1    0    0    0    0 -0.00000000000E+00 -0.00000000000E+00  0.11368683772E-12  0.17120000000E+03  0.17120000000E+03 0.  0.
         13    1    1    2    0    0 -0.20134070756E+02 -0.22613466386E+02  0.12021351515E+03  0.12396793963E+03  0.10566000000E+00 0. -1.
        994    1    1    2    0    0  0.20297861064E+02  0.33825361962E+02  0.85297483798E+01  0.17589302113E+03  0.17120000000E+03 0.  0.
        998    1    1    2    0    0 -0.16379030807E+00 -0.11211895576E+02  0.13712567328E+04  0.13713390392E+04  0.10000000000E+02 0. -1.
</event>
<event>
 5    1  0.1245771E-008  0.3765392E+03  0.7957747E-01  0.3466367E+00
         13   -1    0    0    0    0  0.00000000000E+00  0.00000000000E+00  0.14999999963E+04  0.15000000000E+04  0.10566000000E+00 0.  1.
        994   -1    0    0    0    0 -0.00000000000E+00 -0.00000000000E+00  0.11368683772E-12  0.17120000000E+03  0.17120000000E+03 0.  0.
         13    1    1    2    0    0  0.47998216258E+00 -0.13814931836E+02 -0.37765286449E-01  0.13823722898E+02  0.10566000000E+00 0.  1.
        994    1    1    2    0    0  0.28684625203E+01  0.13273618811E+02  0.15099276394E+02  0.17240024705E+03  0.17120000000E+03 0.  0.
        998    1    1    2    0    0 -0.33484446828E+01  0.54131302564E+00  0.14849384852E+04  0.14849760301E+04  0.10000000000E+02 0.  1.
</event>
<event>
 5    1  0.1245771E-008  0.3742860E+03  0.7957747E-01  0.3476422E+00
         13   -1    0    0    0    0  0.00000000000E+00  0.00000000000E+00  0.14999999963E+04  0.15000000000E+04  0.10566000000E+00 0.  1.
        994   -1    0    0    0    0 -0.00000000000E+00 -0.00000000000E+00  0.11368683772E-12  0.17120000000E+03  0.17120000000E+03 0.  0.
         13    1    1    2    0    0 -0.11697653924E+02 -0.43069525521E+02  0.12468930892E+03  0.13243584884E+03  0.10566000000E+00 0.  1.
        994    1    1    2    0    0  0.62955431976E+01  0.50636925594E+02  0.15970116879E+02  0.17935500197E+03  0.17120000000E+03 0.  0.
        998    1    1    2    0    0  0.54021107261E+01 -0.75674000728E+01  0.13593405705E+04  0.13594091492E+04  0.10000000000E+02 0.  1.
</event>
<event>
 5    1  0.1245771E-008  0.3822134E+03  0.7957747E-01  0.3441577E+00
         13   -1    0    0    0    0  0.00000000000E+00  0.00000000000E+00  0.14999999963E+04  0.15000000000E+04  0.10566000000E+00 0.  1.
        994   -1    0    0    0    0 -0.00000000000E+00 -0.00000000000E+00  0.11368683772E-12  0.17120000000E+03  0.17120000000E+03 0.  0.
         13    1    1    2    0    0  0.12040340564E+02  0.72335314533E+01  0.32500267066E+02  0.35405822990E+02  0.10566000000E+00 0.  1.
        994    1    1    2    0    0  0.38971434000E+01 -0.92954522834E+01  0.33571992945E+01  0.17152930929E+03  0.17120000000E+03 0.  0.
        998    1    1    2    0    0 -0.15937483964E+02  0.20619208301E+01  0.14641425299E+04  0.14642648677E+04  0.10000000000E+02 0.  1.
</event>
<event>
 5    1  0.1245771E-008  0.3733490E+03  0.7957747E-01  0.3480640E+00
         13   -1    0    0    0    0  0.00000000000E+00  0.00000000000E+00  0.14999999963E+04  0.15000000000E+04  0.10566000000E+00 0. -1.
        994   -1    0    0    0    0 -0.00000000000E+00 -0.00000000000E+00  0.11368683772E-12  0.17120000000E+03  0.17120000000E+03 0.  0.
         13    1    1    2    0    0 -0.17252205722E+02 -0.20423972655E+02  0.48440822720E+02  0.55329031540E+02  0.10566000000E+00 0. -1.
        994    1    1    2    0    0 -0.65126650676E+01 -0.81861032244E+01  0.79031166935E+01  0.17170127066E+03  0.17120000000E+03 0.  0.
        998    1    1    2    0    0  0.23764870790E+02  0.28610075879E+02  0.14436560569E+04  0.14441696978E+04  0.10000000000E+02 0. -1.
</event>
<event>
 5    1  0.1245771E-008  0.3827453E+03  0.7957747E-01  0.3439291E+00
         13   -1    0    0    0    0  0.00000000000E+00  0.00000000000E+00  0.14999999963E+04  0.15000000000E+04  0.10566000000E+00 0.  1.
        994   -1    0    0    0    0 -0.00000000000E+00 -0.00000000000E+00  0.11368683772E-12  0.17120000000E+03  0.17120000000E+03 0.  0.
         13    1    1    2    0    0 -0.15371419583E+02  0.78782147313E+01  0.60476474052E+02  0.62894847843E+02  0.10566000000E+00 0.  1.
        994    1    1    2    0    0 -0.12418657194E+02  0.72585168741E+01  0.34394481843E+01  0.17183765279E+03  0.17120000000E+03 0.  0.
        998    1    1    2    0    0  0.27790076777E+02 -0.15136731605E+02  0.14360840740E+04  0.14364674994E+04  0.10000000000E+02 0.  1.
</event>
<event>
 5    1  0.1245771E-008  0.4197749E+03  0.7957747E-01  0.3294372E+00
         13   -1    0    0    0    0  0.00000000000E+00  0.00000000000E+00  0.14999999963E+04  0.15000000000E+04  0.10566000000E+00 0. -1.
        994   -1    0    0    0    0 -0.00000000000E+00 -0.00000000000E+00  0.11368683772E-12  0.17120000000E+03  0.17120000000E+03 0.  0.
         13    1    1    2    0    0  0.38883163037E+02 -0.12213110479E+03  0.16391603969E+03  0.20807783725E+03  0.10566000000E+00 0. -1.
        994    1    1    2    0    0 -0.41384674031E+02  0.12987618004E+03  0.12510352957E+03  0.25207309753E+03  0.17120000000E+03 0.  0.
        998    1    1    2    0    0  0.25015109941E+01 -0.77450752528E+01  0.12109804270E+04  0.12110490652E+04  0.10000000000E+02 0. -1.
</event>
<event>
 5    1  0.1245771E-008  0.3816630E+03  0.7957747E-01  0.3443949E+00
         13   -1    0    0    0    0  0.00000000000E+00  0.00000000000E+00  0.14999999963E+04  0.15000000000E+04  0.10566000000E+00 0.  1.
        994   -1    0    0    0    0 -0.00000000000E+00 -0.00000000000E+00  0.11368683772E-12  0.17120000000E+03  0.17120000000E+03 0.  0.
         13    1    1    2    0    0  0.75076915446E+01  0.16558155266E+02  0.50176496903E+02  0.53368810589E+02  0.10566000000E+00 0.  1.
        994    1    1    2    0    0 -0.10017171710E+02 -0.22185339720E+01  0.36460600383E+01  0.17154591040E+03  0.17120000000E+03 0.  0.
        998    1    1    2    0    0  0.25094801657E+01 -0.14339621294E+02  0.14461774393E+04  0.14462852790E+04  0.10000000000E+02 0.  1.
</event>
<event>
 5    1  0.1245771E-008  0.3849026E+03  0.7957747E-01  0.3430085E+00
         13   -1    0    0    0    0  0.00000000000E+00  0.00000000000E+00  0.14999999963E+04  0.15000000000E+04  0.10566000000E+00 0. -1.
        994   -1    0    0    0    0 -0.00000000000E+00 -0.00000000000E+00  0.11368683772E-12  0.17120000000E+03  0.17120000000E+03 0.  0.
         13    1    1    2    0    0 -0.17738107521E+02  0.72903463190E+01  0.11361706041E+03  0.11522429079E+03  0.10566000000E+00 0. -1.
        994    1    1    2    0    0  0.41604048290E+01 -0.10580174570E+02  0.21038020927E+01  0.17158996196E+03  0.17120000000E+03 0.  0.
        998    1    1    2    0    0  0.13577702692E+02  0.32898282509E+01  0.13842791338E+04  0.13843857472E+04  0.10000000000E+02 0. -1.
</event>
<event>
 5    1  0.1245771E-008  0.3792253E+03  0.7957747E-01  0.3454539E+00
         13   -1    0    0    0    0  0.00000000000E+00  0.00000000000E+00  0.14999999963E+04  0.15000000000E+04  0.10566000000E+00 0.  1.
        994   -1    0    0    0    0 -0.00000000000E+00 -0.00000000000E+00  0.11368683772E-12  0.17120000000E+03  0.17120000000E+03 0.  0.
         13    1    1    2    0    0  0.11999657627E+02 -0.64050352746E+01  0.18751032500E+02  0.23165246467E+02  0.10566000000E+00 0.  1.
        994    1    1    2    0    0 -0.11971035240E+02 -0.12182596161E+02  0.55030080400E+01  0.17213786461E+03  0.17120000000E+03 0.  0.
        998    1    1    2    0    0 -0.28622387025E-01  0.18587631436E+02  0.14757459557E+04  0.14758968889E+04  0.10000000000E+02 0.  1.
</event>
<event>
 5    1  0.1245771E-008  0.3853965E+03  0.7957747E-01  0.3427992E+00
         13   -1    0    0    0    0  0.00000000000E+00  0.00000000000E+00  0.14999999963E+04  0.15000000000E+04  0.10566000000E+00 0. -1.
        994   -1    0    0    0    0 -0.00000000000E+00 -0.00000000000E+00  0.11368683772E-12  0.17120000000E+03  0.17120000000E+03 0.  0.
         13    1    1    2    0    0 -0.15210623946E+02  0.79013150986E+00  0.85268032199E+02  0.86617757231E+02  0.10566000000E+00 0. -1.
        994    1    1    2    0    0  0.41550275106E+01  0.68296492801E+01  0.16433180471E+01  0.17139442481E+03  0.17120000000E+03 0.  0.
        998    1    1    2    0    0  0.11055596435E+02 -0.76197807899E+01  0.14130886460E+04  0.14131878180E+04  0.10000000000E+02 0. -1.
</event>
<event>
 5    1  0.1245771E-008  0.3750462E+03  0.7957747E-01  0.3473016E+00
         13   -1    0    0    0    0  0.00000000000E+00  0.00000000000E+00  0.14999999963E+04  0.15000000000E+04  0.10566000000E+00 0. -1.
        994   -1    0    0    0    0 -0.00000000000E+00 -0.00000000000E+00  0.11368683772E-12  0.17120000000E+03  0.17120000000E+03 0.  0.
         13    1    1    2    0    0  0.21515076492E+02  0.94062193369E+01  0.38672603665E+02  0.45243307979E+02  0.10566000000E+00 0. -1.
        994    1    1    2    0    0 -0.15942508023E+02 -0.49191985600E+01  0.76016382992E+01  0.17217893884E+03  0.17120000000E+03 0.  0.
        998    1    1    2    0    0 -0.55725684688E+01 -0.44870207769E+01  0.14537257543E+04  0.14537777532E+04  0.10000000000E+02 0. -1.
</event>
<event>
 5    1  0.1245771E-008  0.3765031E+03  0.7957747E-01  0.3466527E+00
         13   -1    0    0    0    0  0.00000000000E+00  0.00000000000E+00  0.14999999963E+04  0.15000000000E+04  0.10566000000E+00 0.  1.
        994   -1    0    0    0    0 -0.00000000000E+00 -0.00000000000E+00  0.11368683772E-12  0.17120000000E+03  0.17120000000E+03 0.  0.
         13    1    1    2    0    0  0.78632485291E+01  0.41005281120E+02  0.17690994554E+03  0.18177019490E+03  0.10566000000E+00 0.  1.
        994    1    1    2    0    0  0.95780856742E+00  0.76923549265E+01  0.61121042583E+01  0.17148436529E+03  0.17120000000E+03 0.  0.
        998    1    1    2    0    0 -0.88210570965E+01 -0.48697636047E+02  0.13169779465E+04  0.13179454398E+04  0.10000000000E+02 0.  1.
</event>
<event>
 5    1  0.1245771E-008  0.3839996E+03  0.7957747E-01  0.3433926E+00
         13   -1    0    0    0    0  0.00000000000E+00  0.00000000000E+00  0.14999999963E+04  0.15000000000E+04  0.10566000000E+00 0.  1.
        994   -1    0    0    0    0 -0.00000000000E+00 -0.00000000000E+00  0.11368683772E-12  0.17120000000E+03  0.17120000000E+03 0.  0.
         13    1    1    2    0    0  0.13153120367E+02 -0.14302358870E+02  0.84919276032E+02  0.87114043934E+02  0.10566000000E+00 0.  1.
        994    1    1    2    0    0 -0.12879719839E+02  0.13321979146E+02  0.32613169452E+01  0.17223077106E+03  0.17120000000E+03 0.  0.
        998    1    1    2    0    0 -0.27340052770E+00  0.98037972378E+00  0.14118194033E+04  0.14118551850E+04  0.10000000000E+02 0.  0.
</event>
<event>
 5    1  0.1245771E-008  0.3697307E+03  0.7957747E-01  0.3497130E+00
         13   -1    0    0    0    0  0.00000000000E+00  0.00000000000E+00  0.14999999963E+04  0.15000000000E+04  0.10566000000E+00 0.  1.
        994   -1    0    0    0    0 -0.00000000000E+00 -0.00000000000E+00  0.11368683772E-12  0.17120000000E+03  0.17120000000E+03 0.  0.
         13    1    1    2    0    0 -0.53925040780E+02 -0.62477450285E+02  0.46416935448E+03  0.47144940622E+03  0.10566000000E+00 0.  1.
        994    1    1    2    0    0  0.12135678985E+02  0.14902316417E+02  0.10689211112E+02  0.17260664232E+03  0.17120000000E+03 0.  0.
        998    1    1    2    0    0  0.41789361795E+02  0.47575133868E+02  0.10251414307E+04  0.10271439515E+04  0.10000000000E+02 0.  1.
</event>
<event>
 5    1  0.1245771E-008  0.3792590E+03  0.7957747E-01  0.3454391E+00
         13   -1    0    0    0    0  0.00000000000E+00  0.00000000000E+00  0.14999999963E+04  0.15000000000E+04  0.10566000000E+00 0.  1.
        994   -1    0    0    0    0 -0.00000000000E+00 -0.00000000000E+00  0.11368683772E-12  0.17120000000E+03  0.17120000000E+03 0.  0.
         13    1    1    2    0    0 -0.37513005812E+02  0.46568912120E+02  0.33073340210E+03  0.33609594406E+03  0.10566000000E+00 0.  1.
        994    1    1    2    0    0  0.15599697039E+01 -0.72059317253E+02  0.22118251980E+02  0.18706585947E+03  0.17120000000E+03 0.  0.
        998    1    1    2    0    0  0.35953036108E+02  0.25490405132E+02  0.11471483422E+04  0.11480381965E+04  0.10000000000E+02 0.  1.
</event>
<event>
 5    1  0.1245771E-008  0.3847022E+03  0.7957747E-01  0.3430936E+00
         13   -1    0    0    0    0  0.00000000000E+00  0.00000000000E+00  0.14999999963E+04  0.15000000000E+04  0.10566000000E+00 0.  1.
        994   -1    0    0    0    0 -0.00000000000E+00 -0.00000000000E+00  0.11368683772E-12  0.17120000000E+03  0.17120000000E+03 0.  0.
         13    1    1    2    0    0 -0.34851304472E+01 -0.16778724533E+02  0.78931716476E+02  0.80770655321E+02  0.10566000000E+00 0.  1.
        994    1    1    2    0    0  0.66334625671E+01  0.16692907572E+02  0.28408845878E+01  0.17216319762E+03  0.17120000000E+03 0.  0.
        998    1    1    2    0    0 -0.31483321199E+01  0.85816961452E-01  0.14182273952E+04  0.14182661471E+04  0.10000000000E+02 0.  1.
</event>
<event>
 5    1  0.1245771E-008  0.3761381E+03  0.7957747E-01  0.3468149E+00
         13   -1    0    0    0    0  0.00000000000E+00  0.00000000000E+00  0.14999999963E+04  0.15000000000E+04  0.10566000000E+00 0. -1.
        994   -1    0    0    0    0 -0.00000000000E+00 -0.00000000000E+00  0.11368683772E-12  0.17120000000E+03  0.17120000000E+03 0.  0.
         13    1    1    2    0    0 -0.32915457579E+02  0.30860142208E+02  0.15035901014E+03  0.15698286154E+03  0.10566000000E+00 0. -1.
        994    1    1    2    0    0  0.32098338022E+02 -0.30106246589E+02  0.12681788836E+02  0.17722008113E+03  0.17120000000E+03 0.  0.
        998    1    1    2    0    0  0.81711955675E+00 -0.75389561911E+00  0.13369591973E+04  0.13369970573E+04  0.10000000000E+02 0.  0.
</event>
<event>
 5    1  0.1245771E-008  0.3824982E+03  0.7957747E-01  0.3440353E+00
         13   -1    0    0    0    0  0.00000000000E+00  0.00000000000E+00  0.14999999963E+04  0.15000000000E+04  0.10566000000E+00 0.  1.
        994   -1    0    0    0    0 -0.00000000000E+00 -0.00000000000E+00  0.11368683772E-12  0.17120000000E+03  0.17120000000E+03 0.  0.
         13    1    1    2    0    0 -0.16162293193E+02  0.21623548666E+02  0.12880420362E+03  0.13160293163E+03  0.10566000000E+00 0.  1.
        994    1    1    2    0    0  0.15109403860E+02 -0.48363658034E+01  0.37122861408E+01  0.17197356072E+03  0.17120000000E+03 0.  0.
        998    1    1    2    0    0  0.10528893328E+01 -0.16787182863E+02  0.13674835065E+04  0.13676235076E+04  0.10000000000E+02 0.  1.
</event>
<event>
 5    1  0.1245771E-008  0.3822406E+03  0.7957747E-01  0.3441460E+00
         13   -1    0    0    0    0  0.00000000000E+00  0.00000000000E+00  0.14999999963E+04  0.15000000000E+04  0.10566000000E+00 0. -1.
        994   -1    0    0    0    0 -0.00000000000E+00 -0.00000000000E+00  0.11368683772E-12  0.17120000000E+03  0.17120000000E+03 0.  0.
         13    1    1    2    0    0 -0.18984423520E+02 -0.25208567235E+02  0.16414242828E+03  0.16714852115E+03  0.10566000000E+00 0. -1.
        994    1    1    2    0    0  0.20557561062E+01  0.22521411800E+02  0.47053228201E+01  0.17275132470E+03  0.17120000000E+03 0.  0.
        998    1    1    2    0    0  0.16928667414E+02  0.26871554356E+01  0.13311522452E+04  0.13313001541E+04  0.10000000000E+02 0.  0.
</event>
<event>
 5    1  0.1245771E-008  0.3770373E+03  0.7957747E-01  0.3464161E+00
         13   -1    0    0    0    0  0.00000000000E+00  0.00000000000E+00  0.14999999963E+04  0.15000000000E+04  0.10566000000E+00 0.  1.
        994   -1    0    0    0    0 -0.00000000000E+00 -0.00000000000E+00  0.11368683772E-12  0.17120000000E+03  0.17120000000E+03 0.  0.
         13    1    1    2    0    0 -0.39001211713E+02 -0.83092579826E+01  0.12932481476E+03  0.13533313401E+03  0.10566000000E+00 0.  1.
        994    1    1    2    0    0  0.36439639756E+02  0.11702644195E+02  0.10597403322E+02  0.17574568041E+03  0.17120000000E+03 0.  0.
        998    1    1    2    0    0  0.25615719563E+01 -0.33933862119E+01  0.13600777782E+04  0.13601211856E+04  0.10000000000E+02 0.  1.
</event>
<event>
 5    1  0.1245771E-008  0.3781944E+03  0.7957747E-01  0.3459058E+00
         13   -1    0    0    0    0  0.00000000000E+00  0.00000000000E+00  0.14999999963E+04  0.15000000000E+04  0.10566000000E+00 0.  1.
        994   -1    0    0    0    0 -0.00000000000E+00 -0.00000000000E+00  0.11368683772E-12  0.17120000000E+03  0.17120000000E+03 0.  0.
         13    1    1    2    0    0 -0.15413220601E+02  0.21229595919E+02  0.61201832530E+02  0.66587826074E+02  0.10566000000E+00 0.  1.
        994    1    1    2    0    0 -0.10794259899E+02 -0.55009410385E+02  0.15689488134E+02  0.18082630150E+03  0.17120000000E+03 0.  0.
        998    1    1    2    0    0  0.26207480500E+02  0.33779814466E+02  0.14231086756E+04  0.14237858724E+04  0.10000000000E+02 0.  1.
</event>
<event>
 5    1  0.1245771E-008  0.3791882E+03  0.7957747E-01  0.3454701E+00
         13   -1    0    0    0    0  0.00000000000E+00  0.00000000000E+00  0.14999999963E+04  0.15000000000E+04  0.10566000000E+00 0.  1.
        994   -1    0    0    0    0 -0.00000000000E+00 -0.00000000000E+00  0.11368683772E-12  0.17120000000E+03  0.17120000000E+03 0.  0.
         13    1    1    2    0    0  0.64373214411E+01  0.52106167719E+02  0.25115284982E+03  0.25658187184E+03  0.10566000000E+00 0.  1.
        994    1    1    2    0    0  0.46633099360E+01 -0.54621847815E+02  0.14683718173E+02  0.18036170408E+03  0.17120000000E+03 0.  0.
        998    1    1    2    0    0 -0.11100631377E+02  0.25156800963E+01  0.12341634283E+04  0.12342564241E+04  0.10000000000E+02 0.  1.
</event>
<event>
 5    1  0.1245771E-008  0.3837705E+03  0.7957747E-01  0.3434904E+00
         13   -1    0    0    0    0  0.00000000000E+00  0.00000000000E+00  0.14999999963E+04  0.15000000000E+04  0.10566000000E+00 0. -1.
        994   -1    0    0    0    0 -0.00000000000E+00 -0.00000000000E+00  0.11368683772E-12  0.17120000000E+03  0.17120000000E+03 0.  0.
         13    1    1    2    0    0 -0.13939057475E+02 -0.87647035230E-01  0.45511858177E+02  0.47598796246E+02  0.10566000000E+00 0. -1.
        994    1    1    2    0    0 -0.37636241796E+01 -0.16315552405E+02  0.31680655443E+01  0.17204603674E+03  0.17120000000E+03 0.  0.
        998    1    1    2    0    0  0.17702681655E+02  0.16403199440E+02  0.14513200726E+04  0.14515551670E+04  0.10000000000E+02 0. -1.
</event>
<event>
 5    1  0.1245771E-008  0.3779471E+03  0.7957747E-01  0.3460146E+00
         13   -1    0    0    0    0  0.00000000000E+00  0.00000000000E+00  0.14999999963E+04  0.15000000000E+04  0.10566000000E+00 0.  1.
        994   -1    0    0    0    0 -0.00000000000E+00 -0.00000000000E+00  0.11368683772E-12  0.17120000000E+03  0.17120000000E+03 0.  0.
         13    1    1    2    0    0  0.47899481235E+02  0.25974834708E+01  0.20196753415E+03  0.20758613450E+03  0.10566000000E+00 0.  1.
        994    1    1    2    0    0 -0.40425781949E+02 -0.15480104797E+02  0.11506111286E+02  0.17696244824E+03  0.17120000000E+03 0.  0.
        998    1    1    2    0    0 -0.74736992859E+01  0.12882621326E+02  0.12865263508E+04  0.12866514173E+04  0.10000000000E+02 0.  1.
</event>
<event>
 5    1  0.1245771E-008  0.3822788E+03  0.7957747E-01  0.3441296E+00
         13   -1    0    0    0    0  0.00000000000E+00  0.00000000000E+00  0.14999999963E+04  0.15000000000E+04  0.10566000000E+00 0. -1.
        994   -1    0    0    0    0 -0.00000000000E+00 -0.00000000000E+00  0.11368683772E-12  0.17120000000E+03  0.17120000000E+03 0.  0.
         13    1    1    2    0    0  0.11002860381E+02 -0.13904679230E+01  0.20209873191E+02  0.23053122913E+02  0.10566000000E+00 0. -1.
        994    1    1    2    0    0  0.57589985303E+01  0.46615054961E+00  0.30980031884E+01  0.17132548259E+03  0.17120000000E+03 0.  0.
        998    1    1    2    0    0 -0.16761858911E+02  0.92431737335E+00  0.14766921199E+04  0.14768213945E+04  0.10000000000E+02 0. -1.
</event>
<event>
 5    1  0.1245771E-008  0.3695903E+03  0.7957747E-01  0.3497776E+00
         13   -1    0    0    0    0  0.00000000000E+00  0.00000000000E+00  0.14999999963E+04  0.15000000000E+04  0.10566000000E+00 0.  1.
        994   -1    0    0    0    0 -0.00000000000E+00 -0.00000000000E+00  0.11368683772E-12  0.17120000000E+03  0.17120000000E+03 0.  0.
         13    1    1    2    0    0  0.37447195725E+01  0.73511479657E+02  0.28328114564E+03  0.29268785285E+03  0.10566000000E+00 0.  1.
        994    1    1    2    0    0  0.53264623406E+01 -0.42651354649E+02  0.15907736142E+02  0.17722868087E+03  0.17120000000E+03 0.  0.
        998    1    1    2    0    0 -0.90711819131E+01 -0.30860125008E+02  0.12008111145E+04  0.12012834663E+04  0.10000000000E+02 0.  1.
</event>
<event>
 5    1  0.1245771E-008  0.3725916E+03  0.7957747E-01  0.3484065E+00
         13   -1    0    0    0    0  0.00000000000E+00  0.00000000000E+00  0.14999999963E+04  0.15000000000E+04  0.10566000000E+00 0.  1.
        994   -1    0    0    0    0 -0.00000000000E+00 -0.00000000000E+00  0.11368683772E-12  0.17120000000E+03  0.17120000000E+03 0.  0.
         13    1    1    2    0    0  0.84733825978E+01  0.17153261297E+02  0.19391718170E+02  0.27241190932E+02  0.10566000000E+00 0.  1.
        994    1    1    2    0    0 -0.12121989566E+02 -0.16765431660E+02  0.93889705392E+01  0.17270094122E+03  0.17120000000E+03 0.  0.
        998    1    1    2    0    0  0.36486069682E+01 -0.38782963718E+00  0.14712193076E+04  0.14712578678E+04  0.10000000000E+02 0.  1.
</event>
<event>
 5    1  0.1245771E-008  0.3765470E+03  0.7957747E-01  0.3466333E+00
         13   -1    0    0    0    0  0.00000000000E+00  0.00000000000E+00  0.14999999963E+04  0.15000000000E+04  0.10566000000E+00 0. -1.
        994   -1    0    0    0    0 -0.00000000000E+00 -0.00000000000E+00  0.11368683772E-12  0.17120000000E+03  0.17120000000E+03 0.  0.
         13    1    1    2    0    0 -0.90429125953E+01  0.93779125741E+01  0.11468994854E+02  0.17357088450E+02  0.10566000000E+00 0. -1.
        994    1    1    2    0    0  0.25702563710E+01 -0.27061304193E+02  0.83891578858E+01  0.17354751042E+03  0.17120000000E+03 0.  0.
        998    1    1    2    0    0  0.64726562243E+01  0.17683391619E+02  0.14801418435E+04  0.14802954011E+04  0.10000000000E+02 0. -1.
</event>
<event>
 5    1  0.1245771E-008  0.3864964E+03  0.7957747E-01  0.3423351E+00
         13   -1    0    0    0    0  0.00000000000E+00  0.00000000000E+00  0.14999999963E+04  0.15000000000E+04  0.10566000000E+00 0.  1.
        994   -1    0    0    0    0 -0.00000000000E+00 -0.00000000000E+00  0.11368683772E-12  0.17120000000E+03  0.17120000000E+03 0.  0.
         13    1    1    2    0    0  0.51323484292E+01  0.86123712398E+01  0.52846650113E+02  0.53789344028E+02  0.10566000000E+00 0.  1.
        994    1    1    2    0    0 -0.60103267746E+01 -0.18092123822E+02  0.20794041289E+01  0.17227075461E+03  0.17120000000E+03 0.  0.
        998    1    1    2    0    0  0.87797834542E+00  0.94797525823E+01  0.14450739420E+04  0.14451399014E+04  0.10000000000E+02 0.  1.
</event>
<event>
 5    1  0.1245771E-008  0.3839520E+03  0.7957747E-01  0.3434129E+00
         13   -1    0    0    0    0  0.00000000000E+00  0.00000000000E+00  0.14999999963E+04  0.15000000000E+04  0.10566000000E+00 0. -1.
        994   -1    0    0    0    0 -0.00000000000E+00 -0.00000000000E+00  0.11368683772E-12  0.17120000000E+03  0.17120000000E+03 0.  0.
         13    1    1    2    0    0 -0.15442957686E+02  0.42142362110E+01  0.58765441095E+02  0.60906756276E+02  0.10566000000E+00 0. -1.
        994    1    1    2    0    0  0.11348906869E+02 -0.23023881087E+01  0.25939635032E+01  0.17161080189E+03  0.17120000000E+03 0.  0.
        998    1    1    2    0    0  0.40940508168E+01 -0.19118481023E+01  0.14386405917E+04  0.14386824418E+04  0.10000000000E+02 0.  0.
</event>
<event>
 5    1  0.1245771E-008  0.3835226E+03  0.7957747E-01  0.3435962E+00
         13   -1    0    0    0    0  0.00000000000E+00  0.00000000000E+00  0.14999999963E+04  0.15000000000E+04  0.10566000000E+00 0.  1.
        994   -1    0    0    0    0 -0.00000000000E+00 -0.00000000000E+00  0.11368683772E-12  0.17120000000E+03  0.17120000000E+03 0.  0.
         13    1    1    2    0    0  0.13445267579E+02  0.16728128212E+02  0.11956961395E+03  0.12148048912E+03  0.10566000000E+00 0.  1.
        994    1    1    2    0    0  0.32954473384E+02 -0.95953958527E+01  0.62680730307E+01  0.17471919665E+03  0.17120000000E+03 0.  0.
        998    1    1    2    0    0 -0.46399740963E+02 -0.71327323588E+01  0.13741623093E+04  0.13750003142E+04  0.10000000000E+02 0.  1.
</event>
<event>
 5    1  0.1245771E-008  0.3728056E+03  0.7957747E-01  0.3483095E+00
         13   -1    0    0    0    0  0.00000000000E+00  0.00000000000E+00  0.14999999963E+04  0.15000000000E+04  0.10566000000E+00 0.  1.
        994   -1    0    0    0    0 -0.00000000000E+00 -0.00000000000E+00  0.11368683772E-12  0.17120000000E+03  0.17120000000E+03 0.  0.
         13    1    1    2    0    0 -0.39587089675E+02  0.13141527831E+02  0.98302726038E+02  0.10678611583E+03  0.10566000000E+00 0.  1.
        994    1    1    2    0    0  0.52425148816E+02 -0.41448270719E+01  0.17340800944E+02  0.17993254068E+03  0.17120000000E+03 0.  0.
        998    1    1    2    0    0 -0.12838059141E+02 -0.89967007590E+01  0.13843564693E+04  0.13844813435E+04  0.10000000000E+02 0.  1.
</event>
<event>
 5    1  0.1245771E-008  0.3857574E+03  0.7957747E-01  0.3426466E+00
         13   -1    0    0    0    0  0.00000000000E+00  0.00000000000E+00  0.14999999963E+04  0.15000000000E+04  0.10566000000E+00 0.  1.
        994   -1    0    0    0    0 -0.00000000000E+00 -0.00000000000E+00  0.11368683772E-12  0.17120000000E+03  0.17120000000E+03 0.  0.
         13    1    1    2    0    0 -0.10500898625E+01 -0.12744913357E+02  0.75980836642E+02  0.77049556819E+02  0.10566000000E+00 0.  1.
        994    1    1    2    0    0 -0.35700430615E+01 -0.94236437694E+01  0.15877799120E+01  0.17150367726E+03  0.17120000000E+03 0.  0.
        998    1    1    2    0    0  0.46201329241E+01  0.22168557126E+02  0.14224313797E+04  0.14226467659E+04  0.10000000000E+02 0.  1.
</event>
<event>
 5    1  0.1245771E-008  0.3823325E+03  0.7957747E-01  0.3441065E+00
         13   -1    0    0    0    0  0.00000000000E+00  0.00000000000E+00  0.14999999963E+04  0.15000000000E+04  0.10566000000E+00 0.  1.
        994   -1    0    0    0    0 -0.00000000000E+00 -0.00000000000E+00  0.11368683772E-12  0.17120000000E+03  0.17120000000E+03 0.  0.
         13    1    1    2    0    0  0.44887944048E+01  0.12293219431E+02  0.27601711710E+02  0.30547310398E+02  0.10566000000E+00 0.  1.
        994    1    1    2    0    0 -0.92060820153E+01 -0.89802020309E+01  0.35091737898E+01  0.17171822930E+03  0.17120000000E+03 0.  0.
        998    1    1    2    0    0  0.47172876105E+01 -0.33130174001E+01  0.14688891108E+04  0.14689344603E+04  0.10000000000E+02 0.  1.
</event>
<event>
 5    1  0.1245771E-008  0.3825027E+03  0.7957747E-01  0.3440333E+00
         13   -1    0    0    0    0  0.00000000000E+00  0.00000000000E+00  0.14999999963E+04  0.15000000000E+04  0.10566000000E+00 0. -1.
        994   -1    0    0    0    0 -0.00000000000E+00 -0.00000000000E+00  0.11368683772E-12  0.17120000000E+03  0.17120000000E+03 0.  0.
         13    1    1    2    0    0 -0.87960129047E+01  0.30782647367E+02  0.17611647272E+03  0.17900269370E+03  0.10566000000E+00 0. -1.
        994    1    1    2    0    0 -0.12232026714E+02 -0.24534172285E+02  0.53708217756E+01  0.17346421479E+03  0.17120000000E+03 0.  0.
        998    1    1    2    0    0  0.21028039618E+02 -0.62484750826E+01  0.13185127018E+04  0.13187330915E+04  0.10000000000E+02 0. -1.
</event>
<event>
 5    1  0.1245771E-008  0.3831034E+03  0.7957747E-01  0.3437756E+00
         13   -1    0    0    0    0  0.00000000000E+00  0.00000000000E+00  0.14999999963E+04  0.15000000000E+04  0.10566000000E+00 0. -1.
        994   -1    0    0    0    0 -0.00000000000E+00 -0.00000000000E+00  0.11368683772E-12  0.17120000000E+03  0.17120000000E+03 0.  0.
         13    1    1    2    0    0  0.19715006730E+02  0.14930664718E+02  0.13019224917E+03  0.13252033484E+03  0.10566000000E+00 0. -1.
        994    1    1    2    0    0 -0.87523776328E+01  0.81828599378E+01  0.30499126184E+01  0.17164587172E+03  0.17120000000E+03 0.  0.
        998    1    1    2    0    0 -0.10962629098E+02 -0.23113524655E+02  0.13667578345E+04  0.13670337934E+04  0.10000000000E+02 0. -1.
</event>
<event>
 5    1  0.1245771E-008  0.3853804E+03  0.7957747E-01  0.3428060E+00
         13   -1    0    0    0    0  0.00000000000E+00  0.00000000000E+00  0.14999999963E+04  0.15000000000E+04  0.10566000000E+00 0.  1.
        994   -1    0    0    0    0 -0.00000000000E+00 -0.00000000000E+00  0.11368683772E-12  0.17120000000E+03  0.17120000000E+03 0.  0.
         13    1    1    2    0    0  0.80927551893E+01  0.12250487016E+02  0.72648380336E+02  0.74117241234E+02  0.10566000000E+00 0.  1.
        994    1    1    2    0    0 -0.82478208958E+01 -0.11671709411E+02  0.21125574782E+01  0.17180849295E+03  0.17120000000E+03 0.  0.
        998    1    1    2    0    0  0.15506570653E+00 -0.57877760500E+00  0.14252390585E+04  0.14252742658E+04  0.10000000000E+02 0.  0.
</event>
<event>
 5    1  0.1245771E-008  0.3711535E+03  0.7957747E-01  0.3490607E+00
         13   -1    0    0    0    0  0.00000000000E+00  0.00000000000E+00  0.14999999963E+04  0.15000000000E+04  0.10566000000E+00 0. -1.
        994   -1    0    0    0    0 -0.00000000000E+00 -0.00000000000E+00  0.11368683772E-12  0.17120000000E+03  0.17120000000E+03 0.  0.
         13    1    1    2    0    0  0.46733215030E+02  0.36851703828E+01  0.87061766655E+02  0.98880413859E+02  0.10566000000E+00 0. -1.
        994    1    1    2    0    0 -0.43962686433E+02 -0.11633022854E+01  0.18369862869E+02  0.17771033434E+03  0.17120000000E+03 0.  0.
        998    1    1    2    0    0 -0.27705285970E+01 -0.25218680974E+01  0.13945683668E+04  0.13946092518E+04  0.10000000000E+02 0.  0.
</event>
<event>
 5    1  0.1245771E-008  0.3723663E+03  0.7957747E-01  0.3485086E+00
         13   -1    0    0    0    0  0.00000000000E+00  0.00000000000E+00  0.14999999963E+04  0.15000000000E+04  0.10566000000E+00 0.  1.
        994   -1    0    0    0    0 -0.00000000000E+00 -0.00000000000E+00  0.11368683772E-12  0.17120000000E+03  0.17120000000E+03 0.  0.
         13    1    1    2    0    0  0.12036227087E+03  0.54106314950E+02  0.69137235505E+03  0.70385390108E+03  0.10566000000E+00 0.  1.
        994    1    1    2    0    0 -0.10409482468E+03 -0.51137991582E+02  0.55680274746E+02  0.21415078731E+03  0.17120000000E+03 0.  0.
        998    1    1    2    0    0 -0.16267446192E+02 -0.29683233682E+01  0.75294736648E+03  0.75319531162E+03  0.10000000000E+02 0. -1.
</event>
<event>
 5    1  0.1245771E-008  0.3816072E+03  0.7957747E-01  0.3444190E+00
         13   -1    0    0    0    0  0.00000000000E+00  0.00000000000E+00  0.14999999963E+04  0.15000000000E+04  0.10566000000E+00 0.  1.
        994   -1    0    0    0    0 -0.00000000000E+00 -0.00000000000E+00  0.11368683772E-12  0.17120000000E+03  0.17120000000E+03 0.  0.
         13    1    1    2    0    0  0.23773465282E+01 -0.46031310997E+02  0.23237698045E+03  0.23690421181E+03  0.10566000000E+00 0.  1.
        994    1    1    2    0    0 -0.14579572038E+00  0.63957260406E+02  0.17047703840E+02  0.18355003847E+03  0.17120000000E+03 0.  0.
        998    1    1    2    0    0 -0.22315508079E+01 -0.17925949409E+02  0.12505753120E+04  0.12507457497E+04  0.10000000000E+02 0.  1.
</event>
<event>
 5    1  0.1245771E-008  0.3828879E+03  0.7957747E-01  0.3438679E+00
         13   -1    0    0    0    0  0.00000000000E+00  0.00000000000E+00  0.14999999963E+04  0.15000000000E+04  0.10566000000E+00 0. -1.
        994   -1    0    0    0    0 -0.00000000000E+00 -0.00000000000E+00  0.11368683772E-12  0.17120000000E+03  0.17120000000E+03 0.  0.
         13    1    1    2    0    0  0.15050706206E+01  0.27460072772E+02  0.14374897593E+03  0.14635607292E+03  0.10566000000E+00 0. -1.
        994    1    1    2    0    0  0.16179547134E+01 -0.13272321265E+02  0.32745774497E+01  0.17175254044E+03  0.17120000000E+03 0.  0.
        998    1    1    2    0    0 -0.31230253340E+01 -0.14187751506E+02  0.13529764429E+04  0.13530913866E+04  0.10000000000E+02 0. -1.
</event>
<event>
 5    1  0.1245771E-008  0.3787789E+03  0.7957747E-01  0.3456493E+00
         13   -1    0    0    0    0  0.00000000000E+00  0.00000000000E+00  0.14999999963E+04  0.15000000000E+04  0.10566000000E+00 0.  1.
        994   -1    0    0    0    0 -0.00000000000E+00 -0.00000000000E+00  0.11368683772E-12  0.17120000000E+03  0.17120000000E+03 0.  0.
         13    1    1    2    0    0  0.11605087522E+02 -0.40238756385E+02  0.22136282728E+03  0.22528947609E+03  0.10566000000E+00 0.  1.
        994    1    1    2    0    0 -0.12224777195E+02 -0.42360403195E+01  0.53128695809E+01  0.17177035774E+03  0.17120000000E+03 0.  0.
        998    1    1    2    0    0  0.61968967284E+00  0.44474796705E+02  0.12733242994E+04  0.12741401662E+04  0.10000000000E+02 0.  1.
</event>
<event>
 5    1  0.1245771E-008  0.3818718E+03  0.7957747E-01  0.3443048E+00
         13   -1    0    0    0    0  0.00000000000E+00  0.00000000000E+00  0.14999999963E+04  0.15000000000E+04  0.10566000000E+00 0. -1.
        994   -1    0    0    0    0 -0.00000000000E+00 -0.00000000000E+00  0.11368683772E-12  0.17120000000E+03  0.17120000000E+03 0.  0.
         13    1    1    2    0    0 -0.49862811864E+02  0.87313863120E+01  0.27930267330E+03  0.28385301054E+03  0.10566000000E+00 0. -1.
        994    1    1    2    0    0  0.70174240964E+02  0.77070183235E+01  0.19930008973E+02  0.18625377173E+03  0.17120000000E+03 0.  0.
        998    1    1    2    0    0 -0.20311429100E+02 -0.16438404636E+02  0.12007673140E+04  0.12010932177E+04  0.10000000000E+02 0. -1.
</event>
<event>
 5    1  0.1245771E-008  0.3781338E+03  0.7957747E-01  0.3459325E+00
         13   -1    0    0    0    0  0.00000000000E+00  0.00000000000E+00  0.14999999963E+04  0.15000000000E+04  0.10566000000E+00 0.  1.
        994   -1    0    0    0    0 -0.00000000000E+00 -0.00000000000E+00  0.11368683772E-12  0.17120000000E+03  0.17120000000E+03 0.  0.
         13    1    1    2    0    0 -0.18539376998E+02 -0.41219764484E+02  0.16792167060E+03  0.17389788988E+03  0.10566000000E+00 0.  1.
        994    1    1    2    0    0  0.20102315178E+02  0.51219309233E+02  0.15330156588E+02  0.18047707449E+03  0.17120000000E+03 0.  0.
        998    1    1    2    0    0 -0.15629381803E+01 -0.99995447482E+01  0.13167481691E+04  0.13168250356E+04  0.10000000000E+02 0.  1.
</event>
<event>
 5    1  0.1245771E-008  0.3834300E+03  0.7957747E-01  0.3436358E+00
         13   -1    0    0    0    0  0.00000000000E+00  0.00000000000E+00  0.14999999963E+04  0.15000000000E+04  0.10566000000E+00 0. -1.
        994   -1    0    0    0    0 -0.00000000000E+00 -0.00000000000E+00  0.11368683772E-12  0.17120000000E+03  0.17120000000E+03 0.  0.
         13    1    1    2    0    0  0.15884949121E+02 -0.16157105716E+02  0.10340805984E+03  0.10586133230E+03  0.10566000000E+00 0. -1.
        994    1    1    2    0    0 -0.15092982313E+02  0.97570342061E+01  0.34800075153E+01  0.17217592249E+03  0.17120000000E+03 0.  0.
        998    1    1    2    0    0 -0.79196680766E+00  0.64000715096E+01  0.13931119289E+04  0.13931627452E+04  0.10000000000E+02 0. -1.
</event>
<event>
 5    1  0.1245771E-008  0.3787018E+03  0.7957747E-01  0.3456831E+00
         13   -1    0    0    0    0  0.00000000000E+00  0.00000000000E+00  0.14999999963E+04  0.15000000000E+04  0.10566000000E+00 0.  1.
        994   -1    0    0    0    0 -0.00000000000E+00 -0.00000000000E+00  0.11368683772E-12  0.17120000000E+03  0.17120000000E+03 0.  0.
         13    1    1    2    0    0 -0.24500650999E+02 -0.14162405700E+02  0.80264177351E+02  0.85107020653E+02  0.10566000000E+00 0.  1.
        994    1    1    2    0    0  0.58808692393E+01  0.34754760568E+02  0.89726283661E+01  0.17502121604E+03  0.17120000000E+03 0.  0.
        998    1    1    2    0    0  0.18619781759E+02 -0.20592354868E+02  0.14107631906E+04  0.14110717633E+04  0.10000000000E+02 0.  1.
</event>
<event>
 5    1  0.1245771E-008  0.3734175E+03  0.7957747E-01  0.3480331E+00
         13   -1    0    0    0    0  0.00000000000E+00  0.00000000000E+00  0.14999999963E+04  0.15000000000E+04  0.10566000000E+00 0. -1.
        994   -1    0    0    0    0 -0.00000000000E+00 -0.00000000000E+00  0.11368683772E-12  0.17120000000E+03  0.17120000000E+03 0.  0.
         13    1    1    2    0    0 -0.43353541344E+02 -0.16011443486E+02  0.16276152756E+03  0.16919580931E+03  0.10566000000E+00 0. -1.
        994    1    1    2    0    0  0.37088912168E+01 -0.14117250040E+02  0.82220719983E+01  0.17201771737E+03  0.17120000000E+03 0.  0.
        998    1    1    2    0    0  0.39644650127E+02  0.30128693526E+02  0.13290163967E+04  0.13299864733E+04  0.10000000000E+02 0. -1.
</event>
<event>
 5    1  0.1245771E-008  0.3741492E+03  0.7957747E-01  0.3477037E+00
         13   -1    0    0    0    0  0.00000000000E+00  0.00000000000E+00  0.14999999963E+04  0.15000000000E+04  0.10566000000E+00 0. -1.
        994   -1    0    0    0    0 -0.00000000000E+00 -0.00000000000E+00  0.11368683772E-12  0.17120000000E+03  0.17120000000E+03 0.  0.
         13    1    1    2    0    0 -0.85570041134E+02  0.40612368571E+02  0.50564731267E+03  0.51444223427E+03  0.10566000000E+00 0. -1.
        994    1    1    2    0    0  0.68800549963E+02 -0.32769981612E+02  0.27179369254E+02  0.18935560589E+03  0.17120000000E+03 0.  0.
        998    1    1    2    0    0  0.16769491171E+02 -0.78423869594E+01  0.96717331435E+03  0.96740215984E+03  0.10000000000E+02 0. -1.
</event>
<event>
 5    1  0.1245771E-008  0.3837832E+03  0.7957747E-01  0.3434849E+00
         13   -1    0    0    0    0  0.00000000000E+00  0.00000000000E+00  0.14999999963E+04  0.15000000000E+04  0.10566000000E+00 0.  1.
        994   -1    0    0    0    0 -0.00000000000E+00 -0.00000000000E+00  0.11368683772E-12  0.17120000000E+03  0.17120000000E+03 0.  0.
         13    1    1    2    0    0  0.14235274069E+02 -0.23030777459E+02  0.14461594134E+03  0.14712865592E+03  0.10566000000E+00 0.  1.
        994    1    1    2    0    0 -0.85682836761E+01  0.31904980251E+02  0.58470498310E+01  0.17445621583E+03  0.17120000000E+03 0.  0.
        998    1    1    2    0    0 -0.56669903931E+01 -0.88742027924E+01  0.13495370051E+04  0.13496151283E+04  0.10000000000E+02 0. -1.
</event>
<event>
 5    1  0.1245771E-008  0.3846938E+03  0.7957747E-01  0.3430972E+00
         13   -1    0    0    0    0  0.00000000000E+00  0.00000000000E+00  0.14999999963E+04  0.15000000000E+04  0.10566000000E+00 0.  1.
        994   -1    0    0    0    0 -0.00000000000E+00 -0.00000000000E+00  0.11368683772E-12  0.17120000000E+03  0.17120000000E+03 0.  0.
         13    1    1    2    0    0 -0.55210703259E+01  0.10343776933E+02  0.42101698952E+02  0.43704006195E+02  0.10566000000E+00 0.  1.
        994    1    1    2    0    0 -0.16690962633E+02  0.33739304173E+01  0.27373942233E+01  0.17206657132E+03  0.17120000000E+03 0.  0.
        998    1    1    2    0    0  0.22212032959E+02 -0.13717707351E+02  0.14551609031E+04  0.14554294225E+04  0.10000000000E+02 0.  1.
</event>
<event>
 5    1  0.1245771E-008  0.3852227E+03  0.7957747E-01  0.3428728E+00
         13   -1    0    0    0    0  0.00000000000E+00  0.00000000000E+00  0.14999999963E+04  0.15000000000E+04  0.10566000000E+00 0. -1.
        994   -1    0    0    0    0 -0.00000000000E+00 -0.00000000000E+00  0.11368683772E-12  0.17120000000E+03  0.17120000000E+03 0.  0.
         13    1    1    2    0    0 -0.13539990620E+02  0.94588539232E+00  0.69262380483E+02  0.70579845277E+02  0.10566000000E+00 0. -1.
        994    1    1    2    0    0 -0.98698523882E+01  0.16864909253E+01  0.18491538399E+01  0.17150252945E+03  0.17120000000E+03 0.  0.
        998    1    1    2    0    0  0.23409843008E+02 -0.26323763176E+01  0.14288884620E+04  0.14291176253E+04  0.10000000000E+02 0. -1.
</event>
<event>
 5    1  0.1245771E-008  0.3820191E+03  0.7957747E-01  0.3442414E+00
         13   -1    0    0    0    0  0.00000000000E+00  0.00000000000E+00  0.14999999963E+04  0.15000000000E+04  0.10566000000E+00 0.  1.
        994   -1    0    0    0    0 -0.00000000000E+00 -0.00000000000E+00  0.11368683772E-12  0.17120000000E+03  0.17120000000E+03 0.  0.
         13    1    1    2    0    0  0.97869919509E+01 -0.72250426696E+01  0.22304237728E+02  0.25406232261E+02  0.10566000000E+00 0.  1.
        994    1    1    2    0    0 -0.57568086968E+01  0.11974603583E+02  0.37038118306E+01  0.17175473851E+03  0.17120000000E+03 0.  0.
        998    1    1    2    0    0 -0.40301832541E+01 -0.47495609129E+01  0.14739919467E+04  0.14740390292E+04  0.10000000000E+02 0.  1.
</event>
<event>
 5    1  0.1245771E-008  0.3860387E+03  0.7957747E-01  0.3425279E+00
         13   -1    0    0    0    0  0.00000000000E+00  0.00000000000E+00  0.14999999963E+04  0.15000000000E+04  0.10566000000E+00 0.  1.
        994   -1    0    0    0    0 -0.00000000000E+00 -0.00000000000E+00  0.11368683772E-12  0.17120000000E+03  0.17120000000E+03 0.  0.
         13    1    1    2    0    0  0.10296276360E+02  0.54139878169E+01  0.62202997245E+02  0.63281502837E+02  0.10566000000E+00 0.  1.
        994    1    1    2    0    0 -0.41089774508E+01 -0.52604059146E+01  0.12613608147E+01  0.17133472093E+03  0.17120000000E+03 0.  0.
        998    1    1    2    0    0 -0.61872989094E+01 -0.15358190227E+00  0.14365356382E+04  0.14365837762E+04  0.10000000000E+02 0.  0.
</event>
<event>
 5    1  0.1245771E-008  0.3852615E+03  0.7957747E-01  0.3428564E+00
         13   -1    0    0    0    0  0.00000000000E+00  0.00000000000E+00  0.14999999963E+04  0.15000000000E+04  0.10566000000E+00 0. -1.
        994   -1    0    0    0    0 -0.00000000000E+00 -0.00000000000E+00  0.11368683772E-12  0.17120000000E+03  0.17120000000E+03 0.  0.
         13    1    1    2    0    0  0.11045787166E+02 -0.18126994126E+01  0.40785490330E+02  0.42293766429E+02  0.10566000000E+00 0. -1.
        994    1    1    2    0    0 -0.12693109539E+02 -0.27094569466E+01  0.20541020161E+01  0.17170356875E+03  0.17120000000E+03 0.  0.
        998    1    1    2    0    0  0.16473223725E+01  0.45221563592E+01  0.14571604039E+04  0.14572026648E+04  0.10000000000E+02 0. -1.
</event>
<event>
 5    1  0.1245771E-008  0.3837611E+03  0.7957747E-01  0.3434944E+00
         13   -1    0    0    0    0  0.00000000000E+00  0.00000000000E+00  0.14999999963E+04  0.15000000000E+04  0.10566000000E+00 0.  1.
        994   -1    0    0    0    0 -0.00000000000E+00 -0.00000000000E+00  0.11368683772E-12  0.17120000000E+03  0.17120000000E+03 0.  0.
         13    1    1    2    0    0 -0.17257366144E+02 -0.17249083404E+02  0.12404038945E+03  0.12641747088E+03  0.10566000000E+00 0.  1.
        994    1    1    2    0    0  0.14055644092E+02  0.18781608683E+02  0.40656771174E+01  0.17284756199E+03  0.17120000000E+03 0.  0.
        998    1    1    2    0    0  0.32017220520E+01 -0.15325252788E+01  0.13718939297E+04  0.13719349671E+04  0.10000000000E+02 0.  1.
</event>
<event>
 5    1  0.1245771E-008  0.3793362E+03  0.7957747E-01  0.3454054E+00
         13   -1    0    0    0    0  0.00000000000E+00  0.00000000000E+00  0.14999999963E+04  0.15000000000E+04  0.10566000000E+00 0. -1.
        994   -1    0    0    0    0 -0.00000000000E+00 -0.00000000000E+00  0.11368683772E-12  0.17120000000E+03  0.17120000000E+03 0.  0.
         13    1    1    2    0    0 -0.52976016765E+01  0.46303852933E+02  0.22003918123E+03  0.22492079455E+03  0.10566000000E+00 0. -1.
        994    1    1    2    0    0  0.94244749812E+01 -0.38509108264E+02  0.97525112958E+01  0.17600091939E+03  0.17120000000E+03 0.  0.
        998    1    1    2    0    0 -0.41268733046E+01 -0.77947446692E+01  0.12702083038E+04  0.12702782861E+04  0.10000000000E+02 0. -1.
</event>
<event>
 5    1  0.1838600E-008  0.3863307E+03  0.7957747E-01  0.3424048E+00
         13   -1    0    0    0    0  0.00000000000E+00  0.00000000000E+00  0.14999999963E+04  0.15000000000E+04  0.10566000000E+00 0. -1.
        994   -1    0    0    0    0 -0.00000000000E+00 -0.00000000000E+00  0.11368683772E-12  0.17120000000E+03  0.17120000000E+03 0.  0.
         13    1    1    2    0    0  0.10743781181E+02  0.15022653208E+01  0.60859053253E+02  0.61818453249E+02  0.10566000000E+00 0. -1.
        994    1    1    2    0    0 -0.86376656975E+01 -0.32976239983E+01  0.12508735473E+01  0.17145404130E+03  0.17120000000E+03 0.  0.
        998    1    1    2    0    0 -0.21061154839E+01  0.17953586775E+01  0.14378900695E+04  0.14379275055E+04  0.10000000000E+02 0. -1.
</event>
<event>
 5    1  0.1245771E-008  0.3745774E+03  0.7957747E-01  0.3475115E+00
         13   -1    0    0    0    0  0.00000000000E+00  0.00000000000E+00  0.14999999963E+04  0.15000000000E+04  0.10566000000E+00 0. -1.
        994   -1    0    0    0    0 -0.00000000000E+00 -0.00000000000E+00  0.11368683772E-12  0.17120000000E+03  0.17120000000E+03 0.  0.
         13    1    1    2    0    0 -0.29120722923E+02  0.30075199468E+02  0.11903301542E+03  0.12618004616E+03  0.10566000000E+00 0. -1.
        994    1    1    2    0    0  0.27782960965E+02 -0.22549476448E+02  0.11266813265E+02  0.17526195505E+03  0.17120000000E+03 0.  0.
        998    1    1    2    0    0  0.13377619580E+01 -0.75257230204E+01  0.13697001676E+04  0.13697579988E+04  0.10000000000E+02 0. -1.
</event>
<event>
 5    1  0.1245771E-008  0.3766667E+03  0.7957747E-01  0.3465802E+00
         13   -1    0    0    0    0  0.00000000000E+00  0.00000000000E+00  0.14999999963E+04  0.15000000000E+04  0.10566000000E+00 0.  1.
        994   -1    0    0    0    0 -0.00000000000E+00 -0.00000000000E+00  0.11368683772E-12  0.17120000000E+03  0.17120000000E+03 0.  0.
         13    1    1    2    0    0 -0.72163781515E+02  0.14652038717E+01  0.35069975944E+03  0.35805040235E+03  0.10566000000E+00 0.  1.
        994    1    1    2    0    0  0.69125211506E+02 -0.10972994628E+01  0.22155629453E+02  0.18595647568E+03  0.17120000000E+03 0.  0.
        998    1    1    2    0    0  0.30385700088E+01 -0.36790440885E+00  0.11271446074E+04  0.11271931220E+04  0.10000000000E+02 0. -1.
</event>
<event>
 5    1  0.1245771E-008  0.3856918E+03  0.7957747E-01  0.3426744E+00
         13   -1    0    0    0    0  0.00000000000E+00  0.00000000000E+00  0.14999999963E+04  0.15000000000E+04  0.10566000000E+00 0.  1.
        994   -1    0    0    0    0 -0.00000000000E+00 -0.00000000000E+00  0.11368683772E-12  0.17120000000E+03  0.17120000000E+03 0.  0.
         13    1    1    2    0    0 -0.71372875583E+01  0.86168278890E+01  0.48719284175E+02  0.49987702599E+02  0.10566000000E+00 0.  1.
        994    1    1    2    0    0  0.77144502611E+01 -0.44698339257E+01  0.15479423169E+01  0.17143899289E+03  0.17120000000E+03 0.  0.
        998    1    1    2    0    0 -0.57716270281E+00 -0.41469939633E+01  0.14497327698E+04  0.14497733045E+04  0.10000000000E+02 0.  1.
</event>
<event>
 5    1  0.1245771E-008  0.3839199E+03  0.7957747E-01  0.3434266E+00
         13   -1    0    0    0    0  0.00000000000E+00  0.00000000000E+00  0.14999999963E+04  0.15000000000E+04  0.10566000000E+00 0.  1.
        994   -1    0    0    0    0 -0.00000000000E+00 -0.00000000000E+00  0.11368683772E-12  0.17120000000E+03  0.17120000000E+03 0.  0.
         13    1    1    2    0    0  0.27361868643E+01 -0.11434612701E+02  0.31035727374E+02  0.33188320594E+02  0.10566000000E+00 0.  1.
        994    1    1    2    0    0 -0.31173388670E+00  0.10245335319E+02  0.25141699228E+01  0.17152499854E+03  0.17120000000E+03 0.  0.
        998    1    1    2    0    0 -0.24244529776E+01  0.11892773819E+01  0.14664500990E+04  0.14664866809E+04  0.10000000000E+02 0.  1.
</event>
<event>
 5    1  0.1245771E-008  0.3792073E+03  0.7957747E-01  0.3454617E+00
         13   -1    0    0    0    0  0.00000000000E+00  0.00000000000E+00  0.14999999963E+04  0.15000000000E+04  0.10566000000E+00 0. -1.
        994   -1    0    0    0    0 -0.00000000000E+00 -0.00000000000E+00  0.11368683772E-12  0.17120000000E+03  0.17120000000E+03 0.  0.
         13    1    1    2    0    0  0.43327849392E+02  0.31529187998E+02  0.78633869129E+02  0.95156128373E+02  0.10566000000E+00 0. -1.
        994    1    1    2    0    0 -0.41555950285E+02 -0.47718538973E+02  0.30504711618E+02  0.18505116427E+03  0.17120000000E+03 0.  0.
        998    1    1    2    0    0 -0.17718991067E+01  0.16189350975E+02  0.13908614155E+04  0.13909927074E+04  0.10000000000E+02 0. -1.
</event>
<event>
 5    1  0.1245771E-008  0.3778075E+03  0.7957747E-01  0.3460761E+00
         13   -1    0    0    0    0  0.00000000000E+00  0.00000000000E+00  0.14999999963E+04  0.15000000000E+04  0.10566000000E+00 0.  1.
        994   -1    0    0    0    0 -0.00000000000E+00 -0.00000000000E+00  0.11368683772E-12  0.17120000000E+03  0.17120000000E+03 0.  0.
         13    1    1    2    0    0  0.11285224314E+02 -0.20755788461E+02  0.49393455918E+02  0.54752933200E+02  0.10566000000E+00 0.  1.
        994    1    1    2    0    0 -0.11719693016E+02  0.23139754629E+02  0.75128673186E+01  0.17331671190E+03  0.17120000000E+03 0.  0.
        998    1    1    2    0    0  0.43446870262E+00 -0.23839661682E+01  0.14430936730E+04  0.14431303549E+04  0.10000000000E+02 0.  1.
</event>
<event>
 5    1  0.1245771E-008  0.3818133E+03  0.7957747E-01  0.3443301E+00
         13   -1    0    0    0    0  0.00000000000E+00  0.00000000000E+00  0.14999999963E+04  0.15000000000E+04  0.10566000000E+00 0.  1.
        994   -1    0    0    0    0 -0.00000000000E+00 -0.00000000000E+00  0.11368683772E-12  0.17120000000E+03  0.17120000000E+03 0.  0.
         13    1    1    2    0    0  0.50987110551E+01 -0.60350704667E+02  0.34784548843E+03  0.35307888551E+03  0.10566000000E+00 0.  1.
        994    1    1    2    0    0 -0.43938546909E+02  0.81148614094E+02  0.32054896429E+02  0.19711075531E+03  0.17120000000E+03 0.  0.
        998    1    1    2    0    0  0.38839835854E+02 -0.20797909427E+02  0.11200996114E+04  0.11210103592E+04  0.10000000000E+02 0.  1.
</event>
<event>
 5    1  0.1245771E-008  0.3847960E+03  0.7957747E-01  0.3430538E+00
         13   -1    0    0    0    0  0.00000000000E+00  0.00000000000E+00  0.14999999963E+04  0.15000000000E+04  0.10566000000E+00 0. -1.
        994   -1    0    0    0    0 -0.00000000000E+00 -0.00000000000E+00  0.11368683772E-12  0.17120000000E+03  0.17120000000E+03 0.  0.
         13    1    1    2    0    0 -0.90749725630E+01 -0.22226099704E+02  0.68824030202E+01  0.24974652559E+02  0.10566000000E+00 0. -1.
        994    1    1    2    0    0  0.10454337973E+02  0.19890768325E+02  0.20851572718E+02  0.17392286777E+03  0.17120000000E+03 0.  0.
        998    1    1    2    0    0 -0.13793654104E+01  0.23353313789E+01  0.14722660205E+04  0.14723024797E+04  0.10000000000E+02 0. -1.
</event>
<event>
 5    1  0.1245771E-008  0.2841712E+03  0.7957747E-01  0.4015932E+00
         13   -1    0    0    0    0  0.00000000000E+00  0.00000000000E+00  0.14999999963E+04  0.15000000000E+04  0.10566000000E+00 0.  1.
        994   -1    0    0    0    0 -0.00000000000E+00 -0.00000000000E+00  0.11368683772E-12  0.17120000000E+03  0.17120000000E+03 0.  0.
         13    1    1    2    0    0  0.94274744649E+02  0.97751542349E+02  0.75854748216E+03  0.77060845140E+03  0.10566000000E+00 0.  1.
        994    1    1    2    0    0  0.33824272305E+02 -0.59083991723E+02  0.42767798869E+02  0.18913890159E+03  0.17120000000E+03 0.  0.
        998    1    1    2    0    0 -0.12809901695E+03 -0.38667550626E+02  0.69868471525E+03  0.71145264701E+03  0.10000000000E+02 0.  1.
</event>
<event>
 5    1  0.1245771E-008  0.3845239E+03  0.7957747E-01  0.3431694E+00
         13   -1    0    0    0    0  0.00000000000E+00  0.00000000000E+00  0.14999999963E+04  0.15000000000E+04  0.10566000000E+00 0. -1.
        994   -1    0    0    0    0 -0.00000000000E+00 -0.00000000000E+00  0.11368683772E-12  0.17120000000E+03  0.17120000000E+03 0.  0.
         13    1    1    2    0    0  0.19992488243E+02 -0.81530252992E+01  0.11079457543E+03  0.11287878683E+03  0.10566000000E+00 0. -1.
        994    1    1    2    0    0 -0.30020928595E+02  0.33484219100E+01  0.48779009926E+01  0.17391291499E+03  0.17120000000E+03 0.  0.
        998    1    1    2    0    0  0.10028440352E+02  0.48046033892E+01  0.13843275199E+04  0.13844082982E+04  0.10000000000E+02 0. -1.
</event>
<event>
 5    1  0.1245771E-008  0.3916324E+03  0.7957747E-01  0.3402021E+00
         13   -1    0    0    0    0  0.00000000000E+00  0.00000000000E+00  0.14999999963E+04  0.15000000000E+04  0.10566000000E+00 0. -1.
        994   -1    0    0    0    0 -0.00000000000E+00 -0.00000000000E+00  0.11368683772E-12  0.17120000000E+03  0.17120000000E+03 0.  0.
         13    1    1    2    0    0 -0.38127568182E+02 -0.70424678418E+01  0.23834718895E+02  0.45512776202E+02  0.10566000000E+00 0. -1.
        994    1    1    2    0    0  0.31714912723E+02  0.66590517495E+00  0.26688394052E+02  0.17614763551E+03  0.17120000000E+03 0.  0.
        998    1    1    2    0    0  0.64126554588E+01  0.63765626668E+01  0.14494768833E+04  0.14495395883E+04  0.10000000000E+02 0. -1.
</event>
<event>
 5    1  0.1245771E-008  0.2587209E+03  0.7957747E-01  0.4243346E+00
         13   -1    0    0    0    0  0.00000000000E+00  0.00000000000E+00  0.14999999963E+04  0.15000000000E+04  0.10566000000E+00 0. -1.
        994   -1    0    0    0    0 -0.00000000000E+00 -0.00000000000E+00  0.11368683772E-12  0.17120000000E+03  0.17120000000E+03 0.  0.
         13    1    1    2    0    0 -0.14395893379E+03 -0.11525580835E+03  0.44962067364E+03  0.48596999630E+03  0.10566000000E+00 0. -1.
        994    1    1    2    0    0  0.99179373972E+02  0.53096488695E+02  0.93407933257E+02  0.22514499179E+03  0.17120000000E+03 0.  0.
        998    1    1    2    0    0  0.44779559818E+02  0.62159319650E+02  0.95697138938E+03  0.96008501191E+03  0.10000000000E+02 0. -1.
</event>
<event>
 5    1  0.1245771E-008  0.3775773E+03  0.7957747E-01  0.3461776E+00
         13   -1    0    0    0    0  0.00000000000E+00  0.00000000000E+00  0.14999999963E+04  0.15000000000E+04  0.10566000000E+00 0.  1.
        994   -1    0    0    0    0 -0.00000000000E+00 -0.00000000000E+00  0.11368683772E-12  0.17120000000E+03  0.17120000000E+03 0.  0.
         13    1    1    2    0    0 -0.10677533524E+01  0.22111511538E+02  0.41466100320E+02  0.47005400535E+02  0.10566000000E+00 0.  1.
        994    1    1    2    0    0  0.92284903985E+00 -0.30418920314E+02  0.84885270276E+01  0.17409094593E+03  0.17120000000E+03 0.  0.
        998    1    1    2    0    0  0.14490431251E+00  0.83074087753E+01  0.14500453689E+04  0.14501036535E+04  0.10000000000E+02 0.  1.
</event>
<event>
 5    1  0.1245771E-008  0.3826137E+03  0.7957747E-01  0.3439856E+00
         13   -1    0    0    0    0  0.00000000000E+00  0.00000000000E+00  0.14999999963E+04  0.15000000000E+04  0.10566000000E+00 0.  1.
        994   -1    0    0    0    0 -0.00000000000E+00 -0.00000000000E+00  0.11368683772E-12  0.17120000000E+03  0.17120000000E+03 0.  0.
         13    1    1    2    0    0 -0.23414282126E+01 -0.99942072647E+01  0.17673151892E+02  0.20438148810E+02  0.10566000000E+00 0.  1.
        994    1    1    2    0    0  0.60534257155E+01  0.42029311998E+01  0.29995739181E+01  0.17138478940E+03  0.17120000000E+03 0.  0.
        998    1    1    2    0    0 -0.37119975029E+01  0.57912760649E+01  0.14793272705E+04  0.14793770618E+04  0.10000000000E+02 0.  1.
</event>
<event>
 5    1  0.1245771E-008  0.4011691E+03  0.7957747E-01  0.3363864E+00
         13   -1    0    0    0    0  0.00000000000E+00  0.00000000000E+00  0.14999999963E+04  0.15000000000E+04  0.10566000000E+00 0.  1.
        994   -1    0    0    0    0 -0.00000000000E+00 -0.00000000000E+00  0.11368683772E-12  0.17120000000E+03  0.17120000000E+03 0.  0.
         13    1    1    2    0    0  0.15028789976E+03  0.24422659422E+02  0.32781659253E+03  0.36145075545E+03  0.10566000000E+00 0.  1.
        994    1    1    2    0    0 -0.13571800822E+03 -0.24908687667E+01  0.10537187584E+03  0.24256597948E+03  0.17120000000E+03 0.  0.
        998    1    1    2    0    0 -0.14569891541E+02 -0.21931790655E+02  0.10668115279E+04  0.10671832651E+04  0.10000000000E+02 0.  1.
</event>
<event>
 5    1  0.1264035E-008  0.3858125E+03  0.7957747E-01  0.3426234E+00
         13   -1    0    0    0    0  0.00000000000E+00  0.00000000000E+00  0.14999999963E+04  0.15000000000E+04  0.10566000000E+00 0. -1.
        994   -1    0    0    0    0 -0.00000000000E+00 -0.00000000000E+00  0.11368683772E-12  0.17120000000E+03  0.17120000000E+03 0.  0.
         13    1    1    2    0    0 -0.16022079411E+02 -0.54064934080E+00  0.94228890615E+02  0.95582918563E+02  0.10566000000E+00 0. -1.
        994    1    1    2    0    0  0.23742746527E+02  0.22802138035E+02  0.47897768805E+01  0.17440194229E+03  0.17120000000E+03 0.  0.
        998    1    1    2    0    0 -0.77206671160E+01 -0.22261488694E+02  0.14009813288E+04  0.14012151391E+04  0.10000000000E+02 0. -1.
</event>
<event>
 5    1  0.1245771E-008  0.4078017E+03  0.7957747E-01  0.3338373E+00
         13   -1    0    0    0    0  0.00000000000E+00  0.00000000000E+00  0.14999999963E+04  0.15000000000E+04  0.10566000000E+00 0. -1.
        994   -1    0    0    0    0 -0.00000000000E+00 -0.00000000000E+00  0.11368683772E-12  0.17120000000E+03  0.17120000000E+03 0.  0.
         13    1    1    2    0    0 -0.67934212534E+02  0.18863332417E+02  0.63022343717E+02  0.94565900377E+02  0.10566000000E+00 0. -1.
        994    1    1    2    0    0  0.67749266542E+02 -0.20916003334E+02  0.53157169162E+02  0.19277595012E+03  0.17120000000E+03 0.  0.
        998    1    1    2    0    0  0.18494599135E+00  0.20526709164E+01  0.13838204834E+04  0.13838581495E+04  0.10000000000E+02 0. -1.
</event>
<event>
 5    1  0.1245771E-008  0.3832643E+03  0.7957747E-01  0.3437067E+00
         13   -1    0    0    0    0  0.00000000000E+00  0.00000000000E+00  0.14999999963E+04  0.15000000000E+04  0.10566000000E+00 0. -1.
        994   -1    0    0    0    0 -0.00000000000E+00 -0.00000000000E+00  0.11368683772E-12  0.17120000000E+03  0.17120000000E+03 0.  0.
         13    1    1    2    0    0  0.15081518864E+02 -0.63813972047E+01  0.55459764889E+02  0.57827079531E+02  0.10566000000E+00 0. -1.
        994    1    1    2    0    0 -0.76833778444E+01 -0.13468082595E+02  0.32898817148E+01  0.17193221590E+03  0.17120000000E+03 0.  0.
        998    1    1    2    0    0 -0.73981410199E+01  0.19849479800E+02  0.14412503497E+04  0.14414407046E+04  0.10000000000E+02 0. -1.
</event>
<event>
 5    1  0.1245771E-008  0.3838750E+03  0.7957747E-01  0.3434458E+00
         13   -1    0    0    0    0  0.00000000000E+00  0.00000000000E+00  0.14999999963E+04  0.15000000000E+04  0.10566000000E+00 0. -1.
        994   -1    0    0    0    0 -0.00000000000E+00 -0.00000000000E+00  0.11368683772E-12  0.17120000000E+03  0.17120000000E+03 0.  0.
         13    1    1    2    0    0 -0.28459214947E+01 -0.12697194499E+02  0.37950670193E+02  0.40119603057E+02  0.10566000000E+00 0. -1.
        994    1    1    2    0    0  0.80410408085E+01  0.80891314570E+01  0.26192221129E+01  0.17159951256E+03  0.17120000000E+03 0.  0.
        998    1    1    2    0    0 -0.51951193138E+01  0.46080630419E+01  0.14594301040E+04  0.14594808844E+04  0.10000000000E+02 0. -1.
</event>
<event>
 5    1  0.1245771E-008  0.3813571E+03  0.7957747E-01  0.3445271E+00
         13   -1    0    0    0    0  0.00000000000E+00  0.00000000000E+00  0.14999999963E+04  0.15000000000E+04  0.10566000000E+00 0. -1.
        994   -1    0    0    0    0 -0.00000000000E+00 -0.00000000000E+00  0.11368683772E-12  0.17120000000E+03  0.17120000000E+03 0.  0.
         13    1    1    2    0    0 -0.24617575986E+02 -0.91618168239E+01  0.11252124683E+03  0.11554655376E+03  0.10566000000E+00 0. -1.
        994    1    1    2    0    0 -0.24302633069E+00 -0.14432470718E+02  0.41433659532E+01  0.17185739075E+03  0.17120000000E+03 0.  0.
        998    1    1    2    0    0  0.24860602316E+02  0.23594287542E+02  0.13833353835E+04  0.13837960555E+04  0.10000000000E+02 0. -1.
</event>
<event>
 5    1  0.1245771E-008  0.3764373E+03  0.7957747E-01  0.3466819E+00
         13   -1    0    0    0    0  0.00000000000E+00  0.00000000000E+00  0.14999999963E+04  0.15000000000E+04  0.10566000000E+00 0. -1.
        994   -1    0    0    0    0 -0.00000000000E+00 -0.00000000000E+00  0.11368683772E-12  0.17120000000E+03  0.17120000000E+03 0.  0.
         13    1    1    2    0    0 -0.29949212173E+01 -0.29077454614E+02  0.73905962397E+02  0.79476854252E+02  0.10566000000E+00 0. -1.
        994    1    1    2    0    0  0.72523389559E+01  0.25686408599E+01  0.61427473205E+01  0.17148284952E+03  0.17120000000E+03 0.  0.
        998    1    1    2    0    0 -0.42574177386E+01  0.26508813754E+02  0.14199512866E+04  0.14202402962E+04  0.10000000000E+02 0. -1.
</event>
<event>
 5    1  0.1245771E-008  0.3737128E+03  0.7957747E-01  0.3479000E+00
         13   -1    0    0    0    0  0.00000000000E+00  0.00000000000E+00  0.14999999963E+04  0.15000000000E+04  0.10566000000E+00 0.  1.
        994   -1    0    0    0    0 -0.00000000000E+00 -0.00000000000E+00  0.11368683772E-12  0.17120000000E+03  0.17120000000E+03 0.  0.
         13    1    1    2    0    0 -0.12990612053E+02  0.63878757786E+01  0.21544136910E+01  0.14636038428E+02  0.10566000000E+00 0.  1.
        994    1    1    2    0    0  0.14251022759E+02 -0.59830465211E+01  0.13762202873E+02  0.17244630098E+03  0.17120000000E+03 0.  0.
        998    1    1    2    0    0 -0.12604107063E+01 -0.40482925745E+00  0.14840833797E+04  0.14841176606E+04  0.10000000000E+02 0.  1.
</event>
<event>
 5    1  0.1245771E-008  0.3728073E+03  0.7957747E-01  0.3483088E+00
         13   -1    0    0    0    0  0.00000000000E+00  0.00000000000E+00  0.14999999963E+04  0.15000000000E+04  0.10566000000E+00 0. -1.
        994   -1    0    0    0    0 -0.00000000000E+00 -0.00000000000E+00  0.11368683772E-12  0.17120000000E+03  0.17120000000E+03 0.  0.
         13    1    1    2    0    0 -0.12745304784E+01 -0.18657384510E+02  0.18919748886E+02  0.26602452643E+02  0.10566000000E+00 0. -1.
        994    1    1    2    0    0  0.16548008579E+01  0.15786223170E+02  0.86723229900E+01  0.17215281698E+03  0.17120000000E+03 0.  0.
        998    1    1    2    0    0 -0.38027037954E+00  0.28711613396E+01  0.14724079244E+04  0.14724447304E+04  0.10000000000E+02 0. -1.
</event>
<event>
 5    1  0.1245771E-008  0.3842373E+03  0.7957747E-01  0.3432913E+00
         13   -1    0    0    0    0  0.00000000000E+00  0.00000000000E+00  0.14999999963E+04  0.15000000000E+04  0.10566000000E+00 0.  1.
        994   -1    0    0    0    0 -0.00000000000E+00 -0.00000000000E+00  0.11368683772E-12  0.17120000000E+03  0.17120000000E+03 0.  0.
         13    1    1    2    0    0  0.28195251805E+01 -0.98579552785E+01  0.25491451953E+02  0.27476431559E+02  0.10566000000E+00 0.  1.
        994    1    1    2    0    0 -0.30639468982E-01  0.85461389985E+01  0.22501080153E+01  0.17142794526E+03  0.17120000000E+03 0.  0.
        998    1    1    2    0    0 -0.27888857115E+01  0.13118162800E+01  0.14722584363E+04  0.14722956232E+04  0.10000000000E+02 0.  1.
</event>
<event>
 5    1  0.1245771E-008  0.3797155E+03  0.7957747E-01  0.3452398E+00
         13   -1    0    0    0    0  0.00000000000E+00  0.00000000000E+00  0.14999999963E+04  0.15000000000E+04  0.10566000000E+00 0. -1.
        994   -1    0    0    0    0 -0.00000000000E+00 -0.00000000000E+00  0.11368683772E-12  0.17120000000E+03  0.17120000000E+03 0.  0.
         13    1    1    2    0    0 -0.10719396513E+02 -0.80277735958E+01  0.18925207818E+02  0.23184591123E+02  0.10566000000E+00 0. -1.
        994    1    1    2    0    0  0.15368864672E+02  0.32935597178E+01  0.51039250674E+01  0.17199575456E+03  0.17120000000E+03 0.  0.
        998    1    1    2    0    0 -0.46494681589E+01  0.47342138780E+01  0.14759708634E+04  0.14760196543E+04  0.10000000000E+02 0. -1.
</event>
<event>
 5    1  0.1245771E-008  0.3802477E+03  0.7957747E-01  0.3450081E+00
         13   -1    0    0    0    0  0.00000000000E+00  0.00000000000E+00  0.14999999963E+04  0.15000000000E+04  0.10566000000E+00 0. -1.
        994   -1    0    0    0    0 -0.00000000000E+00 -0.00000000000E+00  0.11368683772E-12  0.17120000000E+03  0.17120000000E+03 0.  0.
         13    1    1    2    0    0  0.11840890719E+02  0.12919143559E+02  0.36158039456E+02  0.40181164053E+02  0.10566000000E+00 0. -1.
        994    1    1    2    0    0 -0.95408519502E+01 -0.14006934227E+02  0.49681372952E+01  0.17210852521E+03  0.17120000000E+03 0.  0.
        998    1    1    2    0    0 -0.23000387691E+01  0.10877906685E+01  0.14588738195E+04  0.14589103107E+04  0.10000000000E+02 0. -1.
</event>
<event>
 5    1  0.1245771E-008  0.3803713E+03  0.7957747E-01  0.3449543E+00
         13   -1    0    0    0    0  0.00000000000E+00  0.00000000000E+00  0.14999999963E+04  0.15000000000E+04  0.10566000000E+00 0.  1.
        994   -1    0    0    0    0 -0.00000000000E+00 -0.00000000000E+00  0.11368683772E-12  0.17120000000E+03  0.17120000000E+03 0.  0.
         13    1    1    2    0    0 -0.27281565886E+02  0.67084951723E+01  0.89757166126E+02  0.94051303976E+02  0.10566000000E+00 0.  1.
        994    1    1    2    0    0  0.34003102397E+02 -0.14150875067E+02  0.84880791760E+01  0.17532240509E+03  0.17120000000E+03 0.  0.
        998    1    1    2    0    0 -0.67215365111E+01  0.74423798945E+01  0.14017547510E+04  0.14018262909E+04  0.10000000000E+02 0.  1.
</event>
<event>
 5    1  0.1245771E-008  0.3776106E+03  0.7957747E-01  0.3461629E+00
         13   -1    0    0    0    0  0.00000000000E+00  0.00000000000E+00  0.14999999963E+04  0.15000000000E+04  0.10566000000E+00 0. -1.
        994   -1    0    0    0    0 -0.00000000000E+00 -0.00000000000E+00  0.11368683772E-12  0.17120000000E+03  0.17120000000E+03 0.  0.
         13    1    1    2    0    0  0.89213462640E+02  0.19732929945E+01  0.22268664919E+03  0.23990058502E+03  0.10566000000E+00 0. -1.
        994    1    1    2    0    0 -0.88764351730E+02 -0.98608450955E+02  0.81301889428E+02  0.23134859836E+03  0.17120000000E+03 0.  0.
        998    1    1    2    0    0 -0.44911090976E+00  0.96635157961E+02  0.11960114577E+04  0.11999508166E+04  0.10000000000E+02 0. -1.
</event>
<event>
 5    1  0.1245771E-008  0.3854765E+03  0.7957747E-01  0.3427654E+00
         13   -1    0    0    0    0  0.00000000000E+00  0.00000000000E+00  0.14999999963E+04  0.15000000000E+04  0.10566000000E+00 0. -1.
        994   -1    0    0    0    0 -0.00000000000E+00 -0.00000000000E+00  0.11368683772E-12  0.17120000000E+03  0.17120000000E+03 0.  0.
         13    1    1    2    0    0  0.44326066480E+02 -0.13172104860E+02  0.43294611742E+02  0.63346184463E+02  0.10566000000E+00 0. -1.
        994    1    1    2    0    0 -0.83439715597E+02 -0.33835466212E+02  0.50008956428E+02  0.19979329477E+03  0.17120000000E+03 0.  0.
        998    1    1    2    0    0  0.39113649117E+02  0.47007571072E+02  0.14066964281E+04  0.14080605208E+04  0.10000000000E+02 0. -1.
</event>
<event>
 5    1  0.1245771E-008  0.3600941E+03  0.7957747E-01  0.3542693E+00
         13   -1    0    0    0    0  0.00000000000E+00  0.00000000000E+00  0.14999999963E+04  0.15000000000E+04  0.10566000000E+00 0. -1.
        994   -1    0    0    0    0 -0.00000000000E+00 -0.00000000000E+00  0.11368683772E-12  0.17120000000E+03  0.17120000000E+03 0.  0.
         13    1    1    2    0    0 -0.62442028918E+02  0.22910163445E+03  0.10619887628E+04  0.10882126214E+04  0.10566000000E+00 0. -1.
        994    1    1    2    0    0  0.17794933288E+02 -0.24186473077E+03  0.24705929985E+03  0.38621618983E+03  0.17120000000E+03 0.  0.
        998    1    1    2    0    0  0.44647095630E+02  0.12763096325E+02  0.19095193359E+03  0.19677118874E+03  0.10000000000E+02 0. -1.
</event>
<event>
 5    1  0.1245771E-008  0.3746393E+03  0.7957747E-01  0.3474837E+00
         13   -1    0    0    0    0  0.00000000000E+00  0.00000000000E+00  0.14999999963E+04  0.15000000000E+04  0.10566000000E+00 0. -1.
        994   -1    0    0    0    0 -0.00000000000E+00 -0.00000000000E+00  0.11368683772E-12  0.17120000000E+03  0.17120000000E+03 0.  0.
         13    1    1    2    0    0  0.10255171345E+02 -0.94399400104E+00 -0.23178052296E+01  0.10556658993E+02  0.10566000000E+00 0. -1.
        994    1    1    2    0    0 -0.74378222783E+01  0.30489881494E+01  0.13642966441E+02  0.17193076532E+03  0.17120000000E+03 0.  0.
        998    1    1    2    0    0 -0.28173490662E+01 -0.21049941484E+01  0.14886748351E+04  0.14887125757E+04  0.10000000000E+02 0. -1.
</event>
<event>
 5    1  0.1245771E-008  0.3851907E+03  0.7957747E-01  0.3428864E+00
         13   -1    0    0    0    0  0.00000000000E+00  0.00000000000E+00  0.14999999963E+04  0.15000000000E+04  0.10566000000E+00 0. -1.
        994   -1    0    0    0    0 -0.00000000000E+00 -0.00000000000E+00  0.11368683772E-12  0.17120000000E+03  0.17120000000E+03 0.  0.
         13    1    1    2    0    0  0.46149446502E+01  0.89928341491E+01  0.33007687234E+02  0.34520825029E+02  0.10566000000E+00 0. -1.
        994    1    1    2    0    0  0.68676827523E+00 -0.91342931527E+01  0.18113059231E+01  0.17145444815E+03  0.17120000000E+03 0.  0.
        998    1    1    2    0    0 -0.53017129254E+01  0.14145900362E+00  0.14651810031E+04  0.14652247268E+04  0.10000000000E+02 0. -1.
</event>
<event>
 5    1  0.1245771E-008  0.3815357E+03  0.7957747E-01  0.3444499E+00
         13   -1    0    0    0    0  0.00000000000E+00  0.00000000000E+00  0.14999999963E+04  0.15000000000E+04  0.10566000000E+00 0. -1.
        994   -1    0    0    0    0 -0.00000000000E+00 -0.00000000000E+00  0.11368683772E-12  0.17120000000E+03  0.17120000000E+03 0.  0.
         13    1    1    2    0    0 -0.12489091364E+02  0.13937534164E+01  0.22183970688E+02  0.25496267790E+02  0.10566000000E+00 0. -1.
        994    1    1    2    0    0  0.81147687574E+01 -0.41499039569E+01  0.36362772917E+01  0.17148100095E+03  0.17120000000E+03 0.  0.
        998    1    1    2    0    0  0.43743226071E+01  0.27561505405E+01  0.14741797483E+04  0.14742227313E+04  0.10000000000E+02 0. -1.
</event>
<event>
 5    1  0.1245771E-008  0.3765616E+03  0.7957747E-01  0.3466268E+00
         13   -1    0    0    0    0  0.00000000000E+00  0.00000000000E+00  0.14999999963E+04  0.15000000000E+04  0.10566000000E+00 0.  1.
        994   -1    0    0    0    0 -0.00000000000E+00 -0.00000000000E+00  0.11368683772E-12  0.17120000000E+03  0.17120000000E+03 0.  0.
         13    1    1    2    0    0  0.28226178886E+02 -0.26634722166E+02  0.16703620680E+03  0.17148536715E+03  0.10566000000E+00 0.  1.
        994    1    1    2    0    0 -0.17102969296E+02 -0.49607828052E+02  0.15246822558E+02  0.17970908091E+03  0.17120000000E+03 0.  0.
        998    1    1    2    0    0 -0.11123209590E+02  0.76242550218E+02  0.13177169669E+04  0.13200055519E+04  0.10000000000E+02 0.  1.
</event>
<event>
 5    1  0.1245771E-008  0.3850125E+03  0.7957747E-01  0.3429619E+00
         13   -1    0    0    0    0  0.00000000000E+00  0.00000000000E+00  0.14999999963E+04  0.15000000000E+04  0.10566000000E+00 0.  1.
        994   -1    0    0    0    0 -0.00000000000E+00 -0.00000000000E+00  0.11368683772E-12  0.17120000000E+03  0.17120000000E+03 0.  0.
         13    1    1    2    0    0  0.13962254116E+02 -0.14305089320E+02  0.11390752924E+03  0.11564824470E+03  0.10566000000E+00 0.  1.
        994    1    1    2    0    0 -0.17844686061E+02  0.13240287774E+02  0.32492737153E+01  0.17266654517E+03  0.17120000000E+03 0.  0.
        998    1    1    2    0    0  0.38824319452E+01  0.10648015463E+01  0.13828431933E+04  0.13828852101E+04  0.10000000000E+02 0.  1.
</event>
<event>
 5    1  0.1245771E-008  0.3820964E+03  0.7957747E-01  0.3442081E+00
         13   -1    0    0    0    0  0.00000000000E+00  0.00000000000E+00  0.14999999963E+04  0.15000000000E+04  0.10566000000E+00 0.  1.
        994   -1    0    0    0    0 -0.00000000000E+00 -0.00000000000E+00  0.11368683772E-12  0.17120000000E+03  0.17120000000E+03 0.  0.
         13    1    1    2    0    0 -0.86898747050E+01 -0.15653358474E+02  0.51201609701E+02  0.54241658842E+02  0.10566000000E+00 0.  1.
        994    1    1    2    0    0  0.38930408144E+01  0.10330850801E+02  0.34833548814E+01  0.17159095549E+03  0.17120000000E+03 0.  0.
        998    1    1    2    0    0  0.47968338906E+01  0.53225076727E+01  0.14453150317E+04  0.14453673857E+04  0.10000000000E+02 0.  1.
</event>
<event>
 5    1  0.1245771E-008  0.4048298E+03  0.7957747E-01  0.3349692E+00
         13   -1    0    0    0    0  0.00000000000E+00  0.00000000000E+00  0.14999999963E+04  0.15000000000E+04  0.10566000000E+00 0. -1.
        994   -1    0    0    0    0 -0.00000000000E+00 -0.00000000000E+00  0.11368683772E-12  0.17120000000E+03  0.17120000000E+03 0.  0.
         13    1    1    2    0    0  0.25658981703E+02  0.53019331536E+02  0.45896016849E+02  0.74671871446E+02  0.10566000000E+00 0. -1.
        994    1    1    2    0    0  0.25015186138E+02 -0.60483558615E+02  0.48013748667E+02  0.18946973495E+03  0.17120000000E+03 0.  0.
        998    1    1    2    0    0 -0.50674167841E+02  0.74642270796E+01  0.14060902308E+04  0.14070583936E+04  0.10000000000E+02 0. -1.
</event>
<event>
 5    1  0.1245771E-008  0.4066346E+03  0.7957747E-01  0.3342798E+00
         13   -1    0    0    0    0  0.00000000000E+00  0.00000000000E+00  0.14999999963E+04  0.15000000000E+04  0.10566000000E+00 0. -1.
        994   -1    0    0    0    0 -0.00000000000E+00 -0.00000000000E+00  0.11368683772E-12  0.17120000000E+03  0.17120000000E+03 0.  0.
         13    1    1    2    0    0 -0.81385228073E+02 -0.27466626623E+02  0.99710176356E+02  0.13160585610E+03  0.10566000000E+00 0. -1.
        994    1    1    2    0    0  0.80218037392E+02  0.28544728255E+02  0.61623597445E+02  0.20088962839E+03  0.17120000000E+03 0.  0.
        998    1    1    2    0    0  0.11671906806E+01 -0.10781016319E+01  0.13386662225E+04  0.13387045155E+04  0.10000000000E+02 0.  0.
</event>
<event>
 5    1  0.1245771E-008  0.3857742E+03  0.7957747E-01  0.3426395E+00
         13   -1    0    0    0    0  0.00000000000E+00  0.00000000000E+00  0.14999999963E+04  0.15000000000E+04  0.10566000000E+00 0. -1.
        994   -1    0    0    0    0 -0.00000000000E+00 -0.00000000000E+00  0.11368683772E-12  0.17120000000E+03  0.17120000000E+03 0.  0.
         13    1    1    2    0    0  0.36217524985E+01  0.97673804234E+01  0.43507496492E+02  0.44737369464E+02  0.10566000000E+00 0. -1.
        994    1    1    2    0    0 -0.61208672537E+01 -0.67322121569E+01  0.15178808752E+01  0.17144833525E+03  0.17120000000E+03 0.  0.
        998    1    1    2    0    0  0.24991147552E+01 -0.30351682665E+01  0.14549746189E+04  0.14550142953E+04  0.10000000000E+02 0. -1.
</event>
<event>
 5    1  0.1245771E-008  0.3824338E+03  0.7957747E-01  0.3440629E+00
         13   -1    0    0    0    0  0.00000000000E+00  0.00000000000E+00  0.14999999963E+04  0.15000000000E+04  0.10566000000E+00 0.  1.
        994   -1    0    0    0    0 -0.00000000000E+00 -0.00000000000E+00  0.11368683772E-12  0.17120000000E+03  0.17120000000E+03 0.  0.
         13    1    1    2    0    0  0.99857016345E+01  0.11773147293E+02  0.39594404671E+02  0.42497638518E+02  0.10566000000E+00 0.  1.
        994    1    1    2    0    0 -0.68176594560E+01 -0.10923246081E+02  0.34596342941E+01  0.17171839405E+03  0.17120000000E+03 0.  0.
        998    1    1    2    0    0 -0.31680421785E+01 -0.84990121239E+00  0.14569459573E+04  0.14569839674E+04  0.10000000000E+02 0.  1.
</event>
<event>
 5    1  0.1442981E-008  0.3857827E+03  0.7957747E-01  0.3426360E+00
         13   -1    0    0    0    0  0.00000000000E+00  0.00000000000E+00  0.14999999963E+04  0.15000000000E+04  0.10566000000E+00 0. -1.
        994   -1    0    0    0    0 -0.00000000000E+00 -0.00000000000E+00  0.11368683772E-12  0.17120000000E+03  0.17120000000E+03 0.  0.
         13    1    1    2    0    0 -0.10593006617E+02  0.44484260803E+01  0.55188563794E+02  0.56371881479E+02  0.10566000000E+00 0. -1.
        994    1    1    2    0    0  0.53854130504E+01  0.41916041879E+01  0.13948458066E+01  0.17134164063E+03  0.17120000000E+03 0.  0.
        998    1    1    2    0    0  0.52075935667E+01 -0.86400302681E+01  0.14434165867E+04  0.14434864779E+04  0.10000000000E+02 0. -1.
</event>
<event>
 5    1  0.1245771E-008  0.3717241E+03  0.7957747E-01  0.3488005E+00
         13   -1    0    0    0    0  0.00000000000E+00  0.00000000000E+00  0.14999999963E+04  0.15000000000E+04  0.10566000000E+00 0. -1.
        994   -1    0    0    0    0 -0.00000000000E+00 -0.00000000000E+00  0.11368683772E-12  0.17120000000E+03  0.17120000000E+03 0.  0.
         13    1    1    2    0    0 -0.12440446072E+03 -0.76964738976E+02  0.57367330718E+03  0.59203134666E+03  0.10566000000E+00 0. -1.
        994    1    1    2    0    0  0.10566916616E+03  0.89760719024E+02  0.82907189531E+02  0.23538479439E+03  0.17120000000E+03 0.  0.
        998    1    1    2    0    0  0.18735294568E+02 -0.12795980048E+02  0.84341949956E+03  0.84378385894E+03  0.10000000000E+02 0.  0.
</event>
<event>
 5    1  0.1245771E-008  0.3798531E+03  0.7957747E-01  0.3451798E+00
         13   -1    0    0    0    0  0.00000000000E+00  0.00000000000E+00  0.14999999963E+04  0.15000000000E+04  0.10566000000E+00 0. -1.
        994   -1    0    0    0    0 -0.00000000000E+00 -0.00000000000E+00  0.11368683772E-12  0.17120000000E+03  0.17120000000E+03 0.  0.
         13    1    1    2    0    0 -0.43654019250E+02  0.40020398882E+02  0.31939750413E+03  0.32484162685E+03  0.10566000000E+00 0. -1.
        994    1    1    2    0    0  0.39819364385E+02 -0.48794773431E+02  0.17589577282E+02  0.18326304844E+03  0.17120000000E+03 0.  0.
        998    1    1    2    0    0  0.38346548651E+01  0.87743745485E+01  0.11630129149E+04  0.11630953247E+04  0.10000000000E+02 0. -1.
</event>
<event>
 5    1  0.1245771E-008  0.3851812E+03  0.7957747E-01  0.3428904E+00
         13   -1    0    0    0    0  0.00000000000E+00  0.00000000000E+00  0.14999999963E+04  0.15000000000E+04  0.10566000000E+00 0.  1.
        994   -1    0    0    0    0 -0.00000000000E+00 -0.00000000000E+00  0.11368683772E-12  0.17120000000E+03  0.17120000000E+03 0.  0.
         13    1    1    2    0    0 -0.34344309982E+01 -0.17364541551E+02  0.95654283912E+02  0.97278341959E+02  0.10566000000E+00 0.  1.
        994    1    1    2    0    0 -0.10230536119E+00  0.19879332040E+02  0.28401846103E+01  0.17237373627E+03  0.17120000000E+03 0.  0.
        998    1    1    2    0    0  0.35367363594E+01 -0.25147904886E+01  0.14015055278E+04  0.14015479218E+04  0.10000000000E+02 0.  1.
</event>
<event>
 5    1  0.1245771E-008  0.3827194E+03  0.7957747E-01  0.3439402E+00
         13   -1    0    0    0    0  0.00000000000E+00  0.00000000000E+00  0.14999999963E+04  0.15000000000E+04  0.10566000000E+00 0.  1.
        994   -1    0    0    0    0 -0.00000000000E+00 -0.00000000000E+00  0.11368683772E-12  0.17120000000E+03  0.17120000000E+03 0.  0.
         13    1    1    2    0    0 -0.14309153829E+02 -0.13458703619E+02  0.75345756173E+02  0.77864515177E+02  0.10566000000E+00 0.  1.
        994    1    1    2    0    0 -0.66871431190E+01  0.13929083799E+01  0.29212553628E+01  0.17136111522E+03  0.17120000000E+03 0.  0.
        998    1    1    2    0    0  0.20996296948E+02  0.12065795239E+02  0.14217329847E+04  0.14219743696E+04  0.10000000000E+02 0.  1.
</event>
<event>
 5    1  0.1245771E-008  0.3843788E+03  0.7957747E-01  0.3432311E+00
         13   -1    0    0    0    0  0.00000000000E+00  0.00000000000E+00  0.14999999963E+04  0.15000000000E+04  0.10566000000E+00 0.  1.
        994   -1    0    0    0    0 -0.00000000000E+00 -0.00000000000E+00  0.11368683772E-12  0.17120000000E+03  0.17120000000E+03 0.  0.
         13    1    1    2    0    0 -0.35110440663E+01  0.19158226853E+02  0.93360701039E+02  0.95370838044E+02  0.10566000000E+00 0.  1.
        994    1    1    2    0    0  0.11111131212E+01 -0.18810610983E+02  0.31098172532E+01  0.17226196510E+03  0.17120000000E+03 0.  0.
        998    1    1    2    0    0  0.23999309451E+01 -0.34761587079E+00  0.14035294780E+04  0.14035671969E+04  0.10000000000E+02 0.  1.
</event>
<event>
 5    1  0.1245771E-008  0.3734489E+03  0.7957747E-01  0.3480189E+00
         13   -1    0    0    0    0  0.00000000000E+00  0.00000000000E+00  0.14999999963E+04  0.15000000000E+04  0.10566000000E+00 0.  1.
        994   -1    0    0    0    0 -0.00000000000E+00 -0.00000000000E+00  0.11368683772E-12  0.17120000000E+03  0.17120000000E+03 0.  0.
         13    1    1    2    0    0 -0.83554826651E+02 -0.16109747022E+03  0.92965070039E+03  0.94719809959E+03  0.10566000000E+00 0.  1.
        994    1    1    2    0    0  0.74195891231E+02  0.15034871330E+03  0.11058754330E+03  0.26391061100E+03  0.17120000000E+03 0.  0.
        998    1    1    2    0    0  0.93589354206E+01  0.10748756927E+02  0.45976175258E+03  0.46009128940E+03  0.10000000000E+02 0. -1.
</event>
<event>
 5    1  0.1245771E-008  0.3743278E+03  0.7957747E-01  0.3476235E+00
         13   -1    0    0    0    0  0.00000000000E+00  0.00000000000E+00  0.14999999963E+04  0.15000000000E+04  0.10566000000E+00 0.  1.
        994   -1    0    0    0    0 -0.00000000000E+00 -0.00000000000E+00  0.11368683772E-12  0.17120000000E+03  0.17120000000E+03 0.  0.
         13    1    1    2    0    0 -0.25854866484E+02 -0.55046807759E+02  0.25195855895E+03  0.25919442849E+03  0.10566000000E+00 0.  1.
        994    1    1    2    0    0  0.11980213384E+02  0.38877923489E+02  0.12683789934E+02  0.17642374266E+03  0.17120000000E+03 0.  0.
        998    1    1    2    0    0  0.13874653100E+02  0.16168884270E+02  0.12353576474E+04  0.12355818289E+04  0.10000000000E+02 0.  1.
</event>
<event>
 5    1  0.1245771E-008  0.3839618E+03  0.7957747E-01  0.3434087E+00
         13   -1    0    0    0    0  0.00000000000E+00  0.00000000000E+00  0.14999999963E+04  0.15000000000E+04  0.10566000000E+00 0.  1.
        994   -1    0    0    0    0 -0.00000000000E+00 -0.00000000000E+00  0.11368683772E-12  0.17120000000E+03  0.17120000000E+03 0.  0.
         13    1    1    2    0    0 -0.16106499541E+02 -0.10377031248E+01  0.59746143042E+02  0.61887873834E+02  0.10566000000E+00 0.  1.
        994    1    1    2    0    0  0.12235804459E+02 -0.20702108429E+01  0.26547847326E+01  0.17166970777E+03  0.17120000000E+03 0.  0.
        998    1    1    2    0    0  0.38706950820E+01  0.31079139678E+01  0.14375990685E+04  0.14376424184E+04  0.10000000000E+02 0.  1.
</event>
<event>
 5    1  0.1245771E-008  0.3765779E+03  0.7957747E-01  0.3466196E+00
         13   -1    0    0    0    0  0.00000000000E+00  0.00000000000E+00  0.14999999963E+04  0.15000000000E+04  0.10566000000E+00 0. -1.
        994   -1    0    0    0    0 -0.00000000000E+00 -0.00000000000E+00  0.11368683772E-12  0.17120000000E+03  0.17120000000E+03 0.  0.
         13    1    1    2    0    0 -0.13362511562E+02  0.22829879192E+01 -0.33599111034E+00  0.13560708062E+02  0.10566000000E+00 0. -1.
        994    1    1    2    0    0  0.14931676653E+02 -0.35574776881E+00  0.15258827297E+02  0.17252638446E+03  0.17120000000E+03 0.  0.
        998    1    1    2    0    0 -0.15691650913E+01 -0.19272401504E+01  0.14850771601E+04  0.14851129075E+04  0.10000000000E+02 0. -1.
</event>
<event>
 5    1  0.1245771E-008  0.3816068E+03  0.7957747E-01  0.3444192E+00
         13   -1    0    0    0    0  0.00000000000E+00  0.00000000000E+00  0.14999999963E+04  0.15000000000E+04  0.10566000000E+00 0.  1.
        994   -1    0    0    0    0 -0.00000000000E+00 -0.00000000000E+00  0.11368683772E-12  0.17120000000E+03  0.17120000000E+03 0.  0.
         13    1    1    2    0    0  0.16980750913E+02 -0.20099013522E+02  0.98018800173E+02  0.10148897771E+03  0.10566000000E+00 0.  1.
        994    1    1    2    0    0 -0.16282221979E+02  0.19076265382E+02  0.54186753606E+01  0.17311215063E+03  0.17120000000E+03 0.  0.
        998    1    1    2    0    0 -0.69852893326E+00  0.10227481405E+01  0.13965625207E+04  0.13965988717E+04  0.10000000000E+02 0.  0.
</event>
