<event>
 5    1  0.3934322E-009  0.3883008E+03  0.7957747E-01  0.3415793E+00
         13   -1    0    0    0    0  0.00000000000E+00  0.00000000000E+00  0.14999999963E+04  0.15000000000E+04  0.10566000000E+00 0. -1.
        994   -1    0    0    0    0 -0.00000000000E+00 -0.00000000000E+00  0.11368683772E-12  0.17120000000E+03  0.17120000000E+03 0.  0.
         13    1    1    2    0    0  0.45488631841E+02 -0.12590642479E+03  0.71902296942E+03  0.73137930320E+03  0.10566000000E+00 0. -1.
        994    1    1    2    0    0 -0.80916509181E+02  0.22474701701E+03  0.21486458706E+03  0.36405347668E+03  0.17120000000E+03 0.  0.
        998    1    1    2    0    0  0.35427877340E+02 -0.98840592225E+02  0.56611243980E+03  0.57576722011E+03  0.10000000000E-01 0. -1.
</event>
<event>
 5    1  0.3934322E-009  0.3883010E+03  0.7957747E-01  0.3415792E+00
         13   -1    0    0    0    0  0.00000000000E+00  0.00000000000E+00  0.14999999963E+04  0.15000000000E+04  0.10566000000E+00 0.  1.
        994   -1    0    0    0    0 -0.00000000000E+00 -0.00000000000E+00  0.11368683772E-12  0.17120000000E+03  0.17120000000E+03 0.  0.
         13    1    1    2    0    0  0.92152056088E+01 -0.19375194178E+03  0.10806939786E+04  0.10979636704E+04  0.10566000000E+00 0.  1.
        994    1    1    2    0    0 -0.11008350570E+02  0.23259140378E+03  0.20231616932E+03  0.35279061391E+03  0.17120000000E+03 0.  0.
        998    1    1    2    0    0  0.17931449607E+01 -0.38839462004E+02  0.21698984839E+03  0.22044571573E+03  0.10000000000E-01 0.  1.
</event>
<event>
 5    1  0.3934322E-009  0.3882996E+03  0.7957747E-01  0.3415798E+00
         13   -1    0    0    0    0  0.00000000000E+00  0.00000000000E+00  0.14999999963E+04  0.15000000000E+04  0.10566000000E+00 0. -1.
        994   -1    0    0    0    0 -0.00000000000E+00 -0.00000000000E+00  0.11368683772E-12  0.17120000000E+03  0.17120000000E+03 0.  0.
         13    1    1    2    0    0 -0.21516300353E+03  0.17698521361E+03  0.11721382973E+04  0.12047933778E+04  0.10566000000E+00 0. -1.
        994    1    1    2    0    0  0.21642404791E+03 -0.17802208362E+03  0.32051120944E+03  0.45887700547E+03  0.17120000000E+03 0.  0.
        998    1    1    2    0    0 -0.12610443777E+01  0.10368700099E+01  0.73504895420E+01  0.75296167795E+01  0.10000000000E-01 0.  1.
</event>
<event>
 5    1  0.3934322E-009  0.3883009E+03  0.7957747E-01  0.3415792E+00
         13   -1    0    0    0    0  0.00000000000E+00  0.00000000000E+00  0.14999999963E+04  0.15000000000E+04  0.10566000000E+00 0.  1.
        994   -1    0    0    0    0 -0.00000000000E+00 -0.00000000000E+00  0.11368683772E-12  0.17120000000E+03  0.17120000000E+03 0.  0.
         13    1    1    2    0    0  0.11865427871E+02 -0.23374184823E+03  0.12841677286E+04  0.13053209591E+04  0.10566000000E+00 0.  1.
        994    1    1    2    0    0 -0.11944796909E+02  0.23521828223E+03  0.20780991705E+03  0.35772156783E+03  0.17120000000E+03 0.  0.
        998    1    1    2    0    0  0.79369037771E-01 -0.14764339991E+01  0.80223506577E+01  0.81574730691E+01  0.10000000000E-01 0. -1.
</event>
<event>
 5    1  0.3934322E-009  0.3811956E+03  0.7957747E-01  0.3445969E+00
         13   -1    0    0    0    0  0.00000000000E+00  0.00000000000E+00  0.14999999963E+04  0.15000000000E+04  0.10566000000E+00 0. -1.
        994   -1    0    0    0    0 -0.00000000000E+00 -0.00000000000E+00  0.11368683772E-12  0.17120000000E+03  0.17120000000E+03 0.  0.
         13    1    1    2    0    0  0.30219870486E+02 -0.27116327787E+02  0.15236482660E+03  0.15768191829E+03  0.10566000000E+00 0. -1.
        994    1    1    2    0    0 -0.11004970607E+03  0.14907216144E+02  0.45750254112E+02  0.20913079316E+03  0.17120000000E+03 0.  0.
        998    1    1    2    0    0  0.79829835579E+02  0.12209111643E+02  0.13018849156E+04  0.13043872885E+04  0.10000000000E-01 0. -1.
</event>
<event>
 5    1  0.3934322E-009  0.3883010E+03  0.7957747E-01  0.3415792E+00
         13   -1    0    0    0    0  0.00000000000E+00  0.00000000000E+00  0.14999999963E+04  0.15000000000E+04  0.10566000000E+00 0. -1.
        994   -1    0    0    0    0 -0.00000000000E+00 -0.00000000000E+00  0.11368683772E-12  0.17120000000E+03  0.17120000000E+03 0.  0.
         13    1    1    2    0    0 -0.17727331926E+03 -0.12109209226E+03  0.12792686329E+04  0.12971574194E+04  0.10566000000E+00 0. -1.
        994    1    1    2    0    0  0.18288965866E+03  0.12493758020E+03  0.18015962195E+03  0.33290382330E+03  0.17120000000E+03 0.  0.
        998    1    1    2    0    0 -0.56163393977E+01 -0.38454879391E+01  0.40571741465E+02  0.41138757289E+02  0.10000000000E-01 0.  0.
</event>
<event>
 5    1  0.3934322E-009  0.3882895E+03  0.7957747E-01  0.3415840E+00
         13   -1    0    0    0    0  0.00000000000E+00  0.00000000000E+00  0.14999999963E+04  0.15000000000E+04  0.10566000000E+00 0. -1.
        994   -1    0    0    0    0 -0.00000000000E+00 -0.00000000000E+00  0.11368683772E-12  0.17120000000E+03  0.17120000000E+03 0.  0.
         13    1    1    2    0    0 -0.19410422336E+03  0.17966842604E+03  0.12228235265E+04  0.12511013472E+04  0.10566000000E+00 0. -1.
        994    1    1    2    0    0  0.19423987792E+03 -0.17971202008E+03  0.27608029078E+03  0.41899320674E+03  0.17120000000E+03 0.  0.
        998    1    1    2    0    0 -0.13565455559E+00  0.43594037384E-01  0.10961789634E+01  0.11054460269E+01  0.10000000000E-01 0. -1.
</event>
<event>
 5    1  0.3934322E-009  0.3883009E+03  0.7957747E-01  0.3415792E+00
         13   -1    0    0    0    0  0.00000000000E+00  0.00000000000E+00  0.14999999963E+04  0.15000000000E+04  0.10566000000E+00 0.  1.
        994   -1    0    0    0    0 -0.00000000000E+00 -0.00000000000E+00  0.11368683772E-12  0.17120000000E+03  0.17120000000E+03 0.  0.
         13    1    1    2    0    0 -0.11719510155E+03 -0.18417407713E+03  0.12265493845E+04  0.12458243000E+04  0.10566000000E+00 0.  1.
        994    1    1    2    0    0  0.12426335236E+03  0.19533300510E+03  0.19959548781E+03  0.35034862976E+03  0.17120000000E+03 0.  0.
        998    1    1    2    0    0 -0.70682508106E+01 -0.11158927965E+02  0.73855123940E+02  0.75027070281E+02  0.10000000000E-01 0.  1.
</event>
<event>
 5    1  0.3934322E-009  0.3883007E+03  0.7957747E-01  0.3415793E+00
         13   -1    0    0    0    0  0.00000000000E+00  0.00000000000E+00  0.14999999963E+04  0.15000000000E+04  0.10566000000E+00 0. -1.
        994   -1    0    0    0    0 -0.00000000000E+00 -0.00000000000E+00  0.11368683772E-12  0.17120000000E+03  0.17120000000E+03 0.  0.
         13    1    1    2    0    0  0.23180697918E+03  0.14145460091E+03  0.12026310045E+04  0.12329092521E+04  0.10566000000E+00 0. -1.
        994    1    1    2    0    0 -0.23209834418E+03 -0.14162640382E+03  0.29595526062E+03  0.43683708167E+03  0.17120000000E+03 0.  0.
        998    1    1    2    0    0  0.29136499675E+00  0.17180291073E+00  0.14137311837E+01  0.14536662826E+01  0.10000000000E-01 0.  1.
</event>
<event>
 5    1  0.3934322E-009  0.3883009E+03  0.7957747E-01  0.3415792E+00
         13   -1    0    0    0    0  0.00000000000E+00  0.00000000000E+00  0.14999999963E+04  0.15000000000E+04  0.10566000000E+00 0.  1.
        994   -1    0    0    0    0 -0.00000000000E+00 -0.00000000000E+00  0.11368683772E-12  0.17120000000E+03  0.17120000000E+03 0.  0.
         13    1    1    2    0    0 -0.15993918101E+02  0.29130324612E+03  0.10484135905E+04  0.10882483423E+04  0.10566000000E+00 0.  1.
        994    1    1    2    0    0  0.16778342425E+02 -0.30402528285E+03  0.40587686555E+03  0.53549823097E+03  0.17120000000E+03 0.  0.
        998    1    1    2    0    0 -0.78442432324E+00  0.12722036724E+02  0.45709540207E+02  0.47453426703E+02  0.10000000000E-01 0.  1.
</event>
<event>
 5    1  0.3934322E-009  0.3882977E+03  0.7957747E-01  0.3415806E+00
         13   -1    0    0    0    0  0.00000000000E+00  0.00000000000E+00  0.14999999963E+04  0.15000000000E+04  0.10566000000E+00 0. -1.
        994   -1    0    0    0    0 -0.00000000000E+00 -0.00000000000E+00  0.11368683772E-12  0.17120000000E+03  0.17120000000E+03 0.  0.
         13    1    1    2    0    0  0.30640401798E+03 -0.72219920946E+02  0.10395688393E+04  0.10861871487E+04  0.10566000000E+00 0. -1.
        994    1    1    2    0    0 -0.30751116156E+03  0.72584380681E+02  0.45687699302E+03  0.58127242628E+03  0.17120000000E+03 0.  0.
        998    1    1    2    0    0  0.11071435805E+01 -0.36445973519E+00  0.35541639484E+01  0.37404249997E+01  0.10000000000E-01 0.  1.
</event>
<event>
 5    1  0.3934322E-009  0.3882974E+03  0.7957747E-01  0.3415807E+00
         13   -1    0    0    0    0  0.00000000000E+00  0.00000000000E+00  0.14999999963E+04  0.15000000000E+04  0.10566000000E+00 0. -1.
        994   -1    0    0    0    0 -0.00000000000E+00 -0.00000000000E+00  0.11368683772E-12  0.17120000000E+03  0.17120000000E+03 0.  0.
         13    1    1    2    0    0 -0.24227621218E+03 -0.87950998675E+02  0.12402227441E+04  0.12667223876E+04  0.10566000000E+00 0. -1.
        994    1    1    2    0    0  0.24240763700E+03  0.88015294809E+02  0.25876909383E+03  0.40345884365E+03  0.17120000000E+03 0.  0.
        998    1    1    2    0    0 -0.13142481498E+00 -0.64296134222E-01  0.10081583411E+01  0.10187687253E+01  0.10000000000E-01 0. -1.
</event>
<event>
 5    1  0.3934322E-009  0.3883004E+03  0.7957747E-01  0.3415794E+00
         13   -1    0    0    0    0  0.00000000000E+00  0.00000000000E+00  0.14999999963E+04  0.15000000000E+04  0.10566000000E+00 0.  1.
        994   -1    0    0    0    0 -0.00000000000E+00 -0.00000000000E+00  0.11368683772E-12  0.17120000000E+03  0.17120000000E+03 0.  0.
         13    1    1    2    0    0  0.36184560303E+02 -0.23010295649E+03  0.12964952871E+04  0.13172534812E+04  0.10566000000E+00 0.  1.
        994    1    1    2    0    0 -0.36225188492E+02  0.23023549109E+03  0.20275746484E+03  0.35318645952E+03  0.17120000000E+03 0.  0.
        998    1    1    2    0    0  0.40628189148E-01 -0.13253460517E+00  0.74724429790E+00  0.76005928194E+00  0.10000000000E-01 0. -1.
</event>
<event>
 5    1  0.3934322E-009  0.3882948E+03  0.7957747E-01  0.3415817E+00
         13   -1    0    0    0    0  0.00000000000E+00  0.00000000000E+00  0.14999999963E+04  0.15000000000E+04  0.10566000000E+00 0. -1.
        994   -1    0    0    0    0 -0.00000000000E+00 -0.00000000000E+00  0.11368683772E-12  0.17120000000E+03  0.17120000000E+03 0.  0.
         13    1    1    2    0    0 -0.13475463374E+03 -0.19855528894E+03  0.12763852161E+04  0.12987464129E+04  0.10566000000E+00 0. -1.
        994    1    1    2    0    0  0.13539619389E+03  0.19923704300E+03  0.21921883634E+03  0.36795905591E+03  0.17120000000E+03 0.  0.
        998    1    1    2    0    0 -0.64156015136E+00 -0.68175405971E+00  0.43959438367E+01  0.44945311481E+01  0.10000000000E-01 0.  1.
</event>
<event>
 5    1  0.3934322E-009  0.3883008E+03  0.7957747E-01  0.3415793E+00
         13   -1    0    0    0    0  0.00000000000E+00  0.00000000000E+00  0.14999999963E+04  0.15000000000E+04  0.10566000000E+00 0. -1.
        994   -1    0    0    0    0 -0.00000000000E+00 -0.00000000000E+00  0.11368683772E-12  0.17120000000E+03  0.17120000000E+03 0.  0.
         13    1    1    2    0    0 -0.16803850349E+02 -0.30092691679E+03  0.10493409507E+04  0.10917672923E+04  0.10566000000E+00 0. -1.
        994    1    1    2    0    0  0.17203220116E+02  0.30846911671E+03  0.42463364231E+03  0.55233351965E+03  0.17120000000E+03 0.  0.
        998    1    1    2    0    0 -0.39936976761E+00 -0.75421999221E+01  0.26025403276E+02  0.27099188023E+02  0.10000000000E-01 0. -1.
</event>
<event>
 5    1  0.3934322E-009  0.3883010E+03  0.7957747E-01  0.3415792E+00
         13   -1    0    0    0    0  0.00000000000E+00  0.00000000000E+00  0.14999999963E+04  0.15000000000E+04  0.10566000000E+00 0.  1.
        994   -1    0    0    0    0 -0.00000000000E+00 -0.00000000000E+00  0.11368683772E-12  0.17120000000E+03  0.17120000000E+03 0.  0.
         13    1    1    2    0    0  0.17257903601E+03 -0.71920912888E+02  0.10756181732E+04  0.10917465855E+04  0.10566000000E+00 0.  1.
        994    1    1    2    0    0 -0.20988840166E+03  0.87565887766E+02  0.19148727665E+03  0.34307104653E+03  0.17120000000E+03 0.  0.
        998    1    1    2    0    0  0.37309365655E+02 -0.15644974878E+02  0.23289454644E+03  0.23638236792E+03  0.10000000000E-01 0. -1.
</event>
<event>
 5    1  0.3934322E-009  0.3882972E+03  0.7957747E-01  0.3415808E+00
         13   -1    0    0    0    0  0.00000000000E+00  0.00000000000E+00  0.14999999963E+04  0.15000000000E+04  0.10566000000E+00 0. -1.
        994   -1    0    0    0    0 -0.00000000000E+00 -0.00000000000E+00  0.11368683772E-12  0.17120000000E+03  0.17120000000E+03 0.  0.
         13    1    1    2    0    0  0.12968737944E+03 -0.19613550637E+03  0.12874372933E+04  0.13087332611E+04  0.10566000000E+00 0. -1.
        994    1    1    2    0    0 -0.13016701125E+03  0.19681045727E+03  0.20873180395E+03  0.35854736492E+03  0.17120000000E+03 0.  0.
        998    1    1    2    0    0  0.47963181937E+00 -0.67495090256E+00  0.38308990037E+01  0.39193740036E+01  0.10000000000E-01 0. -1.
</event>
<event>
 5    1  0.3934322E-009  0.3882974E+03  0.7957747E-01  0.3415807E+00
         13   -1    0    0    0    0  0.00000000000E+00  0.00000000000E+00  0.14999999963E+04  0.15000000000E+04  0.10566000000E+00 0.  1.
        994   -1    0    0    0    0 -0.00000000000E+00 -0.00000000000E+00  0.11368683772E-12  0.17120000000E+03  0.17120000000E+03 0.  0.
         13    1    1    2    0    0 -0.26713242012E+03  0.24908105601E+02  0.12124881432E+04  0.12418162715E+04  0.10566000000E+00 0.  1.
        994    1    1    2    0    0  0.26731944033E+03 -0.24980487231E+02  0.28646206332E+03  0.42831490943E+03  0.17120000000E+03 0.  0.
        998    1    1    2    0    0 -0.18702020265E+00  0.72381629888E-01  0.10497897864E+01  0.10688190924E+01  0.10000000000E-01 0.  1.
</event>
<event>
 5    1  0.3934322E-009  0.3883007E+03  0.7957747E-01  0.3415793E+00
         13   -1    0    0    0    0  0.00000000000E+00  0.00000000000E+00  0.14999999963E+04  0.15000000000E+04  0.10566000000E+00 0. -1.
        994   -1    0    0    0    0 -0.00000000000E+00 -0.00000000000E+00  0.11368683772E-12  0.17120000000E+03  0.17120000000E+03 0.  0.
         13    1    1    2    0    0 -0.14534207506E+03 -0.16605290353E+03  0.12508983688E+04  0.12702144015E+04  0.10566000000E+00 0. -1.
        994    1    1    2    0    0  0.15155412258E+03  0.17294457668E+03  0.19647906681E+03  0.34755135214E+03  0.17120000000E+03 0.  0.
        998    1    1    2    0    0 -0.62120475210E+01 -0.68916731500E+01  0.52622560663E+02  0.53434246359E+02  0.10000000000E-01 0. -1.
</event>
<event>
 5    1  0.3934322E-009  0.3871908E+03  0.7957747E-01  0.3420433E+00
         13   -1    0    0    0    0  0.00000000000E+00  0.00000000000E+00  0.14999999963E+04  0.15000000000E+04  0.10566000000E+00 0.  1.
        994   -1    0    0    0    0 -0.00000000000E+00 -0.00000000000E+00  0.11368683772E-12  0.17120000000E+03  0.17120000000E+03 0.  0.
         13    1    1    2    0    0 -0.42840844814E+02  0.19318821244E+03  0.10257314369E+04  0.10446444444E+04  0.10566000000E+00 0.  1.
        994    1    1    2    0    0  0.40914824158E+02 -0.22821940060E+03  0.20180397773E+03  0.35184144593E+03  0.17120000000E+03 0.  0.
        998    1    1    2    0    0  0.19260206561E+01  0.35031188157E+02  0.27246458160E+03  0.27471410963E+03  0.10000000000E-01 0. -1.
</event>
<event>
 5    1  0.3934322E-009  0.3882832E+03  0.7957747E-01  0.3415866E+00
         13   -1    0    0    0    0  0.00000000000E+00  0.00000000000E+00  0.14999999963E+04  0.15000000000E+04  0.10566000000E+00 0.  1.
        994   -1    0    0    0    0 -0.00000000000E+00 -0.00000000000E+00  0.11368683772E-12  0.17120000000E+03  0.17120000000E+03 0.  0.
         13    1    1    2    0    0 -0.17664561883E+02 -0.24704705154E+02  0.16222665344E+03  0.16504501645E+03  0.10566000000E+00 0.  1.
        994    1    1    2    0    0  0.15091285899E+03  0.18808798329E+03  0.21979557257E+03  0.36847159210E+03  0.17120000000E+03 0.  0.
        998    1    1    2    0    0 -0.13324829711E+03 -0.16338327814E+03  0.11179777703E+04  0.11376833914E+04  0.10000000000E-01 0.  1.
</event>
<event>
 5    1  0.3934322E-009  0.3883009E+03  0.7957747E-01  0.3415792E+00
         13   -1    0    0    0    0  0.00000000000E+00  0.00000000000E+00  0.14999999963E+04  0.15000000000E+04  0.10566000000E+00 0. -1.
        994   -1    0    0    0    0 -0.00000000000E+00 -0.00000000000E+00  0.11368683772E-12  0.17120000000E+03  0.17120000000E+03 0.  0.
         13    1    1    2    0    0  0.10351071732E+03  0.22789215291E+03  0.12580984273E+04  0.12827552245E+04  0.10566000000E+00 0. -1.
        994    1    1    2    0    0 -0.10359497390E+03 -0.22807157937E+03  0.24087726802E+03  0.38740142253E+03  0.17120000000E+03 0.  0.
        998    1    1    2    0    0  0.84256587956E-01  0.17942645597E+00  0.10243009737E+01  0.10433530134E+01  0.10000000000E-01 0.  0.
</event>
<event>
 5    1  0.4512615E-009  0.3883001E+03  0.7957747E-01  0.3415795E+00
         13   -1    0    0    0    0  0.00000000000E+00  0.00000000000E+00  0.14999999963E+04  0.15000000000E+04  0.10566000000E+00 0. -1.
        994   -1    0    0    0    0 -0.00000000000E+00 -0.00000000000E+00  0.11368683772E-12  0.17120000000E+03  0.17120000000E+03 0.  0.
         13    1    1    2    0    0 -0.20893164871E+03 -0.10863728263E+03  0.12920745502E+04  0.13133587276E+04  0.10566000000E+00 0. -1.
        994    1    1    2    0    0  0.20895071435E+03  0.10864436965E+03  0.20778316086E+03  0.35769719320E+03  0.17120000000E+03 0.  0.
        998    1    1    2    0    0 -0.19065641849E-01 -0.70870185112E-02  0.14228522278E+00  0.14407917668E+00  0.10000000000E-01 0.  0.
</event>
<event>
 5    1  0.3934322E-009  0.3882788E+03  0.7957747E-01  0.3415884E+00
         13   -1    0    0    0    0  0.00000000000E+00  0.00000000000E+00  0.14999999963E+04  0.15000000000E+04  0.10566000000E+00 0.  1.
        994   -1    0    0    0    0 -0.00000000000E+00 -0.00000000000E+00  0.11368683772E-12  0.17120000000E+03  0.17120000000E+03 0.  0.
         13    1    1    2    0    0  0.22070417908E+03 -0.42281368355E+02  0.12507302605E+04  0.12707573507E+04  0.10566000000E+00 0.  1.
        994    1    1    2    0    0 -0.22972304665E+03  0.43751986235E+02  0.20439220771E+03  0.35464422881E+03  0.17120000000E+03 0.  0.
        998    1    1    2    0    0  0.90188675685E+01 -0.14706178793E+01  0.44877528087E+02  0.45798420457E+02  0.10000000000E-01 0. -1.
</event>
<event>
 5    1  0.3934322E-009  0.3883010E+03  0.7957747E-01  0.3415792E+00
         13   -1    0    0    0    0  0.00000000000E+00  0.00000000000E+00  0.14999999963E+04  0.15000000000E+04  0.10566000000E+00 0. -1.
        994   -1    0    0    0    0 -0.00000000000E+00 -0.00000000000E+00  0.11368683772E-12  0.17120000000E+03  0.17120000000E+03 0.  0.
         13    1    1    2    0    0  0.88356114729E+02  0.20050084415E+03  0.12454797333E+04  0.12646055388E+04  0.10566000000E+00 0. -1.
        994    1    1    2    0    0 -0.92540516963E+02 -0.20997614191E+03  0.19550626935E+03  0.34667833622E+03  0.17120000000E+03 0.  0.
        998    1    1    2    0    0  0.41844022341E+01  0.94752977543E+01  0.59013993652E+02  0.59916125011E+02  0.10000000000E-01 0.  0.
</event>
<event>
 5    1  0.3934322E-009  0.3882236E+03  0.7957747E-01  0.3416115E+00
         13   -1    0    0    0    0  0.00000000000E+00  0.00000000000E+00  0.14999999963E+04  0.15000000000E+04  0.10566000000E+00 0.  1.
        994   -1    0    0    0    0 -0.00000000000E+00 -0.00000000000E+00  0.11368683772E-12  0.17120000000E+03  0.17120000000E+03 0.  0.
         13    1    1    2    0    0  0.11954951868E+03 -0.30953352284E+03  0.88800437337E+03  0.94797408586E+03  0.10566000000E+00 0.  1.
        994    1    1    2    0    0 -0.12230660312E+03  0.31447967583E+03  0.59323111487E+03  0.70362558746E+03  0.17120000000E+03 0.  0.
        998    1    1    2    0    0  0.27570844402E+01 -0.49461529861E+01  0.18764508039E+02  0.19600326679E+02  0.10000000000E-01 0. -1.
</event>
<event>
 5    1  0.3934322E-009  0.3877174E+03  0.7957747E-01  0.3418229E+00
         13   -1    0    0    0    0  0.00000000000E+00  0.00000000000E+00  0.14999999963E+04  0.15000000000E+04  0.10566000000E+00 0. -1.
        994   -1    0    0    0    0 -0.00000000000E+00 -0.00000000000E+00  0.11368683772E-12  0.17120000000E+03  0.17120000000E+03 0.  0.
         13    1    1    2    0    0  0.32053311008E+03  0.10221562506E+03  0.61328675642E+03  0.69950708748E+03  0.10566000000E+00 0. -1.
        994    1    1    2    0    0 -0.32888062813E+03 -0.10910762039E+03  0.85915017489E+03  0.94208035931E+03  0.17120000000E+03 0.  0.
        998    1    1    2    0    0  0.83475180517E+01  0.68919953396E+01  0.27563064963E+02  0.29612553209E+02  0.10000000000E-01 0. -1.
</event>
<event>
 5    1  0.3934322E-009  0.3882642E+03  0.7957747E-01  0.3415945E+00
         13   -1    0    0    0    0  0.00000000000E+00  0.00000000000E+00  0.14999999963E+04  0.15000000000E+04  0.10566000000E+00 0. -1.
        994   -1    0    0    0    0 -0.00000000000E+00 -0.00000000000E+00  0.11368683772E-12  0.17120000000E+03  0.17120000000E+03 0.  0.
         13    1    1    2    0    0  0.34408289367E+02 -0.24917344957E+03  0.12523702729E+04  0.12773811686E+04  0.10566000000E+00 0. -1.
        994    1    1    2    0    0 -0.34797150716E+02  0.24981493525E+03  0.24502267828E+03  0.39110599132E+03  0.17120000000E+03 0.  0.
        998    1    1    2    0    0  0.38886134875E+00 -0.64148568652E+00  0.26070450981E+01  0.27128400576E+01  0.10000000000E-01 0. -1.
</event>
<event>
 5    1  0.3934322E-009  0.3877803E+03  0.7957747E-01  0.3417966E+00
         13   -1    0    0    0    0  0.00000000000E+00  0.00000000000E+00  0.14999999963E+04  0.15000000000E+04  0.10566000000E+00 0.  1.
        994   -1    0    0    0    0 -0.00000000000E+00 -0.00000000000E+00  0.11368683772E-12  0.17120000000E+03  0.17120000000E+03 0.  0.
         13    1    1    2    0    0  0.17834144138E+01  0.24690005698E+02  0.11574054548E+03  0.11835819355E+03  0.10566000000E+00 0.  1.
        994    1    1    2    0    0 -0.31238685258E+02 -0.19781755232E+03  0.14408650758E+03  0.30029652201E+03  0.17120000000E+03 0.  0.
        998    1    1    2    0    0  0.29455270844E+02  0.17312754662E+03  0.12401729432E+04  0.12525452844E+04  0.10000000000E-01 0.  1.
</event>
<event>
 5    1  0.3934322E-009  0.3883006E+03  0.7957747E-01  0.3415794E+00
         13   -1    0    0    0    0  0.00000000000E+00  0.00000000000E+00  0.14999999963E+04  0.15000000000E+04  0.10566000000E+00 0. -1.
        994   -1    0    0    0    0 -0.00000000000E+00 -0.00000000000E+00  0.11368683772E-12  0.17120000000E+03  0.17120000000E+03 0.  0.
         13    1    1    2    0    0  0.24848136847E+03 -0.15293178203E+03  0.11295388839E+04  0.11666144273E+04  0.10566000000E+00 0. -1.
        994    1    1    2    0    0 -0.24989936061E+03  0.15385514735E+03  0.36406641224E+03  0.49797077155E+03  0.17120000000E+03 0.  0.
        998    1    1    2    0    0  0.14179921437E+01 -0.92336531924E+00  0.63947000973E+01  0.66148011736E+01  0.10000000000E-01 0. -1.
</event>
<event>
 5    1  0.3934322E-009  0.3882878E+03  0.7957747E-01  0.3415847E+00
         13   -1    0    0    0    0  0.00000000000E+00  0.00000000000E+00  0.14999999963E+04  0.15000000000E+04  0.10566000000E+00 0.  1.
        994   -1    0    0    0    0 -0.00000000000E+00 -0.00000000000E+00  0.11368683772E-12  0.17120000000E+03  0.17120000000E+03 0.  0.
         13    1    1    2    0    0 -0.43119782634E+02  0.24918982434E+03  0.12382257763E+04  0.12637871532E+04  0.10566000000E+00 0.  1.
        994    1    1    2    0    0  0.43617322791E+02 -0.25147352651E+03  0.25221399478E+03  0.39757105597E+03  0.17120000000E+03 0.  0.
        998    1    1    2    0    0 -0.49754015747E+00  0.22837021678E+01  0.95602251940E+01  0.98417908715E+01  0.10000000000E-01 0. -1.
</event>
<event>
 5    1  0.3934322E-009  0.3883009E+03  0.7957747E-01  0.3415792E+00
         13   -1    0    0    0    0  0.00000000000E+00  0.00000000000E+00  0.14999999963E+04  0.15000000000E+04  0.10566000000E+00 0.  1.
        994   -1    0    0    0    0 -0.00000000000E+00 -0.00000000000E+00  0.11368683772E-12  0.17120000000E+03  0.17120000000E+03 0.  0.
         13    1    1    2    0    0 -0.17925694549E+03 -0.21368773525E+03  0.10618852385E+04  0.10979051742E+04  0.10566000000E+00 0.  1.
        994    1    1    2    0    0  0.19015568251E+03  0.22677175158E+03  0.37298676923E+03  0.50597745100E+03  0.17120000000E+03 0.  0.
        998    1    1    2    0    0 -0.10898737021E+02 -0.13084016328E+02  0.65127988593E+02  0.67317374801E+02  0.10000000000E-01 0. -1.
</event>
<event>
 5    1  0.3934322E-009  0.3882518E+03  0.7957747E-01  0.3415997E+00
         13   -1    0    0    0    0  0.00000000000E+00  0.00000000000E+00  0.14999999963E+04  0.15000000000E+04  0.10566000000E+00 0.  1.
        994   -1    0    0    0    0 -0.00000000000E+00 -0.00000000000E+00  0.11368683772E-12  0.17120000000E+03  0.17120000000E+03 0.  0.
         13    1    1    2    0    0 -0.21704203104E+03 -0.26968077219E+02  0.13115619022E+04  0.13296725743E+04  0.10566000000E+00 0.  1.
        994    1    1    2    0    0  0.21819798484E+03  0.26842484370E+02  0.17716280480E+03  0.33019233631E+03  0.17120000000E+03 0.  0.
        998    1    1    2    0    0 -0.11559537907E+01  0.12559284932E+00  0.11275289286E+02  0.11335089378E+02  0.10000000000E-01 0. -1.
</event>
<event>
 5    1  0.3934322E-009  0.3883007E+03  0.7957747E-01  0.3415793E+00
         13   -1    0    0    0    0  0.00000000000E+00  0.00000000000E+00  0.14999999963E+04  0.15000000000E+04  0.10566000000E+00 0.  1.
        994   -1    0    0    0    0 -0.00000000000E+00 -0.00000000000E+00  0.11368683772E-12  0.17120000000E+03  0.17120000000E+03 0.  0.
         13    1    1    2    0    0 -0.27447790627E+03  0.46874704880E+02  0.10952622294E+04  0.11301038542E+04  0.10566000000E+00 0.  1.
        994    1    1    2    0    0  0.28690719971E+03 -0.48972385596E+02  0.35566144845E+03  0.49042689742E+03  0.17120000000E+03 0.  0.
        998    1    1    2    0    0 -0.12429293440E+02  0.20976807168E+01  0.49076318430E+02  0.50669248371E+02  0.10000000000E-01 0.  1.
</event>
<event>
 5    1  0.3934322E-009  0.3882503E+03  0.7957747E-01  0.3416003E+00
         13   -1    0    0    0    0  0.00000000000E+00  0.00000000000E+00  0.14999999963E+04  0.15000000000E+04  0.10566000000E+00 0. -1.
        994   -1    0    0    0    0 -0.00000000000E+00 -0.00000000000E+00  0.11368683772E-12  0.17120000000E+03  0.17120000000E+03 0.  0.
         13    1    1    2    0    0 -0.13131157791E+03  0.21547136161E+03  0.12532473015E+04  0.12783972184E+04  0.10566000000E+00 0. -1.
        994    1    1    2    0    0  0.13160745375E+03 -0.21548086427E+03  0.24567853945E+03  0.39168853634E+03  0.17120000000E+03 0.  0.
        998    1    1    2    0    0 -0.29587584361E+00  0.95026670642E-02  0.10741553207E+01  0.11142452461E+01  0.10000000000E-01 0. -1.
</event>
<event>
 5    1  0.3934322E-009  0.3882944E+03  0.7957747E-01  0.3415819E+00
         13   -1    0    0    0    0  0.00000000000E+00  0.00000000000E+00  0.14999999963E+04  0.15000000000E+04  0.10566000000E+00 0. -1.
        994   -1    0    0    0    0 -0.00000000000E+00 -0.00000000000E+00  0.11368683772E-12  0.17120000000E+03  0.17120000000E+03 0.  0.
         13    1    1    2    0    0  0.13384436174E+03  0.23464935973E+03  0.12073354644E+04  0.12371877666E+04  0.10566000000E+00 0. -1.
        994    1    1    2    0    0 -0.13387824976E+03 -0.23488865297E+03  0.29166098923E+03  0.43297995068E+03  0.17120000000E+03 0.  0.
        998    1    1    2    0    0  0.33888019023E-01  0.23929324362E+00  0.10035426631E+01  0.10322826798E+01  0.10000000000E-01 0.  1.
</event>
<event>
 5    1  0.3934322E-009  0.3883005E+03  0.7957747E-01  0.3415794E+00
         13   -1    0    0    0    0  0.00000000000E+00  0.00000000000E+00  0.14999999963E+04  0.15000000000E+04  0.10566000000E+00 0. -1.
        994   -1    0    0    0    0 -0.00000000000E+00 -0.00000000000E+00  0.11368683772E-12  0.17120000000E+03  0.17120000000E+03 0.  0.
         13    1    1    2    0    0  0.83887781682E+02  0.24941495855E+03  0.84941004319E+03  0.88923698422E+03  0.10566000000E+00 0. -1.
        994    1    1    2    0    0 -0.10126497637E+03 -0.30228867105E+03  0.47105624029E+03  0.59400038518E+03  0.17120000000E+03 0.  0.
        998    1    1    2    0    0  0.17377194688E+02  0.52873712501E+02  0.17953371280E+03  0.18796263060E+03  0.10000000000E-01 0.  1.
</event>
<event>
 5    1  0.3934322E-009  0.3882674E+03  0.7957747E-01  0.3415932E+00
         13   -1    0    0    0    0  0.00000000000E+00  0.00000000000E+00  0.14999999963E+04  0.15000000000E+04  0.10566000000E+00 0. -1.
        994   -1    0    0    0    0 -0.00000000000E+00 -0.00000000000E+00  0.11368683772E-12  0.17120000000E+03  0.17120000000E+03 0.  0.
         13    1    1    2    0    0 -0.47701065516E+02  0.24331956318E+03  0.12458750631E+04  0.12703088150E+04  0.10566000000E+00 0. -1.
        994    1    1    2    0    0  0.47561549941E+02 -0.24614461292E+03  0.24140234357E+03  0.38785796754E+03  0.17120000000E+03 0.  0.
        998    1    1    2    0    0  0.13951557445E+00  0.28250497452E+01  0.12722589660E+02  0.13033217497E+02  0.10000000000E-01 0.  1.
</event>
<event>
 5    1  0.3934322E-009  0.3883004E+03  0.7957747E-01  0.3415794E+00
         13   -1    0    0    0    0  0.00000000000E+00  0.00000000000E+00  0.14999999963E+04  0.15000000000E+04  0.10566000000E+00 0.  1.
        994   -1    0    0    0    0 -0.00000000000E+00 -0.00000000000E+00  0.11368683772E-12  0.17120000000E+03  0.17120000000E+03 0.  0.
         13    1    1    2    0    0 -0.22592908264E+03  0.10119305223E+03  0.11846699624E+04  0.12102590281E+04  0.10566000000E+00 0.  1.
        994    1    1    2    0    0  0.23611228979E+03 -0.10580596660E+03  0.26087606527E+03  0.40535130120E+03  0.17120000000E+03 0.  0.
        998    1    1    2    0    0 -0.10183207143E+02  0.46129143750E+01  0.54453968657E+02  0.55589670706E+02  0.10000000000E-01 0.  1.
</event>
<event>
 5    1  0.3934322E-009  0.3883008E+03  0.7957747E-01  0.3415793E+00
         13   -1    0    0    0    0  0.00000000000E+00  0.00000000000E+00  0.14999999963E+04  0.15000000000E+04  0.10566000000E+00 0.  1.
        994   -1    0    0    0    0 -0.00000000000E+00 -0.00000000000E+00  0.11368683772E-12  0.17120000000E+03  0.17120000000E+03 0.  0.
         13    1    1    2    0    0 -0.67841940532E+02  0.23598916538E+03  0.12604930211E+04  0.12841869344E+04  0.10566000000E+00 0.  1.
        994    1    1    2    0    0  0.68207015078E+02 -0.23731567001E+03  0.23262009588E+03  0.37999009611E+03  0.17120000000E+03 0.  0.
        998    1    1    2    0    0 -0.36507454573E+00  0.13265046286E+01  0.68868792723E+01  0.70229694621E+01  0.10000000000E-01 0.  1.
</event>
<event>
 5    1  0.3934322E-009  0.3879744E+03  0.7957747E-01  0.3417154E+00
         13   -1    0    0    0    0  0.00000000000E+00  0.00000000000E+00  0.14999999963E+04  0.15000000000E+04  0.10566000000E+00 0. -1.
        994   -1    0    0    0    0 -0.00000000000E+00 -0.00000000000E+00  0.11368683772E-12  0.17120000000E+03  0.17120000000E+03 0.  0.
         13    1    1    2    0    0  0.73440704271E+02  0.18440369275E+03  0.11360509313E+04  0.11532605901E+04  0.10566000000E+00 0. -1.
        994    1    1    2    0    0 -0.85408238423E+02 -0.20510105713E+03  0.18184458876E+03  0.33427220238E+03  0.17120000000E+03 0.  0.
        998    1    1    2    0    0  0.11967534151E+02  0.20697364383E+02  0.18210447622E+03  0.18366720754E+03  0.10000000000E-01 0. -1.
</event>
<event>
 5    1  0.3934322E-009  0.3882963E+03  0.7957747E-01  0.3415811E+00
         13   -1    0    0    0    0  0.00000000000E+00  0.00000000000E+00  0.14999999963E+04  0.15000000000E+04  0.10566000000E+00 0. -1.
        994   -1    0    0    0    0 -0.00000000000E+00 -0.00000000000E+00  0.11368683772E-12  0.17120000000E+03  0.17120000000E+03 0.  0.
         13    1    1    2    0    0 -0.68331679733E+02  0.22340115591E+03  0.12953415547E+04  0.13162397386E+04  0.10566000000E+00 0. -1.
        994    1    1    2    0    0  0.68315501971E+02 -0.22348036677E+03  0.20403288601E+03  0.35432942400E+03  0.17120000000E+03 0.  0.
        998    1    1    2    0    0  0.16177761606E-01  0.79210859848E-01  0.62555553637E+00  0.63083738743E+00  0.10000000000E-01 0. -1.
</event>
<event>
 5    1  0.3934322E-009  0.3878783E+03  0.7957747E-01  0.3417556E+00
         13   -1    0    0    0    0  0.00000000000E+00  0.00000000000E+00  0.14999999963E+04  0.15000000000E+04  0.10566000000E+00 0. -1.
        994   -1    0    0    0    0 -0.00000000000E+00 -0.00000000000E+00  0.11368683772E-12  0.17120000000E+03  0.17120000000E+03 0.  0.
         13    1    1    2    0    0 -0.50769011090E+02  0.59262003241E+02  0.32841868596E+03  0.33756232309E+03  0.10566000000E+00 0. -1.
        994    1    1    2    0    0  0.18382190201E+03 -0.18197483605E+03  0.26142234860E+03  0.40565553979E+03  0.17120000000E+03 0.  0.
        998    1    1    2    0    0 -0.13305289092E+03  0.12271283281E+03  0.91015896172E+03  0.92798213712E+03  0.10000000000E-01 0. -1.
</event>
<event>
 5    1  0.3934322E-009  0.3882965E+03  0.7957747E-01  0.3415811E+00
         13   -1    0    0    0    0  0.00000000000E+00  0.00000000000E+00  0.14999999963E+04  0.15000000000E+04  0.10566000000E+00 0. -1.
        994   -1    0    0    0    0 -0.00000000000E+00 -0.00000000000E+00  0.11368683772E-12  0.17120000000E+03  0.17120000000E+03 0.  0.
         13    1    1    2    0    0  0.44321500414E+02 -0.22507348110E+03  0.12865396632E+04  0.13068308167E+04  0.10566000000E+00 0. -1.
        994    1    1    2    0    0 -0.44837667386E+02  0.22759038986E+03  0.20052262687E+03  0.35117882320E+03  0.17120000000E+03 0.  0.
        998    1    1    2    0    0  0.51616697219E+00 -0.25169087665E+01  0.12937706158E+02  0.13190360068E+02  0.10000000000E-01 0. -1.
</event>
<event>
 5    1  0.3934322E-009  0.3883008E+03  0.7957747E-01  0.3415793E+00
         13   -1    0    0    0    0  0.00000000000E+00  0.00000000000E+00  0.14999999963E+04  0.15000000000E+04  0.10566000000E+00 0.  1.
        994   -1    0    0    0    0 -0.00000000000E+00 -0.00000000000E+00  0.11368683772E-12  0.17120000000E+03  0.17120000000E+03 0.  0.
         13    1    1    2    0    0  0.14414358190E+03  0.25424790026E+03  0.10345002398E+04  0.10749930810E+04  0.10566000000E+00 0.  1.
        994    1    1    2    0    0 -0.15118207292E+03 -0.26680318654E+03  0.41485688025E+03  0.54355830471E+03  0.17120000000E+03 0.  0.
        998    1    1    2    0    0  0.70384910203E+01  0.12555286282E+02  0.50642876242E+02  0.52648614260E+02  0.10000000000E-01 0. -1.
</event>
<event>
 5    1  0.3934322E-009  0.3883008E+03  0.7957747E-01  0.3415793E+00
         13   -1    0    0    0    0  0.00000000000E+00  0.00000000000E+00  0.14999999963E+04  0.15000000000E+04  0.10566000000E+00 0.  1.
        994   -1    0    0    0    0 -0.00000000000E+00 -0.00000000000E+00  0.11368683772E-12  0.17120000000E+03  0.17120000000E+03 0.  0.
         13    1    1    2    0    0 -0.21991025701E+03 -0.10193888288E+03  0.12569966191E+04  0.12801533379E+04  0.10566000000E+00 0.  1.
        994    1    1    2    0    0  0.22246648250E+03  0.10311300051E+03  0.22872709794E+03  0.37649588582E+03  0.17120000000E+03 0.  0.
        998    1    1    2    0    0 -0.25562254859E+01 -0.11741176315E+01  0.14276279231E+02  0.14550776255E+02  0.10000000000E-01 0. -1.
</event>
<event>
 5    1  0.3934322E-009  0.3883009E+03  0.7957747E-01  0.3415792E+00
         13   -1    0    0    0    0  0.00000000000E+00  0.00000000000E+00  0.14999999963E+04  0.15000000000E+04  0.10566000000E+00 0. -1.
        994   -1    0    0    0    0 -0.00000000000E+00 -0.00000000000E+00  0.11368683772E-12  0.17120000000E+03  0.17120000000E+03 0.  0.
         13    1    1    2    0    0  0.10385464248E+03  0.18655991349E+03  0.11410783082E+04  0.11608833295E+04  0.10566000000E+00 0. -1.
        994    1    1    2    0    0 -0.11674969142E+03 -0.20965311848E+03  0.21722055451E+03  0.36616817152E+03  0.17120000000E+03 0.  0.
        998    1    1    2    0    0  0.12895048947E+02  0.23093204985E+02  0.14170113361E+03  0.14414849902E+03  0.10000000000E-01 0. -1.
</event>
<event>
 5    1  0.3934322E-009  0.3882456E+03  0.7957747E-01  0.3416023E+00
         13   -1    0    0    0    0  0.00000000000E+00  0.00000000000E+00  0.14999999963E+04  0.15000000000E+04  0.10566000000E+00 0. -1.
        994   -1    0    0    0    0 -0.00000000000E+00 -0.00000000000E+00  0.11368683772E-12  0.17120000000E+03  0.17120000000E+03 0.  0.
         13    1    1    2    0    0 -0.20492268920E+03  0.14260478092E+03  0.12439330176E+04  0.12687390573E+04  0.10566000000E+00 0. -1.
        994    1    1    2    0    0  0.20615892870E+03 -0.14445611053E+03  0.24387842804E+03  0.39007076206E+03  0.17120000000E+03 0.  0.
        998    1    1    2    0    0 -0.12362395021E+01  0.18513296150E+01  0.12188550646E+02  0.12390180640E+02  0.10000000000E-01 0.  1.
</event>
<event>
 5    1  0.3934322E-009  0.3881270E+03  0.7957747E-01  0.3416518E+00
         13   -1    0    0    0    0  0.00000000000E+00  0.00000000000E+00  0.14999999963E+04  0.15000000000E+04  0.10566000000E+00 0. -1.
        994   -1    0    0    0    0 -0.00000000000E+00 -0.00000000000E+00  0.11368683772E-12  0.17120000000E+03  0.17120000000E+03 0.  0.
         13    1    1    2    0    0 -0.19974841272E+03 -0.86196139125E+02  0.12703414598E+04  0.12888353806E+04  0.10566000000E+00 0. -1.
        994    1    1    2    0    0  0.20576273421E+03  0.86515653604E+02  0.18361159837E+03  0.33592546817E+03  0.17120000000E+03 0.  0.
        998    1    1    2    0    0 -0.60143214915E+01 -0.31951447861E+00  0.46046938119E+02  0.46439151184E+02  0.10000000000E-01 0.  1.
</event>
<event>
 5    1  0.3934322E-009  0.3879318E+03  0.7957747E-01  0.3417333E+00
         13   -1    0    0    0    0  0.00000000000E+00  0.00000000000E+00  0.14999999963E+04  0.15000000000E+04  0.10566000000E+00 0. -1.
        994   -1    0    0    0    0 -0.00000000000E+00 -0.00000000000E+00  0.11368683772E-12  0.17120000000E+03  0.17120000000E+03 0.  0.
         13    1    1    2    0    0 -0.13579324238E+03  0.10352115452E+03  0.63042863594E+03  0.65314371335E+03  0.10566000000E+00 0. -1.
        994    1    1    2    0    0  0.23211705404E+03 -0.19872622612E+03  0.41149162558E+03  0.54037508977E+03  0.17120000000E+03 0.  0.
        998    1    1    2    0    0 -0.96323811667E+02  0.95205071606E+02  0.45807973476E+03  0.47768119688E+03  0.10000000000E-01 0. -1.
</event>
<event>
 5    1  0.3934322E-009  0.3882951E+03  0.7957747E-01  0.3415816E+00
         13   -1    0    0    0    0  0.00000000000E+00  0.00000000000E+00  0.14999999963E+04  0.15000000000E+04  0.10566000000E+00 0. -1.
        994   -1    0    0    0    0 -0.00000000000E+00 -0.00000000000E+00  0.11368683772E-12  0.17120000000E+03  0.17120000000E+03 0.  0.
         13    1    1    2    0    0  0.16201774801E+03  0.15184203550E+03  0.12644497163E+04  0.12837986021E+04  0.10566000000E+00 0. -1.
        994    1    1    2    0    0 -0.16691107598E+03 -0.15646289010E+03  0.19415897743E+03  0.34546648431E+03  0.17120000000E+03 0.  0.
        998    1    1    2    0    0  0.48933279668E+01  0.46208545975E+01  0.41391302540E+02  0.41934913638E+02  0.10000000000E-01 0.  1.
</event>
<event>
 5    1  0.3934322E-009  0.3883008E+03  0.7957747E-01  0.3415793E+00
         13   -1    0    0    0    0  0.00000000000E+00  0.00000000000E+00  0.14999999963E+04  0.15000000000E+04  0.10566000000E+00 0. -1.
        994   -1    0    0    0    0 -0.00000000000E+00 -0.00000000000E+00  0.11368683772E-12  0.17120000000E+03  0.17120000000E+03 0.  0.
         13    1    1    2    0    0  0.27736645934E+03  0.60520832368E+02  0.97685137209E+03  0.10172676827E+04  0.10566000000E+00 0. -1.
        994    1    1    2    0    0 -0.30329688878E+03 -0.66240105343E+02  0.43121456621E+03  0.55824026764E+03  0.17120000000E+03 0.  0.
        998    1    1    2    0    0  0.25930429446E+02  0.57192729756E+01  0.91934057980E+02  0.95692049676E+02  0.10000000000E-01 0.  1.
</event>
<event>
 5    1  0.3934322E-009  0.3863196E+03  0.7957747E-01  0.3424095E+00
         13   -1    0    0    0    0  0.00000000000E+00  0.00000000000E+00  0.14999999963E+04  0.15000000000E+04  0.10566000000E+00 0.  1.
        994   -1    0    0    0    0 -0.00000000000E+00 -0.00000000000E+00  0.11368683772E-12  0.17120000000E+03  0.17120000000E+03 0.  0.
         13    1    1    2    0    0  0.38532276684E+02 -0.90089050888E+00  0.23278440768E+03  0.23595368099E+03  0.10566000000E+00 0.  1.
        994    1    1    2    0    0 -0.12083638566E+03  0.43209302572E+02  0.56895302996E+02  0.22139329581E+03  0.17120000000E+03 0.  0.
        998    1    1    2    0    0  0.82304108973E+02 -0.42308412063E+02  0.12103202856E+04  0.12138530232E+04  0.10000000000E-01 0.  1.
</event>
<event>
 5    1  0.3934322E-009  0.3882169E+03  0.7957747E-01  0.3416143E+00
         13   -1    0    0    0    0  0.00000000000E+00  0.00000000000E+00  0.14999999963E+04  0.15000000000E+04  0.10566000000E+00 0.  1.
        994   -1    0    0    0    0 -0.00000000000E+00 -0.00000000000E+00  0.11368683772E-12  0.17120000000E+03  0.17120000000E+03 0.  0.
         13    1    1    2    0    0 -0.28954975974E+02 -0.20601663467E+03  0.12002432794E+04  0.12181400516E+04  0.10566000000E+00 0.  1.
        994    1    1    2    0    0  0.33791350591E+02  0.22647037064E+03  0.19465353258E+03  0.34587587644E+03  0.17120000000E+03 0.  0.
        998    1    1    2    0    0 -0.48363746169E+01 -0.20453735969E+02  0.10510318429E+03  0.10718407196E+03  0.10000000000E-01 0.  1.
</event>
<event>
 5    1  0.3934322E-009  0.3882829E+03  0.7957747E-01  0.3415867E+00
         13   -1    0    0    0    0  0.00000000000E+00  0.00000000000E+00  0.14999999963E+04  0.15000000000E+04  0.10566000000E+00 0.  1.
        994   -1    0    0    0    0 -0.00000000000E+00 -0.00000000000E+00  0.11368683772E-12  0.17120000000E+03  0.17120000000E+03 0.  0.
         13    1    1    2    0    0  0.22855827352E+03  0.59350042159E+02  0.12898061367E+04  0.13112441395E+04  0.10566000000E+00 0.  1.
        994    1    1    2    0    0 -0.22878150526E+03 -0.59354291018E+02  0.20957524415E+03  0.35929811017E+03  0.17120000000E+03 0.  0.
        998    1    1    2    0    0  0.22323173903E+00  0.42488592653E-02  0.61861539244E+00  0.65775030663E+00  0.10000000000E-01 0.  1.
</event>
<event>
 5    1  0.3934322E-009  0.3857238E+03  0.7957747E-01  0.3426608E+00
         13   -1    0    0    0    0  0.00000000000E+00  0.00000000000E+00  0.14999999963E+04  0.15000000000E+04  0.10566000000E+00 0. -1.
        994   -1    0    0    0    0 -0.00000000000E+00 -0.00000000000E+00  0.11368683772E-12  0.17120000000E+03  0.17120000000E+03 0.  0.
         13    1    1    2    0    0  0.31153541036E+00 -0.15852607689E+03  0.91746715358E+03  0.93106208342E+03  0.10566000000E+00 0. -1.
        994    1    1    2    0    0 -0.22677808938E+02  0.19768060262E+03  0.14419886452E+03  0.29949066129E+03  0.17120000000E+03 0.  0.
        998    1    1    2    0    0  0.22366273528E+02 -0.39154525727E+02  0.43833397818E+03  0.44064725530E+03  0.10000000000E-01 0.  1.
</event>
<event>
 5    1  0.3934322E-009  0.3883009E+03  0.7957747E-01  0.3415792E+00
         13   -1    0    0    0    0  0.00000000000E+00  0.00000000000E+00  0.14999999963E+04  0.15000000000E+04  0.10566000000E+00 0.  1.
        994   -1    0    0    0    0 -0.00000000000E+00 -0.00000000000E+00  0.11368683772E-12  0.17120000000E+03  0.17120000000E+03 0.  0.
         13    1    1    2    0    0  0.52895977377E+02 -0.29808407950E+03  0.10832887162E+04  0.11247962290E+04  0.10566000000E+00 0.  1.
        994    1    1    2    0    0 -0.53322381139E+02  0.30039233088E+03  0.40833172779E+03  0.53770165399E+03  0.17120000000E+03 0.  0.
        998    1    1    2    0    0  0.42640376194E+00 -0.23082513786E+01  0.83795522924E+01  0.87021170537E+01  0.10000000000E-01 0.  0.
</event>
<event>
 5    1  0.3934322E-009  0.3882849E+03  0.7957747E-01  0.3415859E+00
         13   -1    0    0    0    0  0.00000000000E+00  0.00000000000E+00  0.14999999963E+04  0.15000000000E+04  0.10566000000E+00 0.  1.
        994   -1    0    0    0    0 -0.00000000000E+00 -0.00000000000E+00  0.11368683772E-12  0.17120000000E+03  0.17120000000E+03 0.  0.
         13    1    1    2    0    0 -0.15041927190E+03  0.24519289544E+03  0.10479959456E+04  0.10867571147E+04  0.10566000000E+00 0.  1.
        994    1    1    2    0    0  0.15740170658E+03 -0.25778162472E+03  0.39611089253E+03  0.52672568047E+03  0.17120000000E+03 0.  0.
        998    1    1    2    0    0 -0.69824346774E+01  0.12588729282E+02  0.55893158161E+02  0.57717204785E+02  0.10000000000E-01 0. -1.
</event>
<event>
 5    1  0.3934322E-009  0.3883010E+03  0.7957747E-01  0.3415792E+00
         13   -1    0    0    0    0  0.00000000000E+00  0.00000000000E+00  0.14999999963E+04  0.15000000000E+04  0.10566000000E+00 0.  1.
        994   -1    0    0    0    0 -0.00000000000E+00 -0.00000000000E+00  0.11368683772E-12  0.17120000000E+03  0.17120000000E+03 0.  0.
         13    1    1    2    0    0  0.21043501518E+03 -0.61870054059E+02  0.12619214927E+04  0.12808421699E+04  0.10566000000E+00 0.  1.
        994    1    1    2    0    0 -0.21820535522E+03  0.64186154038E+02  0.19154100916E+03  0.34311927606E+03  0.17120000000E+03 0.  0.
        998    1    1    2    0    0  0.77703400427E+01 -0.23160999786E+01  0.46537494388E+02  0.47238554036E+02  0.10000000000E-01 0.  1.
</event>
<event>
 5    1  0.3934322E-009  0.3857296E+03  0.7957747E-01  0.3426584E+00
         13   -1    0    0    0    0  0.00000000000E+00  0.00000000000E+00  0.14999999963E+04  0.15000000000E+04  0.10566000000E+00 0.  1.
        994   -1    0    0    0    0 -0.00000000000E+00 -0.00000000000E+00  0.11368683772E-12  0.17120000000E+03  0.17120000000E+03 0.  0.
         13    1    1    2    0    0  0.80437223552E-01  0.39886021060E+02  0.15522486416E+03  0.16026749753E+03  0.10566000000E+00 0.  1.
        994    1    1    2    0    0  0.56455690793E+02 -0.18577963422E+03  0.13665131031E+03  0.29271887217E+03  0.17120000000E+03 0.  0.
        998    1    1    2    0    0 -0.56536128016E+02  0.14589361316E+03  0.12081238218E+04  0.12182136303E+04  0.10000000000E-01 0.  1.
</event>
<event>
 5    1  0.3934322E-009  0.3760225E+03  0.7957747E-01  0.3468662E+00
         13   -1    0    0    0    0  0.00000000000E+00  0.00000000000E+00  0.14999999963E+04  0.15000000000E+04  0.10566000000E+00 0.  1.
        994   -1    0    0    0    0 -0.00000000000E+00 -0.00000000000E+00  0.11368683772E-12  0.17120000000E+03  0.17120000000E+03 0.  0.
         13    1    1    2    0    0 -0.40600702698E+02 -0.10260464637E+03  0.33562412713E+03  0.35329831077E+03  0.10566000000E+00 0.  1.
        994    1    1    2    0    0  0.31950491680E+00  0.22563422606E+03  0.20451881104E+03  0.34935410420E+03  0.17120000000E+03 0.  0.
        998    1    1    2    0    0  0.40281197781E+02 -0.12302957969E+03  0.95985705810E+03  0.96854758503E+03  0.10000000000E-01 0.  1.
</event>
<event>
 5    1  0.3934322E-009  0.3882965E+03  0.7957747E-01  0.3415811E+00
         13   -1    0    0    0    0  0.00000000000E+00  0.00000000000E+00  0.14999999963E+04  0.15000000000E+04  0.10566000000E+00 0. -1.
        994   -1    0    0    0    0 -0.00000000000E+00 -0.00000000000E+00  0.11368683772E-12  0.17120000000E+03  0.17120000000E+03 0.  0.
         13    1    1    2    0    0  0.23270583802E+03 -0.13033583145E+03  0.10761060305E+04  0.11086675047E+04  0.10566000000E+00 0. -1.
        994    1    1    2    0    0 -0.25061703664E+03  0.14064408188E+03  0.34328183892E+03  0.47931359021E+03  0.17120000000E+03 0.  0.
        998    1    1    2    0    0  0.17911198620E+02 -0.10308250425E+02  0.80612126902E+02  0.83218905103E+02  0.10000000000E-01 0.  1.
</event>
<event>
 5    1  0.3934322E-009  0.3882877E+03  0.7957747E-01  0.3415847E+00
         13   -1    0    0    0    0  0.00000000000E+00  0.00000000000E+00  0.14999999963E+04  0.15000000000E+04  0.10566000000E+00 0. -1.
        994   -1    0    0    0    0 -0.00000000000E+00 -0.00000000000E+00  0.11368683772E-12  0.17120000000E+03  0.17120000000E+03 0.  0.
         13    1    1    2    0    0  0.40963393227E+02 -0.24077701757E+03  0.12731902053E+04  0.12964045980E+04  0.10566000000E+00 0. -1.
        994    1    1    2    0    0 -0.40920380844E+02  0.24081347231E+03  0.22665351621E+03  0.37462896634E+03  0.17120000000E+03 0.  0.
        998    1    1    2    0    0 -0.43012383460E-01 -0.36454732926E-01  0.15627477993E+00  0.16643563178E+00  0.10000000000E-01 0. -1.
</event>
<event>
 5    1  0.3934322E-009  0.3882960E+03  0.7957747E-01  0.3415812E+00
         13   -1    0    0    0    0  0.00000000000E+00  0.00000000000E+00  0.14999999963E+04  0.15000000000E+04  0.10566000000E+00 0. -1.
        994   -1    0    0    0    0 -0.00000000000E+00 -0.00000000000E+00  0.11368683772E-12  0.17120000000E+03  0.17120000000E+03 0.  0.
         13    1    1    2    0    0  0.16151779440E+03  0.14891587090E+03  0.11792322386E+04  0.11995218290E+04  0.10566000000E+00 0. -1.
        994    1    1    2    0    0 -0.17588530034E+03 -0.16150814251E+03  0.21470078291E+03  0.36390436265E+03  0.17120000000E+03 0.  0.
        998    1    1    2    0    0  0.14367505940E+02  0.12592271603E+02  0.10606697475E+03  0.10777380834E+03  0.10000000000E-01 0.  1.
</event>
<event>
 5    1  0.3934322E-009  0.3843193E+03  0.7957747E-01  0.3432564E+00
         13   -1    0    0    0    0  0.00000000000E+00  0.00000000000E+00  0.14999999963E+04  0.15000000000E+04  0.10566000000E+00 0.  1.
        994   -1    0    0    0    0 -0.00000000000E+00 -0.00000000000E+00  0.11368683772E-12  0.17120000000E+03  0.17120000000E+03 0.  0.
         13    1    1    2    0    0 -0.80439327299E+01  0.12940566119E+03  0.57664827695E+03  0.59104464846E+03  0.10566000000E+00 0.  1.
        994    1    1    2    0    0 -0.34315517454E+01 -0.21270977928E+03  0.16900821668E+03  0.32113928918E+03  0.17120000000E+03 0.  0.
        998    1    1    2    0    0  0.11475484475E+02  0.83304118090E+02  0.75434350265E+03  0.75901606237E+03  0.10000000000E-01 0.  1.
</event>
<event>
 5    1  0.3934322E-009  0.3882964E+03  0.7957747E-01  0.3415811E+00
         13   -1    0    0    0    0  0.00000000000E+00  0.00000000000E+00  0.14999999963E+04  0.15000000000E+04  0.10566000000E+00 0.  1.
        994   -1    0    0    0    0 -0.00000000000E+00 -0.00000000000E+00  0.11368683772E-12  0.17120000000E+03  0.17120000000E+03 0.  0.
         13    1    1    2    0    0  0.23098186299E+03  0.21122244264E+03  0.36415814811E+03  0.48018611944E+03  0.10566000000E+00 0.  1.
        994    1    1    2    0    0 -0.23156340522E+03 -0.21161498481E+03  0.11349210715E+04  0.11898562060E+04  0.17120000000E+03 0.  0.
        998    1    1    2    0    0  0.58154222570E+00  0.39254217273E+00  0.92077671482E+00  0.11576745986E+01  0.10000000000E-01 0.  1.
</event>
<event>
 5    1  0.3934322E-009  0.3870718E+03  0.7957747E-01  0.3420933E+00
         13   -1    0    0    0    0  0.00000000000E+00  0.00000000000E+00  0.14999999963E+04  0.15000000000E+04  0.10566000000E+00 0.  1.
        994   -1    0    0    0    0 -0.00000000000E+00 -0.00000000000E+00  0.11368683772E-12  0.17120000000E+03  0.17120000000E+03 0.  0.
         13    1    1    2    0    0  0.18060447980E+02  0.14602331186E+03  0.68420021988E+03  0.69984208178E+03  0.10566000000E+00 0.  1.
        994    1    1    2    0    0 -0.12495991198E+02 -0.23935823312E+03  0.21839421950E+03  0.36667968129E+03  0.17120000000E+03 0.  0.
        998    1    1    2    0    0 -0.55644567823E+01  0.93334921258E+02  0.59740555689E+03  0.60467823693E+03  0.10000000000E-01 0. -1.
</event>
<event>
 5    1  0.3934322E-009  0.3882995E+03  0.7957747E-01  0.3415798E+00
         13   -1    0    0    0    0  0.00000000000E+00  0.00000000000E+00  0.14999999963E+04  0.15000000000E+04  0.10566000000E+00 0.  1.
        994   -1    0    0    0    0 -0.00000000000E+00 -0.00000000000E+00  0.11368683772E-12  0.17120000000E+03  0.17120000000E+03 0.  0.
         13    1    1    2    0    0  0.10578531356E+03  0.20541931919E+03  0.13005806228E+04  0.13209457206E+04  0.10566000000E+00 0.  1.
        994    1    1    2    0    0 -0.10580432167E+03 -0.20549777688E+03  0.19884715995E+03  0.34967631291E+03  0.17120000000E+03 0.  0.
        998    1    1    2    0    0  0.19008108441E-01  0.78457693276E-01  0.57221354195E+00  0.57796648295E+00  0.10000000000E-01 0. -1.
</event>
<event>
 5    1  0.3934322E-009  0.3883009E+03  0.7957747E-01  0.3415792E+00
         13   -1    0    0    0    0  0.00000000000E+00  0.00000000000E+00  0.14999999963E+04  0.15000000000E+04  0.10566000000E+00 0.  1.
        994   -1    0    0    0    0 -0.00000000000E+00 -0.00000000000E+00  0.11368683772E-12  0.17120000000E+03  0.17120000000E+03 0.  0.
         13    1    1    2    0    0 -0.12177156300E+03 -0.28115833921E+03  0.91014528617E+03  0.96033472205E+03  0.10566000000E+00 0.  1.
        994    1    1    2    0    0  0.13051285856E+03  0.30120985893E+03  0.52494371868E+03  0.64236775538E+03  0.17120000000E+03 0.  0.
        998    1    1    2    0    0 -0.87412955619E+01 -0.20051519720E+02  0.64910991426E+02  0.68497522577E+02  0.10000000000E-01 0. -1.
</event>
<event>
 5    1  0.3934322E-009  0.3883006E+03  0.7957747E-01  0.3415793E+00
         13   -1    0    0    0    0  0.00000000000E+00  0.00000000000E+00  0.14999999963E+04  0.15000000000E+04  0.10566000000E+00 0.  1.
        994   -1    0    0    0    0 -0.00000000000E+00 -0.00000000000E+00  0.11368683772E-12  0.17120000000E+03  0.17120000000E+03 0.  0.
         13    1    1    2    0    0 -0.24461644498E+03  0.13584087052E+03  0.11586833880E+04  0.11919887382E+04  0.10566000000E+00 0.  1.
        994    1    1    2    0    0  0.24725932678E+03 -0.13738970023E+03  0.32869034055E+03  0.46621870874E+03  0.17120000000E+03 0.  0.
        998    1    1    2    0    0 -0.26428817953E+01  0.15488297111E+01  0.12626267730E+02  0.12992553039E+02  0.10000000000E-01 0. -1.
</event>
<event>
 5    1  0.3934322E-009  0.3879252E+03  0.7957747E-01  0.3417360E+00
         13   -1    0    0    0    0  0.00000000000E+00  0.00000000000E+00  0.14999999963E+04  0.15000000000E+04  0.10566000000E+00 0.  1.
        994   -1    0    0    0    0 -0.00000000000E+00 -0.00000000000E+00  0.11368683772E-12  0.17120000000E+03  0.17120000000E+03 0.  0.
         13    1    1    2    0    0  0.10704887449E+03  0.19011363479E+03  0.10056077389E+04  0.10290041747E+04  0.10566000000E+00 0.  1.
        994    1    1    2    0    0 -0.12209449105E+03 -0.22809022623E+03  0.26147162619E+03  0.40572043004E+03  0.17120000000E+03 0.  0.
        998    1    1    2    0    0  0.15045616556E+02  0.37976591445E+02  0.23292063114E+03  0.23647539531E+03  0.10000000000E-01 0. -1.
</event>
<event>
 5    1  0.3934322E-009  0.3883010E+03  0.7957747E-01  0.3415792E+00
         13   -1    0    0    0    0  0.00000000000E+00  0.00000000000E+00  0.14999999963E+04  0.15000000000E+04  0.10566000000E+00 0. -1.
        994   -1    0    0    0    0 -0.00000000000E+00 -0.00000000000E+00  0.11368683772E-12  0.17120000000E+03  0.17120000000E+03 0.  0.
         13    1    1    2    0    0  0.11904175296E+03  0.14094672357E+03  0.95863315373E+03  0.97622459118E+03  0.10566000000E+00 0. -1.
        994    1    1    2    0    0 -0.15801674098E+03 -0.18703486585E+03  0.22793843454E+03  0.37578810707E+03  0.17120000000E+03 0.  0.
        998    1    1    2    0    0  0.38974988014E+02  0.46088142280E+02  0.31342840801E+03  0.31918730175E+03  0.10000000000E-01 0. -1.
</event>
<event>
 5    1  0.3934322E-009  0.3882799E+03  0.7957747E-01  0.3415880E+00
         13   -1    0    0    0    0  0.00000000000E+00  0.00000000000E+00  0.14999999963E+04  0.15000000000E+04  0.10566000000E+00 0.  1.
        994   -1    0    0    0    0 -0.00000000000E+00 -0.00000000000E+00  0.11368683772E-12  0.17120000000E+03  0.17120000000E+03 0.  0.
         13    1    1    2    0    0 -0.27249709696E+03 -0.11406461741E+03  0.11247121041E+04  0.11628597220E+04  0.10566000000E+00 0.  1.
        994    1    1    2    0    0  0.27290954879E+03  0.11418329865E+03  0.37263065912E+03  0.50564858907E+03  0.17120000000E+03 0.  0.
        998    1    1    2    0    0 -0.41245182245E+00 -0.11868124449E+00  0.26572330543E+01  0.26916889212E+01  0.10000000000E-01 0.  1.
</event>
<event>
 5    1  0.3934322E-009  0.3882737E+03  0.7957747E-01  0.3415906E+00
         13   -1    0    0    0    0  0.00000000000E+00  0.00000000000E+00  0.14999999963E+04  0.15000000000E+04  0.10566000000E+00 0. -1.
        994   -1    0    0    0    0 -0.00000000000E+00 -0.00000000000E+00  0.11368683772E-12  0.17120000000E+03  0.17120000000E+03 0.  0.
         13    1    1    2    0    0 -0.18659078590E+03 -0.46174861607E+02  0.11291005084E+04  0.11453454537E+04  0.10566000000E+00 0. -1.
        994    1    1    2    0    0  0.21816878830E+03  0.51352940392E+02  0.18517362729E+03  0.33739214116E+03  0.17120000000E+03 0.  0.
        998    1    1    2    0    0 -0.31578002394E+02 -0.51780787853E+01  0.18572586062E+03  0.18846240511E+03  0.10000000000E-01 0. -1.
</event>
<event>
 5    1  0.3934322E-009  0.3883005E+03  0.7957747E-01  0.3415794E+00
         13   -1    0    0    0    0  0.00000000000E+00  0.00000000000E+00  0.14999999963E+04  0.15000000000E+04  0.10566000000E+00 0.  1.
        994   -1    0    0    0    0 -0.00000000000E+00 -0.00000000000E+00  0.11368683772E-12  0.17120000000E+03  0.17120000000E+03 0.  0.
         13    1    1    2    0    0 -0.27666817360E+03  0.61086108135E+02  0.11428129239E+04  0.11774116447E+04  0.10566000000E+00 0.  1.
        994    1    1    2    0    0  0.28033471916E+03 -0.61950324374E+02  0.34232831746E+03  0.47845952220E+03  0.17120000000E+03 0.  0.
        998    1    1    2    0    0 -0.36665455613E+01  0.86421623870E+00  0.14858754893E+02  0.15328833061E+02  0.10000000000E-01 0. -1.
</event>
<event>
 5    1  0.3934322E-009  0.3882431E+03  0.7957747E-01  0.3416033E+00
         13   -1    0    0    0    0  0.00000000000E+00  0.00000000000E+00  0.14999999963E+04  0.15000000000E+04  0.10566000000E+00 0. -1.
        994   -1    0    0    0    0 -0.00000000000E+00 -0.00000000000E+00  0.11368683772E-12  0.17120000000E+03  0.17120000000E+03 0.  0.
         13    1    1    2    0    0  0.57846786787E+02  0.26256100295E+03  0.11133372331E+04  0.11453402711E+04  0.10566000000E+00 0. -1.
        994    1    1    2    0    0 -0.59704882435E+02 -0.27529961899E+03  0.32516660416E+03  0.46303057530E+03  0.17120000000E+03 0.  0.
        998    1    1    2    0    0  0.18580956474E+01  0.12738616043E+02  0.61496159061E+02  0.62829153563E+02  0.10000000000E-01 0.  1.
</event>
<event>
 5    1  0.3934322E-009  0.3883008E+03  0.7957747E-01  0.3415792E+00
         13   -1    0    0    0    0  0.00000000000E+00  0.00000000000E+00  0.14999999963E+04  0.15000000000E+04  0.10566000000E+00 0. -1.
        994   -1    0    0    0    0 -0.00000000000E+00 -0.00000000000E+00  0.11368683772E-12  0.17120000000E+03  0.17120000000E+03 0.  0.
         13    1    1    2    0    0 -0.25923289411E+03 -0.13244808635E+03  0.10224737934E+04  0.10631071716E+04  0.10566000000E+00 0. -1.
        994    1    1    2    0    0  0.27407096717E+03  0.13994898116E+03  0.41940822003E+03  0.54764341264E+03  0.17120000000E+03 0.  0.
        998    1    1    2    0    0 -0.14838073061E+02 -0.75008948116E+01  0.58117982815E+02  0.60449415726E+02  0.10000000000E-01 0. -1.
</event>
<event>
 5    1  0.3934322E-009  0.3883010E+03  0.7957747E-01  0.3415792E+00
         13   -1    0    0    0    0  0.00000000000E+00  0.00000000000E+00  0.14999999963E+04  0.15000000000E+04  0.10566000000E+00 0.  1.
        994   -1    0    0    0    0 -0.00000000000E+00 -0.00000000000E+00  0.11368683772E-12  0.17120000000E+03  0.17120000000E+03 0.  0.
         13    1    1    2    0    0 -0.22273920021E+03 -0.93359774449E+00  0.93240954460E+03  0.95864549910E+03  0.10566000000E+00 0.  1.
        994    1    1    2    0    0  0.28109767430E+03  0.11688230106E+01  0.32317582622E+03  0.46126925249E+03  0.17120000000E+03 0.  0.
        998    1    1    2    0    0 -0.58358474089E+02 -0.23522526613E+00  0.24441462546E+03  0.25128524841E+03  0.10000000000E-01 0.  1.
</event>
<event>
 5    1  0.3934322E-009  0.3883009E+03  0.7957747E-01  0.3415792E+00
         13   -1    0    0    0    0  0.00000000000E+00  0.00000000000E+00  0.14999999963E+04  0.15000000000E+04  0.10566000000E+00 0.  1.
        994   -1    0    0    0    0 -0.00000000000E+00 -0.00000000000E+00  0.11368683772E-12  0.17120000000E+03  0.17120000000E+03 0.  0.
         13    1    1    2    0    0  0.98459887342E+02 -0.18890152738E+03  0.10191033286E+04  0.10411290708E+04  0.10566000000E+00 0.  1.
        994    1    1    2    0    0 -0.11982506896E+03  0.22952243311E+03  0.26133520957E+03  0.40576363343E+03  0.17120000000E+03 0.  0.
        998    1    1    2    0    0  0.21365181617E+02 -0.40620905726E+02  0.21956145806E+03  0.22430729577E+03  0.10000000000E-01 0.  1.
</event>
<event>
 5    1  0.3934322E-009  0.3883009E+03  0.7957747E-01  0.3415792E+00
         13   -1    0    0    0    0  0.00000000000E+00  0.00000000000E+00  0.14999999963E+04  0.15000000000E+04  0.10566000000E+00 0.  1.
        994   -1    0    0    0    0 -0.00000000000E+00 -0.00000000000E+00  0.11368683772E-12  0.17120000000E+03  0.17120000000E+03 0.  0.
         13    1    1    2    0    0  0.62751874395E+02 -0.21459793208E+03  0.12792096319E+04  0.12986020806E+04  0.10566000000E+00 0.  1.
        994    1    1    2    0    0 -0.64079295480E+02  0.21922250511E+03  0.19339577543E+03  0.34478403213E+03  0.17120000000E+03 0.  0.
        998    1    1    2    0    0  0.13274210850E+01 -0.46245730307E+01  0.27394588940E+02  0.27813887280E+02  0.10000000000E-01 0.  0.
</event>
<event>
 5    1  0.3934322E-009  0.3883009E+03  0.7957747E-01  0.3415792E+00
         13   -1    0    0    0    0  0.00000000000E+00  0.00000000000E+00  0.14999999963E+04  0.15000000000E+04  0.10566000000E+00 0.  1.
        994   -1    0    0    0    0 -0.00000000000E+00 -0.00000000000E+00  0.11368683772E-12  0.17120000000E+03  0.17120000000E+03 0.  0.
         13    1    1    2    0    0 -0.25396959370E+03  0.47668309852E+02  0.12318711100E+04  0.12586815582E+04  0.10566000000E+00 0.  1.
        994    1    1    2    0    0  0.25505699119E+03 -0.47884729952E+02  0.26283645332E+03  0.40711111176E+03  0.17120000000E+03 0.  0.
        998    1    1    2    0    0 -0.10873974935E+01  0.21642009995E+00  0.52924329907E+01  0.54073300185E+01  0.10000000000E-01 0.  0.
</event>
<event>
 5    1  0.3934322E-009  0.3882947E+03  0.7957747E-01  0.3415818E+00
         13   -1    0    0    0    0  0.00000000000E+00  0.00000000000E+00  0.14999999963E+04  0.15000000000E+04  0.10566000000E+00 0. -1.
        994   -1    0    0    0    0 -0.00000000000E+00 -0.00000000000E+00  0.11368683772E-12  0.17120000000E+03  0.17120000000E+03 0.  0.
         13    1    1    2    0    0 -0.11272928826E+03  0.24995717467E+03  0.11972428311E+04  0.12282413807E+04  0.10566000000E+00 0. -1.
        994    1    1    2    0    0  0.11274947182E+03 -0.24999387187E+03  0.30267964652E+03  0.44286994455E+03  0.17120000000E+03 0.  0.
        998    1    1    2    0    0 -0.20183557220E-01  0.36697201005E-01  0.77518699369E-01  0.88674738768E-01  0.10000000000E-01 0. -1.
</event>
<event>
 5    1  0.3934322E-009  0.3882962E+03  0.7957747E-01  0.3415812E+00
         13   -1    0    0    0    0  0.00000000000E+00  0.00000000000E+00  0.14999999963E+04  0.15000000000E+04  0.10566000000E+00 0.  1.
        994   -1    0    0    0    0 -0.00000000000E+00 -0.00000000000E+00  0.11368683772E-12  0.17120000000E+03  0.17120000000E+03 0.  0.
         13    1    1    2    0    0 -0.25750311484E+03 -0.21350345619E+03  0.92175135906E+03  0.98056981345E+03  0.10566000000E+00 0.  1.
        994    1    1    2    0    0  0.25811839986E+03  0.21419105208E+03  0.57576704586E+03  0.68798259152E+03  0.17120000000E+03 0.  0.
        998    1    1    2    0    0 -0.61528502429E+00 -0.68759589178E+00  0.24815913661E+01  0.26475950370E+01  0.10000000000E-01 0. -1.
</event>
<event>
 5    1  0.3934322E-009  0.3881830E+03  0.7957747E-01  0.3416284E+00
         13   -1    0    0    0    0  0.00000000000E+00  0.00000000000E+00  0.14999999963E+04  0.15000000000E+04  0.10566000000E+00 0. -1.
        994   -1    0    0    0    0 -0.00000000000E+00 -0.00000000000E+00  0.11368683772E-12  0.17120000000E+03  0.17120000000E+03 0.  0.
         13    1    1    2    0    0 -0.15277826044E+03 -0.29076877207E+03  0.81944711441E+03  0.88282572468E+03  0.10566000000E+00 0. -1.
        994    1    1    2    0    0  0.15694513601E+03  0.30448449302E+03  0.64619242613E+03  0.75114357735E+03  0.17120000000E+03 0.  0.
        998    1    1    2    0    0 -0.41668755703E+01 -0.13715720950E+02  0.34360455737E+02  0.37230697974E+02  0.10000000000E-01 0.  1.
</event>
<event>
 5    1  0.3934322E-009  0.3812670E+03  0.7957747E-01  0.3445660E+00
         13   -1    0    0    0    0  0.00000000000E+00  0.00000000000E+00  0.14999999963E+04  0.15000000000E+04  0.10566000000E+00 0. -1.
        994   -1    0    0    0    0 -0.00000000000E+00 -0.00000000000E+00  0.11368683772E-12  0.17120000000E+03  0.17120000000E+03 0.  0.
         13    1    1    2    0    0  0.10743121000E+03  0.18269709664E+02  0.64393634670E+03  0.65309208917E+03  0.10566000000E+00 0. -1.
        994    1    1    2    0    0 -0.15764730965E+03 -0.12074264825E+03  0.14833408908E+03  0.30123728742E+03  0.17120000000E+03 0.  0.
        998    1    1    2    0    0  0.50216099644E+02  0.10247293859E+03  0.70772956050E+03  0.71687062341E+03  0.10000000000E-01 0. -1.
</event>
<event>
 5    1  0.3934322E-009  0.3883008E+03  0.7957747E-01  0.3415792E+00
         13   -1    0    0    0    0  0.00000000000E+00  0.00000000000E+00  0.14999999963E+04  0.15000000000E+04  0.10566000000E+00 0. -1.
        994   -1    0    0    0    0 -0.00000000000E+00 -0.00000000000E+00  0.11368683772E-12  0.17120000000E+03  0.17120000000E+03 0.  0.
         13    1    1    2    0    0  0.24199726952E+03 -0.11367441278E+02  0.12769355211E+04  0.12997139044E+04  0.10566000000E+00 0. -1.
        994    1    1    2    0    0 -0.24211273707E+03  0.11373434929E+02  0.22246295169E+03  0.37087347890E+03  0.17120000000E+03 0.  0.
        998    1    1    2    0    0  0.11546755028E+00 -0.59936511619E-02  0.60152348563E+00  0.61261666871E+00  0.10000000000E-01 0.  0.
</event>
<event>
 5    1  0.3934322E-009  0.3883008E+03  0.7957747E-01  0.3415793E+00
         13   -1    0    0    0    0  0.00000000000E+00  0.00000000000E+00  0.14999999963E+04  0.15000000000E+04  0.10566000000E+00 0. -1.
        994   -1    0    0    0    0 -0.00000000000E+00 -0.00000000000E+00  0.11368683772E-12  0.17120000000E+03  0.17120000000E+03 0.  0.
         13    1    1    2    0    0  0.28258581070E+02  0.23334687278E+03  0.12873790298E+04  0.13086611815E+04  0.10566000000E+00 0. -1.
        994    1    1    2    0    0 -0.28342399593E+02 -0.23408858792E+03  0.20838619551E+03  0.35823875431E+03  0.17120000000E+03 0.  0.
        998    1    1    2    0    0  0.83818523291E-01  0.74171513665E+00  0.42347709848E+01  0.43000642067E+01  0.10000000000E-01 0.  0.
</event>
<event>
 5    1  0.3934322E-009  0.3883009E+03  0.7957747E-01  0.3415792E+00
         13   -1    0    0    0    0  0.00000000000E+00  0.00000000000E+00  0.14999999963E+04  0.15000000000E+04  0.10566000000E+00 0.  1.
        994   -1    0    0    0    0 -0.00000000000E+00 -0.00000000000E+00  0.11368683772E-12  0.17120000000E+03  0.17120000000E+03 0.  0.
         13    1    1    2    0    0 -0.23893506636E+03 -0.19551139086E+02  0.12315525466E+04  0.12546688405E+04  0.10566000000E+00 0.  1.
        994    1    1    2    0    0  0.24596114430E+03  0.20065387523E+02  0.23229075167E+03  0.37969453195E+03  0.17120000000E+03 0.  0.
        998    1    1    2    0    0 -0.70260779415E+01 -0.51424843665E+00  0.36156697995E+02  0.36836627595E+02  0.10000000000E-01 0. -1.
</event>
<event>
 5    1  0.3934322E-009  0.3883008E+03  0.7957747E-01  0.3415793E+00
         13   -1    0    0    0    0  0.00000000000E+00  0.00000000000E+00  0.14999999963E+04  0.15000000000E+04  0.10566000000E+00 0. -1.
        994   -1    0    0    0    0 -0.00000000000E+00 -0.00000000000E+00  0.11368683772E-12  0.17120000000E+03  0.17120000000E+03 0.  0.
         13    1    1    2    0    0 -0.11276692605E+03  0.32555007257E+03  0.69105098530E+03  0.77217271696E+03  0.10566000000E+00 0. -1.
        994    1    1    2    0    0  0.11408608010E+03 -0.32928779785E+03  0.80111822656E+03  0.89025049307E+03  0.17120000000E+03 0.  0.
        998    1    1    2    0    0 -0.13191540521E+01  0.37377252738E+01  0.78307844139E+01  0.87767899697E+01  0.10000000000E-01 0. -1.
</event>
<event>
 5    1  0.3934322E-009  0.3858546E+03  0.7957747E-01  0.3426056E+00
         13   -1    0    0    0    0  0.00000000000E+00  0.00000000000E+00  0.14999999963E+04  0.15000000000E+04  0.10566000000E+00 0.  1.
        994   -1    0    0    0    0 -0.00000000000E+00 -0.00000000000E+00  0.11368683772E-12  0.17120000000E+03  0.17120000000E+03 0.  0.
         13    1    1    2    0    0 -0.71652552433E+01 -0.15975913160E+02  0.10582778139E+03  0.10726649599E+03  0.10566000000E+00 0.  1.
        994    1    1    2    0    0  0.58191913342E+02  0.11047523973E+02  0.12797909072E+02  0.18160829563E+03  0.17120000000E+03 0.  0.
        998    1    1    2    0    0 -0.51026658099E+02  0.49283891870E+01  0.13813743058E+04  0.13823252084E+04  0.10000000000E-01 0.  1.
</event>
<event>
 5    1  0.3934322E-009  0.3882958E+03  0.7957747E-01  0.3415814E+00
         13   -1    0    0    0    0  0.00000000000E+00  0.00000000000E+00  0.14999999963E+04  0.15000000000E+04  0.10566000000E+00 0. -1.
        994   -1    0    0    0    0 -0.00000000000E+00 -0.00000000000E+00  0.11368683772E-12  0.17120000000E+03  0.17120000000E+03 0.  0.
         13    1    1    2    0    0 -0.20475954019E+03  0.12622746004E+03  0.11169604481E+04  0.11425675012E+04  0.10566000000E+00 0. -1.
        994    1    1    2    0    0  0.22529963367E+03 -0.13852425145E+03  0.27568565261E+03  0.41864174687E+03  0.17120000000E+03 0.  0.
        998    1    1    2    0    0 -0.20540093478E+02  0.12296791411E+02  0.10735389558E+03  0.10999075196E+03  0.10000000000E-01 0.  1.
</event>
<event>
 5    1  0.3934322E-009  0.3883009E+03  0.7957747E-01  0.3415792E+00
         13   -1    0    0    0    0  0.00000000000E+00  0.00000000000E+00  0.14999999963E+04  0.15000000000E+04  0.10566000000E+00 0.  1.
        994   -1    0    0    0    0 -0.00000000000E+00 -0.00000000000E+00  0.11368683772E-12  0.17120000000E+03  0.17120000000E+03 0.  0.
         13    1    1    2    0    0 -0.13153243227E+03  0.17420722930E+03  0.12836051548E+04  0.13020334651E+04  0.10566000000E+00 0.  1.
        994    1    1    2    0    0  0.13479697223E+03 -0.17853378780E+03  0.18433145784E+03  0.33664827856E+03  0.17120000000E+03 0.  0.
        998    1    1    2    0    0 -0.32645399569E+01  0.43265584947E+01  0.32063383618E+02  0.32518256389E+02  0.10000000000E-01 0.  1.
</event>
<event>
 5    1  0.3934322E-009  0.3882986E+03  0.7957747E-01  0.3415802E+00
         13   -1    0    0    0    0  0.00000000000E+00  0.00000000000E+00  0.14999999963E+04  0.15000000000E+04  0.10566000000E+00 0.  1.
        994   -1    0    0    0    0 -0.00000000000E+00 -0.00000000000E+00  0.11368683772E-12  0.17120000000E+03  0.17120000000E+03 0.  0.
         13    1    1    2    0    0 -0.11341856236E+03 -0.17178023178E+03  0.11536598087E+04  0.11718801917E+04  0.10566000000E+00 0.  1.
        994    1    1    2    0    0  0.12733671812E+03  0.19323699849E+03  0.19941931229E+03  0.35018949082E+03  0.17120000000E+03 0.  0.
        998    1    1    2    0    0 -0.13918155761E+02 -0.21456766707E+02  0.14692087526E+03  0.14913031746E+03  0.10000000000E-01 0. -1.
</event>
<event>
 5    1  0.3934322E-009  0.3883008E+03  0.7957747E-01  0.3415793E+00
         13   -1    0    0    0    0  0.00000000000E+00  0.00000000000E+00  0.14999999963E+04  0.15000000000E+04  0.10566000000E+00 0.  1.
        994   -1    0    0    0    0 -0.00000000000E+00 -0.00000000000E+00  0.11368683772E-12  0.17120000000E+03  0.17120000000E+03 0.  0.
         13    1    1    2    0    0  0.20931627774E+03  0.90847521809E+02  0.13005301692E+04  0.13203958908E+04  0.10566000000E+00 0.  1.
        994    1    1    2    0    0 -0.21006861750E+03 -0.91192501012E+02  0.19460439346E+03  0.34586877028E+03  0.17120000000E+03 0.  0.
        998    1    1    2    0    0  0.75233975895E+00  0.34497920300E+00  0.48654336559E+01  0.49353389371E+01  0.10000000000E-01 0. -1.
</event>
<event>
 5    1  0.3934322E-009  0.3882994E+03  0.7957747E-01  0.3415798E+00
         13   -1    0    0    0    0  0.00000000000E+00  0.00000000000E+00  0.14999999963E+04  0.15000000000E+04  0.10566000000E+00 0. -1.
        994   -1    0    0    0    0 -0.00000000000E+00 -0.00000000000E+00  0.11368683772E-12  0.17120000000E+03  0.17120000000E+03 0.  0.
         13    1    1    2    0    0  0.14879464387E+03 -0.25841217440E+03  0.11069775829E+04  0.11464362512E+04  0.10566000000E+00 0. -1.
        994    1    1    2    0    0 -0.14947705082E+03  0.25980522324E+03  0.38713902601E+03  0.51867929224E+03  0.17120000000E+03 0.  0.
        998    1    1    2    0    0  0.68240694859E+00 -0.13930488364E+01  0.58833873569E+01  0.60844565160E+01  0.10000000000E-01 0. -1.
</event>
<event>
 5    1  0.3934322E-009  0.3882785E+03  0.7957747E-01  0.3415886E+00
         13   -1    0    0    0    0  0.00000000000E+00  0.00000000000E+00  0.14999999963E+04  0.15000000000E+04  0.10566000000E+00 0. -1.
        994   -1    0    0    0    0 -0.00000000000E+00 -0.00000000000E+00  0.11368683772E-12  0.17120000000E+03  0.17120000000E+03 0.  0.
         13    1    1    2    0    0  0.21542296792E+03 -0.91243089767E+02  0.12930092408E+04  0.13140035253E+04  0.10566000000E+00 0. -1.
        994    1    1    2    0    0 -0.21574525254E+03  0.91543913406E+02  0.20544433851E+03  0.35558841137E+03  0.17120000000E+03 0.  0.
        998    1    1    2    0    0  0.32228462317E+00 -0.30082363914E+00  0.15464169325E+01  0.16080632977E+01  0.10000000000E-01 0.  1.
</event>
<event>
 5    1  0.3934322E-009  0.3883009E+03  0.7957747E-01  0.3415792E+00
         13   -1    0    0    0    0  0.00000000000E+00  0.00000000000E+00  0.14999999963E+04  0.15000000000E+04  0.10566000000E+00 0.  1.
        994   -1    0    0    0    0 -0.00000000000E+00 -0.00000000000E+00  0.11368683772E-12  0.17120000000E+03  0.17120000000E+03 0.  0.
         13    1    1    2    0    0  0.23104810466E+03 -0.10338047713E+03  0.11301095653E+04  0.11581098352E+04  0.10566000000E+00 0.  1.
        994    1    1    2    0    0 -0.24700004380E+03  0.11041885838E+03  0.29219142257E+03  0.43345889465E+03  0.17120000000E+03 0.  0.
        998    1    1    2    0    0  0.15951939142E+02 -0.70383812491E+01  0.77699008407E+02  0.79631270117E+02  0.10000000000E-01 0.  1.
</event>
<event>
 5    1  0.3934322E-009  0.3883006E+03  0.7957747E-01  0.3415793E+00
         13   -1    0    0    0    0  0.00000000000E+00  0.00000000000E+00  0.14999999963E+04  0.15000000000E+04  0.10566000000E+00 0. -1.
        994   -1    0    0    0    0 -0.00000000000E+00 -0.00000000000E+00  0.11368683772E-12  0.17120000000E+03  0.17120000000E+03 0.  0.
         13    1    1    2    0    0  0.14464109574E+03  0.19895960297E+03  0.12690027522E+04  0.12926229018E+04  0.10566000000E+00 0. -1.
        994    1    1    2    0    0 -0.14468729347E+03 -0.19901679007E+03  0.23064664198E+03  0.37821873179E+03  0.17120000000E+03 0.  0.
        998    1    1    2    0    0  0.46197731371E-01  0.57187107979E-01  0.35060212675E+00  0.35836635861E+00  0.10000000000E-01 0.  0.
</event>
<event>
 5    1  0.3934322E-009  0.3881441E+03  0.7957747E-01  0.3416446E+00
         13   -1    0    0    0    0  0.00000000000E+00  0.00000000000E+00  0.14999999963E+04  0.15000000000E+04  0.10566000000E+00 0.  1.
        994   -1    0    0    0    0 -0.00000000000E+00 -0.00000000000E+00  0.11368683772E-12  0.17120000000E+03  0.17120000000E+03 0.  0.
         13    1    1    2    0    0 -0.92241624154E+02 -0.14340438392E+02  0.43941511677E+03  0.44922135013E+03  0.10566000000E+00 0.  1.
        994    1    1    2    0    0  0.24492367250E+03  0.36591810230E+02  0.23450618811E+03  0.38161388626E+03  0.17120000000E+03 0.  0.
        998    1    1    2    0    0 -0.15268204835E+03 -0.22251371838E+02  0.82607869139E+03  0.84036476360E+03  0.10000000000E-01 0.  1.
</event>
<event>
 5    1  0.3934322E-009  0.3856811E+03  0.7957747E-01  0.3426789E+00
         13   -1    0    0    0    0  0.00000000000E+00  0.00000000000E+00  0.14999999963E+04  0.15000000000E+04  0.10566000000E+00 0. -1.
        994   -1    0    0    0    0 -0.00000000000E+00 -0.00000000000E+00  0.11368683772E-12  0.17120000000E+03  0.17120000000E+03 0.  0.
         13    1    1    2    0    0 -0.49485790608E+01  0.15979969504E+02  0.93498239711E+02  0.94983050346E+02  0.10566000000E+00 0. -1.
        994    1    1    2    0    0 -0.73217232545E+02 -0.65453450273E+02  0.33607282298E+02  0.20020940717E+03  0.17120000000E+03 0.  0.
        998    1    1    2    0    0  0.78165811605E+02  0.49473480770E+02  0.13728944743E+04  0.13760075425E+04  0.10000000000E-01 0. -1.
</event>
<event>
 5    1  0.3934322E-009  0.3881922E+03  0.7957747E-01  0.3416245E+00
         13   -1    0    0    0    0  0.00000000000E+00  0.00000000000E+00  0.14999999963E+04  0.15000000000E+04  0.10566000000E+00 0. -1.
        994   -1    0    0    0    0 -0.00000000000E+00 -0.00000000000E+00  0.11368683772E-12  0.17120000000E+03  0.17120000000E+03 0.  0.
         13    1    1    2    0    0 -0.18913400720E+03 -0.12651478617E+03  0.12938879267E+04  0.13137441310E+04  0.10566000000E+00 0. -1.
        994    1    1    2    0    0  0.18967516167E+03  0.12792433821E+03  0.19430009615E+03  0.34554778342E+03  0.17120000000E+03 0.  0.
        998    1    1    2    0    0 -0.54115447413E+00 -0.14095520398E+01  0.11811973433E+02  0.11908085552E+02  0.10000000000E-01 0. -1.
</event>
<event>
 5    1  0.3934322E-009  0.3882961E+03  0.7957747E-01  0.3415812E+00
         13   -1    0    0    0    0  0.00000000000E+00  0.00000000000E+00  0.14999999963E+04  0.15000000000E+04  0.10566000000E+00 0. -1.
        994   -1    0    0    0    0 -0.00000000000E+00 -0.00000000000E+00  0.11368683772E-12  0.17120000000E+03  0.17120000000E+03 0.  0.
         13    1    1    2    0    0  0.17890822376E+03 -0.20799264094E+03  0.11900946957E+04  0.12213085143E+04  0.10566000000E+00 0. -1.
        994    1    1    2    0    0 -0.17952018160E+03  0.20860494105E+03  0.30550127109E+03  0.44540316980E+03  0.17120000000E+03 0.  0.
        998    1    1    2    0    0  0.61195783755E+00 -0.61230011165E+00  0.44040295050E+01  0.44883159094E+01  0.10000000000E-01 0.  1.
</event>
<event>
 5    1  0.3934322E-009  0.3882095E+03  0.7957747E-01  0.3416173E+00
         13   -1    0    0    0    0  0.00000000000E+00  0.00000000000E+00  0.14999999963E+04  0.15000000000E+04  0.10566000000E+00 0. -1.
        994   -1    0    0    0    0 -0.00000000000E+00 -0.00000000000E+00  0.11368683772E-12  0.17120000000E+03  0.17120000000E+03 0.  0.
         13    1    1    2    0    0  0.12289369726E+03 -0.12263337963E+03  0.10352539049E+04  0.10497106580E+04  0.10566000000E+00 0. -1.
        994    1    1    2    0    0 -0.16188929912E+03  0.15631898054E+03  0.18699609180E+03  0.33899962713E+03  0.17120000000E+03 0.  0.
        998    1    1    2    0    0  0.38995601852E+02 -0.33685600915E+02  0.27774999956E+03  0.28248971490E+03  0.10000000000E-01 0. -1.
</event>
<event>
 5    1  0.3934322E-009  0.3882998E+03  0.7957747E-01  0.3415797E+00
         13   -1    0    0    0    0  0.00000000000E+00  0.00000000000E+00  0.14999999963E+04  0.15000000000E+04  0.10566000000E+00 0. -1.
        994   -1    0    0    0    0 -0.00000000000E+00 -0.00000000000E+00  0.11368683772E-12  0.17120000000E+03  0.17120000000E+03 0.  0.
         13    1    1    2    0    0 -0.18907780363E+03  0.15207450692E+03  0.12759445426E+04  0.12988115947E+04  0.10566000000E+00 0. -1.
        994    1    1    2    0    0  0.18916461868E+03 -0.15218275696E+03  0.22334784355E+03  0.37166724861E+03  0.17120000000E+03 0.  0.
        998    1    1    2    0    0 -0.86815045488E-01  0.10825004097E+00  0.70761013385E+00  0.72115672708E+00  0.10000000000E-01 0.  1.
</event>
<event>
 5    1  0.3934322E-009  0.3882976E+03  0.7957747E-01  0.3415806E+00
         13   -1    0    0    0    0  0.00000000000E+00  0.00000000000E+00  0.14999999963E+04  0.15000000000E+04  0.10566000000E+00 0. -1.
        994   -1    0    0    0    0 -0.00000000000E+00 -0.00000000000E+00  0.11368683772E-12  0.17120000000E+03  0.17120000000E+03 0.  0.
         13    1    1    2    0    0 -0.34914144142E+02 -0.23575228219E+03  0.12451878478E+04  0.12677897789E+04  0.10566000000E+00 0. -1.
        994    1    1    2    0    0  0.35391250197E+02  0.24127906007E+03  0.22573837875E+03  0.37381195949E+03  0.17120000000E+03 0.  0.
        998    1    1    2    0    0 -0.47710605552E+00 -0.55267778725E+01  0.29073769770E+02  0.29598261647E+02  0.10000000000E-01 0.  1.
</event>
<event>
 5    1  0.3934322E-009  0.3883003E+03  0.7957747E-01  0.3415795E+00
         13   -1    0    0    0    0  0.00000000000E+00  0.00000000000E+00  0.14999999963E+04  0.15000000000E+04  0.10566000000E+00 0. -1.
        994   -1    0    0    0    0 -0.00000000000E+00 -0.00000000000E+00  0.11368683772E-12  0.17120000000E+03  0.17120000000E+03 0.  0.
         13    1    1    2    0    0  0.89054032773E+02  0.18012388830E+03  0.12090726296E+04  0.12256556901E+04  0.10566000000E+00 0. -1.
        994    1    1    2    0    0 -0.97688537999E+02 -0.19717164754E+03  0.17747626132E+03  0.33049504139E+03  0.17120000000E+03 0.  0.
        998    1    1    2    0    0  0.86345052258E+01  0.17047759240E+02  0.11345110533E+03  0.11504926847E+03  0.10000000000E-01 0.  1.
</event>
<event>
 5    1  0.3934322E-009  0.3881182E+03  0.7957747E-01  0.3416554E+00
         13   -1    0    0    0    0  0.00000000000E+00  0.00000000000E+00  0.14999999963E+04  0.15000000000E+04  0.10566000000E+00 0.  1.
        994   -1    0    0    0    0 -0.00000000000E+00 -0.00000000000E+00  0.11368683772E-12  0.17120000000E+03  0.17120000000E+03 0.  0.
         13    1    1    2    0    0 -0.26946258815E+02 -0.23241775191E+03  0.12442198501E+04  0.12660281035E+04  0.10566000000E+00 0.  1.
        994    1    1    2    0    0  0.25359070033E+02  0.23814366232E+03  0.21645584810E+03  0.36540123223E+03  0.17120000000E+03 0.  0.
        998    1    1    2    0    0  0.15871887823E+01 -0.57259104128E+01  0.39324298104E+02  0.39770664310E+02  0.10000000000E-01 0.  1.
</event>
<event>
 5    1  0.3934322E-009  0.3882974E+03  0.7957747E-01  0.3415807E+00
         13   -1    0    0    0    0  0.00000000000E+00  0.00000000000E+00  0.14999999963E+04  0.15000000000E+04  0.10566000000E+00 0. -1.
        994   -1    0    0    0    0 -0.00000000000E+00 -0.00000000000E+00  0.11368683772E-12  0.17120000000E+03  0.17120000000E+03 0.  0.
         13    1    1    2    0    0  0.19478472774E+03 -0.22608103299E+03  0.11005232900E+04  0.11402654282E+04  0.10566000000E+00 0. -1.
        994    1    1    2    0    0 -0.19619232020E+03  0.22798175526E+03  0.39115033950E+03  0.52227879081E+03  0.17120000000E+03 0.  0.
        998    1    1    2    0    0  0.14075924607E+01 -0.19007222649E+01  0.83263667687E+01  0.86557810296E+01  0.10000000000E-01 0. -1.
</event>
<event>
 5    1  0.3934322E-009  0.3883010E+03  0.7957747E-01  0.3415792E+00
         13   -1    0    0    0    0  0.00000000000E+00  0.00000000000E+00  0.14999999963E+04  0.15000000000E+04  0.10566000000E+00 0. -1.
        994   -1    0    0    0    0 -0.00000000000E+00 -0.00000000000E+00  0.11368683772E-12  0.17120000000E+03  0.17120000000E+03 0.  0.
         13    1    1    2    0    0  0.95354196886E+02  0.25881861580E+03  0.10557255523E+04  0.10911626605E+04  0.10566000000E+00 0. -1.
        994    1    1    2    0    0 -0.10204954924E+03 -0.27697539846E+03  0.37019186550E+03  0.50346890583E+03  0.17120000000E+03 0.  0.
        998    1    1    2    0    0  0.66953523550E+01  0.18156782656E+02  0.74082578467E+02  0.76568433652E+02  0.10000000000E-01 0.  0.
</event>
<event>
 5    1  0.3934322E-009  0.3883005E+03  0.7957747E-01  0.3415794E+00
         13   -1    0    0    0    0  0.00000000000E+00  0.00000000000E+00  0.14999999963E+04  0.15000000000E+04  0.10566000000E+00 0.  1.
        994   -1    0    0    0    0 -0.00000000000E+00 -0.00000000000E+00  0.11368683772E-12  0.17120000000E+03  0.17120000000E+03 0.  0.
         13    1    1    2    0    0 -0.18065967122E+03 -0.13724364199E+03  0.13083641713E+04  0.13278895097E+04  0.10566000000E+00 0.  1.
        994    1    1    2    0    0  0.18080174780E+03  0.13733585483E+03  0.19075614513E+03  0.34241459655E+03  0.17120000000E+03 0.  0.
        998    1    1    2    0    0 -0.14207658166E+00 -0.92212840386E-01  0.87967980696E+00  0.89589370226E+00  0.10000000000E-01 0. -1.
</event>
<event>
 5    1  0.3934322E-009  0.3882937E+03  0.7957747E-01  0.3415822E+00
         13   -1    0    0    0    0  0.00000000000E+00  0.00000000000E+00  0.14999999963E+04  0.15000000000E+04  0.10566000000E+00 0.  1.
        994   -1    0    0    0    0 -0.00000000000E+00 -0.00000000000E+00  0.11368683772E-12  0.17120000000E+03  0.17120000000E+03 0.  0.
         13    1    1    2    0    0  0.21339326170E+02 -0.26171713569E+03  0.12200205395E+04  0.12479588751E+04  0.10566000000E+00 0.  1.
        994    1    1    2    0    0 -0.21517389164E+02  0.26312032760E+03  0.27442396957E+03  0.41750839501E+03  0.17120000000E+03 0.  0.
        998    1    1    2    0    0  0.17806299421E+00 -0.14031919036E+01  0.55554871774E+01  0.57327298669E+01  0.10000000000E-01 0. -1.
</event>
<event>
 5    1  0.3934322E-009  0.3883010E+03  0.7957747E-01  0.3415792E+00
         13   -1    0    0    0    0  0.00000000000E+00  0.00000000000E+00  0.14999999963E+04  0.15000000000E+04  0.10566000000E+00 0. -1.
        994   -1    0    0    0    0 -0.00000000000E+00 -0.00000000000E+00  0.11368683772E-12  0.17120000000E+03  0.17120000000E+03 0.  0.
         13    1    1    2    0    0  0.26330114907E+03 -0.23617379984E+02  0.12141588423E+04  0.12426049176E+04  0.10566000000E+00 0. -1.
        994    1    1    2    0    0 -0.26474566571E+03  0.23743193423E+02  0.27921120576E+03  0.42180842116E+03  0.17120000000E+03 0.  0.
        998    1    1    2    0    0  0.14445166358E+01 -0.12581343902E+00  0.66299482187E+01  0.67866612347E+01  0.10000000000E-01 0. -1.
</event>
<event>
 5    1  0.3934322E-009  0.3877842E+03  0.7957747E-01  0.3417949E+00
         13   -1    0    0    0    0  0.00000000000E+00  0.00000000000E+00  0.14999999963E+04  0.15000000000E+04  0.10566000000E+00 0. -1.
        994   -1    0    0    0    0 -0.00000000000E+00 -0.00000000000E+00  0.11368683772E-12  0.17120000000E+03  0.17120000000E+03 0.  0.
         13    1    1    2    0    0  0.21793975599E+03  0.96100724601E+02  0.12262642003E+04  0.12491825273E+04  0.10566000000E+00 0. -1.
        994    1    1    2    0    0 -0.22314825263E+03 -0.95713075243E+02  0.22417634611E+03  0.37218356974E+03  0.17120000000E+03 0.  0.
        998    1    1    2    0    0  0.52084966482E+01 -0.38764935840E+00  0.49559449906E+02  0.49833902961E+02  0.10000000000E-01 0. -1.
</event>
<event>
 5    1  0.3934322E-009  0.3882766E+03  0.7957747E-01  0.3415894E+00
         13   -1    0    0    0    0  0.00000000000E+00  0.00000000000E+00  0.14999999963E+04  0.15000000000E+04  0.10566000000E+00 0.  1.
        994   -1    0    0    0    0 -0.00000000000E+00 -0.00000000000E+00  0.11368683772E-12  0.17120000000E+03  0.17120000000E+03 0.  0.
         13    1    1    2    0    0 -0.20965417579E+03  0.13603475648E+03  0.98182085695E+03  0.10131300680E+04  0.10566000000E+00 0.  1.
        994    1    1    2    0    0  0.24390692236E+03 -0.15684532711E+03  0.35205253040E+03  0.48717703925E+03  0.17120000000E+03 0.  0.
        998    1    1    2    0    0 -0.34252746565E+02  0.20810570627E+02  0.16612660892E+03  0.17089289274E+03  0.10000000000E-01 0. -1.
</event>
<event>
 5    1  0.3934322E-009  0.3882889E+03  0.7957747E-01  0.3415842E+00
         13   -1    0    0    0    0  0.00000000000E+00  0.00000000000E+00  0.14999999963E+04  0.15000000000E+04  0.10566000000E+00 0. -1.
        994   -1    0    0    0    0 -0.00000000000E+00 -0.00000000000E+00  0.11368683772E-12  0.17120000000E+03  0.17120000000E+03 0.  0.
         13    1    1    2    0    0 -0.16610924390E+03  0.61256967988E+02  0.87641572508E+03  0.89411924897E+03  0.10566000000E+00 0. -1.
        994    1    1    2    0    0  0.23861010234E+03 -0.89329723309E+02  0.25112933480E+03  0.39659798689E+03  0.17120000000E+03 0.  0.
        998    1    1    2    0    0 -0.72500858439E+02  0.28072755322E+02  0.37245493640E+03  0.38048276415E+03  0.10000000000E-01 0. -1.
</event>
<event>
 5    1  0.3934322E-009  0.3883010E+03  0.7957747E-01  0.3415792E+00
         13   -1    0    0    0    0  0.00000000000E+00  0.00000000000E+00  0.14999999963E+04  0.15000000000E+04  0.10566000000E+00 0. -1.
        994   -1    0    0    0    0 -0.00000000000E+00 -0.00000000000E+00  0.11368683772E-12  0.17120000000E+03  0.17120000000E+03 0.  0.
         13    1    1    2    0    0 -0.19801857428E+03  0.80001252479E+02  0.88674602095E+03  0.91210200800E+03  0.10566000000E+00 0. -1.
        994    1    1    2    0    0  0.26191002645E+03 -0.10582768223E+03  0.32748396080E+03  0.46513604984E+03  0.17120000000E+03 0.  0.
        998    1    1    2    0    0 -0.63891452172E+02  0.25826429755E+02  0.28577001453E+03  0.29396194216E+03  0.10000000000E-01 0. -1.
</event>
<event>
 5    1  0.3934322E-009  0.3876584E+03  0.7957747E-01  0.3418475E+00
         13   -1    0    0    0    0  0.00000000000E+00  0.00000000000E+00  0.14999999963E+04  0.15000000000E+04  0.10566000000E+00 0.  1.
        994   -1    0    0    0    0 -0.00000000000E+00 -0.00000000000E+00  0.11368683772E-12  0.17120000000E+03  0.17120000000E+03 0.  0.
         13    1    1    2    0    0  0.21793829598E+03 -0.66561125394E+02  0.63333751619E+03  0.67308536223E+03  0.10566000000E+00 0.  1.
        994    1    1    2    0    0 -0.32038109001E+03  0.80253324558E+02  0.54191566121E+03  0.65731777917E+03  0.17120000000E+03 0.  0.
        998    1    1    2    0    0  0.10244279403E+03 -0.13692199164E+02  0.32474681888E+03  0.34079685861E+03  0.10000000000E-01 0.  1.
</event>
<event>
 5    1  0.3934322E-009  0.3883008E+03  0.7957747E-01  0.3415793E+00
         13   -1    0    0    0    0  0.00000000000E+00  0.00000000000E+00  0.14999999963E+04  0.15000000000E+04  0.10566000000E+00 0. -1.
        994   -1    0    0    0    0 -0.00000000000E+00 -0.00000000000E+00  0.11368683772E-12  0.17120000000E+03  0.17120000000E+03 0.  0.
         13    1    1    2    0    0  0.19035693174E+03 -0.64748777144E+02  0.11983852338E+04  0.12151359370E+04  0.10566000000E+00 0. -1.
        994    1    1    2    0    0 -0.20953884463E+03  0.71273500574E+02  0.17985822327E+03  0.33263322109E+03  0.17120000000E+03 0.  0.
        998    1    1    2    0    0  0.19181912896E+02 -0.65247234297E+01  0.12175653921E+03  0.12343084192E+03  0.10000000000E-01 0. -1.
</event>
<event>
 5    1  0.3934322E-009  0.3883003E+03  0.7957747E-01  0.3415795E+00
         13   -1    0    0    0    0  0.00000000000E+00  0.00000000000E+00  0.14999999963E+04  0.15000000000E+04  0.10566000000E+00 0. -1.
        994   -1    0    0    0    0 -0.00000000000E+00 -0.00000000000E+00  0.11368683772E-12  0.17120000000E+03  0.17120000000E+03 0.  0.
         13    1    1    2    0    0 -0.84857421623E+02  0.21635753728E+03  0.12887759682E+04  0.13095628558E+04  0.10566000000E+00 0. -1.
        994    1    1    2    0    0  0.85368048086E+02 -0.21750723573E+03  0.20396876667E+03  0.35427362166E+03  0.17120000000E+03 0.  0.
        998    1    1    2    0    0 -0.51062646367E+00  0.11496984528E+01  0.72552613968E+01  0.73635225166E+01  0.10000000000E-01 0.  1.
</event>
<event>
 5    1  0.3934322E-009  0.3882903E+03  0.7957747E-01  0.3415836E+00
         13   -1    0    0    0    0  0.00000000000E+00  0.00000000000E+00  0.14999999963E+04  0.15000000000E+04  0.10566000000E+00 0.  1.
        994   -1    0    0    0    0 -0.00000000000E+00 -0.00000000000E+00  0.11368683772E-12  0.17120000000E+03  0.17120000000E+03 0.  0.
         13    1    1    2    0    0 -0.16250890337E+03 -0.49651561641E+02  0.76680567859E+03  0.78540778016E+03  0.10566000000E+00 0.  1.
        994    1    1    2    0    0  0.25769601871E+03  0.80955831411E+02  0.29097348614E+03  0.43236106941E+03  0.17120000000E+03 0.  0.
        998    1    1    2    0    0 -0.95187115344E+02 -0.31304269770E+02  0.44222083154E+03  0.45343115044E+03  0.10000000000E-01 0. -1.
</event>
<event>
 5    1  0.3934322E-009  0.3883007E+03  0.7957747E-01  0.3415793E+00
         13   -1    0    0    0    0  0.00000000000E+00  0.00000000000E+00  0.14999999963E+04  0.15000000000E+04  0.10566000000E+00 0. -1.
        994   -1    0    0    0    0 -0.00000000000E+00 -0.00000000000E+00  0.11368683772E-12  0.17120000000E+03  0.17120000000E+03 0.  0.
         13    1    1    2    0    0  0.90054096140E-01  0.25300909864E+03  0.11846875927E+04  0.12114034487E+04  0.10566000000E+00 0. -1.
        994    1    1    2    0    0 -0.78782447711E-02 -0.26261692141E+03  0.27079713758E+03  0.41425617339E+03  0.17120000000E+03 0.  0.
        998    1    1    2    0    0 -0.82175851368E-01  0.96078227667E+01  0.44515266041E+02  0.45540377929E+02  0.10000000000E-01 0.  1.
</event>
<event>
 5    1  0.3934322E-009  0.3882880E+03  0.7957747E-01  0.3415846E+00
         13   -1    0    0    0    0  0.00000000000E+00  0.00000000000E+00  0.14999999963E+04  0.15000000000E+04  0.10566000000E+00 0. -1.
        994   -1    0    0    0    0 -0.00000000000E+00 -0.00000000000E+00  0.11368683772E-12  0.17120000000E+03  0.17120000000E+03 0.  0.
         13    1    1    2    0    0 -0.73534001800E+02 -0.65774377454E+02  0.41863536432E+03  0.43010358936E+03  0.10566000000E+00 0. -1.
        994    1    1    2    0    0  0.20353352152E+03  0.18988823300E+03  0.31483640267E+03  0.45377839951E+03  0.17120000000E+03 0.  0.
        998    1    1    2    0    0 -0.12999951972E+03 -0.12411385555E+03  0.76652822929E+03  0.78731801114E+03  0.10000000000E-01 0. -1.
</event>
<event>
 5    1  0.3934322E-009  0.3883009E+03  0.7957747E-01  0.3415792E+00
         13   -1    0    0    0    0  0.00000000000E+00  0.00000000000E+00  0.14999999963E+04  0.15000000000E+04  0.10566000000E+00 0.  1.
        994   -1    0    0    0    0 -0.00000000000E+00 -0.00000000000E+00  0.11368683772E-12  0.17120000000E+03  0.17120000000E+03 0.  0.
         13    1    1    2    0    0  0.22266823281E+03 -0.51917301964E+02  0.12959315116E+04  0.13159464434E+04  0.10566000000E+00 0.  1.
        994    1    1    2    0    0 -0.22394591351E+03  0.52220409938E+02  0.19647993535E+03  0.34755222397E+03  0.17120000000E+03 0.  0.
        998    1    1    2    0    0  0.12776806964E+01 -0.30310797371E+00  0.75885493689E+01  0.77013326074E+01  0.10000000000E-01 0. -1.
</event>
<event>
 5    1  0.3934322E-009  0.3882868E+03  0.7957747E-01  0.3415851E+00
         13   -1    0    0    0    0  0.00000000000E+00  0.00000000000E+00  0.14999999963E+04  0.15000000000E+04  0.10566000000E+00 0. -1.
        994   -1    0    0    0    0 -0.00000000000E+00 -0.00000000000E+00  0.11368683772E-12  0.17120000000E+03  0.17120000000E+03 0.  0.
         13    1    1    2    0    0  0.22766839610E+03  0.12890757011E+02  0.12841916668E+04  0.13042803834E+04  0.10566000000E+00 0. -1.
        994    1    1    2    0    0 -0.23029689933E+03 -0.13009841107E+02  0.19791718170E+03  0.34883601967E+03  0.17120000000E+03 0.  0.
        998    1    1    2    0    0  0.26285032281E+01  0.11908409504E+00  0.17891147769E+02  0.18083596952E+02  0.10000000000E-01 0. -1.
</event>
<event>
 5    1  0.3934322E-009  0.3882364E+03  0.7957747E-01  0.3416061E+00
         13   -1    0    0    0    0  0.00000000000E+00  0.00000000000E+00  0.14999999963E+04  0.15000000000E+04  0.10566000000E+00 0. -1.
        994   -1    0    0    0    0 -0.00000000000E+00 -0.00000000000E+00  0.11368683772E-12  0.17120000000E+03  0.17120000000E+03 0.  0.
         13    1    1    2    0    0 -0.21722833412E+03 -0.15484133071E+03  0.12128134329E+04  0.12418053072E+04  0.10566000000E+00 0. -1.
        994    1    1    2    0    0  0.21787680724E+03  0.15561415525E+03  0.28455353100E+03  0.42657498807E+03  0.17120000000E+03 0.  0.
        998    1    1    2    0    0 -0.64847311833E+00 -0.77282454096E+00  0.26330324329E+01  0.28197047628E+01  0.10000000000E-01 0.  1.
</event>
<event>
 5    1  0.3934322E-009  0.3875155E+03  0.7957747E-01  0.3419073E+00
         13   -1    0    0    0    0  0.00000000000E+00  0.00000000000E+00  0.14999999963E+04  0.15000000000E+04  0.10566000000E+00 0. -1.
        994   -1    0    0    0    0 -0.00000000000E+00 -0.00000000000E+00  0.11368683772E-12  0.17120000000E+03  0.17120000000E+03 0.  0.
         13    1    1    2    0    0  0.21418697518E+03 -0.10305787361E+02  0.11491517383E+04  0.11689875955E+04  0.10566000000E+00 0. -1.
        994    1    1    2    0    0 -0.23231289669E+03  0.19602414236E+02  0.20397529276E+03  0.35393346362E+03  0.17120000000E+03 0.  0.
        998    1    1    2    0    0  0.18125921508E+02 -0.92966268749E+01  0.14687296524E+03  0.14827894092E+03  0.10000000000E-01 0. -1.
</event>
<event>
 5    1  0.3934322E-009  0.3835852E+03  0.7957747E-01  0.3435695E+00
         13   -1    0    0    0    0  0.00000000000E+00  0.00000000000E+00  0.14999999963E+04  0.15000000000E+04  0.10566000000E+00 0.  1.
        994   -1    0    0    0    0 -0.00000000000E+00 -0.00000000000E+00  0.11368683772E-12  0.17120000000E+03  0.17120000000E+03 0.  0.
         13    1    1    2    0    0 -0.17655559722E+02  0.23924072390E+01  0.10614531133E+03  0.10763029631E+03  0.10566000000E+00 0.  1.
        994    1    1    2    0    0 -0.51572615768E+02 -0.76617214246E+02  0.31044503616E+02  0.19698510964E+03  0.17120000000E+03 0.  0.
        998    1    1    2    0    0  0.69228175490E+02  0.74224807007E+02  0.13628101813E+04  0.13665845940E+04  0.10000000000E-01 0.  1.
</event>
<event>
 5    1  0.3934322E-009  0.3883008E+03  0.7957747E-01  0.3415793E+00
         13   -1    0    0    0    0  0.00000000000E+00  0.00000000000E+00  0.14999999963E+04  0.15000000000E+04  0.10566000000E+00 0. -1.
        994   -1    0    0    0    0 -0.00000000000E+00 -0.00000000000E+00  0.11368683772E-12  0.17120000000E+03  0.17120000000E+03 0.  0.
         13    1    1    2    0    0  0.84200078850E+02  0.21539494094E+03  0.12976653289E+04  0.13181122679E+04  0.10566000000E+00 0. -1.
        994    1    1    2    0    0 -0.84344526462E+02 -0.21577455530E+03  0.19992792051E+03  0.35064693248E+03  0.17120000000E+03 0.  0.
        998    1    1    2    0    0  0.14444761222E+00  0.37961435859E+00  0.24067469027E+01  0.24407996288E+01  0.10000000000E-01 0.  1.
</event>
<event>
 5    1  0.3934322E-009  0.3783489E+03  0.7957747E-01  0.3458379E+00
         13   -1    0    0    0    0  0.00000000000E+00  0.00000000000E+00  0.14999999963E+04  0.15000000000E+04  0.10566000000E+00 0.  1.
        994   -1    0    0    0    0 -0.00000000000E+00 -0.00000000000E+00  0.11368683772E-12  0.17120000000E+03  0.17120000000E+03 0.  0.
         13    1    1    2    0    0  0.29595443952E+02 -0.81766609195E+02  0.52151543039E+03  0.52871544708E+03  0.10566000000E+00 0.  1.
        994    1    1    2    0    0  0.67527318466E+02  0.23584429242E+03  0.24484891428E+03  0.38657845236E+03  0.17120000000E+03 0.  0.
        998    1    1    2    0    0 -0.97122762418E+02 -0.15407768323E+03  0.73363565161E+03  0.75590610056E+03  0.10000000000E-01 0.  1.
</event>
<event>
 5    1  0.3934322E-009  0.3883003E+03  0.7957747E-01  0.3415795E+00
         13   -1    0    0    0    0  0.00000000000E+00  0.00000000000E+00  0.14999999963E+04  0.15000000000E+04  0.10566000000E+00 0.  1.
        994   -1    0    0    0    0 -0.00000000000E+00 -0.00000000000E+00  0.11368683772E-12  0.17120000000E+03  0.17120000000E+03 0.  0.
         13    1    1    2    0    0  0.11006976237E+03  0.20914591352E+03  0.12896253291E+04  0.13111029198E+04  0.10566000000E+00 0.  1.
        994    1    1    2    0    0 -0.11010530529E+03 -0.20924388331E+03  0.20973802928E+03  0.35945189092E+03  0.17120000000E+03 0.  0.
        998    1    1    2    0    0  0.35542913215E-01  0.97969796088E-01  0.63663787924E+00  0.64518925046E+00  0.10000000000E-01 0. -1.
</event>
<event>
 5    1  0.3934322E-009  0.3882926E+03  0.7957747E-01  0.3415827E+00
         13   -1    0    0    0    0  0.00000000000E+00  0.00000000000E+00  0.14999999963E+04  0.15000000000E+04  0.10566000000E+00 0. -1.
        994   -1    0    0    0    0 -0.00000000000E+00 -0.00000000000E+00  0.11368683772E-12  0.17120000000E+03  0.17120000000E+03 0.  0.
         13    1    1    2    0    0 -0.15381514130E+03  0.65631922002E+02  0.10016524078E+04  0.10155167177E+04  0.10566000000E+00 0. -1.
        994    1    1    2    0    0  0.20132886891E+03 -0.87257315840E+02  0.17634299186E+03  0.32947449583E+03  0.17120000000E+03 0.  0.
        998    1    1    2    0    0 -0.47513727611E+02  0.21625393838E+02  0.32200459667E+03  0.32620878643E+03  0.10000000000E-01 0.  1.
</event>
<event>
 5    1  0.3934322E-009  0.3883009E+03  0.7957747E-01  0.3415792E+00
         13   -1    0    0    0    0  0.00000000000E+00  0.00000000000E+00  0.14999999963E+04  0.15000000000E+04  0.10566000000E+00 0. -1.
        994   -1    0    0    0    0 -0.00000000000E+00 -0.00000000000E+00  0.11368683772E-12  0.17120000000E+03  0.17120000000E+03 0.  0.
         13    1    1    2    0    0  0.10742146952E+03 -0.20234726608E+03  0.12966804447E+04  0.13167626874E+04  0.10566000000E+00 0. -1.
        994    1    1    2    0    0 -0.10796202243E+03  0.20333779486E+03  0.19701411499E+03  0.34803169196E+03  0.17120000000E+03 0.  0.
        998    1    1    2    0    0  0.54055290746E+00 -0.99052877467E+00  0.63054366094E+01  0.64056206206E+01  0.10000000000E-01 0.  0.
</event>
<event>
 5    1  0.3934322E-009  0.3879449E+03  0.7957747E-01  0.3417278E+00
         13   -1    0    0    0    0  0.00000000000E+00  0.00000000000E+00  0.14999999963E+04  0.15000000000E+04  0.10566000000E+00 0. -1.
        994   -1    0    0    0    0 -0.00000000000E+00 -0.00000000000E+00  0.11368683772E-12  0.17120000000E+03  0.17120000000E+03 0.  0.
         13    1    1    2    0    0 -0.15104358184E+03  0.19068628662E+03  0.12732943181E+04  0.12963232063E+04  0.10566000000E+00 0. -1.
        994    1    1    2    0    0  0.15175046090E+03 -0.19063160044E+03  0.22574523485E+03  0.37368296794E+03  0.17120000000E+03 0.  0.
        998    1    1    2    0    0 -0.70687906079E+00 -0.54686183239E-01  0.96044336089E+00  0.11938257975E+01  0.10000000000E-01 0.  1.
</event>
<event>
 5    1  0.3934322E-009  0.3882616E+03  0.7957747E-01  0.3415956E+00
         13   -1    0    0    0    0  0.00000000000E+00  0.00000000000E+00  0.14999999963E+04  0.15000000000E+04  0.10566000000E+00 0.  1.
        994   -1    0    0    0    0 -0.00000000000E+00 -0.00000000000E+00  0.11368683772E-12  0.17120000000E+03  0.17120000000E+03 0.  0.
         13    1    1    2    0    0 -0.12191462290E+03  0.16589878878E+03  0.11413889420E+04  0.11598078770E+04  0.10566000000E+00 0.  1.
        994    1    1    2    0    0  0.13587472775E+03 -0.18849875872E+03  0.20138106623E+03  0.35193393914E+03  0.17120000000E+03 0.  0.
        998    1    1    2    0    0 -0.13960104855E+02  0.22599969936E+02  0.15722998802E+03  0.15945818386E+03  0.10000000000E-01 0.  1.
</event>
<event>
 5    1  0.3934322E-009  0.3883009E+03  0.7957747E-01  0.3415792E+00
         13   -1    0    0    0    0  0.00000000000E+00  0.00000000000E+00  0.14999999963E+04  0.15000000000E+04  0.10566000000E+00 0.  1.
        994   -1    0    0    0    0 -0.00000000000E+00 -0.00000000000E+00  0.11368683772E-12  0.17120000000E+03  0.17120000000E+03 0.  0.
         13    1    1    2    0    0 -0.16739613311E+03  0.13427366442E+03  0.12198641048E+04  0.12385957079E+04  0.10566000000E+00 0.  1.
        994    1    1    2    0    0  0.17894742970E+03 -0.14363411676E+03  0.19550293837E+03  0.34667532506E+03  0.17120000000E+03 0.  0.
        998    1    1    2    0    0 -0.11551296595E+02  0.93604523398E+01  0.84632953159E+02  0.85928967069E+02  0.10000000000E-01 0. -1.
</event>
<event>
 5    1  0.3934322E-009  0.3775721E+03  0.7957747E-01  0.3461799E+00
         13   -1    0    0    0    0  0.00000000000E+00  0.00000000000E+00  0.14999999963E+04  0.15000000000E+04  0.10566000000E+00 0.  1.
        994   -1    0    0    0    0 -0.00000000000E+00 -0.00000000000E+00  0.11368683772E-12  0.17120000000E+03  0.17120000000E+03 0.  0.
         13    1    1    2    0    0  0.87367315909E+00 -0.23540270733E+02  0.67345397646E+02  0.71346488345E+02  0.10566000000E+00 0.  1.
        994    1    1    2    0    0 -0.13048184735E+02 -0.64211340712E+02  0.19971638361E+02  0.18439538427E+03  0.17120000000E+03 0.  0.
        998    1    1    2    0    0  0.12174511576E+02  0.87751611445E+02  0.14126829603E+04  0.14154581274E+04  0.10000000000E-01 0.  1.
</event>
<event>
 5    1  0.3934322E-009  0.3806750E+03  0.7957747E-01  0.3448225E+00
         13   -1    0    0    0    0  0.00000000000E+00  0.00000000000E+00  0.14999999963E+04  0.15000000000E+04  0.10566000000E+00 0. -1.
        994   -1    0    0    0    0 -0.00000000000E+00 -0.00000000000E+00  0.11368683772E-12  0.17120000000E+03  0.17120000000E+03 0.  0.
         13    1    1    2    0    0 -0.18368885176E+03  0.18790190581E+03  0.12129264473E+04  0.12410637768E+04  0.10566000000E+00 0. -1.
        994    1    1    2    0    0  0.16854973184E+03 -0.18663437358E+03  0.26570922089E+03  0.40392107097E+03  0.17120000000E+03 0.  0.
        998    1    1    2    0    0  0.15139119920E+02 -0.12675322243E+01  0.21364328109E+02  0.26215152211E+02  0.10000000000E-01 0. -1.
</event>
<event>
 5    1  0.3934322E-009  0.3883005E+03  0.7957747E-01  0.3415794E+00
         13   -1    0    0    0    0  0.00000000000E+00  0.00000000000E+00  0.14999999963E+04  0.15000000000E+04  0.10566000000E+00 0.  1.
        994   -1    0    0    0    0 -0.00000000000E+00 -0.00000000000E+00  0.11368683772E-12  0.17120000000E+03  0.17120000000E+03 0.  0.
         13    1    1    2    0    0  0.13112317172E+03  0.18101096701E+03  0.12890340475E+04  0.13082687198E+04  0.10566000000E+00 0.  1.
        994    1    1    2    0    0 -0.13310944869E+03 -0.18392974199E+03  0.19074695784E+03  0.34240636274E+03  0.17120000000E+03 0.  0.
        998    1    1    2    0    0  0.19862769737E+01  0.29187749803E+01  0.20218990923E+02  0.20524917479E+02  0.10000000000E-01 0.  1.
</event>
<event>
 5    1  0.3934322E-009  0.3882864E+03  0.7957747E-01  0.3415853E+00
         13   -1    0    0    0    0  0.00000000000E+00  0.00000000000E+00  0.14999999963E+04  0.15000000000E+04  0.10566000000E+00 0.  1.
        994   -1    0    0    0    0 -0.00000000000E+00 -0.00000000000E+00  0.11368683772E-12  0.17120000000E+03  0.17120000000E+03 0.  0.
         13    1    1    2    0    0  0.23026716433E+03 -0.23111388996E+02  0.12986713844E+04  0.13191301980E+04  0.10566000000E+00 0.  1.
        994    1    1    2    0    0 -0.23052826030E+03  0.23281212119E+02  0.20000227342E+03  0.35070734667E+03  0.17120000000E+03 0.  0.
        998    1    1    2    0    0  0.26109597039E+00 -0.16982312302E+00  0.13263384214E+01  0.13624553596E+01  0.10000000000E-01 0. -1.
</event>
<event>
 5    1  0.3934322E-009  0.3881987E+03  0.7957747E-01  0.3416219E+00
         13   -1    0    0    0    0  0.00000000000E+00  0.00000000000E+00  0.14999999963E+04  0.15000000000E+04  0.10566000000E+00 0. -1.
        994   -1    0    0    0    0 -0.00000000000E+00 -0.00000000000E+00  0.11368683772E-12  0.17120000000E+03  0.17120000000E+03 0.  0.
         13    1    1    2    0    0  0.30565462765E+02  0.16063795492E+03  0.93270296548E+03  0.94692852585E+03  0.10566000000E+00 0. -1.
        994    1    1    2    0    0 -0.35255872450E+02 -0.22400887315E+03  0.19034132108E+03  0.34199738347E+03  0.17120000000E+03 0.  0.
        998    1    1    2    0    0  0.46904096857E+01  0.63370918229E+02  0.37695570971E+03  0.38227409068E+03  0.10000000000E-01 0. -1.
</event>
<event>
 5    1  0.3934322E-009  0.3882647E+03  0.7957747E-01  0.3415943E+00
         13   -1    0    0    0    0  0.00000000000E+00  0.00000000000E+00  0.14999999963E+04  0.15000000000E+04  0.10566000000E+00 0. -1.
        994   -1    0    0    0    0 -0.00000000000E+00 -0.00000000000E+00  0.11368683772E-12  0.17120000000E+03  0.17120000000E+03 0.  0.
         13    1    1    2    0    0  0.74693317395E+02 -0.23295444128E+03  0.12714944773E+04  0.12948146895E+04  0.10566000000E+00 0. -1.
        994    1    1    2    0    0 -0.74826560854E+02  0.23314936871E+03  0.22802223604E+03  0.37584733931E+03  0.17120000000E+03 0.  0.
        998    1    1    2    0    0  0.13324345833E+00 -0.19492743027E+00  0.48328297822E+00  0.53797115099E+00  0.10000000000E-01 0.  1.
</event>
<event>
 5    1  0.3934322E-009  0.3875213E+03  0.7957747E-01  0.3419049E+00
         13   -1    0    0    0    0  0.00000000000E+00  0.00000000000E+00  0.14999999963E+04  0.15000000000E+04  0.10566000000E+00 0.  1.
        994   -1    0    0    0    0 -0.00000000000E+00 -0.00000000000E+00  0.11368683772E-12  0.17120000000E+03  0.17120000000E+03 0.  0.
         13    1    1    2    0    0 -0.15486060196E+03 -0.22185895571E+03  0.10361187524E+04  0.10708619343E+04  0.10566000000E+00 0.  1.
        994    1    1    2    0    0  0.16257760581E+03  0.23915601100E+03  0.35123124226E+03  0.48610688233E+03  0.17120000000E+03 0.  0.
        998    1    1    2    0    0 -0.77170038491E+01 -0.17297055289E+02  0.11265000167E+03  0.11423118334E+03  0.10000000000E-01 0. -1.
</event>
<event>
 5    1  0.3934322E-009  0.3882985E+03  0.7957747E-01  0.3415802E+00
         13   -1    0    0    0    0  0.00000000000E+00  0.00000000000E+00  0.14999999963E+04  0.15000000000E+04  0.10566000000E+00 0.  1.
        994   -1    0    0    0    0 -0.00000000000E+00 -0.00000000000E+00  0.11368683772E-12  0.17120000000E+03  0.17120000000E+03 0.  0.
         13    1    1    2    0    0  0.32898181695E+02 -0.21055111251E+03  0.12119535008E+04  0.12305467730E+04  0.10566000000E+00 0.  1.
        994    1    1    2    0    0 -0.35700211490E+02  0.22696496294E+03  0.19608857864E+03  0.34719989944E+03  0.17120000000E+03 0.  0.
        998    1    1    2    0    0  0.28020297952E+01 -0.16413850428E+02  0.91957916876E+02  0.93453327565E+02  0.10000000000E-01 0.  1.
</event>
<event>
 5    1  0.3934322E-009  0.3883010E+03  0.7957747E-01  0.3415792E+00
         13   -1    0    0    0    0  0.00000000000E+00  0.00000000000E+00  0.14999999963E+04  0.15000000000E+04  0.10566000000E+00 0. -1.
        994   -1    0    0    0    0 -0.00000000000E+00 -0.00000000000E+00  0.11368683772E-12  0.17120000000E+03  0.17120000000E+03 0.  0.
         13    1    1    2    0    0  0.23077190865E+03  0.14958186334E+02  0.12891801703E+04  0.13097575897E+04  0.10566000000E+00 0. -1.
        994    1    1    2    0    0 -0.23230799972E+03 -0.15058716280E+02  0.20220170537E+03  0.35268788089E+03  0.17120000000E+03 0.  0.
        998    1    1    2    0    0  0.15360910706E+01  0.10052994530E+00  0.86181206322E+01  0.87545294151E+01  0.10000000000E-01 0. -1.
</event>
<event>
 5    1  0.3934322E-009  0.3883004E+03  0.7957747E-01  0.3415794E+00
         13   -1    0    0    0    0  0.00000000000E+00  0.00000000000E+00  0.14999999963E+04  0.15000000000E+04  0.10566000000E+00 0.  1.
        994   -1    0    0    0    0 -0.00000000000E+00 -0.00000000000E+00  0.11368683772E-12  0.17120000000E+03  0.17120000000E+03 0.  0.
         13    1    1    2    0    0  0.22462739240E+03 -0.62056752305E+02  0.12088146001E+04  0.12310732125E+04  0.10566000000E+00 0.  1.
        994    1    1    2    0    0 -0.23638014653E+03  0.65372266165E+02  0.22884425084E+03  0.37660090016E+03  0.17120000000E+03 0.  0.
        998    1    1    2    0    0  0.11752754131E+02 -0.33155138593E+01  0.62341145314E+02  0.63525887329E+02  0.10000000000E-01 0.  1.
</event>
<event>
 5    1  0.3934322E-009  0.3882993E+03  0.7957747E-01  0.3415799E+00
         13   -1    0    0    0    0  0.00000000000E+00  0.00000000000E+00  0.14999999963E+04  0.15000000000E+04  0.10566000000E+00 0.  1.
        994   -1    0    0    0    0 -0.00000000000E+00 -0.00000000000E+00  0.11368683772E-12  0.17120000000E+03  0.17120000000E+03 0.  0.
         13    1    1    2    0    0 -0.17746101723E+03  0.11099735798E+03  0.10514794216E+04  0.10721109137E+04  0.10566000000E+00 0.  1.
        994    1    1    2    0    0  0.21268618301E+03 -0.13337399240E+03  0.24217054903E+03  0.38856151265E+03  0.17120000000E+03 0.  0.
        998    1    1    2    0    0 -0.35225165785E+02  0.22376634421E+02  0.20635002564E+03  0.21052757362E+03  0.10000000000E-01 0. -1.
</event>
<event>
 5    1  0.3934322E-009  0.3882940E+03  0.7957747E-01  0.3415821E+00
         13   -1    0    0    0    0  0.00000000000E+00  0.00000000000E+00  0.14999999963E+04  0.15000000000E+04  0.10566000000E+00 0. -1.
        994   -1    0    0    0    0 -0.00000000000E+00 -0.00000000000E+00  0.11368683772E-12  0.17120000000E+03  0.17120000000E+03 0.  0.
         13    1    1    2    0    0  0.31025098653E+03 -0.14547497266E+03  0.74175710200E+03  0.81708154541E+03  0.10566000000E+00 0. -1.
        994    1    1    2    0    0 -0.31514423952E+03  0.14760993773E+03  0.74754754826E+03  0.84216468836E+03  0.17120000000E+03 0.  0.
        998    1    1    2    0    0  0.48932529841E+01 -0.21349650675E+01  0.10695346023E+02  0.11953766233E+02  0.10000000000E-01 0.  1.
</event>
<event>
 5    1  0.3934322E-009  0.3883009E+03  0.7957747E-01  0.3415792E+00
         13   -1    0    0    0    0  0.00000000000E+00  0.00000000000E+00  0.14999999963E+04  0.15000000000E+04  0.10566000000E+00 0.  1.
        994   -1    0    0    0    0 -0.00000000000E+00 -0.00000000000E+00  0.11368683772E-12  0.17120000000E+03  0.17120000000E+03 0.  0.
         13    1    1    2    0    0 -0.24765167946E+03  0.11897775988E+02  0.12380123330E+04  0.12625955248E+04  0.10566000000E+00 0.  1.
        994    1    1    2    0    0  0.25135635838E+03 -0.12097962300E+02  0.24358801983E+03  0.38983450719E+03  0.17120000000E+03 0.  0.
        998    1    1    2    0    0 -0.37046789158E+01  0.20018631244E+00  0.18399643398E+02  0.18769967971E+02  0.10000000000E-01 0.  1.
</event>
<event>
 5    1  0.3934322E-009  0.3883003E+03  0.7957747E-01  0.3415795E+00
         13   -1    0    0    0    0  0.00000000000E+00  0.00000000000E+00  0.14999999963E+04  0.15000000000E+04  0.10566000000E+00 0. -1.
        994   -1    0    0    0    0 -0.00000000000E+00 -0.00000000000E+00  0.11368683772E-12  0.17120000000E+03  0.17120000000E+03 0.  0.
         13    1    1    2    0    0 -0.13801518355E+03  0.17998970019E+03  0.13091396359E+04  0.13286425706E+04  0.10566000000E+00 0. -1.
        994    1    1    2    0    0  0.13807188783E+03 -0.18004432931E+03  0.19045356458E+03  0.34214296279E+03  0.17120000000E+03 0.  0.
        998    1    1    2    0    0 -0.56704281988E-01  0.54629123915E-01  0.40679584223E+00  0.41446661389E+00  0.10000000000E-01 0. -1.
</event>
<event>
 5    1  0.3934322E-009  0.3883007E+03  0.7957747E-01  0.3415793E+00
         13   -1    0    0    0    0  0.00000000000E+00  0.00000000000E+00  0.14999999963E+04  0.15000000000E+04  0.10566000000E+00 0. -1.
        994   -1    0    0    0    0 -0.00000000000E+00 -0.00000000000E+00  0.11368683772E-12  0.17120000000E+03  0.17120000000E+03 0.  0.
         13    1    1    2    0    0  0.13839080086E+03  0.19274913327E+03  0.12840239373E+04  0.13057648046E+04  0.10566000000E+00 0. -1.
        994    1    1    2    0    0 -0.13876213518E+03 -0.19323528183E+03  0.21279547081E+03  0.36219629581E+03  0.17120000000E+03 0.  0.
        998    1    1    2    0    0  0.37133431471E+00  0.48614856095E+00  0.31805881536E+01  0.32388995970E+01  0.10000000000E-01 0. -1.
</event>
<event>
 5    1  0.3934322E-009  0.3883007E+03  0.7957747E-01  0.3415793E+00
         13   -1    0    0    0    0  0.00000000000E+00  0.00000000000E+00  0.14999999963E+04  0.15000000000E+04  0.10566000000E+00 0.  1.
        994   -1    0    0    0    0 -0.00000000000E+00 -0.00000000000E+00  0.11368683772E-12  0.17120000000E+03  0.17120000000E+03 0.  0.
         13    1    1    2    0    0  0.56320166320E+02  0.24792711893E+03  0.12106527192E+04  0.12370609666E+04  0.10566000000E+00 0.  1.
        994    1    1    2    0    0 -0.57585963541E+02 -0.25329884256E+03  0.26346819366E+03  0.40767802971E+03  0.17120000000E+03 0.  0.
        998    1    1    2    0    0  0.12657972202E+01  0.53717236259E+01  0.25879083451E+02  0.26461003715E+02  0.10000000000E-01 0. -1.
</event>
<event>
 5    1  0.3934322E-009  0.3882559E+03  0.7957747E-01  0.3415980E+00
         13   -1    0    0    0    0  0.00000000000E+00  0.00000000000E+00  0.14999999963E+04  0.15000000000E+04  0.10566000000E+00 0. -1.
        994   -1    0    0    0    0 -0.00000000000E+00 -0.00000000000E+00  0.11368683772E-12  0.17120000000E+03  0.17120000000E+03 0.  0.
         13    1    1    2    0    0 -0.20390680344E+03  0.22347606514E+03  0.11015602903E+04  0.11423461036E+04  0.10566000000E+00 0. -1.
        994    1    1    2    0    0  0.20392442176E+03 -0.22355867669E+03  0.39834286753E+03  0.52872500587E+03  0.17120000000E+03 0.  0.
        998    1    1    2    0    0 -0.17618325686E-01  0.82611550343E-01  0.96838441051E-01  0.12889048574E+00  0.10000000000E-01 0.  0.
</event>
<event>
 5    1  0.3934322E-009  0.3883007E+03  0.7957747E-01  0.3415793E+00
         13   -1    0    0    0    0  0.00000000000E+00  0.00000000000E+00  0.14999999963E+04  0.15000000000E+04  0.10566000000E+00 0. -1.
        994   -1    0    0    0    0 -0.00000000000E+00 -0.00000000000E+00  0.11368683772E-12  0.17120000000E+03  0.17120000000E+03 0.  0.
         13    1    1    2    0    0 -0.14568004318E+03 -0.15562084618E+03  0.11776435637E+04  0.11967810564E+04  0.10566000000E+00 0. -1.
        994    1    1    2    0    0  0.16033591043E+03  0.17100053484E+03  0.20551256991E+03  0.35565944874E+03  0.17120000000E+03 0.  0.
        998    1    1    2    0    0 -0.14655867256E+02 -0.15379688657E+02  0.11684386270E+03  0.11875949486E+03  0.10000000000E-01 0. -1.
</event>
<event>
 5    1  0.3934322E-009  0.3882901E+03  0.7957747E-01  0.3415837E+00
         13   -1    0    0    0    0  0.00000000000E+00  0.00000000000E+00  0.14999999963E+04  0.15000000000E+04  0.10566000000E+00 0.  1.
        994   -1    0    0    0    0 -0.00000000000E+00 -0.00000000000E+00  0.11368683772E-12  0.17120000000E+03  0.17120000000E+03 0.  0.
         13    1    1    2    0    0  0.28030831842E+03 -0.80029925811E+02  0.11394823492E+04  0.11761792285E+04  0.10566000000E+00 0.  1.
        994    1    1    2    0    0 -0.28073136157E+03  0.80003755310E+02  0.35863700513E+03  0.49309293209E+03  0.17120000000E+03 0.  0.
        998    1    1    2    0    0  0.42304314583E+00  0.26170500594E-01  0.18806419678E+01  0.19278393630E+01  0.10000000000E-01 0.  1.
</event>
<event>
 5    1  0.3934322E-009  0.3883009E+03  0.7957747E-01  0.3415792E+00
         13   -1    0    0    0    0  0.00000000000E+00  0.00000000000E+00  0.14999999963E+04  0.15000000000E+04  0.10566000000E+00 0.  1.
        994   -1    0    0    0    0 -0.00000000000E+00 -0.00000000000E+00  0.11368683772E-12  0.17120000000E+03  0.17120000000E+03 0.  0.
         13    1    1    2    0    0  0.31219504802E+03 -0.52275191365E+02  0.10348132645E+04  0.10821446055E+04  0.10566000000E+00 0.  1.
        994    1    1    2    0    0 -0.31285252533E+03  0.52387848703E+02  0.46300805494E+03  0.58677686410E+03  0.17120000000E+03 0.  0.
        998    1    1    2    0    0  0.65747731030E+00 -0.11265733843E+00  0.21786768562E+01  0.22785304328E+01  0.10000000000E-01 0.  0.
</event>
<event>
 5    1  0.3934322E-009  0.3871734E+03  0.7957747E-01  0.3420506E+00
         13   -1    0    0    0    0  0.00000000000E+00  0.00000000000E+00  0.14999999963E+04  0.15000000000E+04  0.10566000000E+00 0.  1.
        994   -1    0    0    0    0 -0.00000000000E+00 -0.00000000000E+00  0.11368683772E-12  0.17120000000E+03  0.17120000000E+03 0.  0.
         13    1    1    2    0    0  0.56648088843E+02 -0.18736209581E+03  0.10899583204E+04  0.11073945603E+04  0.10566000000E+00 0.  1.
        994    1    1    2    0    0 -0.58534127744E+02  0.21132469873E+03  0.17744595922E+03  0.32997103031E+03  0.17120000000E+03 0.  0.
        998    1    1    2    0    0  0.18860389012E+01 -0.23962602921E+02  0.23259571669E+03  0.23383440936E+03  0.10000000000E-01 0.  1.
</event>
<event>
 5    1  0.3934322E-009  0.3883009E+03  0.7957747E-01  0.3415792E+00
         13   -1    0    0    0    0  0.00000000000E+00  0.00000000000E+00  0.14999999963E+04  0.15000000000E+04  0.10566000000E+00 0.  1.
        994   -1    0    0    0    0 -0.00000000000E+00 -0.00000000000E+00  0.11368683772E-12  0.17120000000E+03  0.17120000000E+03 0.  0.
         13    1    1    2    0    0 -0.56885159347E+02  0.14448245763E+03  0.48783061762E+03  0.51194709157E+03  0.10566000000E+00 0.  1.
        994    1    1    2    0    0  0.11778104300E+03 -0.29985087898E+03  0.48886246676E+03  0.60998268428E+03  0.17120000000E+03 0.  0.
        998    1    1    2    0    0 -0.60895883652E+02  0.15536842135E+03  0.52330691190E+03  0.54927022416E+03  0.10000000000E-01 0.  1.
</event>
<event>
 5    1  0.3934322E-009  0.3883006E+03  0.7957747E-01  0.3415793E+00
         13   -1    0    0    0    0  0.00000000000E+00  0.00000000000E+00  0.14999999963E+04  0.15000000000E+04  0.10566000000E+00 0.  1.
        994   -1    0    0    0    0 -0.00000000000E+00 -0.00000000000E+00  0.11368683772E-12  0.17120000000E+03  0.17120000000E+03 0.  0.
         13    1    1    2    0    0  0.71257152464E+02  0.20721472979E+03  0.10135329080E+04  0.10369496096E+04  0.10566000000E+00 0.  1.
        994    1    1    2    0    0 -0.85936712614E+02 -0.25005512500E+03  0.27549581294E+03  0.41847349624E+03  0.17120000000E+03 0.  0.
        998    1    1    2    0    0  0.14679560150E+02  0.42840395203E+02  0.21097127533E+03  0.21577689418E+03  0.10000000000E-01 0.  1.
</event>
<event>
 5    1  0.3934322E-009  0.3882993E+03  0.7957747E-01  0.3415799E+00
         13   -1    0    0    0    0  0.00000000000E+00  0.00000000000E+00  0.14999999963E+04  0.15000000000E+04  0.10566000000E+00 0. -1.
        994   -1    0    0    0    0 -0.00000000000E+00 -0.00000000000E+00  0.11368683772E-12  0.17120000000E+03  0.17120000000E+03 0.  0.
         13    1    1    2    0    0 -0.71838731758E+02  0.72880652830E+02  0.37466882682E+03  0.38839301473E+03  0.10566000000E+00 0. -1.
        994    1    1    2    0    0  0.21087381040E+03 -0.21435252038E+03  0.39080780777E+03  0.52197217312E+03  0.17120000000E+03 0.  0.
        998    1    1    2    0    0 -0.13903507864E+03  0.14147186755E+03  0.73452336169E+03  0.76083481215E+03  0.10000000000E-01 0. -1.
</event>
<event>
 5    1  0.3934322E-009  0.3883002E+03  0.7957747E-01  0.3415795E+00
         13   -1    0    0    0    0  0.00000000000E+00  0.00000000000E+00  0.14999999963E+04  0.15000000000E+04  0.10566000000E+00 0.  1.
        994   -1    0    0    0    0 -0.00000000000E+00 -0.00000000000E+00  0.11368683772E-12  0.17120000000E+03  0.17120000000E+03 0.  0.
         13    1    1    2    0    0  0.21167452953E+03  0.12318419193E+03  0.11544204803E+04  0.11801131760E+04  0.10566000000E+00 0.  1.
        994    1    1    2    0    0 -0.22614738131E+03 -0.13133898652E+03  0.26795935024E+03  0.41170890303E+03  0.17120000000E+03 0.  0.
        998    1    1    2    0    0  0.14472851776E+02  0.81547945843E+01  0.77620165708E+02  0.79377920972E+02  0.10000000000E-01 0.  1.
</event>
<event>
 5    1  0.3934322E-009  0.3883008E+03  0.7957747E-01  0.3415792E+00
         13   -1    0    0    0    0  0.00000000000E+00  0.00000000000E+00  0.14999999963E+04  0.15000000000E+04  0.10566000000E+00 0.  1.
        994   -1    0    0    0    0 -0.00000000000E+00 -0.00000000000E+00  0.11368683772E-12  0.17120000000E+03  0.17120000000E+03 0.  0.
         13    1    1    2    0    0 -0.22051443384E+03  0.60127517489E+02  0.12913118798E+04  0.13113841222E+04  0.10566000000E+00 0.  1.
        994    1    1    2    0    0  0.22242844827E+03 -0.60663407359E+02  0.19767511833E+03  0.34862495034E+03  0.17120000000E+03 0.  0.
        998    1    1    2    0    0 -0.19140144257E+01  0.53588987021E+00  0.11012998129E+02  0.11190927440E+02  0.10000000000E-01 0.  1.
</event>
<event>
 5    1  0.3934322E-009  0.3882995E+03  0.7957747E-01  0.3415798E+00
         13   -1    0    0    0    0  0.00000000000E+00  0.00000000000E+00  0.14999999963E+04  0.15000000000E+04  0.10566000000E+00 0. -1.
        994   -1    0    0    0    0 -0.00000000000E+00 -0.00000000000E+00  0.11368683772E-12  0.17120000000E+03  0.17120000000E+03 0.  0.
         13    1    1    2    0    0 -0.21879781003E+03  0.19734355686E+03  0.10633638965E+04  0.11034308989E+04  0.10566000000E+00 0. -1.
        994    1    1    2    0    0  0.22583159915E+03 -0.20333476868E+03  0.40342832483E+03  0.53329990869E+03  0.17120000000E+03 0.  0.
        998    1    1    2    0    0 -0.70337891291E+01  0.59912118139E+01  0.33207774973E+02  0.34469192435E+02  0.10000000000E-01 0. -1.
</event>
<event>
 5    1  0.3934322E-009  0.3882264E+03  0.7957747E-01  0.3416103E+00
         13   -1    0    0    0    0  0.00000000000E+00  0.00000000000E+00  0.14999999963E+04  0.15000000000E+04  0.10566000000E+00 0. -1.
        994   -1    0    0    0    0 -0.00000000000E+00 -0.00000000000E+00  0.11368683772E-12  0.17120000000E+03  0.17120000000E+03 0.  0.
         13    1    1    2    0    0 -0.19783336172E+03 -0.11075260229E+03  0.12627453202E+04  0.12829380081E+04  0.10566000000E+00 0. -1.
        994    1    1    2    0    0  0.20200182506E+03  0.11492120398E+03  0.20150688508E+03  0.35203136960E+03  0.17120000000E+03 0.  0.
        998    1    1    2    0    0 -0.41684633373E+01 -0.41686016881E+01  0.35747791007E+02  0.36230622248E+02  0.10000000000E-01 0. -1.
</event>
<event>
 5    1  0.3934322E-009  0.3882901E+03  0.7957747E-01  0.3415837E+00
         13   -1    0    0    0    0  0.00000000000E+00  0.00000000000E+00  0.14999999963E+04  0.15000000000E+04  0.10566000000E+00 0.  1.
        994   -1    0    0    0    0 -0.00000000000E+00 -0.00000000000E+00  0.11368683772E-12  0.17120000000E+03  0.17120000000E+03 0.  0.
         13    1    1    2    0    0  0.10166632441E+03 -0.22948206234E+03  0.12566128056E+04  0.12814342796E+04  0.10566000000E+00 0.  1.
        994    1    1    2    0    0 -0.10183370795E+03  0.22964563047E+03  0.24257573919E+03  0.38892113457E+03  0.17120000000E+03 0.  0.
        998    1    1    2    0    0  0.16738354124E+00 -0.16356813825E+00  0.81145146247E+00  0.84458585216E+00  0.10000000000E-01 0.  1.
</event>
<event>
 5    1  0.3934322E-009  0.3879951E+03  0.7957747E-01  0.3417068E+00
         13   -1    0    0    0    0  0.00000000000E+00  0.00000000000E+00  0.14999999963E+04  0.15000000000E+04  0.10566000000E+00 0. -1.
        994   -1    0    0    0    0 -0.00000000000E+00 -0.00000000000E+00  0.11368683772E-12  0.17120000000E+03  0.17120000000E+03 0.  0.
         13    1    1    2    0    0 -0.20702538707E+03  0.14936706510E+03  0.11700022202E+04  0.11975288044E+04  0.10566000000E+00 0. -1.
        994    1    1    2    0    0  0.21491506438E+03 -0.15235724689E+03  0.27350577420E+03  0.41655259464E+03  0.17120000000E+03 0.  0.
        998    1    1    2    0    0 -0.78896773113E+01  0.29901817907E+01  0.56492001892E+02  0.57118600937E+02  0.10000000000E-01 0. -1.
</event>
<event>
 5    1  0.3934322E-009  0.3883000E+03  0.7957747E-01  0.3415796E+00
         13   -1    0    0    0    0  0.00000000000E+00  0.00000000000E+00  0.14999999963E+04  0.15000000000E+04  0.10566000000E+00 0. -1.
        994   -1    0    0    0    0 -0.00000000000E+00 -0.00000000000E+00  0.11368683772E-12  0.17120000000E+03  0.17120000000E+03 0.  0.
         13    1    1    2    0    0 -0.20869545869E+03  0.20588307556E+03  0.11244157632E+04  0.11620036381E+04  0.10566000000E+00 0. -1.
        994    1    1    2    0    0  0.20983658387E+03 -0.20713366390E+03  0.36901056373E+03  0.50240818344E+03  0.17120000000E+03 0.  0.
        998    1    1    2    0    0 -0.11411251846E+01  0.12505883375E+01  0.65736693702E+01  0.67881784645E+01  0.10000000000E-01 0. -1.
</event>
<event>
 5    1  0.3934322E-009  0.3882995E+03  0.7957747E-01  0.3415798E+00
         13   -1    0    0    0    0  0.00000000000E+00  0.00000000000E+00  0.14999999963E+04  0.15000000000E+04  0.10566000000E+00 0. -1.
        994   -1    0    0    0    0 -0.00000000000E+00 -0.00000000000E+00  0.11368683772E-12  0.17120000000E+03  0.17120000000E+03 0.  0.
         13    1    1    2    0    0 -0.85593542040E+02 -0.21850723618E+03  0.12910622396E+04  0.13122169731E+04  0.10566000000E+00 0. -1.
        994    1    1    2    0    0  0.85788948296E+02  0.21884751031E+03  0.20685769148E+03  0.35686625077E+03  0.17120000000E+03 0.  0.
        998    1    1    2    0    0 -0.19540625602E+00 -0.34027412761E+00  0.20800651952E+01  0.21167761580E+01  0.10000000000E-01 0.  1.
</event>
<event>
 5    1  0.3934322E-009  0.3869077E+03  0.7957747E-01  0.3421622E+00
         13   -1    0    0    0    0  0.00000000000E+00  0.00000000000E+00  0.14999999963E+04  0.15000000000E+04  0.10566000000E+00 0. -1.
        994   -1    0    0    0    0 -0.00000000000E+00 -0.00000000000E+00  0.11368683772E-12  0.17120000000E+03  0.17120000000E+03 0.  0.
         13    1    1    2    0    0  0.64950747430E+02  0.30256987057E+02  0.38696145036E+03  0.39353940093E+03  0.10566000000E+00 0. -1.
        994    1    1    2    0    0 -0.15689788773E+03 -0.11371189888E+03  0.13484297323E+03  0.29161517545E+03  0.17120000000E+03 0.  0.
        998    1    1    2    0    0  0.91947140299E+02  0.83454911827E+02  0.97819557269E+03  0.98604542362E+03  0.10000000000E-01 0. -1.
</event>
<event>
 5    1  0.3934322E-009  0.3882451E+03  0.7957747E-01  0.3416025E+00
         13   -1    0    0    0    0  0.00000000000E+00  0.00000000000E+00  0.14999999963E+04  0.15000000000E+04  0.10566000000E+00 0.  1.
        994   -1    0    0    0    0 -0.00000000000E+00 -0.00000000000E+00  0.11368683772E-12  0.17120000000E+03  0.17120000000E+03 0.  0.
         13    1    1    2    0    0 -0.13768381601E+03  0.21425344434E+03  0.12206044560E+04  0.12468907814E+04  0.10566000000E+00 0.  1.
        994    1    1    2    0    0  0.13952951162E+03 -0.21679579535E+03  0.25866920879E+03  0.40334613060E+03  0.17120000000E+03 0.  0.
        998    1    1    2    0    0 -0.18456956025E+01  0.25423510060E+01  0.20726331464E+02  0.20963087961E+02  0.10000000000E-01 0. -1.
</event>
<event>
 5    1  0.3934322E-009  0.3871565E+03  0.7957747E-01  0.3420578E+00
         13   -1    0    0    0    0  0.00000000000E+00  0.00000000000E+00  0.14999999963E+04  0.15000000000E+04  0.10566000000E+00 0.  1.
        994   -1    0    0    0    0 -0.00000000000E+00 -0.00000000000E+00  0.11368683772E-12  0.17120000000E+03  0.17120000000E+03 0.  0.
         13    1    1    2    0    0  0.19330292271E+02 -0.25571314954E+02  0.17790643722E+03  0.18077130280E+03  0.10566000000E+00 0.  1.
        994    1    1    2    0    0 -0.14012308940E+03  0.93658808531E+02  0.99555495542E+02  0.26005228184E+03  0.17120000000E+03 0.  0.
        998    1    1    2    0    0  0.12079279713E+03 -0.68087493577E+02  0.12225380635E+04  0.12303764154E+04  0.10000000000E-01 0.  1.
</event>
<event>
 5    1  0.3934322E-009  0.3882736E+03  0.7957747E-01  0.3415906E+00
         13   -1    0    0    0    0  0.00000000000E+00  0.00000000000E+00  0.14999999963E+04  0.15000000000E+04  0.10566000000E+00 0. -1.
        994   -1    0    0    0    0 -0.00000000000E+00 -0.00000000000E+00  0.11368683772E-12  0.17120000000E+03  0.17120000000E+03 0.  0.
         13    1    1    2    0    0  0.21125839625E+03 -0.15044429136E+03  0.92776979263E+03  0.96333815146E+03  0.10566000000E+00 0. -1.
        994    1    1    2    0    0 -0.24906674267E+03  0.17832506465E+03  0.41353834567E+03  0.54236286223E+03  0.17120000000E+03 0.  0.
        998    1    1    2    0    0  0.37808346420E+02 -0.27880773297E+02  0.15869185798E+03  0.16549898631E+03  0.10000000000E-01 0.  1.
</event>
<event>
 5    1  0.3934322E-009  0.3875839E+03  0.7957747E-01  0.3418787E+00
         13   -1    0    0    0    0  0.00000000000E+00  0.00000000000E+00  0.14999999963E+04  0.15000000000E+04  0.10566000000E+00 0.  1.
        994   -1    0    0    0    0 -0.00000000000E+00 -0.00000000000E+00  0.11368683772E-12  0.17120000000E+03  0.17120000000E+03 0.  0.
         13    1    1    2    0    0 -0.23978787073E+03  0.26914086823E+02  0.12216011826E+04  0.12452036185E+04  0.10566000000E+00 0.  1.
        994    1    1    2    0    0  0.24385943514E+03 -0.31739798658E+02  0.23143803581E+03  0.37861305226E+03  0.17120000000E+03 0.  0.
        998    1    1    2    0    0 -0.40715644095E+01  0.48257118353E+01  0.46960777912E+02  0.47383329279E+02  0.10000000000E-01 0. -1.
</event>
<event>
 5    1  0.3934322E-009  0.3876246E+03  0.7957747E-01  0.3418617E+00
         13   -1    0    0    0    0  0.00000000000E+00  0.00000000000E+00  0.14999999963E+04  0.15000000000E+04  0.10566000000E+00 0.  1.
        994   -1    0    0    0    0 -0.00000000000E+00 -0.00000000000E+00  0.11368683772E-12  0.17120000000E+03  0.17120000000E+03 0.  0.
         13    1    1    2    0    0  0.49092367057E+02  0.20169194514E+03  0.11934913539E+04  0.12114088180E+04  0.10566000000E+00 0.  1.
        994    1    1    2    0    0 -0.52519839061E+02 -0.21320099888E+03  0.17743470586E+03  0.33015983139E+03  0.17120000000E+03 0.  0.
        998    1    1    2    0    0  0.34274720037E+01  0.11509053740E+02  0.12907393651E+03  0.12963135064E+03  0.10000000000E-01 0.  1.
</event>
<event>
 5    1  0.3934322E-009  0.3882324E+03  0.7957747E-01  0.3416078E+00
         13   -1    0    0    0    0  0.00000000000E+00  0.00000000000E+00  0.14999999963E+04  0.15000000000E+04  0.10566000000E+00 0. -1.
        994   -1    0    0    0    0 -0.00000000000E+00 -0.00000000000E+00  0.11368683772E-12  0.17120000000E+03  0.17120000000E+03 0.  0.
         13    1    1    2    0    0  0.32971776922E+03  0.16081474220E+01  0.91595575677E+03  0.97349440317E+03  0.10566000000E+00 0. -1.
        994    1    1    2    0    0 -0.33429277259E+03 -0.14817177611E+01  0.56741464161E+03  0.68045769068E+03  0.17120000000E+03 0.  0.
        998    1    1    2    0    0  0.45750033652E+01 -0.12642966086E+00  0.16629597894E+02  0.17247906145E+02  0.10000000000E-01 0. -1.
</event>
<event>
 5    1  0.3934322E-009  0.3882991E+03  0.7957747E-01  0.3415800E+00
         13   -1    0    0    0    0  0.00000000000E+00  0.00000000000E+00  0.14999999963E+04  0.15000000000E+04  0.10566000000E+00 0. -1.
        994   -1    0    0    0    0 -0.00000000000E+00 -0.00000000000E+00  0.11368683772E-12  0.17120000000E+03  0.17120000000E+03 0.  0.
         13    1    1    2    0    0  0.14647428007E+03 -0.18183646971E+03  0.96562875067E+03  0.99345765472E+03  0.10566000000E+00 0. -1.
        994    1    1    2    0    0 -0.17741150304E+03  0.22102038576E+03  0.33043362387E+03  0.46778271892E+03  0.17120000000E+03 0.  0.
        998    1    1    2    0    0  0.30937222979E+02 -0.39183916046E+02  0.20393762174E+03  0.20995962636E+03  0.10000000000E-01 0. -1.
</event>
<event>
 5    1  0.3934322E-009  0.3840936E+03  0.7957747E-01  0.3433525E+00
         13   -1    0    0    0    0  0.00000000000E+00  0.00000000000E+00  0.14999999963E+04  0.15000000000E+04  0.10566000000E+00 0.  1.
        994   -1    0    0    0    0 -0.00000000000E+00 -0.00000000000E+00  0.11368683772E-12  0.17120000000E+03  0.17120000000E+03 0.  0.
         13    1    1    2    0    0 -0.10189307457E+03  0.10269672375E+03  0.82280887751E+03  0.83542999454E+03  0.10566000000E+00 0.  1.
        994    1    1    2    0    0  0.14864947732E+03 -0.11051242372E+03  0.12491946820E+03  0.28146754065E+03  0.17120000000E+03 0.  0.
        998    1    1    2    0    0 -0.46756402748E+02  0.78156999695E+01  0.55227165057E+03  0.55430246480E+03  0.10000000000E-01 0.  1.
</event>
<event>
 5    1  0.3934322E-009  0.3883007E+03  0.7957747E-01  0.3415793E+00
         13   -1    0    0    0    0  0.00000000000E+00  0.00000000000E+00  0.14999999963E+04  0.15000000000E+04  0.10566000000E+00 0.  1.
        994   -1    0    0    0    0 -0.00000000000E+00 -0.00000000000E+00  0.11368683772E-12  0.17120000000E+03  0.17120000000E+03 0.  0.
         13    1    1    2    0    0  0.23596142972E+03 -0.20883220265E+02  0.12851985076E+04  0.13068470149E+04  0.10566000000E+00 0.  1.
        994    1    1    2    0    0 -0.23651335905E+03  0.20904513238E+02  0.21182012623E+03  0.36132087341E+03  0.17120000000E+03 0.  0.
        998    1    1    2    0    0  0.55192933660E+00 -0.21292972793E-01  0.29813624009E+01  0.30321116649E+01  0.10000000000E-01 0. -1.
</event>
<event>
 5    1  0.3934322E-009  0.3883007E+03  0.7957747E-01  0.3415793E+00
         13   -1    0    0    0    0  0.00000000000E+00  0.00000000000E+00  0.14999999963E+04  0.15000000000E+04  0.10566000000E+00 0. -1.
        994   -1    0    0    0    0 -0.00000000000E+00 -0.00000000000E+00  0.11368683772E-12  0.17120000000E+03  0.17120000000E+03 0.  0.
         13    1    1    2    0    0  0.12026157224E+02  0.19139135673E+03  0.11138777287E+04  0.11302649626E+04  0.10566000000E+00 0. -1.
        994    1    1    2    0    0 -0.14331797904E+02 -0.22519110453E+03  0.18804298527E+03  0.33997946747E+03  0.17120000000E+03 0.  0.
        998    1    1    2    0    0  0.23056406801E+01  0.33799747801E+02  0.19807928228E+03  0.20095556997E+03  0.10000000000E-01 0. -1.
</event>
<event>
 5    1  0.3934322E-009  0.3882998E+03  0.7957747E-01  0.3415797E+00
         13   -1    0    0    0    0  0.00000000000E+00  0.00000000000E+00  0.14999999963E+04  0.15000000000E+04  0.10566000000E+00 0. -1.
        994   -1    0    0    0    0 -0.00000000000E+00 -0.00000000000E+00  0.11368683772E-12  0.17120000000E+03  0.17120000000E+03 0.  0.
         13    1    1    2    0    0  0.19736375713E+03  0.18346611061E+03  0.11757029929E+04  0.12061881300E+04  0.10566000000E+00 0. -1.
        994    1    1    2    0    0 -0.20103426474E+03 -0.18685372867E+03  0.30330076514E+03  0.44342968513E+03  0.17120000000E+03 0.  0.
        998    1    1    2    0    0  0.36705076083E+01  0.33876180534E+01  0.20996238260E+02  0.21582184858E+02  0.10000000000E-01 0.  1.
</event>
<event>
 5    1  0.3934322E-009  0.3883009E+03  0.7957747E-01  0.3415792E+00
         13   -1    0    0    0    0  0.00000000000E+00  0.00000000000E+00  0.14999999963E+04  0.15000000000E+04  0.10566000000E+00 0. -1.
        994   -1    0    0    0    0 -0.00000000000E+00 -0.00000000000E+00  0.11368683772E-12  0.17120000000E+03  0.17120000000E+03 0.  0.
         13    1    1    2    0    0 -0.86334355223E+02 -0.21064174077E+03  0.13005961068E+04  0.13203688151E+04  0.10566000000E+00 0. -1.
        994    1    1    2    0    0  0.86701601254E+02  0.21153458690E+03  0.19382406357E+03  0.34516844690E+03  0.17120000000E+03 0.  0.
        998    1    1    2    0    0 -0.36724603075E+00 -0.89284613778E+00  0.55798259227E+01  0.56627379597E+01  0.10000000000E-01 0.  0.
</event>
<event>
 5    1  0.3934322E-009  0.3882946E+03  0.7957747E-01  0.3415818E+00
         13   -1    0    0    0    0  0.00000000000E+00  0.00000000000E+00  0.14999999963E+04  0.15000000000E+04  0.10566000000E+00 0. -1.
        994   -1    0    0    0    0 -0.00000000000E+00 -0.00000000000E+00  0.11368683772E-12  0.17120000000E+03  0.17120000000E+03 0.  0.
         13    1    1    2    0    0  0.14701850809E+03  0.36368765137E+02  0.89256046920E+03  0.90531835900E+03  0.10566000000E+00 0. -1.
        994    1    1    2    0    0 -0.21838076364E+03 -0.54026618454E+02  0.18673963025E+03  0.33880697002E+03  0.17120000000E+03 0.  0.
        998    1    1    2    0    0  0.71362255545E+02  0.17657853317E+02  0.42069989683E+03  0.42707467098E+03  0.10000000000E-01 0. -1.
</event>
<event>
 5    1  0.3934322E-009  0.3882967E+03  0.7957747E-01  0.3415810E+00
         13   -1    0    0    0    0  0.00000000000E+00  0.00000000000E+00  0.14999999963E+04  0.15000000000E+04  0.10566000000E+00 0. -1.
        994   -1    0    0    0    0 -0.00000000000E+00 -0.00000000000E+00  0.11368683772E-12  0.17120000000E+03  0.17120000000E+03 0.  0.
         13    1    1    2    0    0 -0.15716727928E+03 -0.22172573051E+03  0.11990635768E+04  0.12294784771E+04  0.10566000000E+00 0. -1.
        994    1    1    2    0    0  0.15761539948E+03  0.22239999292E+03  0.29792653182E+03  0.43860463901E+03  0.17120000000E+03 0.  0.
        998    1    1    2    0    0 -0.44812019788E+00 -0.67426241359E+00  0.30098876816E+01  0.31168839199E+01  0.10000000000E-01 0.  1.
</event>
<event>
 5    1  0.3934322E-009  0.3883006E+03  0.7957747E-01  0.3415794E+00
         13   -1    0    0    0    0  0.00000000000E+00  0.00000000000E+00  0.14999999963E+04  0.15000000000E+04  0.10566000000E+00 0. -1.
        994   -1    0    0    0    0 -0.00000000000E+00 -0.00000000000E+00  0.11368683772E-12  0.17120000000E+03  0.17120000000E+03 0.  0.
         13    1    1    2    0    0  0.23330012545E+03 -0.31521506819E+02  0.12875523821E+04  0.13088978959E+04  0.10566000000E+00 0. -1.
        994    1    1    2    0    0 -0.23394499774E+03  0.31570271432E+02  0.20894435298E+03  0.35873963630E+03  0.17120000000E+03 0.  0.
        998    1    1    2    0    0  0.64487229087E+00 -0.48764613268E-01  0.35032611544E+01  0.35624678209E+01  0.10000000000E-01 0. -1.
</event>
<event>
 5    1  0.3934322E-009  0.3873205E+03  0.7957747E-01  0.3419890E+00
         13   -1    0    0    0    0  0.00000000000E+00  0.00000000000E+00  0.14999999963E+04  0.15000000000E+04  0.10566000000E+00 0.  1.
        994   -1    0    0    0    0 -0.00000000000E+00 -0.00000000000E+00  0.11368683772E-12  0.17120000000E+03  0.17120000000E+03 0.  0.
         13    1    1    2    0    0 -0.68969326755E+02 -0.50735389909E+02  0.37907134979E+03  0.38862056973E+03  0.10566000000E+00 0.  1.
        994    1    1    2    0    0  0.17436709082E+03  0.16408351264E+03  0.21748511982E+03  0.36597335808E+03  0.17120000000E+03 0.  0.
        998    1    1    2    0    0 -0.10539776407E+03 -0.11334812273E+03  0.90344352667E+03  0.91660607219E+03  0.10000000000E-01 0.  1.
</event>
<event>
 5    1  0.3934322E-009  0.3883009E+03  0.7957747E-01  0.3415792E+00
         13   -1    0    0    0    0  0.00000000000E+00  0.00000000000E+00  0.14999999963E+04  0.15000000000E+04  0.10566000000E+00 0. -1.
        994   -1    0    0    0    0 -0.00000000000E+00 -0.00000000000E+00  0.11368683772E-12  0.17120000000E+03  0.17120000000E+03 0.  0.
         13    1    1    2    0    0 -0.72360839420E+02 -0.30158150006E+03  0.10560572165E+04  0.11006563260E+04  0.10566000000E+00 0. -1.
        994    1    1    2    0    0  0.72802022918E+02  0.30331127025E+03  0.43787031556E+03  0.56421424516E+03  0.17120000000E+03 0.  0.
        998    1    1    2    0    0 -0.44118349739E+00 -0.17297701830E+01  0.60724641838E+01  0.63294288074E+01  0.10000000000E-01 0.  0.
</event>
<event>
 5    1  0.3934322E-009  0.3882986E+03  0.7957747E-01  0.3415802E+00
         13   -1    0    0    0    0  0.00000000000E+00  0.00000000000E+00  0.14999999963E+04  0.15000000000E+04  0.10566000000E+00 0.  1.
        994   -1    0    0    0    0 -0.00000000000E+00 -0.00000000000E+00  0.11368683772E-12  0.17120000000E+03  0.17120000000E+03 0.  0.
         13    1    1    2    0    0 -0.81879483440E+02 -0.30028316824E+03  0.10603993913E+04  0.11051339788E+04  0.10566000000E+00 0.  1.
        994    1    1    2    0    0  0.81959406489E+02  0.30087755585E+03  0.43749065685E+03  0.56387247030E+03  0.17120000000E+03 0.  0.
        998    1    1    2    0    0 -0.79923048638E-01 -0.59438760516E+00  0.21099481221E+01  0.21935508649E+01  0.10000000000E-01 0. -1.
</event>
<event>
 5    1  0.3934322E-009  0.3882992E+03  0.7957747E-01  0.3415799E+00
         13   -1    0    0    0    0  0.00000000000E+00  0.00000000000E+00  0.14999999963E+04  0.15000000000E+04  0.10566000000E+00 0.  1.
        994   -1    0    0    0    0 -0.00000000000E+00 -0.00000000000E+00  0.11368683772E-12  0.17120000000E+03  0.17120000000E+03 0.  0.
         13    1    1    2    0    0 -0.23481992395E+03 -0.65899766419E+02  0.12724819929E+04  0.12956440906E+04  0.10566000000E+00 0.  1.
        994    1    1    2    0    0  0.23501344101E+03  0.65937214230E+02  0.22624139294E+03  0.37426413341E+03  0.17120000000E+03 0.  0.
        998    1    1    2    0    0 -0.19351706433E+00 -0.37447811348E-01  0.12766103946E+01  0.12917760226E+01  0.10000000000E-01 0. -1.
</event>
<event>
 5    1  0.3934322E-009  0.3882426E+03  0.7957747E-01  0.3416035E+00
         13   -1    0    0    0    0  0.00000000000E+00  0.00000000000E+00  0.14999999963E+04  0.15000000000E+04  0.10566000000E+00 0.  1.
        994   -1    0    0    0    0 -0.00000000000E+00 -0.00000000000E+00  0.11368683772E-12  0.17120000000E+03  0.17120000000E+03 0.  0.
         13    1    1    2    0    0  0.11258279965E+03 -0.11960791335E+03  0.69050420703E+03  0.70977250638E+03  0.10566000000E+00 0.  1.
        994    1    1    2    0    0 -0.18726636587E+03  0.21006343135E+03  0.32428829763E+03  0.46224201124E+03  0.17120000000E+03 0.  0.
        998    1    1    2    0    0  0.74683566216E+02 -0.90455518001E+02  0.48520749161E+03  0.49918548238E+03  0.10000000000E-01 0.  1.
</event>
<event>
 5    1  0.3934322E-009  0.3873815E+03  0.7957747E-01  0.3419634E+00
         13   -1    0    0    0    0  0.00000000000E+00  0.00000000000E+00  0.14999999963E+04  0.15000000000E+04  0.10566000000E+00 0.  1.
        994   -1    0    0    0    0 -0.00000000000E+00 -0.00000000000E+00  0.11368683772E-12  0.17120000000E+03  0.17120000000E+03 0.  0.
         13    1    1    2    0    0 -0.28317743070E+03  0.12111001689E+03  0.93090827751E+03  0.98053420428E+03  0.10566000000E+00 0.  1.
        994    1    1    2    0    0  0.29808865520E+03 -0.13524086359E+03  0.52403392273E+03  0.64114579443E+03  0.17120000000E+03 0.  0.
        998    1    1    2    0    0 -0.14911224503E+02  0.14130846692E+02  0.45057796031E+02  0.49520001288E+02  0.10000000000E-01 0.  1.
</event>
<event>
 5    1  0.3934322E-009  0.3883010E+03  0.7957747E-01  0.3415792E+00
         13   -1    0    0    0    0  0.00000000000E+00  0.00000000000E+00  0.14999999963E+04  0.15000000000E+04  0.10566000000E+00 0. -1.
        994   -1    0    0    0    0 -0.00000000000E+00 -0.00000000000E+00  0.11368683772E-12  0.17120000000E+03  0.17120000000E+03 0.  0.
         13    1    1    2    0    0  0.84545593369E+02  0.21195175929E+03  0.12953551207E+04  0.13153008802E+04  0.10566000000E+00 0. -1.
        994    1    1    2    0    0 -0.85107976449E+02 -0.21336901395E+03  0.19600785948E+03  0.34712854211E+03  0.17120000000E+03 0.  0.
        998    1    1    2    0    0  0.56238308021E+00  0.14172546630E+01  0.86370160884E+01  0.87705776560E+01  0.10000000000E-01 0.  1.
</event>
<event>
 5    1  0.3934322E-009  0.3882984E+03  0.7957747E-01  0.3415803E+00
         13   -1    0    0    0    0  0.00000000000E+00  0.00000000000E+00  0.14999999963E+04  0.15000000000E+04  0.10566000000E+00 0.  1.
        994   -1    0    0    0    0 -0.00000000000E+00 -0.00000000000E+00  0.11368683772E-12  0.17120000000E+03  0.17120000000E+03 0.  0.
         13    1    1    2    0    0  0.32776823563E+02  0.24385288146E+03  0.11845517761E+04  0.12098353067E+04  0.10566000000E+00 0.  1.
        994    1    1    2    0    0 -0.34358771349E+02 -0.25525516446E+03  0.25793383615E+03  0.40270960751E+03  0.17120000000E+03 0.  0.
        998    1    1    2    0    0  0.15819477856E+01  0.11402282999E+02  0.57514384041E+02  0.58655085782E+02  0.10000000000E-01 0.  1.
</event>
<event>
 5    1  0.3934322E-009  0.3841124E+03  0.7957747E-01  0.3433445E+00
         13   -1    0    0    0    0  0.00000000000E+00  0.00000000000E+00  0.14999999963E+04  0.15000000000E+04  0.10566000000E+00 0. -1.
        994   -1    0    0    0    0 -0.00000000000E+00 -0.00000000000E+00  0.11368683772E-12  0.17120000000E+03  0.17120000000E+03 0.  0.
         13    1    1    2    0    0 -0.99794285632E+02 -0.24474872146E+03  0.92126948041E+03  0.95843534096E+03  0.10566000000E+00 0. -1.
        994    1    1    2    0    0  0.89475762164E+02  0.27990418331E+03  0.37698739383E+03  0.50772157622E+03  0.17120000000E+03 0.  0.
        998    1    1    2    0    0  0.10318523468E+02 -0.35155461846E+02  0.20174312204E+03  0.20504308283E+03  0.10000000000E-01 0.  1.
</event>
<event>
 5    1  0.3934322E-009  0.3809328E+03  0.7957747E-01  0.3447107E+00
         13   -1    0    0    0    0  0.00000000000E+00  0.00000000000E+00  0.14999999963E+04  0.15000000000E+04  0.10566000000E+00 0. -1.
        994   -1    0    0    0    0 -0.00000000000E+00 -0.00000000000E+00  0.11368683772E-12  0.17120000000E+03  0.17120000000E+03 0.  0.
         13    1    1    2    0    0  0.48613754869E+01  0.17956728456E+02  0.38361304855E+02  0.42634234397E+02  0.10566000000E+00 0. -1.
        994    1    1    2    0    0  0.73733960907E+02 -0.82507973077E+02  0.45607685161E+02  0.20888696359E+03  0.17120000000E+03 0.  0.
        998    1    1    2    0    0 -0.78595336394E+02  0.64551244620E+02  0.14160310063E+04  0.14196788020E+04  0.10000000000E-01 0. -1.
</event>
<event>
 5    1  0.3934322E-009  0.3882588E+03  0.7957747E-01  0.3415968E+00
         13   -1    0    0    0    0  0.00000000000E+00  0.00000000000E+00  0.14999999963E+04  0.15000000000E+04  0.10566000000E+00 0.  1.
        994   -1    0    0    0    0 -0.00000000000E+00 -0.00000000000E+00  0.11368683772E-12  0.17120000000E+03  0.17120000000E+03 0.  0.
         13    1    1    2    0    0  0.22435753085E+03  0.11029177859E+03  0.10288099242E+04  0.10587494744E+04  0.10566000000E+00 0.  1.
        994    1    1    2    0    0 -0.25660879607E+03 -0.12479737866E+03  0.33670718524E+03  0.47339584761E+03  0.17120000000E+03 0.  0.
        998    1    1    2    0    0  0.32251265221E+02  0.14505600075E+02  0.13448288680E+03  0.13905467804E+03  0.10000000000E-01 0.  1.
</event>
<event>
 5    1  0.3934322E-009  0.3879770E+03  0.7957747E-01  0.3417143E+00
         13   -1    0    0    0    0  0.00000000000E+00  0.00000000000E+00  0.14999999963E+04  0.15000000000E+04  0.10566000000E+00 0. -1.
        994   -1    0    0    0    0 -0.00000000000E+00 -0.00000000000E+00  0.11368683772E-12  0.17120000000E+03  0.17120000000E+03 0.  0.
         13    1    1    2    0    0 -0.11646060912E+03 -0.18558883942E+03  0.12750567962E+04  0.12937450040E+04  0.10566000000E+00 0. -1.
        994    1    1    2    0    0  0.11654006864E+03  0.19272422343E+03  0.18763611996E+03  0.33947160030E+03  0.17120000000E+03 0.  0.
        998    1    1    2    0    0 -0.79459512957E-01 -0.71353840089E+01  0.37307080118E+02  0.37983395658E+02  0.10000000000E-01 0. -1.
</event>
<event>
 5    1  0.3934322E-009  0.3883009E+03  0.7957747E-01  0.3415792E+00
         13   -1    0    0    0    0  0.00000000000E+00  0.00000000000E+00  0.14999999963E+04  0.15000000000E+04  0.10566000000E+00 0. -1.
        994   -1    0    0    0    0 -0.00000000000E+00 -0.00000000000E+00  0.11368683772E-12  0.17120000000E+03  0.17120000000E+03 0.  0.
         13    1    1    2    0    0  0.30839812654E+02 -0.65785465047E+00  0.15746519952E+03  0.16045817848E+03  0.10566000000E+00 0.  1.
        994    1    1    2    0    0 -0.24773985689E+03  0.48569797108E+01  0.23459543306E+03  0.38176312571E+03  0.17120000000E+03 0.  0.
        998    1    1    2    0    0  0.21690004424E+03 -0.41991250603E+01  0.11079393637E+04  0.11289786958E+04  0.10000000000E-01 0. -1.
</event>
<event>
 5    1  0.3934322E-009  0.3880891E+03  0.7957747E-01  0.3416676E+00
         13   -1    0    0    0    0  0.00000000000E+00  0.00000000000E+00  0.14999999963E+04  0.15000000000E+04  0.10566000000E+00 0.  1.
        994   -1    0    0    0    0 -0.00000000000E+00 -0.00000000000E+00  0.11368683772E-12  0.17120000000E+03  0.17120000000E+03 0.  0.
         13    1    1    2    0    0 -0.75192828798E+02 -0.17936298742E+03  0.11421494174E+04  0.11585898090E+04  0.10566000000E+00 0.  1.
        994    1    1    2    0    0  0.89554984300E+02  0.21071710142E+03  0.19478349956E+03  0.34593618450E+03  0.17120000000E+03 0.  0.
        998    1    1    2    0    0 -0.14362155502E+02 -0.31354114005E+02  0.16306707932E+03  0.16667400647E+03  0.10000000000E-01 0.  1.
</event>
<event>
 5    1  0.3934322E-009  0.3882994E+03  0.7957747E-01  0.3415798E+00
         13   -1    0    0    0    0  0.00000000000E+00  0.00000000000E+00  0.14999999963E+04  0.15000000000E+04  0.10566000000E+00 0. -1.
        994   -1    0    0    0    0 -0.00000000000E+00 -0.00000000000E+00  0.11368683772E-12  0.17120000000E+03  0.17120000000E+03 0.  0.
         13    1    1    2    0    0  0.12223186949E+03  0.27293227153E+03  0.10843711980E+04  0.11248526841E+04  0.10566000000E+00 0. -1.
        994    1    1    2    0    0 -0.12384155947E+03 -0.27664939338E+03  0.40029567323E+03  0.53048815699E+03  0.17120000000E+03 0.  0.
        998    1    1    2    0    0  0.16096899737E+01  0.37171218452E+01  0.15333125054E+02  0.15859158885E+02  0.10000000000E-01 0.  1.
</event>
<event>
 5    1  0.3934322E-009  0.3883006E+03  0.7957747E-01  0.3415793E+00
         13   -1    0    0    0    0  0.00000000000E+00  0.00000000000E+00  0.14999999963E+04  0.15000000000E+04  0.10566000000E+00 0.  1.
        994   -1    0    0    0    0 -0.00000000000E+00 -0.00000000000E+00  0.11368683772E-12  0.17120000000E+03  0.17120000000E+03 0.  0.
         13    1    1    2    0    0 -0.25691771333E+03 -0.11647946954E+03  0.11707029767E+04  0.12042091385E+04  0.10566000000E+00 0.  1.
        994    1    1    2    0    0  0.25730195261E+03  0.11662870614E+03  0.32754129582E+03  0.46518737126E+03  0.17120000000E+03 0.  0.
        998    1    1    2    0    0 -0.38423928304E+00 -0.14923660249E+00  0.17557237146E+01  0.18034902695E+01  0.10000000000E-01 0.  1.
</event>
<event>
 5    1  0.3934322E-009  0.3882984E+03  0.7957747E-01  0.3415803E+00
         13   -1    0    0    0    0  0.00000000000E+00  0.00000000000E+00  0.14999999963E+04  0.15000000000E+04  0.10566000000E+00 0.  1.
        994   -1    0    0    0    0 -0.00000000000E+00 -0.00000000000E+00  0.11368683772E-12  0.17120000000E+03  0.17120000000E+03 0.  0.
         13    1    1    2    0    0 -0.18076569097E+03 -0.21653465173E+03  0.10961710498E+04  0.11318809443E+04  0.10566000000E+00 0.  1.
        994    1    1    2    0    0  0.18793616193E+03  0.22482531763E+03  0.36253861814E+03  0.49659854415E+03  0.17120000000E+03 0.  0.
        998    1    1    2    0    0 -0.71704709608E+01 -0.82906658978E+01  0.41290328317E+02  0.42720511553E+02  0.10000000000E-01 0.  1.
</event>
<event>
 5    1  0.3934322E-009  0.3883009E+03  0.7957747E-01  0.3415792E+00
         13   -1    0    0    0    0  0.00000000000E+00  0.00000000000E+00  0.14999999963E+04  0.15000000000E+04  0.10566000000E+00 0.  1.
        994   -1    0    0    0    0 -0.00000000000E+00 -0.00000000000E+00  0.11368683772E-12  0.17120000000E+03  0.17120000000E+03 0.  0.
         13    1    1    2    0    0  0.21319753430E+03 -0.61533197138E+02  0.12861548045E+04  0.13051565865E+04  0.10566000000E+00 0.  1.
        994    1    1    2    0    0 -0.21730661564E+03  0.62745626683E+02  0.18907992470E+03  0.34091030609E+03  0.17120000000E+03 0.  0.
        998    1    1    2    0    0  0.41090813464E+01 -0.12124295450E+01  0.24765267085E+02  0.25133107422E+02  0.10000000000E-01 0.  1.
</event>
<event>
 5    1  0.3934322E-009  0.3883009E+03  0.7957747E-01  0.3415792E+00
         13   -1    0    0    0    0  0.00000000000E+00  0.00000000000E+00  0.14999999963E+04  0.15000000000E+04  0.10566000000E+00 0.  1.
        994   -1    0    0    0    0 -0.00000000000E+00 -0.00000000000E+00  0.11368683772E-12  0.17120000000E+03  0.17120000000E+03 0.  0.
         13    1    1    2    0    0  0.22001030522E+03 -0.56770687593E+02  0.12465195693E+04  0.12670589936E+04  0.10566000000E+00 0.  1.
        994    1    1    2    0    0 -0.22803912327E+03  0.58906125326E+02  0.20781638915E+03  0.35772736119E+03  0.17120000000E+03 0.  0.
        998    1    1    2    0    0  0.80288180482E+01 -0.21354377336E+01  0.45664037798E+02  0.46413645209E+02  0.10000000000E-01 0.  1.
</event>
<event>
 5    1  0.3934322E-009  0.3882998E+03  0.7957747E-01  0.3415797E+00
         13   -1    0    0    0    0  0.00000000000E+00  0.00000000000E+00  0.14999999963E+04  0.15000000000E+04  0.10566000000E+00 0. -1.
        994   -1    0    0    0    0 -0.00000000000E+00 -0.00000000000E+00  0.11368683772E-12  0.17120000000E+03  0.17120000000E+03 0.  0.
         13    1    1    2    0    0 -0.19080466744E+03  0.10806999781E+03  0.89524050843E+03  0.92170555203E+03  0.10566000000E+00 0. -1.
        994    1    1    2    0    0  0.24844921026E+03 -0.13990293030E+03  0.33591573454E+03  0.47270356535E+03  0.17120000000E+03 0.  0.
        998    1    1    2    0    0 -0.57644542824E+02  0.31832932485E+02  0.26884375331E+03  0.27679088262E+03  0.10000000000E-01 0. -1.
</event>
<event>
 5    1  0.3934322E-009  0.3882966E+03  0.7957747E-01  0.3415810E+00
         13   -1    0    0    0    0  0.00000000000E+00  0.00000000000E+00  0.14999999963E+04  0.15000000000E+04  0.10566000000E+00 0. -1.
        994   -1    0    0    0    0 -0.00000000000E+00 -0.00000000000E+00  0.11368683772E-12  0.17120000000E+03  0.17120000000E+03 0.  0.
         13    1    1    2    0    0 -0.61322928733E+02 -0.24125509473E+03  0.11206415177E+04  0.11479555499E+04  0.10566000000E+00 0. -1.
        994    1    1    2    0    0  0.67016330748E+02  0.26075940138E+03  0.28852415489E+03  0.43016541231E+03  0.17120000000E+03 0.  0.
        998    1    1    2    0    0 -0.56934020146E+01 -0.19504306648E+02  0.90834323704E+02  0.93079037742E+02  0.10000000000E-01 0.  1.
</event>
<event>
 5    1  0.3934322E-009  0.3882847E+03  0.7957747E-01  0.3415860E+00
         13   -1    0    0    0    0  0.00000000000E+00  0.00000000000E+00  0.14999999963E+04  0.15000000000E+04  0.10566000000E+00 0.  1.
        994   -1    0    0    0    0 -0.00000000000E+00 -0.00000000000E+00  0.11368683772E-12  0.17120000000E+03  0.17120000000E+03 0.  0.
         13    1    1    2    0    0  0.26220191261E+03  0.99990077100E+02  0.10979762080E+04  0.11332694398E+04  0.10566000000E+00 0.  1.
        994    1    1    2    0    0 -0.27251714652E+03 -0.10488555075E+03  0.35898399225E+03  0.49340198682E+03  0.17120000000E+03 0.  0.
        998    1    1    2    0    0  0.10315233907E+02  0.48954736477E+01  0.43039795990E+02  0.44528573429E+02  0.10000000000E-01 0. -1.
</event>
<event>
 5    1  0.3934322E-009  0.3883010E+03  0.7957747E-01  0.3415792E+00
         13   -1    0    0    0    0  0.00000000000E+00  0.00000000000E+00  0.14999999963E+04  0.15000000000E+04  0.10566000000E+00 0. -1.
        994   -1    0    0    0    0 -0.00000000000E+00 -0.00000000000E+00  0.11368683772E-12  0.17120000000E+03  0.17120000000E+03 0.  0.
         13    1    1    2    0    0  0.13425455978E+03 -0.11749998459E+03  0.85283888292E+03  0.87130058222E+03  0.10566000000E+00 0. -1.
        994    1    1    2    0    0 -0.19489308257E+03  0.17056367831E+03  0.26151344160E+03  0.40592364076E+03  0.17120000000E+03 0.  0.
        998    1    1    2    0    0  0.60638522796E+02 -0.53063693724E+02  0.38564767176E+03  0.39397577701E+03  0.10000000000E-01 0. -1.
</event>
<event>
 5    1  0.3934322E-009  0.3882996E+03  0.7957747E-01  0.3415798E+00
         13   -1    0    0    0    0  0.00000000000E+00  0.00000000000E+00  0.14999999963E+04  0.15000000000E+04  0.10566000000E+00 0.  1.
        994   -1    0    0    0    0 -0.00000000000E+00 -0.00000000000E+00  0.11368683772E-12  0.17120000000E+03  0.17120000000E+03 0.  0.
         13    1    1    2    0    0  0.97983763204E+02 -0.22823522951E+03  0.11041356555E+04  0.11317277476E+04  0.10566000000E+00 0.  1.
        994    1    1    2    0    0 -0.10740813159E+03  0.24923055705E+03  0.29452763216E+03  0.43555521281E+03  0.17120000000E+03 0.  0.
        998    1    1    2    0    0  0.94243683875E+01 -0.20995327535E+02  0.10133670863E+03  0.10391703957E+03  0.10000000000E-01 0.  1.
</event>
<event>
 5    1  0.3934322E-009  0.3881938E+03  0.7957747E-01  0.3416239E+00
         13   -1    0    0    0    0  0.00000000000E+00  0.00000000000E+00  0.14999999963E+04  0.15000000000E+04  0.10566000000E+00 0.  1.
        994   -1    0    0    0    0 -0.00000000000E+00 -0.00000000000E+00  0.11368683772E-12  0.17120000000E+03  0.17120000000E+03 0.  0.
         13    1    1    2    0    0  0.20693366779E+03  0.12079064904E+03  0.11782877665E+04  0.12024034247E+04  0.10566000000E+00 0.  1.
        994    1    1    2    0    0 -0.22083519805E+03 -0.12533277911E+03  0.24920142654E+03  0.39482563392E+03  0.17120000000E+03 0.  0.
        998    1    1    2    0    0  0.13901530254E+02  0.45421300666E+01  0.72510803237E+02  0.73970941423E+02  0.10000000000E-01 0. -1.
</event>
<event>
 5    1  0.3934322E-009  0.3882072E+03  0.7957747E-01  0.3416183E+00
         13   -1    0    0    0    0  0.00000000000E+00  0.00000000000E+00  0.14999999963E+04  0.15000000000E+04  0.10566000000E+00 0.  1.
        994   -1    0    0    0    0 -0.00000000000E+00 -0.00000000000E+00  0.11368683772E-12  0.17120000000E+03  0.17120000000E+03 0.  0.
         13    1    1    2    0    0 -0.23768381086E+03  0.12585279075E+03  0.11957102798E+04  0.12255837806E+04  0.10566000000E+00 0.  1.
        994    1    1    2    0    0  0.23912229666E+03 -0.12642097143E+03  0.29217171800E+03  0.43339991645E+03  0.17120000000E+03 0.  0.
        998    1    1    2    0    0 -0.14384857976E+01  0.56818068544E+00  0.12117998489E+02  0.12216302962E+02  0.10000000000E-01 0. -1.
</event>
<event>
 5    1  0.3934322E-009  0.3883005E+03  0.7957747E-01  0.3415794E+00
         13   -1    0    0    0    0  0.00000000000E+00  0.00000000000E+00  0.14999999963E+04  0.15000000000E+04  0.10566000000E+00 0. -1.
        994   -1    0    0    0    0 -0.00000000000E+00 -0.00000000000E+00  0.11368683772E-12  0.17120000000E+03  0.17120000000E+03 0.  0.
         13    1    1    2    0    0  0.30464856681E+03 -0.14949946338E+03  0.87329491284E+03  0.93691240506E+03  0.10566000000E+00 0. -1.
        994    1    1    2    0    0 -0.30578379264E+03  0.15010390367E+03  0.62330970969E+03  0.73065678943E+03  0.17120000000E+03 0.  0.
        998    1    1    2    0    0  0.11352258330E+01 -0.60444029271E+00  0.33953737483E+01  0.36308055098E+01  0.10000000000E-01 0. -1.
</event>
<event>
 5    1  0.3934322E-009  0.3882813E+03  0.7957747E-01  0.3415874E+00
         13   -1    0    0    0    0  0.00000000000E+00  0.00000000000E+00  0.14999999963E+04  0.15000000000E+04  0.10566000000E+00 0.  1.
        994   -1    0    0    0    0 -0.00000000000E+00 -0.00000000000E+00  0.11368683772E-12  0.17120000000E+03  0.17120000000E+03 0.  0.
         13    1    1    2    0    0 -0.51175976220E+02 -0.26288317308E+03  0.10999377367E+04  0.11320731333E+04  0.10566000000E+00 0.  1.
        994    1    1    2    0    0  0.54654409020E+02  0.27812876824E+03  0.33057449092E+03  0.46790132527E+03  0.17120000000E+03 0.  0.
        998    1    1    2    0    0 -0.34784328000E+01 -0.15245595159E+02  0.69487768622E+02  0.71225541448E+02  0.10000000000E-01 0.  1.
</event>
<event>
 5    1  0.3934322E-009  0.3882959E+03  0.7957747E-01  0.3415813E+00
         13   -1    0    0    0    0  0.00000000000E+00  0.00000000000E+00  0.14999999963E+04  0.15000000000E+04  0.10566000000E+00 0. -1.
        994   -1    0    0    0    0 -0.00000000000E+00 -0.00000000000E+00  0.11368683772E-12  0.17120000000E+03  0.17120000000E+03 0.  0.
         13    1    1    2    0    0 -0.21891995159E+03 -0.92934665586E+02  0.12853824318E+04  0.13071996039E+04  0.10566000000E+00 0. -1.
        994    1    1    2    0    0  0.21922663774E+03  0.93014196861E+02  0.21332416183E+03  0.36266871595E+03  0.17120000000E+03 0.  0.
        998    1    1    2    0    0 -0.30668615267E+00 -0.79531274823E-01  0.12934026797E+01  0.13316801837E+01  0.10000000000E-01 0. -1.
</event>
<event>
 5    1  0.3934322E-009  0.3883010E+03  0.7957747E-01  0.3415792E+00
         13   -1    0    0    0    0  0.00000000000E+00  0.00000000000E+00  0.14999999963E+04  0.15000000000E+04  0.10566000000E+00 0. -1.
        994   -1    0    0    0    0 -0.00000000000E+00 -0.00000000000E+00  0.11368683772E-12  0.17120000000E+03  0.17120000000E+03 0.  0.
         13    1    1    2    0    0  0.14958180432E+03  0.18325513719E+03  0.12165221401E+04  0.12393075849E+04  0.10566000000E+00 0. -1.
        994    1    1    2    0    0 -0.15590708996E+03 -0.19103513147E+03  0.23183894762E+03  0.37928904517E+03  0.17120000000E+03 0.  0.
        998    1    1    2    0    0  0.63252856357E+01  0.77799942832E+01  0.51638908605E+02  0.52603369962E+02  0.10000000000E-01 0. -1.
</event>
<event>
 5    1  0.3934322E-009  0.3874604E+03  0.7957747E-01  0.3419304E+00
         13   -1    0    0    0    0  0.00000000000E+00  0.00000000000E+00  0.14999999963E+04  0.15000000000E+04  0.10566000000E+00 0. -1.
        994   -1    0    0    0    0 -0.00000000000E+00 -0.00000000000E+00  0.11368683772E-12  0.17120000000E+03  0.17120000000E+03 0.  0.
         13    1    1    2    0    0 -0.22948018154E+03  0.29545986210E+02  0.12300973491E+04  0.12516683341E+04  0.10566000000E+00 0. -1.
        994    1    1    2    0    0  0.23422506162E+03 -0.35604893881E+02  0.21191432213E+03  0.36103491228E+03  0.17120000000E+03 0.  0.
        998    1    1    2    0    0 -0.47448800774E+01  0.60589076712E+01  0.57988325025E+02  0.58496753656E+02  0.10000000000E-01 0. -1.
</event>
<event>
 5    1  0.3934322E-009  0.3883003E+03  0.7957747E-01  0.3415795E+00
         13   -1    0    0    0    0  0.00000000000E+00  0.00000000000E+00  0.14999999963E+04  0.15000000000E+04  0.10566000000E+00 0. -1.
        994   -1    0    0    0    0 -0.00000000000E+00 -0.00000000000E+00  0.11368683772E-12  0.17120000000E+03  0.17120000000E+03 0.  0.
         13    1    1    2    0    0 -0.20248797815E+03  0.91509662601E+02  0.13148475830E+04  0.13334914988E+04  0.10566000000E+00 0. -1.
        994    1    1    2    0    0  0.20294101747E+03 -0.91665945823E+02  0.18239685748E+03  0.33491156417E+03  0.17120000000E+03 0.  0.
        998    1    1    2    0    0 -0.45303932631E+00  0.15628322167E+00  0.27555558080E+01  0.27969370546E+01  0.10000000000E-01 0.  1.
</event>
<event>
 5    1  0.3934322E-009  0.3883010E+03  0.7957747E-01  0.3415792E+00
         13   -1    0    0    0    0  0.00000000000E+00  0.00000000000E+00  0.14999999963E+04  0.15000000000E+04  0.10566000000E+00 0.  1.
        994   -1    0    0    0    0 -0.00000000000E+00 -0.00000000000E+00  0.11368683772E-12  0.17120000000E+03  0.17120000000E+03 0.  0.
         13    1    1    2    0    0 -0.87728634636E+02 -0.19960219499E+03  0.12728563499E+04  0.12913948460E+04  0.10566000000E+00 0.  1.
        994    1    1    2    0    0  0.90521337448E+02  0.20595232977E+03  0.18673770217E+03  0.33880803427E+03  0.17120000000E+03 0.  0.
        998    1    1    2    0    0 -0.27927028120E+01 -0.63501347862E+01  0.40405944160E+02  0.40997119707E+02  0.10000000000E-01 0.  0.
</event>
<event>
 5    1  0.3934322E-009  0.3877034E+03  0.7957747E-01  0.3418287E+00
         13   -1    0    0    0    0  0.00000000000E+00  0.00000000000E+00  0.14999999963E+04  0.15000000000E+04  0.10566000000E+00 0.  1.
        994   -1    0    0    0    0 -0.00000000000E+00 -0.00000000000E+00  0.11368683772E-12  0.17120000000E+03  0.17120000000E+03 0.  0.
         13    1    1    2    0    0  0.27246192806E+03 -0.49823385578E+02  0.11118560527E+04  0.11458367096E+04  0.10566000000E+00 0.  1.
        994    1    1    2    0    0 -0.28121869220E+03  0.46906101405E+02  0.33723865684E+03  0.47362800473E+03  0.17120000000E+03 0.  0.
        998    1    1    2    0    0  0.87567641415E+01  0.29172841733E+01  0.50905286701E+02  0.51735285631E+02  0.10000000000E-01 0. -1.
</event>
<event>
 5    1  0.3934322E-009  0.3883007E+03  0.7957747E-01  0.3415793E+00
         13   -1    0    0    0    0  0.00000000000E+00  0.00000000000E+00  0.14999999963E+04  0.15000000000E+04  0.10566000000E+00 0. -1.
        994   -1    0    0    0    0 -0.00000000000E+00 -0.00000000000E+00  0.11368683772E-12  0.17120000000E+03  0.17120000000E+03 0.  0.
         13    1    1    2    0    0 -0.76036497732E+02 -0.19405171570E+03  0.12025912880E+04  0.12205176911E+04  0.10566000000E+00 0. -1.
        994    1    1    2    0    0  0.82687767180E+02  0.21143959617E+03  0.19072823832E+03  0.34238964728E+03  0.17120000000E+03 0.  0.
        998    1    1    2    0    0 -0.66512694475E+01 -0.17387880471E+02  0.10668047000E+03  0.10829266158E+03  0.10000000000E-01 0. -1.
</event>
<event>
 5    1  0.3934322E-009  0.3819716E+03  0.7957747E-01  0.3442618E+00
         13   -1    0    0    0    0  0.00000000000E+00  0.00000000000E+00  0.14999999963E+04  0.15000000000E+04  0.10566000000E+00 0. -1.
        994   -1    0    0    0    0 -0.00000000000E+00 -0.00000000000E+00  0.11368683772E-12  0.17120000000E+03  0.17120000000E+03 0.  0.
         13    1    1    2    0    0 -0.94785679221E+01 -0.22177759535E+02  0.64561212156E+02  0.68919210290E+02  0.10566000000E+00 0. -1.
        994    1    1    2    0    0  0.95438571353E+02  0.57921617992E+02  0.45704713897E+02  0.20943207874E+03  0.17120000000E+03 0.  0.
        998    1    1    2    0    0 -0.85960003431E+02 -0.35743858457E+02  0.13897340702E+04  0.13928487110E+04  0.10000000000E-01 0. -1.
</event>
<event>
 5    1  0.3934322E-009  0.3882849E+03  0.7957747E-01  0.3415859E+00
         13   -1    0    0    0    0  0.00000000000E+00  0.00000000000E+00  0.14999999963E+04  0.15000000000E+04  0.10566000000E+00 0. -1.
        994   -1    0    0    0    0 -0.00000000000E+00 -0.00000000000E+00  0.11368683772E-12  0.17120000000E+03  0.17120000000E+03 0.  0.
         13    1    1    2    0    0 -0.23143013874E+03  0.25158457778E+03  0.85444439872E+03  0.92028797154E+03  0.10566000000E+00 0. -1.
        994    1    1    2    0    0  0.23173055721E+03 -0.25218248413E+03  0.64415657626E+03  0.74936118873E+03  0.17120000000E+03 0.  0.
        998    1    1    2    0    0 -0.30041846331E+00  0.59790634421E+00  0.13990213023E+01  0.15508397254E+01  0.10000000000E-01 0. -1.
</event>
<event>
 5    1  0.3934322E-009  0.3883008E+03  0.7957747E-01  0.3415792E+00
         13   -1    0    0    0    0  0.00000000000E+00  0.00000000000E+00  0.14999999963E+04  0.15000000000E+04  0.10566000000E+00 0.  1.
        994   -1    0    0    0    0 -0.00000000000E+00 -0.00000000000E+00  0.11368683772E-12  0.17120000000E+03  0.17120000000E+03 0.  0.
         13    1    1    2    0    0 -0.59077614665E+02  0.19592227931E+03  0.11673519141E+04  0.11851523980E+04  0.10566000000E+00 0.  1.
        994    1    1    2    0    0  0.66225521334E+02 -0.21911974708E+03  0.19440745918E+03  0.34569203552E+03  0.17120000000E+03 0.  0.
        998    1    1    2    0    0 -0.71479066691E+01  0.23197467774E+02  0.13824062303E+03  0.14035556646E+03  0.10000000000E-01 0.  1.
</event>
<event>
 5    1  0.3934322E-009  0.3853071E+03  0.7957747E-01  0.3428371E+00
         13   -1    0    0    0    0  0.00000000000E+00  0.00000000000E+00  0.14999999963E+04  0.15000000000E+04  0.10566000000E+00 0. -1.
        994   -1    0    0    0    0 -0.00000000000E+00 -0.00000000000E+00  0.11368683772E-12  0.17120000000E+03  0.17120000000E+03 0.  0.
         13    1    1    2    0    0  0.43059007498E+01 -0.27891103772E+02  0.15666184972E+03  0.15918354429E+03  0.10566000000E+00 0. -1.
        994    1    1    2    0    0 -0.69347042872E+02  0.70241750615E+02  0.34169336769E+02  0.20054899516E+03  0.17120000000E+03 0.  0.
        998    1    1    2    0    0  0.65041142122E+02 -0.42350646844E+02  0.13091688098E+04  0.13114674605E+04  0.10000000000E-01 0. -1.
</event>
<event>
 5    1  0.3934322E-009  0.3877595E+03  0.7957747E-01  0.3418052E+00
         13   -1    0    0    0    0  0.00000000000E+00  0.00000000000E+00  0.14999999963E+04  0.15000000000E+04  0.10566000000E+00 0.  1.
        994   -1    0    0    0    0 -0.00000000000E+00 -0.00000000000E+00  0.11368683772E-12  0.17120000000E+03  0.17120000000E+03 0.  0.
         13    1    1    2    0    0  0.79883314529E+02 -0.23060600328E+03  0.95991838103E+03  0.99045635042E+03  0.10566000000E+00 0.  1.
        994    1    1    2    0    0 -0.89037998039E+02  0.26958939415E+03  0.33326622798E+03  0.47008725280E+03  0.17120000000E+03 0.  0.
        998    1    1    2    0    0  0.91546835102E+01 -0.38983390865E+02  0.20681538726E+03  0.21065639678E+03  0.10000000000E-01 0. -1.
</event>
<event>
 5    1  0.3934322E-009  0.3883009E+03  0.7957747E-01  0.3415792E+00
         13   -1    0    0    0    0  0.00000000000E+00  0.00000000000E+00  0.14999999963E+04  0.15000000000E+04  0.10566000000E+00 0. -1.
        994   -1    0    0    0    0 -0.00000000000E+00 -0.00000000000E+00  0.11368683772E-12  0.17120000000E+03  0.17120000000E+03 0.  0.
         13    1    1    2    0    0 -0.24359797911E+03 -0.11925157649E+03  0.11982633474E+04  0.12285747738E+04  0.10566000000E+00 0. -1.
        994    1    1    2    0    0  0.24454690952E+03  0.11970122320E+03  0.29701655994E+03  0.43778973340E+03  0.17120000000E+03 0.  0.
        998    1    1    2    0    0 -0.94893041213E+00 -0.44964671061E+00  0.47200889715E+01  0.48354928384E+01  0.10000000000E-01 0. -1.
</event>
<event>
 5    1  0.3934322E-009  0.3882994E+03  0.7957747E-01  0.3415798E+00
         13   -1    0    0    0    0  0.00000000000E+00  0.00000000000E+00  0.14999999963E+04  0.15000000000E+04  0.10566000000E+00 0. -1.
        994   -1    0    0    0    0 -0.00000000000E+00 -0.00000000000E+00  0.11368683772E-12  0.17120000000E+03  0.17120000000E+03 0.  0.
         13    1    1    2    0    0 -0.11803259913E+03 -0.19973839497E+03  0.12990878530E+04  0.13196425205E+04  0.10566000000E+00 0. -1.
        994    1    1    2    0    0  0.11803868879E+03  0.19978259147E+03  0.20068611746E+03  0.35132687578E+03  0.17120000000E+03 0.  0.
        998    1    1    2    0    0 -0.60896615714E-02 -0.44196492106E-01  0.22602580640E+00  0.23060372731E+00  0.10000000000E-01 0.  1.
</event>
<event>
 5    1  0.3934322E-009  0.3883009E+03  0.7957747E-01  0.3415792E+00
         13   -1    0    0    0    0  0.00000000000E+00  0.00000000000E+00  0.14999999963E+04  0.15000000000E+04  0.10566000000E+00 0. -1.
        994   -1    0    0    0    0 -0.00000000000E+00 -0.00000000000E+00  0.11368683772E-12  0.17120000000E+03  0.17120000000E+03 0.  0.
         13    1    1    2    0    0  0.19968127393E+03  0.71466761887E+02  0.12460355035E+04  0.12639559313E+04  0.10566000000E+00 0. -1.
        994    1    1    2    0    0 -0.21083325870E+03 -0.75448527252E+02  0.18475004658E+03  0.33702397979E+03  0.17120000000E+03 0.  0.
        998    1    1    2    0    0  0.11151984774E+02  0.39817653645E+01  0.69214446223E+02  0.70220088904E+02  0.10000000000E-01 0. -1.
</event>
<event>
 5    1  0.3934322E-009  0.3882971E+03  0.7957747E-01  0.3415808E+00
         13   -1    0    0    0    0  0.00000000000E+00  0.00000000000E+00  0.14999999963E+04  0.15000000000E+04  0.10566000000E+00 0. -1.
        994   -1    0    0    0    0 -0.00000000000E+00 -0.00000000000E+00  0.11368683772E-12  0.17120000000E+03  0.17120000000E+03 0.  0.
         13    1    1    2    0    0  0.27017446599E+03  0.54726662982E+02  0.11928961575E+04  0.12243326768E+04  0.10566000000E+00 0. -1.
        994    1    1    2    0    0 -0.27022987279E+03 -0.54734125214E+02  0.30696782555E+03  0.44671992852E+03  0.17120000000E+03 0.  0.
        998    1    1    2    0    0  0.55406794454E-01  0.74622320173E-02  0.13601325315E+00  0.14739471772E+00  0.10000000000E-01 0.  1.
</event>
<event>
 5    1  0.3934322E-009  0.3728643E+03  0.7957747E-01  0.3482830E+00
         13   -1    0    0    0    0  0.00000000000E+00  0.00000000000E+00  0.14999999963E+04  0.15000000000E+04  0.10566000000E+00 0.  1.
        994   -1    0    0    0    0 -0.00000000000E+00 -0.00000000000E+00  0.11368683772E-12  0.17120000000E+03  0.17120000000E+03 0.  0.
         13    1    1    2    0    0  0.15419089619E+03 -0.11027323259E+03  0.79012226446E+03  0.81254428941E+03  0.10566000000E+00 0.  1.
        994    1    1    2    0    0 -0.13418325179E+03  0.20970775534E+03  0.26351431020E+03  0.40091360589E+03  0.17120000000E+03 0.  0.
        998    1    1    2    0    0 -0.20007644400E+02 -0.99434522746E+02  0.44636342162E+03  0.45774210470E+03  0.10000000000E-01 0.  1.
</event>
<event>
 5    1  0.3934322E-009  0.3882893E+03  0.7957747E-01  0.3415841E+00
         13   -1    0    0    0    0  0.00000000000E+00  0.00000000000E+00  0.14999999963E+04  0.15000000000E+04  0.10566000000E+00 0.  1.
        994   -1    0    0    0    0 -0.00000000000E+00 -0.00000000000E+00  0.11368683772E-12  0.17120000000E+03  0.17120000000E+03 0.  0.
         13    1    1    2    0    0  0.12641125250E+03  0.17455194028E+03  0.10819484506E+04  0.11032047160E+04  0.10566000000E+00 0.  1.
        994    1    1    2    0    0 -0.14749009666E+03 -0.20168201958E+03  0.23940200817E+03  0.38607217868E+03  0.17120000000E+03 0.  0.
        998    1    1    2    0    0  0.21078844166E+02  0.27130079305E+02  0.17864953752E+03  0.18192310527E+03  0.10000000000E-01 0. -1.
</event>
<event>
 5    1  0.3934322E-009  0.3882995E+03  0.7957747E-01  0.3415798E+00
         13   -1    0    0    0    0  0.00000000000E+00  0.00000000000E+00  0.14999999963E+04  0.15000000000E+04  0.10566000000E+00 0. -1.
        994   -1    0    0    0    0 -0.00000000000E+00 -0.00000000000E+00  0.11368683772E-12  0.17120000000E+03  0.17120000000E+03 0.  0.
         13    1    1    2    0    0 -0.20215136112E+03 -0.87794943918E+02  0.12207311153E+04  0.12404666831E+04  0.10566000000E+00 0. -1.
        994    1    1    2    0    0  0.21456661573E+03  0.93505034282E+02  0.20478132887E+03  0.35500261503E+03  0.17120000000E+03 0.  0.
        998    1    1    2    0    0 -0.12415254611E+02 -0.57100903639E+01  0.74487552136E+02  0.75730701847E+02  0.10000000000E-01 0. -1.
</event>
<event>
 5    1  0.3934322E-009  0.3883005E+03  0.7957747E-01  0.3415794E+00
         13   -1    0    0    0    0  0.00000000000E+00  0.00000000000E+00  0.14999999963E+04  0.15000000000E+04  0.10566000000E+00 0.  1.
        994   -1    0    0    0    0 -0.00000000000E+00 -0.00000000000E+00  0.11368683772E-12  0.17120000000E+03  0.17120000000E+03 0.  0.
         13    1    1    2    0    0 -0.13444874216E+03 -0.17218457379E+03  0.13147626054E+04  0.13327883220E+04  0.10566000000E+00 0.  1.
        994    1    1    2    0    0  0.13526037846E+03  0.17330856975E+03  0.17710479024E+03  0.33016174378E+03  0.17120000000E+03 0.  0.
        998    1    1    2    0    0 -0.81163630080E+00 -0.11239959516E+01  0.81326006564E+01  0.82499341707E+01  0.10000000000E-01 0.  1.
</event>
<event>
 5    1  0.3934322E-009  0.3882947E+03  0.7957747E-01  0.3415818E+00
         13   -1    0    0    0    0  0.00000000000E+00  0.00000000000E+00  0.14999999963E+04  0.15000000000E+04  0.10566000000E+00 0.  1.
        994   -1    0    0    0    0 -0.00000000000E+00 -0.00000000000E+00  0.11368683772E-12  0.17120000000E+03  0.17120000000E+03 0.  0.
         13    1    1    2    0    0  0.10505530757E+03  0.20446295649E+03  0.12793562135E+04  0.12998438562E+04  0.10566000000E+00 0.  1.
        994    1    1    2    0    0 -0.10681708890E+03 -0.20711547198E+03  0.20270422291E+03  0.35313616524E+03  0.17120000000E+03 0.  0.
        998    1    1    2    0    0  0.17617813235E+01  0.26525154910E+01  0.17939559826E+02  0.18219978557E+02  0.10000000000E-01 0.  1.
</event>
<event>
 5    1  0.3934322E-009  0.3883008E+03  0.7957747E-01  0.3415792E+00
         13   -1    0    0    0    0  0.00000000000E+00  0.00000000000E+00  0.14999999963E+04  0.15000000000E+04  0.10566000000E+00 0. -1.
        994   -1    0    0    0    0 -0.00000000000E+00 -0.00000000000E+00  0.11368683772E-12  0.17120000000E+03  0.17120000000E+03 0.  0.
         13    1    1    2    0    0 -0.48070900318E+02  0.22368917405E+03  0.12084527042E+04  0.12299209762E+04  0.10566000000E+00 0. -1.
        994    1    1    2    0    0  0.50956312862E+02 -0.23662518024E+03  0.22173928715E+03  0.37022395007E+03  0.17120000000E+03 0.  0.
        998    1    1    2    0    0 -0.28854125448E+01  0.12936006191E+02  0.69808004891E+02  0.71055073771E+02  0.10000000000E-01 0. -1.
</event>
<event>
 5    1  0.3934322E-009  0.3845689E+03  0.7957747E-01  0.3431503E+00
         13   -1    0    0    0    0  0.00000000000E+00  0.00000000000E+00  0.14999999963E+04  0.15000000000E+04  0.10566000000E+00 0.  1.
        994   -1    0    0    0    0 -0.00000000000E+00 -0.00000000000E+00  0.11368683772E-12  0.17120000000E+03  0.17120000000E+03 0.  0.
         13    1    1    2    0    0 -0.27887027440E+01  0.70557600583E+02  0.41899988043E+03  0.42490829931E+03  0.10566000000E+00 0.  1.
        994    1    1    2    0    0 -0.61600350563E+01 -0.12738050149E+03  0.57378877705E+02  0.22105545413E+03  0.17120000000E+03 0.  0.
        998    1    1    2    0    0  0.89487378003E+01  0.56822900911E+02  0.10236212381E+04  0.10252362466E+04  0.10000000000E-01 0.  1.
</event>
<event>
 5    1  0.3934322E-009  0.3882349E+03  0.7957747E-01  0.3416067E+00
         13   -1    0    0    0    0  0.00000000000E+00  0.00000000000E+00  0.14999999963E+04  0.15000000000E+04  0.10566000000E+00 0.  1.
        994   -1    0    0    0    0 -0.00000000000E+00 -0.00000000000E+00  0.11368683772E-12  0.17120000000E+03  0.17120000000E+03 0.  0.
         13    1    1    2    0    0  0.26328751867E+02 -0.27800133000E+03  0.27237624148E+03  0.39008559413E+03  0.10566000000E+00 0.  1.
        994    1    1    2    0    0 -0.29259294907E+02  0.29224773102E+03  0.12156006011E+04  0.12622436786E+04  0.17120000000E+03 0.  0.
        998    1    1    2    0    0  0.29305430396E+01 -0.14246401024E+02  0.12023153653E+02  0.18870727288E+02  0.10000000000E-01 0.  1.
</event>
<event>
 5    1  0.3934322E-009  0.3883004E+03  0.7957747E-01  0.3415794E+00
         13   -1    0    0    0    0  0.00000000000E+00  0.00000000000E+00  0.14999999963E+04  0.15000000000E+04  0.10566000000E+00 0.  1.
        994   -1    0    0    0    0 -0.00000000000E+00 -0.00000000000E+00  0.11368683772E-12  0.17120000000E+03  0.17120000000E+03 0.  0.
         13    1    1    2    0    0 -0.79266513641E+02 -0.22366447689E+03  0.12208303009E+04  0.12436782595E+04  0.10566000000E+00 0.  1.
        994    1    1    2    0    0  0.82461965266E+02  0.23244019950E+03  0.23196404139E+03  0.37940107875E+03  0.17120000000E+03 0.  0.
        998    1    1    2    0    0 -0.31954516246E+01 -0.87757226113E+01  0.47205653992E+02  0.48120661750E+02  0.10000000000E-01 0.  1.
</event>
<event>
 5    1  0.3934322E-009  0.3883009E+03  0.7957747E-01  0.3415792E+00
         13   -1    0    0    0    0  0.00000000000E+00  0.00000000000E+00  0.14999999963E+04  0.15000000000E+04  0.10566000000E+00 0.  1.
        994   -1    0    0    0    0 -0.00000000000E+00 -0.00000000000E+00  0.11368683772E-12  0.17120000000E+03  0.17120000000E+03 0.  0.
         13    1    1    2    0    0  0.22697297734E+02  0.17835880278E+03  0.10535068778E+04  0.10687393427E+04  0.10566000000E+00 0.  1.
        994    1    1    2    0    0 -0.28378610103E+02 -0.22245918131E+03  0.18538855445E+03  0.33759708082E+03  0.17120000000E+03 0.  0.
        998    1    1    2    0    0  0.56813123690E+01  0.44100378535E+02  0.26110456401E+03  0.26486357647E+03  0.10000000000E-01 0. -1.
</event>
<event>
 5    1  0.3934322E-009  0.3883009E+03  0.7957747E-01  0.3415792E+00
         13   -1    0    0    0    0  0.00000000000E+00  0.00000000000E+00  0.14999999963E+04  0.15000000000E+04  0.10566000000E+00 0.  1.
        994   -1    0    0    0    0 -0.00000000000E+00 -0.00000000000E+00  0.11368683772E-12  0.17120000000E+03  0.17120000000E+03 0.  0.
         13    1    1    2    0    0  0.19626569040E+03  0.62450712749E+02  0.11499232955E+04  0.11682225427E+04  0.10566000000E+00 0.  1.
        994    1    1    2    0    0 -0.22150487501E+03 -0.70591660871E+02  0.20156301778E+03  0.35211458700E+03  0.17120000000E+03 0.  0.
        998    1    1    2    0    0  0.25239184610E+02  0.81409481219E+01  0.14851368304E+03  0.15086287027E+03  0.10000000000E-01 0. -1.
</event>
<event>
 5    1  0.3934322E-009  0.3882917E+03  0.7957747E-01  0.3415831E+00
         13   -1    0    0    0    0  0.00000000000E+00  0.00000000000E+00  0.14999999963E+04  0.15000000000E+04  0.10566000000E+00 0.  1.
        994   -1    0    0    0    0 -0.00000000000E+00 -0.00000000000E+00  0.11368683772E-12  0.17120000000E+03  0.17120000000E+03 0.  0.
         13    1    1    2    0    0 -0.16904799265E+03  0.26090084926E+03  0.10575711534E+04  0.11023172105E+04  0.10566000000E+00 0.  1.
        994    1    1    2    0    0  0.16987766870E+03 -0.26177221546E+03  0.43852627285E+03  0.56479894395E+03  0.17120000000E+03 0.  0.
        998    1    1    2    0    0 -0.82967605007E+00  0.87136619666E+00  0.39025700592E+01  0.40838455484E+01  0.10000000000E-01 0. -1.
</event>
<event>
 5    1  0.3934322E-009  0.3880437E+03  0.7957747E-01  0.3416865E+00
         13   -1    0    0    0    0  0.00000000000E+00  0.00000000000E+00  0.14999999963E+04  0.15000000000E+04  0.10566000000E+00 0. -1.
        994   -1    0    0    0    0 -0.00000000000E+00 -0.00000000000E+00  0.11368683772E-12  0.17120000000E+03  0.17120000000E+03 0.  0.
         13    1    1    2    0    0 -0.20763756781E+03  0.15568747661E+03  0.11900532335E+04  0.12180224380E+04  0.10566000000E+00 0. -1.
        994    1    1    2    0    0  0.21037892907E+03 -0.16132626643E+03  0.27783891744E+03  0.42046327078E+03  0.17120000000E+03 0.  0.
        998    1    1    2    0    0 -0.27413612580E+01  0.56387898184E+01  0.32107845374E+02  0.32714291169E+02  0.10000000000E-01 0. -1.
</event>
<event>
 5    1  0.3934322E-009  0.3883009E+03  0.7957747E-01  0.3415792E+00
         13   -1    0    0    0    0  0.00000000000E+00  0.00000000000E+00  0.14999999963E+04  0.15000000000E+04  0.10566000000E+00 0.  1.
        994   -1    0    0    0    0 -0.00000000000E+00 -0.00000000000E+00  0.11368683772E-12  0.17120000000E+03  0.17120000000E+03 0.  0.
         13    1    1    2    0    0  0.22101069900E+03 -0.62998920198E+02  0.13027324512E+04  0.13228478535E+04  0.10566000000E+00 0.  1.
        994    1    1    2    0    0 -0.22114393935E+03  0.63033551473E+02  0.19647620690E+03  0.34754886045E+03  0.17120000000E+03 0.  0.
        998    1    1    2    0    0  0.13324034680E+00 -0.34631275285E-01  0.79133822756E+00  0.80328606712E+00  0.10000000000E-01 0.  0.
</event>
<event>
 5    1  0.3934322E-009  0.3882768E+03  0.7957747E-01  0.3415893E+00
         13   -1    0    0    0    0  0.00000000000E+00  0.00000000000E+00  0.14999999963E+04  0.15000000000E+04  0.10566000000E+00 0.  1.
        994   -1    0    0    0    0 -0.00000000000E+00 -0.00000000000E+00  0.11368683772E-12  0.17120000000E+03  0.17120000000E+03 0.  0.
         13    1    1    2    0    0 -0.68833583500E+02  0.19166246020E+03  0.11535291753E+04  0.11713676324E+04  0.10566000000E+00 0.  1.
        994    1    1    2    0    0  0.78663685772E+02 -0.21788381959E+03  0.19991084315E+03  0.35062104829E+03  0.17120000000E+03 0.  0.
        998    1    1    2    0    0 -0.98301022723E+01  0.26221359388E+02  0.14655997783E+03  0.14921131927E+03  0.10000000000E-01 0.  1.
</event>
<event>
 5    1  0.3934322E-009  0.3882896E+03  0.7957747E-01  0.3415839E+00
         13   -1    0    0    0    0  0.00000000000E+00  0.00000000000E+00  0.14999999963E+04  0.15000000000E+04  0.10566000000E+00 0. -1.
        994   -1    0    0    0    0 -0.00000000000E+00 -0.00000000000E+00  0.11368683772E-12  0.17120000000E+03  0.17120000000E+03 0.  0.
         13    1    1    2    0    0  0.43520183585E+02 -0.22388771728E+03  0.13043948641E+04  0.13241849150E+04  0.10566000000E+00 0. -1.
        994    1    1    2    0    0 -0.43752070418E+02  0.22422632908E+03  0.19352711216E+03  0.34489690265E+03  0.17120000000E+03 0.  0.
        998    1    1    2    0    0  0.23188683274E+00 -0.33861180487E+00  0.20780199756E+01  0.21181823521E+01  0.10000000000E-01 0.  1.
</event>
<event>
 5    1  0.3934322E-009  0.3881914E+03  0.7957747E-01  0.3416249E+00
         13   -1    0    0    0    0  0.00000000000E+00  0.00000000000E+00  0.14999999963E+04  0.15000000000E+04  0.10566000000E+00 0. -1.
        994   -1    0    0    0    0 -0.00000000000E+00 -0.00000000000E+00  0.11368683772E-12  0.17120000000E+03  0.17120000000E+03 0.  0.
         13    1    1    2    0    0 -0.32369461906E+02  0.19007608190E+03  0.11145858731E+04  0.11311403002E+04  0.10566000000E+00 0. -1.
        994    1    1    2    0    0  0.36732289827E+02 -0.21945707231E+03  0.18220693620E+03  0.33469310615E+03  0.17120000000E+03 0.  0.
        998    1    1    2    0    0 -0.43628279204E+01  0.29380990410E+02  0.20320718695E+03  0.20536659367E+03  0.10000000000E-01 0. -1.
</event>
<event>
 5    1  0.3934322E-009  0.3883010E+03  0.7957747E-01  0.3415792E+00
         13   -1    0    0    0    0  0.00000000000E+00  0.00000000000E+00  0.14999999963E+04  0.15000000000E+04  0.10566000000E+00 0.  1.
        994   -1    0    0    0    0 -0.00000000000E+00 -0.00000000000E+00  0.11368683772E-12  0.17120000000E+03  0.17120000000E+03 0.  0.
         13    1    1    2    0    0  0.43485190645E+02 -0.22647877438E+03  0.12051552136E+04  0.12270218813E+04  0.10566000000E+00 0.  1.
        994    1    1    2    0    0 -0.45957714272E+02  0.23949211895E+03  0.22573548766E+03  0.37381083041E+03  0.17120000000E+03 0.  0.
        998    1    1    2    0    0  0.24725236272E+01 -0.13013344573E+02  0.69109295020E+02  0.70367288339E+02  0.10000000000E-01 0. -1.
</event>
<event>
 5    1  0.3934322E-009  0.3883006E+03  0.7957747E-01  0.3415793E+00
         13   -1    0    0    0    0  0.00000000000E+00  0.00000000000E+00  0.14999999963E+04  0.15000000000E+04  0.10566000000E+00 0. -1.
        994   -1    0    0    0    0 -0.00000000000E+00 -0.00000000000E+00  0.11368683772E-12  0.17120000000E+03  0.17120000000E+03 0.  0.
         13    1    1    2    0    0 -0.85356988027E+02 -0.19143842620E+03  0.11896793888E+04  0.12080031232E+04  0.10566000000E+00 0. -1.
        994    1    1    2    0    0  0.93697420032E+02  0.20966609762E+03  0.19587583799E+03  0.34700988879E+03  0.17120000000E+03 0.  0.
        998    1    1    2    0    0 -0.83404320048E+01 -0.18227671423E+02  0.11444476951E+03  0.11618698799E+03  0.10000000000E-01 0.  1.
</event>
<event>
 5    1  0.3934322E-009  0.3883001E+03  0.7957747E-01  0.3415795E+00
         13   -1    0    0    0    0  0.00000000000E+00  0.00000000000E+00  0.14999999963E+04  0.15000000000E+04  0.10566000000E+00 0.  1.
        994   -1    0    0    0    0 -0.00000000000E+00 -0.00000000000E+00  0.11368683772E-12  0.17120000000E+03  0.17120000000E+03 0.  0.
         13    1    1    2    0    0  0.24717095699E+03  0.64224506028E+02  0.12469300640E+04  0.12728129732E+04  0.10566000000E+00 0.  1.
        994    1    1    2    0    0 -0.24722760657E+03 -0.64249565118E+02  0.25271011994E+03  0.39802178431E+03  0.17120000000E+03 0.  0.
        998    1    1    2    0    0  0.56649578218E-01  0.25059090430E-01  0.35981237559E+00  0.36524249254E+00  0.10000000000E-01 0.  1.
</event>
<event>
 5    1  0.3934322E-009  0.3882878E+03  0.7957747E-01  0.3415847E+00
         13   -1    0    0    0    0  0.00000000000E+00  0.00000000000E+00  0.14999999963E+04  0.15000000000E+04  0.10566000000E+00 0.  1.
        994   -1    0    0    0    0 -0.00000000000E+00 -0.00000000000E+00  0.11368683772E-12  0.17120000000E+03  0.17120000000E+03 0.  0.
         13    1    1    2    0    0 -0.20862113116E+03 -0.11189645378E+03  0.12863904472E+04  0.13079923496E+04  0.10566000000E+00 0.  1.
        994    1    1    2    0    0  0.20886619656E+03  0.11222615933E+03  0.21114642099E+03  0.36071047947E+03  0.17120000000E+03 0.  0.
        998    1    1    2    0    0 -0.24506539508E+00 -0.32970554921E+00  0.24631280507E+01  0.24971709175E+01  0.10000000000E-01 0.  1.
</event>
<event>
 5    1  0.3934322E-009  0.3882988E+03  0.7957747E-01  0.3415801E+00
         13   -1    0    0    0    0  0.00000000000E+00  0.00000000000E+00  0.14999999963E+04  0.15000000000E+04  0.10566000000E+00 0. -1.
        994   -1    0    0    0    0 -0.00000000000E+00 -0.00000000000E+00  0.11368683772E-12  0.17120000000E+03  0.17120000000E+03 0.  0.
         13    1    1    2    0    0 -0.25422008690E+03  0.14772688730E+03  0.11273576871E+04  0.11650692905E+04  0.10566000000E+00 0. -1.
        994    1    1    2    0    0  0.25505232825E+03 -0.14811708878E+03  0.36934732520E+03  0.50270990518E+03  0.17120000000E+03 0.  0.
        998    1    1    2    0    0 -0.83224134394E+00  0.39020147832E+00  0.32949839750E+01  0.34208043270E+01  0.10000000000E-01 0.  1.
</event>
<event>
 5    1  0.3934322E-009  0.3882958E+03  0.7957747E-01  0.3415813E+00
         13   -1    0    0    0    0  0.00000000000E+00  0.00000000000E+00  0.14999999963E+04  0.15000000000E+04  0.10566000000E+00 0. -1.
        994   -1    0    0    0    0 -0.00000000000E+00 -0.00000000000E+00  0.11368683772E-12  0.17120000000E+03  0.17120000000E+03 0.  0.
         13    1    1    2    0    0 -0.23219244196E+03 -0.21717927697E+03  0.99464215583E+03  0.10442189415E+04  0.10566000000E+00 0. -1.
        994    1    1    2    0    0  0.23575595730E+03  0.22006584297E+03  0.49082724504E+03  0.61174395879E+03  0.17120000000E+03 0.  0.
        998    1    1    2    0    0 -0.35635153432E+01 -0.28865660023E+01  0.14530595415E+02  0.15237099724E+02  0.10000000000E-01 0. -1.
</event>
<event>
 5    1  0.3934322E-009  0.3882982E+03  0.7957747E-01  0.3415803E+00
         13   -1    0    0    0    0  0.00000000000E+00  0.00000000000E+00  0.14999999963E+04  0.15000000000E+04  0.10566000000E+00 0. -1.
        994   -1    0    0    0    0 -0.00000000000E+00 -0.00000000000E+00  0.11368683772E-12  0.17120000000E+03  0.17120000000E+03 0.  0.
         13    1    1    2    0    0  0.23224054277E+03  0.57800253486E+02  0.10775419998E+04  0.11037994888E+04  0.10566000000E+00 0. -1.
        994    1    1    2    0    0 -0.26133342255E+03 -0.64305221513E+02  0.28823243508E+03  0.42990428689E+03  0.17120000000E+03 0.  0.
        998    1    1    2    0    0  0.29092879778E+02  0.65049680270E+01  0.13422556138E+03  0.13749622428E+03  0.10000000000E-01 0.  1.
</event>
<event>
 5    1  0.3934322E-009  0.3883008E+03  0.7957747E-01  0.3415793E+00
         13   -1    0    0    0    0  0.00000000000E+00  0.00000000000E+00  0.14999999963E+04  0.15000000000E+04  0.10566000000E+00 0. -1.
        994   -1    0    0    0    0 -0.00000000000E+00 -0.00000000000E+00  0.11368683772E-12  0.17120000000E+03  0.17120000000E+03 0.  0.
         13    1    1    2    0    0 -0.22137050750E+03  0.25186909276E+02  0.12839193033E+04  0.13031070833E+04  0.10566000000E+00 0. -1.
        994    1    1    2    0    0  0.22573260098E+03 -0.25616231343E+02  0.19101735639E+03  0.34264919217E+03  0.17120000000E+03 0.  0.
        998    1    1    2    0    0 -0.43620934846E+01  0.42932206741E+00  0.25063336555E+02  0.25443724497E+02  0.10000000000E-01 0.  1.
</event>
<event>
 5    1  0.3934322E-009  0.3882952E+03  0.7957747E-01  0.3415816E+00
         13   -1    0    0    0    0  0.00000000000E+00  0.00000000000E+00  0.14999999963E+04  0.15000000000E+04  0.10566000000E+00 0. -1.
        994   -1    0    0    0    0 -0.00000000000E+00 -0.00000000000E+00  0.11368683772E-12  0.17120000000E+03  0.17120000000E+03 0.  0.
         13    1    1    2    0    0  0.15597035972E+03 -0.18425304685E+03  0.12796316364E+04  0.13022031617E+04  0.10566000000E+00 0. -1.
        994    1    1    2    0    0 -0.15597740055E+03  0.18425224527E+03  0.22034499650E+03  0.36897045526E+03  0.17120000000E+03 0.  0.
        998    1    1    2    0    0  0.70408337953E-02  0.80157907768E-03  0.23363422460E-01  0.26383050972E-01  0.10000000000E-01 0. -1.
</event>
<event>
 5    1  0.3934322E-009  0.3882975E+03  0.7957747E-01  0.3415807E+00
         13   -1    0    0    0    0  0.00000000000E+00  0.00000000000E+00  0.14999999963E+04  0.15000000000E+04  0.10566000000E+00 0. -1.
        994   -1    0    0    0    0 -0.00000000000E+00 -0.00000000000E+00  0.11368683772E-12  0.17120000000E+03  0.17120000000E+03 0.  0.
         13    1    1    2    0    0  0.95995094913E+02 -0.19767563684E+03  0.13197130861E+04  0.13378839099E+04  0.10566000000E+00 0. -1.
        994    1    1    2    0    0 -0.96115136588E+02  0.19800962378E+03  0.17758974444E+03  0.33059565623E+03  0.17120000000E+03 0.  0.
        998    1    1    2    0    0  0.12004167475E+00 -0.33398694087E+00  0.26971657514E+01  0.27204338571E+01  0.10000000000E-01 0.  1.
</event>
<event>
 5    1  0.3934322E-009  0.3882723E+03  0.7957747E-01  0.3415911E+00
         13   -1    0    0    0    0  0.00000000000E+00  0.00000000000E+00  0.14999999963E+04  0.15000000000E+04  0.10566000000E+00 0.  1.
        994   -1    0    0    0    0 -0.00000000000E+00 -0.00000000000E+00  0.11368683772E-12  0.17120000000E+03  0.17120000000E+03 0.  0.
         13    1    1    2    0    0 -0.25514448911E+03  0.55319551144E+02  0.12178577935E+04  0.12455266273E+04  0.10566000000E+00 0.  1.
        994    1    1    2    0    0  0.25757473154E+03 -0.55560481663E+02  0.27315086495E+03  0.41635627109E+03  0.17120000000E+03 0.  0.
        998    1    1    2    0    0 -0.24302424328E+01  0.24093051955E+00  0.89913378660E+01  0.93171016104E+01  0.10000000000E-01 0.  1.
</event>
<event>
 5    1  0.3934322E-009  0.3882952E+03  0.7957747E-01  0.3415816E+00
         13   -1    0    0    0    0  0.00000000000E+00  0.00000000000E+00  0.14999999963E+04  0.15000000000E+04  0.10566000000E+00 0. -1.
        994   -1    0    0    0    0 -0.00000000000E+00 -0.00000000000E+00  0.11368683772E-12  0.17120000000E+03  0.17120000000E+03 0.  0.
         13    1    1    2    0    0  0.14539889640E+02 -0.21912220619E+03  0.13161458104E+04  0.13343409441E+04  0.10566000000E+00 0. -1.
        994    1    1    2    0    0 -0.14431162901E+02  0.22010233153E+03  0.17846342340E+03  0.33137882899E+03  0.17120000000E+03 0.  0.
        998    1    1    2    0    0 -0.10872673949E+00 -0.98012533878E+00  0.53907624634E+01  0.54802269224E+01  0.10000000000E-01 0. -1.
</event>
<event>
 5    1  0.3934322E-009  0.3820342E+03  0.7957747E-01  0.3442349E+00
         13   -1    0    0    0    0  0.00000000000E+00  0.00000000000E+00  0.14999999963E+04  0.15000000000E+04  0.10566000000E+00 0. -1.
        994   -1    0    0    0    0 -0.00000000000E+00 -0.00000000000E+00  0.11368683772E-12  0.17120000000E+03  0.17120000000E+03 0.  0.
         13    1    1    2    0    0 -0.36502063380E+02 -0.87198420872E+02  0.38586740647E+03  0.39727777659E+03  0.10566000000E+00 0. -1.
        994    1    1    2    0    0  0.65015351042E+02  0.16958345181E+03  0.12172075385E+03  0.27768853940E+03  0.17120000000E+03 0.  0.
        998    1    1    2    0    0 -0.28513287662E+02 -0.82385030936E+02  0.99241183596E+03  0.99623368400E+03  0.10000000000E-01 0. -1.
</event>
<event>
 5    1  0.3934322E-009  0.3882999E+03  0.7957747E-01  0.3415796E+00
         13   -1    0    0    0    0  0.00000000000E+00  0.00000000000E+00  0.14999999963E+04  0.15000000000E+04  0.10566000000E+00 0.  1.
        994   -1    0    0    0    0 -0.00000000000E+00 -0.00000000000E+00  0.11368683772E-12  0.17120000000E+03  0.17120000000E+03 0.  0.
         13    1    1    2    0    0 -0.66164510741E+01  0.92362036374E+01  0.60696830064E+02  0.61751123280E+02  0.10566000000E+00 0.  1.
        994    1    1    2    0    0  0.13795699507E+03 -0.19179394981E+03  0.20934400383E+03  0.35909804179E+03  0.17120000000E+03 0.  0.
        998    1    1    2    0    0 -0.13134054400E+03  0.18255774618E+03  0.12299591624E+04  0.12503508349E+04  0.10000000000E-01 0.  1.
</event>
<event>
 5    1  0.3934322E-009  0.3882248E+03  0.7957747E-01  0.3416110E+00
         13   -1    0    0    0    0  0.00000000000E+00  0.00000000000E+00  0.14999999963E+04  0.15000000000E+04  0.10566000000E+00 0.  1.
        994   -1    0    0    0    0 -0.00000000000E+00 -0.00000000000E+00  0.11368683772E-12  0.17120000000E+03  0.17120000000E+03 0.  0.
         13    1    1    2    0    0 -0.21661053844E+03 -0.26937615359E+02  0.12976310698E+04  0.13158617576E+04  0.10566000000E+00 0.  1.
        994    1    1    2    0    0  0.21918470628E+03  0.26872329890E+02  0.17901577816E+03  0.33184355713E+03  0.17120000000E+03 0.  0.
        998    1    1    2    0    0 -0.25741678391E+01  0.65285468398E-01  0.23353148303E+02  0.23494685312E+02  0.10000000000E-01 0.  1.
</event>
<event>
 5    1  0.3934322E-009  0.3883007E+03  0.7957747E-01  0.3415793E+00
         13   -1    0    0    0    0  0.00000000000E+00  0.00000000000E+00  0.14999999963E+04  0.15000000000E+04  0.10566000000E+00 0. -1.
        994   -1    0    0    0    0 -0.00000000000E+00 -0.00000000000E+00  0.11368683772E-12  0.17120000000E+03  0.17120000000E+03 0.  0.
         13    1    1    2    0    0 -0.12648475750E+03 -0.21987735814E+03  0.12502005422E+04  0.12756746659E+04  0.10566000000E+00 0. -1.
        994    1    1    2    0    0  0.12659160319E+03  0.22004472358E+03  0.24887553503E+03  0.39458026599E+03  0.17120000000E+03 0.  0.
        998    1    1    2    0    0 -0.10684568725E+00 -0.16736543736E+00  0.92391907636E+00  0.94506806642E+00  0.10000000000E-01 0. -1.
</event>
<event>
 5    1  0.3934322E-009  0.3882990E+03  0.7957747E-01  0.3415800E+00
         13   -1    0    0    0    0  0.00000000000E+00  0.00000000000E+00  0.14999999963E+04  0.15000000000E+04  0.10566000000E+00 0. -1.
        994   -1    0    0    0    0 -0.00000000000E+00 -0.00000000000E+00  0.11368683772E-12  0.17120000000E+03  0.17120000000E+03 0.  0.
         13    1    1    2    0    0 -0.17173478318E+02  0.23202810650E+03  0.12978549194E+04  0.13185444147E+04  0.10566000000E+00 0. -1.
        994    1    1    2    0    0  0.17160128260E+02 -0.23205271417E+03  0.20198209196E+03  0.35248991139E+03  0.17120000000E+03 0.  0.
        998    1    1    2    0    0  0.13350057858E-01  0.24607677416E-01  0.16298492069E+00  0.16567391529E+00  0.10000000000E-01 0. -1.
</event>
<event>
 5    1  0.3934322E-009  0.3882462E+03  0.7957747E-01  0.3416020E+00
         13   -1    0    0    0    0  0.00000000000E+00  0.00000000000E+00  0.14999999963E+04  0.15000000000E+04  0.10566000000E+00 0.  1.
        994   -1    0    0    0    0 -0.00000000000E+00 -0.00000000000E+00  0.11368683772E-12  0.17120000000E+03  0.17120000000E+03 0.  0.
         13    1    1    2    0    0 -0.74633038145E+01 -0.23840591606E+03  0.12433068697E+04  0.12659798834E+04  0.10566000000E+00 0.  1.
        994    1    1    2    0    0  0.71898486406E+01  0.24318303199E+03  0.22454842486E+03  0.37272123106E+03  0.17120000000E+03 0.  0.
        998    1    1    2    0    0  0.27345517390E+00 -0.47771159292E+01  0.32144701747E+02  0.32498885592E+02  0.10000000000E-01 0.  1.
</event>
<event>
 5    1  0.3934322E-009  0.3883000E+03  0.7957747E-01  0.3415796E+00
         13   -1    0    0    0    0  0.00000000000E+00  0.00000000000E+00  0.14999999963E+04  0.15000000000E+04  0.10566000000E+00 0. -1.
        994   -1    0    0    0    0 -0.00000000000E+00 -0.00000000000E+00  0.11368683772E-12  0.17120000000E+03  0.17120000000E+03 0.  0.
         13    1    1    2    0    0  0.33724529370E+03 -0.22844509865E+02  0.89874475059E+03  0.96020747635E+03  0.10566000000E+00 0. -1.
        994    1    1    2    0    0 -0.33753129190E+03  0.22831191595E+02  0.60046871364E+03  0.71015544241E+03  0.17120000000E+03 0.  0.
        998    1    1    2    0    0  0.28599820308E+00  0.13318269317E-01  0.78653204993E+00  0.83708124697E+00  0.10000000000E-01 0.  1.
</event>
<event>
 5    1  0.3934322E-009  0.3883004E+03  0.7957747E-01  0.3415794E+00
         13   -1    0    0    0    0  0.00000000000E+00  0.00000000000E+00  0.14999999963E+04  0.15000000000E+04  0.10566000000E+00 0.  1.
        994   -1    0    0    0    0 -0.00000000000E+00 -0.00000000000E+00  0.11368683772E-12  0.17120000000E+03  0.17120000000E+03 0.  0.
         13    1    1    2    0    0  0.21741664286E+03  0.72339050934E-01  0.10666207764E+04  0.10885540380E+04  0.10566000000E+00 0.  1.
        994    1    1    2    0    0 -0.25438840287E+03 -0.21575186071E+00  0.25015221031E+03  0.39572600924E+03  0.17120000000E+03 0.  0.
        998    1    1    2    0    0  0.36971760011E+02  0.14341280977E+00  0.18322700960E+03  0.18691995279E+03  0.10000000000E-01 0.  1.
</event>
<event>
 5    1  0.3934322E-009  0.3883001E+03  0.7957747E-01  0.3415796E+00
         13   -1    0    0    0    0  0.00000000000E+00  0.00000000000E+00  0.14999999963E+04  0.15000000000E+04  0.10566000000E+00 0.  1.
        994   -1    0    0    0    0 -0.00000000000E+00 -0.00000000000E+00  0.11368683772E-12  0.17120000000E+03  0.17120000000E+03 0.  0.
         13    1    1    2    0    0  0.30790389721E+03 -0.11008327700E+03  0.89690303921E+03  0.95465083182E+03  0.10566000000E+00 0.  1.
        994    1    1    2    0    0 -0.31613350725E+03  0.11311430270E+03  0.57854011974E+03  0.69047327974E+03  0.17120000000E+03 0.  0.
        998    1    1    2    0    0  0.82296100463E+01 -0.30310257036E+01  0.24556837329E+02  0.26075888440E+02  0.10000000000E-01 0.  1.
</event>
<event>
 5    1  0.3934322E-009  0.3882860E+03  0.7957747E-01  0.3415854E+00
         13   -1    0    0    0    0  0.00000000000E+00  0.00000000000E+00  0.14999999963E+04  0.15000000000E+04  0.10566000000E+00 0. -1.
        994   -1    0    0    0    0 -0.00000000000E+00 -0.00000000000E+00  0.11368683772E-12  0.17120000000E+03  0.17120000000E+03 0.  0.
         13    1    1    2    0    0 -0.91559340365E+02 -0.21483548361E+03  0.12913833042E+04  0.13123293212E+04  0.10566000000E+00 0. -1.
        994    1    1    2    0    0  0.91690522668E+02  0.21527723008E+03  0.20466557033E+03  0.35489276326E+03  0.17120000000E+03 0.  0.
        998    1    1    2    0    0 -0.13118230325E+00 -0.44174646344E+00  0.39511217374E+01  0.39779154992E+01  0.10000000000E-01 0.  1.
</event>
<event>
 5    1  0.3934322E-009  0.3883009E+03  0.7957747E-01  0.3415792E+00
         13   -1    0    0    0    0  0.00000000000E+00  0.00000000000E+00  0.14999999963E+04  0.15000000000E+04  0.10566000000E+00 0.  1.
        994   -1    0    0    0    0 -0.00000000000E+00 -0.00000000000E+00  0.11368683772E-12  0.17120000000E+03  0.17120000000E+03 0.  0.
         13    1    1    2    0    0 -0.20991833317E+03 -0.98160722183E+02  0.12703618367E+04  0.12913250719E+04  0.10566000000E+00 0.  1.
        994    1    1    2    0    0  0.21350595303E+03  0.99782825642E+02  0.20812389889E+03  0.35800335412E+03  0.17120000000E+03 0.  0.
        998    1    1    2    0    0 -0.35876198528E+01 -0.16221034584E+01  0.21514260692E+02  0.21871573994E+02  0.10000000000E-01 0.  1.
</event>
<event>
 5    1  0.3934322E-009  0.3883010E+03  0.7957747E-01  0.3415792E+00
         13   -1    0    0    0    0  0.00000000000E+00  0.00000000000E+00  0.14999999963E+04  0.15000000000E+04  0.10566000000E+00 0.  1.
        994   -1    0    0    0    0 -0.00000000000E+00 -0.00000000000E+00  0.11368683772E-12  0.17120000000E+03  0.17120000000E+03 0.  0.
         13    1    1    2    0    0  0.14819947083E+03 -0.20086351977E+03  0.10212851742E+04  0.10513480180E+04  0.10566000000E+00 0.  1.
        994    1    1    2    0    0 -0.16908055549E+03  0.22917312228E+03  0.33483196075E+03  0.47173131777E+03  0.17120000000E+03 0.  0.
        998    1    1    2    0    0  0.20881084657E+02 -0.28309602517E+02  0.14388286134E+03  0.14812066426E+03  0.10000000000E-01 0.  0.
</event>
<event>
 5    1  0.3934322E-009  0.3860819E+03  0.7957747E-01  0.3425097E+00
         13   -1    0    0    0    0  0.00000000000E+00  0.00000000000E+00  0.14999999963E+04  0.15000000000E+04  0.10566000000E+00 0.  1.
        994   -1    0    0    0    0 -0.00000000000E+00 -0.00000000000E+00  0.11368683772E-12  0.17120000000E+03  0.17120000000E+03 0.  0.
         13    1    1    2    0    0 -0.18605412465E+03 -0.18919431348E+03  0.11066673832E+04  0.11380348561E+04  0.10566000000E+00 0.  1.
        994    1    1    2    0    0  0.20689058938E+03  0.19058094295E+03  0.32881913379E+03  0.46535607285E+03  0.17120000000E+03 0.  0.
        998    1    1    2    0    0 -0.20836464730E+02 -0.13866294778E+01  0.64513479313E+02  0.67809071051E+02  0.10000000000E-01 0.  1.
</event>
<event>
 5    1  0.3934322E-009  0.3882946E+03  0.7957747E-01  0.3415818E+00
         13   -1    0    0    0    0  0.00000000000E+00  0.00000000000E+00  0.14999999963E+04  0.15000000000E+04  0.10566000000E+00 0.  1.
        994   -1    0    0    0    0 -0.00000000000E+00 -0.00000000000E+00  0.11368683772E-12  0.17120000000E+03  0.17120000000E+03 0.  0.
         13    1    1    2    0    0  0.79360600226E+02 -0.25188388459E+03  0.12099382818E+04  0.12384241007E+04  0.10566000000E+00 0.  1.
        994    1    1    2    0    0 -0.80169481025E+02  0.25373879574E+03  0.28001109182E+03  0.42252357768E+03  0.17120000000E+03 0.  0.
        998    1    1    2    0    0  0.80888079834E+00 -0.18549111535E+01  0.10050622611E+02  0.10252321611E+02  0.10000000000E-01 0. -1.
</event>
<event>
 5    1  0.3934322E-009  0.3883010E+03  0.7957747E-01  0.3415792E+00
         13   -1    0    0    0    0  0.00000000000E+00  0.00000000000E+00  0.14999999963E+04  0.15000000000E+04  0.10566000000E+00 0.  1.
        994   -1    0    0    0    0 -0.00000000000E+00 -0.00000000000E+00  0.11368683772E-12  0.17120000000E+03  0.17120000000E+03 0.  0.
         13    1    1    2    0    0  0.28364004004E+03 -0.15790582276E+03  0.91900278189E+03  0.97465483401E+03  0.10566000000E+00 0.  1.
        994    1    1    2    0    0 -0.29096218065E+03  0.16198526834E+03  0.55730364161E+03  0.67141269475E+03  0.17120000000E+03 0.  0.
        998    1    1    2    0    0  0.73221406032E+01 -0.40794455827E+01  0.23693572783E+02  0.25132471237E+02  0.10000000000E-01 0. -1.
</event>
<event>
 5    1  0.3934322E-009  0.3882956E+03  0.7957747E-01  0.3415814E+00
         13   -1    0    0    0    0  0.00000000000E+00  0.00000000000E+00  0.14999999963E+04  0.15000000000E+04  0.10566000000E+00 0.  1.
        994   -1    0    0    0    0 -0.00000000000E+00 -0.00000000000E+00  0.11368683772E-12  0.17120000000E+03  0.17120000000E+03 0.  0.
         13    1    1    2    0    0 -0.24304200115E+03  0.58511744323E+01  0.12573677868E+04  0.12806550718E+04  0.10566000000E+00 0.  1.
        994    1    1    2    0    0  0.24558192568E+03 -0.61919834455E+01  0.22976709561E+03  0.37742705401E+03  0.17120000000E+03 0.  0.
        998    1    1    2    0    0 -0.25399245273E+01  0.34080901324E+00  0.12865113864E+02  0.13117874146E+02  0.10000000000E-01 0.  1.
</event>
<event>
 5    1  0.3934322E-009  0.3882828E+03  0.7957747E-01  0.3415868E+00
         13   -1    0    0    0    0  0.00000000000E+00  0.00000000000E+00  0.14999999963E+04  0.15000000000E+04  0.10566000000E+00 0. -1.
        994   -1    0    0    0    0 -0.00000000000E+00 -0.00000000000E+00  0.11368683772E-12  0.17120000000E+03  0.17120000000E+03 0.  0.
         13    1    1    2    0    0  0.25148491257E+03  0.20199820686E+02  0.12534985321E+04  0.12786364906E+04  0.10566000000E+00 0. -1.
        994    1    1    2    0    0 -0.25156777709E+03 -0.20166339992E+02  0.24534463699E+03  0.39140319191E+03  0.17120000000E+03 0.  0.
        998    1    1    2    0    0  0.82864524658E-01 -0.33480693615E-01  0.11568271684E+01  0.11603174495E+01  0.10000000000E-01 0.  1.
</event>
<event>
 5    1  0.3934322E-009  0.3810345E+03  0.7957747E-01  0.3446667E+00
         13   -1    0    0    0    0  0.00000000000E+00  0.00000000000E+00  0.14999999963E+04  0.15000000000E+04  0.10566000000E+00 0.  1.
        994   -1    0    0    0    0 -0.00000000000E+00 -0.00000000000E+00  0.11368683772E-12  0.17120000000E+03  0.17120000000E+03 0.  0.
         13    1    1    2    0    0 -0.26320968711E+02  0.14924843714E+02  0.10048225632E+03  0.10493921742E+03  0.10566000000E+00 0.  1.
        994    1    1    2    0    0 -0.11433842108E+02 -0.18741658329E+03  0.13168765813E+03  0.28619361933E+03  0.17120000000E+03 0.  0.
        998    1    1    2    0    0  0.37754810818E+02  0.17249173958E+03  0.12678300818E+04  0.12800671633E+04  0.10000000000E-01 0.  1.
</event>
<event>
 5    1  0.3934322E-009  0.3881497E+03  0.7957747E-01  0.3416423E+00
         13   -1    0    0    0    0  0.00000000000E+00  0.00000000000E+00  0.14999999963E+04  0.15000000000E+04  0.10566000000E+00 0. -1.
        994   -1    0    0    0    0 -0.00000000000E+00 -0.00000000000E+00  0.11368683772E-12  0.17120000000E+03  0.17120000000E+03 0.  0.
         13    1    1    2    0    0  0.23017069960E+03 -0.12404347165E+02  0.12696001211E+04  0.12903553377E+04  0.10566000000E+00 0. -1.
        994    1    1    2    0    0 -0.23588203910E+03  0.12142791598E+02  0.20942496356E+03  0.35910449610E+03  0.17120000000E+03 0.  0.
        998    1    1    2    0    0  0.57113395067E+01  0.26155556612E+00  0.20974911615E+02  0.21740166226E+02  0.10000000000E-01 0. -1.
</event>
<event>
 5    1  0.3934322E-009  0.3882932E+03  0.7957747E-01  0.3415824E+00
         13   -1    0    0    0    0  0.00000000000E+00  0.00000000000E+00  0.14999999963E+04  0.15000000000E+04  0.10566000000E+00 0.  1.
        994   -1    0    0    0    0 -0.00000000000E+00 -0.00000000000E+00  0.11368683772E-12  0.17120000000E+03  0.17120000000E+03 0.  0.
         13    1    1    2    0    0  0.76031113817E+01 -0.12139873403E+03  0.66124562741E+03  0.67234013033E+03  0.10566000000E+00 0.  1.
        994    1    1    2    0    0 -0.11552002265E+02  0.23696102441E+03  0.21142372894E+03  0.36096178330E+03  0.17120000000E+03 0.  0.
        998    1    1    2    0    0  0.39488908829E+01 -0.11556229038E+03  0.62733063993E+03  0.63789808636E+03  0.10000000000E-01 0.  1.
</event>
<event>
 5    1  0.3934322E-009  0.3883010E+03  0.7957747E-01  0.3415792E+00
         13   -1    0    0    0    0  0.00000000000E+00  0.00000000000E+00  0.14999999963E+04  0.15000000000E+04  0.10566000000E+00 0.  1.
        994   -1    0    0    0    0 -0.00000000000E+00 -0.00000000000E+00  0.11368683772E-12  0.17120000000E+03  0.17120000000E+03 0.  0.
         13    1    1    2    0    0  0.11719420821E+03  0.23082875223E+03  0.11937697844E+04  0.12215165593E+04  0.10566000000E+00 0.  1.
        994    1    1    2    0    0 -0.12002343447E+03 -0.23640284315E+03  0.27739284744E+03  0.42017634498E+03  0.17120000000E+03 0.  0.
        998    1    1    2    0    0  0.28292262573E+01  0.55740909187E+01  0.28837364420E+02  0.29507095714E+02  0.10000000000E-01 0.  0.
</event>
<event>
 5    1  0.3934322E-009  0.3883010E+03  0.7957747E-01  0.3415792E+00
         13   -1    0    0    0    0  0.00000000000E+00  0.00000000000E+00  0.14999999963E+04  0.15000000000E+04  0.10566000000E+00 0.  1.
        994   -1    0    0    0    0 -0.00000000000E+00 -0.00000000000E+00  0.11368683772E-12  0.17120000000E+03  0.17120000000E+03 0.  0.
         13    1    1    2    0    0  0.86651691542E+02 -0.13757706414E+03  0.86220300810E+03  0.87739956836E+03  0.10566000000E+00 0.  1.
        994    1    1    2    0    0 -0.12867638739E+03  0.20412006663E+03  0.22008895282E+03  0.36874273068E+03  0.17120000000E+03 0.  0.
        998    1    1    2    0    0  0.42024695852E+02 -0.66543002491E+02  0.41770803536E+03  0.42505770096E+03  0.10000000000E-01 0.  1.
</event>
<event>
 5    1  0.3934322E-009  0.3880520E+03  0.7957747E-01  0.3416830E+00
         13   -1    0    0    0    0  0.00000000000E+00  0.00000000000E+00  0.14999999963E+04  0.15000000000E+04  0.10566000000E+00 0. -1.
        994   -1    0    0    0    0 -0.00000000000E+00 -0.00000000000E+00  0.11368683772E-12  0.17120000000E+03  0.17120000000E+03 0.  0.
         13    1    1    2    0    0  0.21554198440E+03 -0.13949636535E+03  0.94886519188E+03  0.98298664615E+03  0.10566000000E+00 0. -1.
        994    1    1    2    0    0 -0.25631589541E+03  0.15648420963E+03  0.39006209705E+03  0.52119384653E+03  0.17120000000E+03 0.  0.
        998    1    1    2    0    0  0.40773911008E+02 -0.16987844276E+02  0.16107270736E+03  0.16701950733E+03  0.10000000000E-01 0. -1.
</event>
<event>
 5    1  0.3934322E-009  0.3881413E+03  0.7957747E-01  0.3416458E+00
         13   -1    0    0    0    0  0.00000000000E+00  0.00000000000E+00  0.14999999963E+04  0.15000000000E+04  0.10566000000E+00 0.  1.
        994   -1    0    0    0    0 -0.00000000000E+00 -0.00000000000E+00  0.11368683772E-12  0.17120000000E+03  0.17120000000E+03 0.  0.
         13    1    1    2    0    0  0.22910451440E+03  0.27962831990E+01  0.12542480561E+04  0.12750038804E+04  0.10566000000E+00 0.  1.
        994    1    1    2    0    0 -0.23418393320E+03 -0.44313769250E+01  0.20534953206E+03  0.35544285333E+03  0.17120000000E+03 0.  0.
        998    1    1    2    0    0  0.50794188004E+01  0.16350937260E+01  0.40402408158E+02  0.40753266271E+02  0.10000000000E-01 0.  1.
</event>
<event>
 5    1  0.3934322E-009  0.3882417E+03  0.7957747E-01  0.3416039E+00
         13   -1    0    0    0    0  0.00000000000E+00  0.00000000000E+00  0.14999999963E+04  0.15000000000E+04  0.10566000000E+00 0.  1.
        994   -1    0    0    0    0 -0.00000000000E+00 -0.00000000000E+00  0.11368683772E-12  0.17120000000E+03  0.17120000000E+03 0.  0.
         13    1    1    2    0    0  0.18359405819E+03  0.10130337226E+03  0.84957424839E+03  0.87506889222E+03  0.10566000000E+00 0.  1.
        994    1    1    2    0    0 -0.24719778101E+03 -0.13807203533E+03  0.32970411126E+03  0.46710263418E+03  0.17120000000E+03 0.  0.
        998    1    1    2    0    0  0.63603722817E+02  0.36768663078E+02  0.32072163663E+03  0.32902847360E+03  0.10000000000E-01 0.  1.
</event>
<event>
 5    1  0.3934322E-009  0.3882021E+03  0.7957747E-01  0.3416204E+00
         13   -1    0    0    0    0  0.00000000000E+00  0.00000000000E+00  0.14999999963E+04  0.15000000000E+04  0.10566000000E+00 0. -1.
        994   -1    0    0    0    0 -0.00000000000E+00 -0.00000000000E+00  0.11368683772E-12  0.17120000000E+03  0.17120000000E+03 0.  0.
         13    1    1    2    0    0 -0.20599080397E+03 -0.39132182428E+02  0.12401209888E+04  0.12577215976E+04  0.10566000000E+00 0. -1.
        994    1    1    2    0    0  0.21758302974E+03  0.44278115217E+02  0.18131546604E+03  0.33389768574E+03  0.17120000000E+03 0.  0.
        998    1    1    2    0    0 -0.11592225770E+02 -0.51459327888E+01  0.78563541405E+02  0.79580716638E+02  0.10000000000E-01 0. -1.
</event>
<event>
 5    1  0.3934322E-009  0.3882999E+03  0.7957747E-01  0.3415796E+00
         13   -1    0    0    0    0  0.00000000000E+00  0.00000000000E+00  0.14999999963E+04  0.15000000000E+04  0.10566000000E+00 0. -1.
        994   -1    0    0    0    0 -0.00000000000E+00 -0.00000000000E+00  0.11368683772E-12  0.17120000000E+03  0.17120000000E+03 0.  0.
         13    1    1    2    0    0  0.89466308115E+01  0.24554224462E+03  0.12605019651E+04  0.12842259347E+04  0.10566000000E+00 0. -1.
        994    1    1    2    0    0 -0.89644248014E+01 -0.24678309859E+03  0.23267374225E+03  0.38003785206E+03  0.17120000000E+03 0.  0.
        998    1    1    2    0    0  0.17793989978E-01  0.12408539672E+01  0.68242888825E+01  0.69362132281E+01  0.10000000000E-01 0. -1.
</event>
<event>
 5    1  0.3934322E-009  0.3836306E+03  0.7957747E-01  0.3435501E+00
         13   -1    0    0    0    0  0.00000000000E+00  0.00000000000E+00  0.14999999963E+04  0.15000000000E+04  0.10566000000E+00 0.  1.
        994   -1    0    0    0    0 -0.00000000000E+00 -0.00000000000E+00  0.11368683772E-12  0.17120000000E+03  0.17120000000E+03 0.  0.
         13    1    1    2    0    0 -0.84309279917E+01 -0.13302976296E+02  0.82991290184E+02  0.84472570315E+02  0.10566000000E+00 0.  1.
        994    1    1    2    0    0 -0.82077723073E+02 -0.12842643780E+02  0.25453676039E+02  0.19198701974E+03  0.17120000000E+03 0.  0.
        998    1    1    2    0    0  0.90508651065E+02  0.26145620075E+02  0.13915550301E+04  0.13947404099E+04  0.10000000000E-01 0.  1.
</event>
<event>
 5    1  0.3934322E-009  0.3883009E+03  0.7957747E-01  0.3415792E+00
         13   -1    0    0    0    0  0.00000000000E+00  0.00000000000E+00  0.14999999963E+04  0.15000000000E+04  0.10566000000E+00 0.  1.
        994   -1    0    0    0    0 -0.00000000000E+00 -0.00000000000E+00  0.11368683772E-12  0.17120000000E+03  0.17120000000E+03 0.  0.
         13    1    1    2    0    0  0.23522856323E+03  0.41457880583E+02  0.12756866243E+04  0.12978550025E+04  0.10566000000E+00 0.  1.
        994    1    1    2    0    0 -0.23646913844E+03 -0.41700348207E+02  0.21754221485E+03  0.36645685655E+03  0.17120000000E+03 0.  0.
        998    1    1    2    0    0  0.12405752043E+01  0.24246762380E+00  0.67711571371E+01  0.68881409946E+01  0.10000000000E-01 0.  1.
</event>
<event>
 5    1  0.3934322E-009  0.3883010E+03  0.7957747E-01  0.3415792E+00
         13   -1    0    0    0    0  0.00000000000E+00  0.00000000000E+00  0.14999999963E+04  0.15000000000E+04  0.10566000000E+00 0. -1.
        994   -1    0    0    0    0 -0.00000000000E+00 -0.00000000000E+00  0.11368683772E-12  0.17120000000E+03  0.17120000000E+03 0.  0.
         13    1    1    2    0    0  0.26108026287E+03  0.71483807076E+02  0.11745473517E+04  0.12053357752E+04  0.10566000000E+00 0. -1.
        994    1    1    2    0    0 -0.26548835283E+03 -0.72699665303E+02  0.30562799473E+03  0.44551904335E+03  0.17120000000E+03 0.  0.
        998    1    1    2    0    0  0.44080899602E+01  0.12158582272E+01  0.19824649823E+02  0.20345181467E+02  0.10000000000E-01 0.  0.
</event>
<event>
 5    1  0.1791031E-008  0.3882976E+03  0.7957747E-01  0.3415806E+00
         13   -1    0    0    0    0  0.00000000000E+00  0.00000000000E+00  0.14999999963E+04  0.15000000000E+04  0.10566000000E+00 0.  1.
        994   -1    0    0    0    0 -0.00000000000E+00 -0.00000000000E+00  0.11368683772E-12  0.17120000000E+03  0.17120000000E+03 0.  0.
         13    1    1    2    0    0  0.14686969612E+03 -0.27434196236E+03  0.10652521257E+04  0.11097730950E+04  0.10566000000E+00 0.  1.
        994    1    1    2    0    0 -0.14686743378E+03  0.27436710311E+03  0.43461101235E+03  0.56128737954E+03  0.17120000000E+03 0.  0.
        998    1    1    2    0    0 -0.22623372012E-02 -0.25140748775E-01  0.13685825140E+00  0.13952546862E+00  0.10000000000E-01 0.  1.
</event>
<event>
 5    1  0.3934322E-009  0.3883007E+03  0.7957747E-01  0.3415793E+00
         13   -1    0    0    0    0  0.00000000000E+00  0.00000000000E+00  0.14999999963E+04  0.15000000000E+04  0.10566000000E+00 0.  1.
        994   -1    0    0    0    0 -0.00000000000E+00 -0.00000000000E+00  0.11368683772E-12  0.17120000000E+03  0.17120000000E+03 0.  0.
         13    1    1    2    0    0  0.29507379683E+02 -0.25520341524E+03  0.12313076116E+04  0.12578226879E+04  0.10566000000E+00 0.  1.
        994    1    1    2    0    0 -0.29660866532E+02  0.25687547250E+03  0.26049127515E+03  0.40500607378E+03  0.17120000000E+03 0.  0.
        998    1    1    2    0    0  0.15348684836E+00 -0.16720572570E+01  0.82011095428E+01  0.83712383442E+01  0.10000000000E-01 0.  1.
</event>
<event>
 5    1  0.3934322E-009  0.3883008E+03  0.7957747E-01  0.3415793E+00
         13   -1    0    0    0    0  0.00000000000E+00  0.00000000000E+00  0.14999999963E+04  0.15000000000E+04  0.10566000000E+00 0. -1.
        994   -1    0    0    0    0 -0.00000000000E+00 -0.00000000000E+00  0.11368683772E-12  0.17120000000E+03  0.17120000000E+03 0.  0.
         13    1    1    2    0    0 -0.11822318278E+03 -0.27083109001E+03  0.10963380819E+04  0.11354661603E+04  0.10566000000E+00 0. -1.
        994    1    1    2    0    0  0.12001702171E+03  0.27478110158E+03  0.38755996565E+03  0.51905770995E+03  0.17120000000E+03 0.  0.
        998    1    1    2    0    0 -0.17938389392E+01 -0.39500115740E+01  0.16101948748E+02  0.16676129739E+02  0.10000000000E-01 0.  1.
</event>
<event>
 5    1  0.3934322E-009  0.3877550E+03  0.7957747E-01  0.3418071E+00
         13   -1    0    0    0    0  0.00000000000E+00  0.00000000000E+00  0.14999999963E+04  0.15000000000E+04  0.10566000000E+00 0.  1.
        994   -1    0    0    0    0 -0.00000000000E+00 -0.00000000000E+00  0.11368683772E-12  0.17120000000E+03  0.17120000000E+03 0.  0.
         13    1    1    2    0    0  0.10455826514E+03  0.18511844019E+03  0.12350803655E+04  0.12532457014E+04  0.10566000000E+00 0.  1.
        994    1    1    2    0    0 -0.11744692407E+03 -0.19410918008E+03  0.19112740853E+03  0.34250734307E+03  0.17120000000E+03 0.  0.
        998    1    1    2    0    0  0.12888658931E+02  0.89907398884E+01  0.73792222232E+02  0.75446955503E+02  0.10000000000E-01 0.  1.
</event>
<event>
 5    1  0.3934322E-009  0.3883009E+03  0.7957747E-01  0.3415792E+00
         13   -1    0    0    0    0  0.00000000000E+00  0.00000000000E+00  0.14999999963E+04  0.15000000000E+04  0.10566000000E+00 0. -1.
        994   -1    0    0    0    0 -0.00000000000E+00 -0.00000000000E+00  0.11368683772E-12  0.17120000000E+03  0.17120000000E+03 0.  0.
         13    1    1    2    0    0  0.16198892505E+03  0.14638260888E+03  0.13138656201E+04  0.13318825619E+04  0.10566000000E+00 0. -1.
        994    1    1    2    0    0 -0.16310805906E+03 -0.14737251974E+03  0.17706938507E+03  0.33013013439E+03  0.17120000000E+03 0.  0.
        998    1    1    2    0    0  0.11191340088E+01  0.98991086136E+00  0.90649911421E+01  0.91873036768E+01  0.10000000000E-01 0. -1.
</event>
<event>
 5    1  0.3934322E-009  0.3883009E+03  0.7957747E-01  0.3415792E+00
         13   -1    0    0    0    0  0.00000000000E+00  0.00000000000E+00  0.14999999963E+04  0.15000000000E+04  0.10566000000E+00 0. -1.
        994   -1    0    0    0    0 -0.00000000000E+00 -0.00000000000E+00  0.11368683772E-12  0.17120000000E+03  0.17120000000E+03 0.  0.
         13    1    1    2    0    0  0.16326250768E+03 -0.86933473644E+02  0.11072499108E+04  0.11225927362E+04  0.10566000000E+00 0. -1.
        994    1    1    2    0    0 -0.19475833232E+03  0.10385176037E+03  0.17871994236E+03  0.33161160103E+03  0.17120000000E+03 0.  0.
        998    1    1    2    0    0  0.31495824636E+02 -0.16918286731E+02  0.21403014312E+03  0.21699566277E+03  0.10000000000E-01 0. -1.
</event>
<event>
 5    1  0.3934322E-009  0.3882835E+03  0.7957747E-01  0.3415865E+00
         13   -1    0    0    0    0  0.00000000000E+00  0.00000000000E+00  0.14999999963E+04  0.15000000000E+04  0.10566000000E+00 0.  1.
        994   -1    0    0    0    0 -0.00000000000E+00 -0.00000000000E+00  0.11368683772E-12  0.17120000000E+03  0.17120000000E+03 0.  0.
         13    1    1    2    0    0 -0.20495920854E+03  0.10236073439E+03  0.13027858595E+04  0.13227762487E+04  0.10566000000E+00 0.  1.
        994    1    1    2    0    0  0.20518593721E+03 -0.10234157721E+03  0.19518932741E+03  0.34638617292E+03  0.17120000000E+03 0.  0.
        998    1    1    2    0    0 -0.22672866836E+00 -0.19157185886E-01  0.20248093322E+01  0.20375783957E+01  0.10000000000E-01 0. -1.
</event>
<event>
 5    1  0.3934322E-009  0.3883004E+03  0.7957747E-01  0.3415794E+00
         13   -1    0    0    0    0  0.00000000000E+00  0.00000000000E+00  0.14999999963E+04  0.15000000000E+04  0.10566000000E+00 0.  1.
        994   -1    0    0    0    0 -0.00000000000E+00 -0.00000000000E+00  0.11368683772E-12  0.17120000000E+03  0.17120000000E+03 0.  0.
         13    1    1    2    0    0  0.54939423764E+02  0.22914267214E+03  0.12905238183E+04  0.13118599168E+04  0.10566000000E+00 0.  1.
        994    1    1    2    0    0 -0.55004717711E+02 -0.22931729008E+03  0.20843611483E+03  0.35828339686E+03  0.17120000000E+03 0.  0.
        998    1    1    2    0    0  0.65293947400E-01  0.17461794044E+00  0.10400631618E+01  0.10566863797E+01  0.10000000000E-01 0.  1.
</event>
<event>
 5    1  0.3934322E-009  0.3868843E+03  0.7957747E-01  0.3421720E+00
         13   -1    0    0    0    0  0.00000000000E+00  0.00000000000E+00  0.14999999963E+04  0.15000000000E+04  0.10566000000E+00 0.  1.
        994   -1    0    0    0    0 -0.00000000000E+00 -0.00000000000E+00  0.11368683772E-12  0.17120000000E+03  0.17120000000E+03 0.  0.
         13    1    1    2    0    0  0.11212706903E+03 -0.36434648810E+02  0.66781284626E+03  0.67814008290E+03  0.10566000000E+00 0.  1.
        994    1    1    2    0    0 -0.18796600508E+03  0.51195052990E+02  0.13646383554E+03  0.29305967127E+03  0.17120000000E+03 0.  0.
        998    1    1    2    0    0  0.75838936047E+02 -0.14760404180E+02  0.69572331448E+03  0.70000024583E+03  0.10000000000E-01 0.  1.
</event>
<event>
 5    1  0.3934322E-009  0.3883009E+03  0.7957747E-01  0.3415792E+00
         13   -1    0    0    0    0  0.00000000000E+00  0.00000000000E+00  0.14999999963E+04  0.15000000000E+04  0.10566000000E+00 0. -1.
        994   -1    0    0    0    0 -0.00000000000E+00 -0.00000000000E+00  0.11368683772E-12  0.17120000000E+03  0.17120000000E+03 0.  0.
         13    1    1    2    0    0 -0.11035709729E+03 -0.18371221800E+03  0.12733272355E+04  0.12912362788E+04  0.10566000000E+00 0. -1.
        994    1    1    2    0    0  0.11430338408E+03  0.19024985458E+03  0.18101261430E+03  0.33366941321E+03  0.17120000000E+03 0.  0.
        998    1    1    2    0    0 -0.39462867849E+01 -0.65376365781E+01  0.45660146513E+02  0.46294307976E+02  0.10000000000E-01 0. -1.
</event>
<event>
 5    1  0.3934322E-009  0.3882792E+03  0.7957747E-01  0.3415883E+00
         13   -1    0    0    0    0  0.00000000000E+00  0.00000000000E+00  0.14999999963E+04  0.15000000000E+04  0.10566000000E+00 0. -1.
        994   -1    0    0    0    0 -0.00000000000E+00 -0.00000000000E+00  0.11368683772E-12  0.17120000000E+03  0.17120000000E+03 0.  0.
         13    1    1    2    0    0 -0.18684704832E+03  0.11409444966E+03  0.13179172406E+04  0.13359772555E+04  0.10566000000E+00 0. -1.
        994    1    1    2    0    0  0.18737442408E+03 -0.11431854602E+03  0.17648815715E+03  0.32959886889E+03  0.17120000000E+03 0.  0.
        998    1    1    2    0    0 -0.52737576596E+00  0.22409636233E+00  0.55945985392E+01  0.56238756381E+01  0.10000000000E-01 0.  1.
</event>
<event>
 5    1  0.3934322E-009  0.3883000E+03  0.7957747E-01  0.3415796E+00
         13   -1    0    0    0    0  0.00000000000E+00  0.00000000000E+00  0.14999999963E+04  0.15000000000E+04  0.10566000000E+00 0.  1.
        994   -1    0    0    0    0 -0.00000000000E+00 -0.00000000000E+00  0.11368683772E-12  0.17120000000E+03  0.17120000000E+03 0.  0.
         13    1    1    2    0    0  0.18857620393E+03  0.15414026057E+03  0.12746925777E+04  0.12977524353E+04  0.10566000000E+00 0.  1.
        994    1    1    2    0    0 -0.18859339445E+03 -0.15416200209E+03  0.22512148919E+03  0.37325931497E+03  0.17120000000E+03 0.  0.
        998    1    1    2    0    0  0.17190521779E-01  0.21741520316E-01  0.18592943499E+00  0.18824973450E+00  0.10000000000E-01 0.  1.
</event>
<event>
 5    1  0.3934322E-009  0.3882990E+03  0.7957747E-01  0.3415800E+00
         13   -1    0    0    0    0  0.00000000000E+00  0.00000000000E+00  0.14999999963E+04  0.15000000000E+04  0.10566000000E+00 0. -1.
        994   -1    0    0    0    0 -0.00000000000E+00 -0.00000000000E+00  0.11368683772E-12  0.17120000000E+03  0.17120000000E+03 0.  0.
         13    1    1    2    0    0 -0.14633593084E+03 -0.18585610576E+03  0.12815447326E+04  0.13031936194E+04  0.10566000000E+00 0. -1.
        994    1    1    2    0    0  0.14714008670E+03  0.18671450850E+03  0.21243162056E+03  0.36186896276E+03  0.17120000000E+03 0.  0.
        998    1    1    2    0    0 -0.80415585656E+00 -0.85840273404E+00  0.60236430889E+01  0.61374178575E+01  0.10000000000E-01 0.  1.
</event>
<event>
 5    1  0.3934322E-009  0.3883004E+03  0.7957747E-01  0.3415794E+00
         13   -1    0    0    0    0  0.00000000000E+00  0.00000000000E+00  0.14999999963E+04  0.15000000000E+04  0.10566000000E+00 0.  1.
        994   -1    0    0    0    0 -0.00000000000E+00 -0.00000000000E+00  0.11368683772E-12  0.17120000000E+03  0.17120000000E+03 0.  0.
         13    1    1    2    0    0  0.17211312174E+03  0.10073749902E+03  0.11942337141E+04  0.12107704759E+04  0.10566000000E+00 0.  1.
        994    1    1    2    0    0 -0.19057978108E+03 -0.11119264281E+03  0.17858800758E+03  0.33149294596E+03  0.17120000000E+03 0.  0.
        998    1    1    2    0    0  0.18466659337E+02  0.10455143786E+02  0.12717827461E+03  0.12893657810E+03  0.10000000000E-01 0. -1.
</event>
<event>
 5    1  0.3934322E-009  0.3883010E+03  0.7957747E-01  0.3415792E+00
         13   -1    0    0    0    0  0.00000000000E+00  0.00000000000E+00  0.14999999963E+04  0.15000000000E+04  0.10566000000E+00 0.  1.
        994   -1    0    0    0    0 -0.00000000000E+00 -0.00000000000E+00  0.11368683772E-12  0.17120000000E+03  0.17120000000E+03 0.  0.
         13    1    1    2    0    0  0.16381968356E+03  0.17925937464E+03  0.11411626687E+04  0.11667146436E+04  0.10566000000E+00 0.  1.
        994    1    1    2    0    0 -0.17667367034E+03 -0.19336899130E+03  0.26900555974E+03  0.41264825670E+03  0.17120000000E+03 0.  0.
        998    1    1    2    0    0  0.12853986780E+02  0.14109616658E+02  0.89831767854E+02  0.91837099661E+02  0.10000000000E-01 0. -1.
</event>
<event>
 5    1  0.3934322E-009  0.3882067E+03  0.7957747E-01  0.3416185E+00
         13   -1    0    0    0    0  0.00000000000E+00  0.00000000000E+00  0.14999999963E+04  0.15000000000E+04  0.10566000000E+00 0. -1.
        994   -1    0    0    0    0 -0.00000000000E+00 -0.00000000000E+00  0.11368683772E-12  0.17120000000E+03  0.17120000000E+03 0.  0.
         13    1    1    2    0    0  0.25391855552E+03  0.33913681153E+02  0.12144769805E+04  0.12412006759E+04  0.10566000000E+00 0. -1.
        994    1    1    2    0    0 -0.25769434936E+03 -0.33138025485E+02  0.26377033692E+03  0.40790775558E+03  0.17120000000E+03 0.  0.
        998    1    1    2    0    0  0.37757938394E+01 -0.77565566791E+00  0.21752678850E+02  0.22091568482E+02  0.10000000000E-01 0.  1.
</event>
<event>
 5    1  0.3934322E-009  0.3882409E+03  0.7957747E-01  0.3416042E+00
         13   -1    0    0    0    0  0.00000000000E+00  0.00000000000E+00  0.14999999963E+04  0.15000000000E+04  0.10566000000E+00 0.  1.
        994   -1    0    0    0    0 -0.00000000000E+00 -0.00000000000E+00  0.11368683772E-12  0.17120000000E+03  0.17120000000E+03 0.  0.
         13    1    1    2    0    0  0.26932166155E+02  0.24514055552E+03  0.11112126228E+04  0.11382498573E+04  0.10566000000E+00 0.  1.
        994    1    1    2    0    0 -0.27523576820E+02 -0.26882681824E+03  0.29140199286E+03  0.43272389226E+03  0.17120000000E+03 0.  0.
        998    1    1    2    0    0  0.59141066488E+00  0.23686262724E+02  0.97385380629E+02  0.10022625040E+03  0.10000000000E-01 0. -1.
</event>
<event>
 5    1  0.3934322E-009  0.3883005E+03  0.7957747E-01  0.3415794E+00
         13   -1    0    0    0    0  0.00000000000E+00  0.00000000000E+00  0.14999999963E+04  0.15000000000E+04  0.10566000000E+00 0.  1.
        994   -1    0    0    0    0 -0.00000000000E+00 -0.00000000000E+00  0.11368683772E-12  0.17120000000E+03  0.17120000000E+03 0.  0.
         13    1    1    2    0    0 -0.21158583023E+03 -0.14040797453E+03  0.11861030004E+04  0.12129811629E+04  0.10566000000E+00 0.  1.
        994    1    1    2    0    0  0.21906744912E+03  0.14554403650E+03  0.27181784050E+03  0.41517224406E+03  0.17120000000E+03 0.  0.
        998    1    1    2    0    0 -0.74816188860E+01 -0.51360619684E+01  0.42079155388E+02  0.43046593035E+02  0.10000000000E-01 0.  1.
</event>
<event>
 5    1  0.3934322E-009  0.3883006E+03  0.7957747E-01  0.3415793E+00
         13   -1    0    0    0    0  0.00000000000E+00  0.00000000000E+00  0.14999999963E+04  0.15000000000E+04  0.10566000000E+00 0. -1.
        994   -1    0    0    0    0 -0.00000000000E+00 -0.00000000000E+00  0.11368683772E-12  0.17120000000E+03  0.17120000000E+03 0.  0.
         13    1    1    2    0    0  0.21336241599E+03 -0.76295388447E+02  0.76304585118E+03  0.79597957827E+03  0.10566000000E+00 0. -1.
        994    1    1    2    0    0 -0.29529785712E+03  0.10551644714E+03  0.44551617895E+03  0.57107674681E+03  0.17120000000E+03 0.  0.
        998    1    1    2    0    0  0.81935441129E+02 -0.29221058688E+02  0.29143796614E+03  0.30414367492E+03  0.10000000000E-01 0. -1.
</event>
<event>
 5    1  0.3934322E-009  0.3883008E+03  0.7957747E-01  0.3415793E+00
         13   -1    0    0    0    0  0.00000000000E+00  0.00000000000E+00  0.14999999963E+04  0.15000000000E+04  0.10566000000E+00 0.  1.
        994   -1    0    0    0    0 -0.00000000000E+00 -0.00000000000E+00  0.11368683772E-12  0.17120000000E+03  0.17120000000E+03 0.  0.
         13    1    1    2    0    0  0.95466966916E+02 -0.20394755996E+03  0.12490800232E+04  0.12692160826E+04  0.10566000000E+00 0.  1.
        994    1    1    2    0    0 -0.98968907720E+02  0.21166863113E+03  0.20397400971E+03  0.35427854964E+03  0.17120000000E+03 0.  0.
        998    1    1    2    0    0  0.35019408034E+01 -0.77210711715E+01  0.46945963413E+02  0.47705367730E+02  0.10000000000E-01 0. -1.
</event>
<event>
 5    1  0.3934322E-009  0.3883010E+03  0.7957747E-01  0.3415792E+00
         13   -1    0    0    0    0  0.00000000000E+00  0.00000000000E+00  0.14999999963E+04  0.15000000000E+04  0.10566000000E+00 0.  1.
        994   -1    0    0    0    0 -0.00000000000E+00 -0.00000000000E+00  0.11368683772E-12  0.17120000000E+03  0.17120000000E+03 0.  0.
         13    1    1    2    0    0 -0.12269313656E+03  0.23971757461E+03  0.11887833354E+04  0.12189027652E+04  0.10566000000E+00 0.  1.
        994    1    1    2    0    0  0.12411723780E+03 -0.24249674017E+03  0.29742405676E+03  0.43815552861E+03  0.17120000000E+03 0.  0.
        998    1    1    2    0    0 -0.14241012399E+01  0.27791655563E+01  0.13792604118E+02  0.14141706187E+02  0.10000000000E-01 0.  0.
</event>
<event>
 5    1  0.3934322E-009  0.3882472E+03  0.7957747E-01  0.3416016E+00
         13   -1    0    0    0    0  0.00000000000E+00  0.00000000000E+00  0.14999999963E+04  0.15000000000E+04  0.10566000000E+00 0.  1.
        994   -1    0    0    0    0 -0.00000000000E+00 -0.00000000000E+00  0.11368683772E-12  0.17120000000E+03  0.17120000000E+03 0.  0.
         13    1    1    2    0    0 -0.11058822341E+03 -0.18560282187E+03  0.13002427058E+04  0.13180702818E+04  0.10566000000E+00 0.  1.
        994    1    1    2    0    0  0.11356298126E+03  0.18832111491E+03  0.17729644179E+03  0.33031025008E+03  0.17120000000E+03 0.  0.
        998    1    1    2    0    0 -0.29747578537E+01 -0.27182930350E+01  0.22460848695E+02  0.22819468123E+02  0.10000000000E-01 0. -1.
</event>
<event>
 5    1  0.3934322E-009  0.3883006E+03  0.7957747E-01  0.3415794E+00
         13   -1    0    0    0    0  0.00000000000E+00  0.00000000000E+00  0.14999999963E+04  0.15000000000E+04  0.10566000000E+00 0.  1.
        994   -1    0    0    0    0 -0.00000000000E+00 -0.00000000000E+00  0.11368683772E-12  0.17120000000E+03  0.17120000000E+03 0.  0.
         13    1    1    2    0    0 -0.76103371155E+02 -0.21925326505E+03  0.12989174879E+04  0.13194886771E+04  0.10566000000E+00 0.  1.
        994    1    1    2    0    0  0.76120569336E+02  0.21929144716E+03  0.20084538794E+03  0.35147032553E+03  0.17120000000E+03 0.  0.
        998    1    1    2    0    0 -0.17198180812E-01 -0.38182105634E-01  0.23712040198E+00  0.24099737685E+00  0.10000000000E-01 0.  0.
</event>
<event>
 5    1  0.3934322E-009  0.3883008E+03  0.7957747E-01  0.3415793E+00
         13   -1    0    0    0    0  0.00000000000E+00  0.00000000000E+00  0.14999999963E+04  0.15000000000E+04  0.10566000000E+00 0.  1.
        994   -1    0    0    0    0 -0.00000000000E+00 -0.00000000000E+00  0.11368683772E-12  0.17120000000E+03  0.17120000000E+03 0.  0.
         13    1    1    2    0    0 -0.18137834304E+03 -0.11411229945E+03  0.92578574559E+03  0.95026258377E+03  0.10566000000E+00 0.  1.
        994    1    1    2    0    0  0.23370343952E+03  0.14710629012E+03  0.30822551189E+03  0.44785038174E+03  0.17120000000E+03 0.  0.
        998    1    1    2    0    0 -0.52325096488E+02 -0.32993990673E+02  0.26598873880E+03  0.27308703450E+03  0.10000000000E-01 0.  1.
</event>
<event>
 5    1  0.3934322E-009  0.3882326E+03  0.7957747E-01  0.3416077E+00
         13   -1    0    0    0    0  0.00000000000E+00  0.00000000000E+00  0.14999999963E+04  0.15000000000E+04  0.10566000000E+00 0.  1.
        994   -1    0    0    0    0 -0.00000000000E+00 -0.00000000000E+00  0.11368683772E-12  0.17120000000E+03  0.17120000000E+03 0.  0.
         13    1    1    2    0    0  0.22624524080E+03  0.62290431663E+02  0.12883286482E+04  0.13095257629E+04  0.10566000000E+00 0.  1.
        994    1    1    2    0    0 -0.22696253242E+03 -0.61919455183E+02  0.20735644076E+03  0.35728440153E+03  0.17120000000E+03 0.  0.
        998    1    1    2    0    0  0.71729161851E+00 -0.37097647950E+00  0.43149073450E+01  0.43898355562E+01  0.10000000000E-01 0. -1.
</event>
<event>
 5    1  0.3934322E-009  0.3883005E+03  0.7957747E-01  0.3415794E+00
         13   -1    0    0    0    0  0.00000000000E+00  0.00000000000E+00  0.14999999963E+04  0.15000000000E+04  0.10566000000E+00 0. -1.
        994   -1    0    0    0    0 -0.00000000000E+00 -0.00000000000E+00  0.11368683772E-12  0.17120000000E+03  0.17120000000E+03 0.  0.
         13    1    1    2    0    0 -0.23226599744E+03  0.12746690307E+02  0.12800378097E+04  0.13010022202E+04  0.10566000000E+00 0. -1.
        994    1    1    2    0    0  0.23468078397E+03 -0.12799950921E+02  0.20678984263E+03  0.35680581290E+03  0.17120000000E+03 0.  0.
        998    1    1    2    0    0 -0.24147865270E+01  0.53260614128E-01  0.13172343999E+02  0.13391966886E+02  0.10000000000E-01 0. -1.
</event>
<event>
 5    1  0.3934322E-009  0.3883008E+03  0.7957747E-01  0.3415792E+00
         13   -1    0    0    0    0  0.00000000000E+00  0.00000000000E+00  0.14999999963E+04  0.15000000000E+04  0.10566000000E+00 0.  1.
        994   -1    0    0    0    0 -0.00000000000E+00 -0.00000000000E+00  0.11368683772E-12  0.17120000000E+03  0.17120000000E+03 0.  0.
         13    1    1    2    0    0  0.12691292543E+03  0.20548630453E+02  0.72282508021E+03  0.73416976552E+03  0.10566000000E+00 0.  1.
        994    1    1    2    0    0 -0.22841630386E+03 -0.36588335099E+02  0.19923158076E+03  0.35002196632E+03  0.17120000000E+03 0.  0.
        998    1    1    2    0    0  0.10150337843E+03  0.16039704646E+02  0.57794333531E+03  0.58700826816E+03  0.10000000000E-01 0.  1.
</event>
<event>
 5    1  0.3934322E-009  0.3883009E+03  0.7957747E-01  0.3415792E+00
         13   -1    0    0    0    0  0.00000000000E+00  0.00000000000E+00  0.14999999963E+04  0.15000000000E+04  0.10566000000E+00 0. -1.
        994   -1    0    0    0    0 -0.00000000000E+00 -0.00000000000E+00  0.11368683772E-12  0.17120000000E+03  0.17120000000E+03 0.  0.
         13    1    1    2    0    0 -0.20346411925E+03 -0.30974538336E+02  0.90993677032E+03  0.93292122229E+03  0.10566000000E+00 0. -1.
        994    1    1    2    0    0  0.26914246147E+03  0.41090491877E+02  0.29698795749E+03  0.43776406886E+03  0.17120000000E+03 0.  0.
        998    1    1    2    0    0 -0.65678342214E+02 -0.10115953542E+02  0.29307526847E+03  0.30051470886E+03  0.10000000000E-01 0. -1.
</event>
<event>
 5    1  0.3934322E-009  0.3882997E+03  0.7957747E-01  0.3415797E+00
         13   -1    0    0    0    0  0.00000000000E+00  0.00000000000E+00  0.14999999963E+04  0.15000000000E+04  0.10566000000E+00 0.  1.
        994   -1    0    0    0    0 -0.00000000000E+00 -0.00000000000E+00  0.11368683772E-12  0.17120000000E+03  0.17120000000E+03 0.  0.
         13    1    1    2    0    0 -0.25285247077E+03  0.40589244247E+02  0.12154700864E+04  0.12421551436E+04  0.10566000000E+00 0.  1.
        994    1    1    2    0    0  0.25706690401E+03 -0.41333554249E+02  0.26501166009E+03  0.40906292404E+03  0.17120000000E+03 0.  0.
        998    1    1    2    0    0 -0.42144332447E+01  0.74431000226E+00  0.19518249782E+02  0.19981932326E+02  0.10000000000E-01 0.  1.
</event>
<event>
 5    1  0.3934322E-009  0.3857127E+03  0.7957747E-01  0.3426655E+00
         13   -1    0    0    0    0  0.00000000000E+00  0.00000000000E+00  0.14999999963E+04  0.15000000000E+04  0.10566000000E+00 0.  1.
        994   -1    0    0    0    0 -0.00000000000E+00 -0.00000000000E+00  0.11368683772E-12  0.17120000000E+03  0.17120000000E+03 0.  0.
         13    1    1    2    0    0 -0.60496685592E+01 -0.11843285490E+03  0.51423444040E+03  0.52773100200E+03  0.10566000000E+00 0.  1.
        994    1    1    2    0    0  0.36594974224E+02  0.22550872876E+03  0.19694555652E+03  0.34682902289E+03  0.17120000000E+03 0.  0.
        998    1    1    2    0    0 -0.30545305665E+02 -0.10707587387E+03  0.78881999936E+03  0.79663997512E+03  0.10000000000E-01 0.  1.
</event>
<event>
 5    1  0.3934322E-009  0.3882797E+03  0.7957747E-01  0.3415881E+00
         13   -1    0    0    0    0  0.00000000000E+00  0.00000000000E+00  0.14999999963E+04  0.15000000000E+04  0.10566000000E+00 0. -1.
        994   -1    0    0    0    0 -0.00000000000E+00 -0.00000000000E+00  0.11368683772E-12  0.17120000000E+03  0.17120000000E+03 0.  0.
         13    1    1    2    0    0 -0.80145813112E+02  0.30913373830E+03  0.10229149252E+04  0.10716071924E+04  0.10566000000E+00 0. -1.
        994    1    1    2    0    0  0.80383859198E+02 -0.30939768797E+03  0.47565043909E+03  0.59811476687E+03  0.17120000000E+03 0.  0.
        998    1    1    2    0    0 -0.23804608559E+00  0.26394966844E+00  0.14346320211E+01  0.14780407310E+01  0.10000000000E-01 0.  1.
</event>
<event>
 5    1  0.3934322E-009  0.3872472E+03  0.7957747E-01  0.3420197E+00
         13   -1    0    0    0    0  0.00000000000E+00  0.00000000000E+00  0.14999999963E+04  0.15000000000E+04  0.10566000000E+00 0. -1.
        994   -1    0    0    0    0 -0.00000000000E+00 -0.00000000000E+00  0.11368683772E-12  0.17120000000E+03  0.17120000000E+03 0.  0.
         13    1    1    2    0    0 -0.15603195606E+03  0.14010162544E+03  0.11913770636E+04  0.12096915953E+04  0.10566000000E+00 0. -1.
        994    1    1    2    0    0  0.17537744029E+03 -0.14221844737E+03  0.18968421607E+03  0.34098808654E+03  0.17120000000E+03 0.  0.
        998    1    1    2    0    0 -0.19345484228E+02  0.21168219339E+01  0.11893871658E+03  0.12052031819E+03  0.10000000000E-01 0.  1.
</event>
<event>
 5    1  0.3934322E-009  0.3882953E+03  0.7957747E-01  0.3415816E+00
         13   -1    0    0    0    0  0.00000000000E+00  0.00000000000E+00  0.14999999963E+04  0.15000000000E+04  0.10566000000E+00 0.  1.
        994   -1    0    0    0    0 -0.00000000000E+00 -0.00000000000E+00  0.11368683772E-12  0.17120000000E+03  0.17120000000E+03 0.  0.
         13    1    1    2    0    0 -0.76561258222E+02 -0.21389792614E+03  0.12615171621E+04  0.12818110276E+04  0.10566000000E+00 0.  1.
        994    1    1    2    0    0  0.78956767531E+02  0.21947294616E+03  0.20312302930E+03  0.35351230568E+03  0.17120000000E+03 0.  0.
        998    1    1    2    0    0 -0.23955093087E+01 -0.55750200186E+01  0.35359804913E+02  0.35876666743E+02  0.10000000000E-01 0.  1.
</event>
<event>
 5    1  0.3934322E-009  0.3880661E+03  0.7957747E-01  0.3416772E+00
         13   -1    0    0    0    0  0.00000000000E+00  0.00000000000E+00  0.14999999963E+04  0.15000000000E+04  0.10566000000E+00 0. -1.
        994   -1    0    0    0    0 -0.00000000000E+00 -0.00000000000E+00  0.11368683772E-12  0.17120000000E+03  0.17120000000E+03 0.  0.
         13    1    1    2    0    0 -0.17409234106E+03 -0.25226848994E+00  0.65378088126E+03  0.67656312250E+03  0.10566000000E+00 0. -1.
        994    1    1    2    0    0  0.29010042389E+03  0.68856105779E+01  0.35325830364E+03  0.48816650506E+03  0.17120000000E+03 0.  0.
        998    1    1    2    0    0 -0.11600808283E+03 -0.66333420879E+01  0.49296081138E+03  0.50647037244E+03  0.10000000000E-01 0. -1.
</event>
<event>
 5    1  0.3934322E-009  0.3883009E+03  0.7957747E-01  0.3415792E+00
         13   -1    0    0    0    0  0.00000000000E+00  0.00000000000E+00  0.14999999963E+04  0.15000000000E+04  0.10566000000E+00 0.  1.
        994   -1    0    0    0    0 -0.00000000000E+00 -0.00000000000E+00  0.11368683772E-12  0.17120000000E+03  0.17120000000E+03 0.  0.
         13    1    1    2    0    0 -0.23944755684E+03 -0.21562607973E+02  0.12798733382E+04  0.13022579820E+04  0.10566000000E+00 0.  1.
        994    1    1    2    0    0  0.23970222617E+03  0.21583544295E+02  0.21873957956E+03  0.36753156366E+03  0.17120000000E+03 0.  0.
        998    1    1    2    0    0 -0.25466933662E+00 -0.20936321869E-01  0.13870785010E+01  0.14104543837E+01  0.10000000000E-01 0.  0.
</event>
<event>
 5    1  0.3934322E-009  0.3828106E+03  0.7957747E-01  0.3439011E+00
         13   -1    0    0    0    0  0.00000000000E+00  0.00000000000E+00  0.14999999963E+04  0.15000000000E+04  0.10566000000E+00 0. -1.
        994   -1    0    0    0    0 -0.00000000000E+00 -0.00000000000E+00  0.11368683772E-12  0.17120000000E+03  0.17120000000E+03 0.  0.
         13    1    1    2    0    0  0.54497307497E+02 -0.31689560191E+02  0.28836304223E+03  0.29517357612E+03  0.10566000000E+00 0. -1.
        994    1    1    2    0    0 -0.91420288320E+02  0.12231211474E+03  0.84230506216E+02  0.24438113819E+03  0.17120000000E+03 0.  0.
        998    1    1    2    0    0  0.36922980823E+02 -0.90622554546E+02  0.11274064478E+04  0.11316452857E+04  0.10000000000E-01 0. -1.
</event>
<event>
 5    1  0.3934322E-009  0.3882976E+03  0.7957747E-01  0.3415806E+00
         13   -1    0    0    0    0  0.00000000000E+00  0.00000000000E+00  0.14999999963E+04  0.15000000000E+04  0.10566000000E+00 0.  1.
        994   -1    0    0    0    0 -0.00000000000E+00 -0.00000000000E+00  0.11368683772E-12  0.17120000000E+03  0.17120000000E+03 0.  0.
         13    1    1    2    0    0  0.66163529433E+02  0.44092812596E+02  0.30463592624E+03  0.31484098760E+03  0.10566000000E+00 0.  1.
        994    1    1    2    0    0 -0.24737506392E+03 -0.16048257765E+03  0.36909835143E+03  0.50248593315E+03  0.17120000000E+03 0.  0.
        998    1    1    2    0    0  0.18121153449E+03  0.11638976505E+03  0.82626571860E+03  0.85387307926E+03  0.10000000000E-01 0.  1.
</event>
<event>
 5    1  0.3934322E-009  0.3883009E+03  0.7957747E-01  0.3415792E+00
         13   -1    0    0    0    0  0.00000000000E+00  0.00000000000E+00  0.14999999963E+04  0.15000000000E+04  0.10566000000E+00 0. -1.
        994   -1    0    0    0    0 -0.00000000000E+00 -0.00000000000E+00  0.11368683772E-12  0.17120000000E+03  0.17120000000E+03 0.  0.
         13    1    1    2    0    0  0.56436581643E+02 -0.20518732265E+03  0.10368971590E+04  0.10585096384E+04  0.10566000000E+00 0. -1.
        994    1    1    2    0    0 -0.67680202448E+02  0.24662125962E+03  0.25344195161E+03  0.39867896651E+03  0.17120000000E+03 0.  0.
        998    1    1    2    0    0  0.11243620805E+02 -0.41433936965E+02  0.20966088565E+03  0.21401139505E+03  0.10000000000E-01 0. -1.
</event>
<event>
 5    1  0.3934322E-009  0.3883003E+03  0.7957747E-01  0.3415795E+00
         13   -1    0    0    0    0  0.00000000000E+00  0.00000000000E+00  0.14999999963E+04  0.15000000000E+04  0.10566000000E+00 0. -1.
        994   -1    0    0    0    0 -0.00000000000E+00 -0.00000000000E+00  0.11368683772E-12  0.17120000000E+03  0.17120000000E+03 0.  0.
         13    1    1    2    0    0  0.25986342582E+03  0.29412804953E+02  0.12173014388E+04  0.12450770728E+04  0.10566000000E+00 0. -1.
        994    1    1    2    0    0 -0.26187070435E+03 -0.29729230369E+02  0.27324090071E+03  0.41644942401E+03  0.17120000000E+03 0.  0.
        998    1    1    2    0    0  0.20072785337E+01  0.31642541554E+00  0.94576567358E+01  0.96735031445E+01  0.10000000000E-01 0. -1.
</event>
<event>
 5    1  0.3934322E-009  0.3882954E+03  0.7957747E-01  0.3415815E+00
         13   -1    0    0    0    0  0.00000000000E+00  0.00000000000E+00  0.14999999963E+04  0.15000000000E+04  0.10566000000E+00 0.  1.
        994   -1    0    0    0    0 -0.00000000000E+00 -0.00000000000E+00  0.11368683772E-12  0.17120000000E+03  0.17120000000E+03 0.  0.
         13    1    1    2    0    0 -0.21778867820E+03 -0.21492139024E+02  0.13221008514E+04  0.13400912256E+04  0.10566000000E+00 0.  1.
        994    1    1    2    0    0  0.21803375785E+03  0.21561400276E+02  0.17573869091E+03  0.32893333827E+03  0.17120000000E+03 0.  0.
        998    1    1    2    0    0 -0.24507965561E+00 -0.69261252184E-01  0.21604539550E+01  0.21754361518E+01  0.10000000000E-01 0.  1.
</event>
<event>
 5    1  0.3934322E-009  0.3883010E+03  0.7957747E-01  0.3415792E+00
         13   -1    0    0    0    0  0.00000000000E+00  0.00000000000E+00  0.14999999963E+04  0.15000000000E+04  0.10566000000E+00 0. -1.
        994   -1    0    0    0    0 -0.00000000000E+00 -0.00000000000E+00  0.11368683772E-12  0.17120000000E+03  0.17120000000E+03 0.  0.
         13    1    1    2    0    0  0.56629899196E+02  0.20923362385E+03  0.12687079930E+04  0.12870919305E+04  0.10566000000E+00 0. -1.
        994    1    1    2    0    0 -0.58661788456E+02 -0.21671661483E+03  0.18587271512E+03  0.33803165945E+03  0.17120000000E+03 0.  0.
        998    1    1    2    0    0  0.20318892601E+01  0.74829909799E+01  0.45419288160E+02  0.46076410070E+02  0.10000000000E-01 0.  0.
</event>
<event>
 5    1  0.3934322E-009  0.3882843E+03  0.7957747E-01  0.3415861E+00
         13   -1    0    0    0    0  0.00000000000E+00  0.00000000000E+00  0.14999999963E+04  0.15000000000E+04  0.10566000000E+00 0. -1.
        994   -1    0    0    0    0 -0.00000000000E+00 -0.00000000000E+00  0.11368683772E-12  0.17120000000E+03  0.17120000000E+03 0.  0.
         13    1    1    2    0    0 -0.27724109581E+03 -0.10412730944E+03  0.11261519628E+04  0.11644412292E+04  0.10566000000E+00 0. -1.
        994    1    1    2    0    0  0.27722913114E+03  0.10415883694E+03  0.37377466448E+03  0.50667740651E+03  0.17120000000E+03 0.  0.
        998    1    1    2    0    0  0.11964678574E-01 -0.31527500413E-01  0.73368965146E-01  0.81364254205E-01  0.10000000000E-01 0.  1.
</event>
<event>
 5    1  0.3934322E-009  0.3880872E+03  0.7957747E-01  0.3416684E+00
         13   -1    0    0    0    0  0.00000000000E+00  0.00000000000E+00  0.14999999963E+04  0.15000000000E+04  0.10566000000E+00 0. -1.
        994   -1    0    0    0    0 -0.00000000000E+00 -0.00000000000E+00  0.11368683772E-12  0.17120000000E+03  0.17120000000E+03 0.  0.
         13    1    1    2    0    0 -0.16928273938E+02  0.22632408017E+03  0.13008884147E+04  0.13205377066E+04  0.10566000000E+00 0. -1.
        994    1    1    2    0    0  0.18170124479E+02 -0.22693904130E+03  0.19224066317E+03  0.34365301463E+03  0.17120000000E+03 0.  0.
        998    1    1    2    0    0 -0.12418505407E+01  0.61496112757E+00  0.68709183821E+01  0.70092788051E+01  0.10000000000E-01 0. -1.
</event>
<event>
 5    1  0.3934322E-009  0.3881957E+03  0.7957747E-01  0.3416231E+00
         13   -1    0    0    0    0  0.00000000000E+00  0.00000000000E+00  0.14999999963E+04  0.15000000000E+04  0.10566000000E+00 0.  1.
        994   -1    0    0    0    0 -0.00000000000E+00 -0.00000000000E+00  0.11368683772E-12  0.17120000000E+03  0.17120000000E+03 0.  0.
         13    1    1    2    0    0  0.16736431221E+02 -0.21685621034E+03  0.13116927804E+04  0.13296032060E+04  0.10566000000E+00 0.  1.
        994    1    1    2    0    0 -0.15836365320E+02  0.21834817131E+03  0.17553793062E+03  0.32870917156E+03  0.17120000000E+03 0.  0.
        998    1    1    2    0    0 -0.90006590106E+00 -0.14919609642E+01  0.12769285306E+02  0.12887622487E+02  0.10000000000E-01 0. -1.
</event>
<event>
 5    1  0.3934322E-009  0.3883010E+03  0.7957747E-01  0.3415792E+00
         13   -1    0    0    0    0  0.00000000000E+00  0.00000000000E+00  0.14999999963E+04  0.15000000000E+04  0.10566000000E+00 0. -1.
        994   -1    0    0    0    0 -0.00000000000E+00 -0.00000000000E+00  0.11368683772E-12  0.17120000000E+03  0.17120000000E+03 0.  0.
         13    1    1    2    0    0  0.22188773287E+03 -0.41269605027E+02  0.11883660137E+04  0.12096078455E+04  0.10566000000E+00 0. -1.
        994    1    1    2    0    0 -0.23848074774E+03  0.44349379364E+02  0.22287950260E+03  0.37124742043E+03  0.17120000000E+03 0.  0.
        998    1    1    2    0    0  0.16593014876E+02 -0.30797743373E+01  0.88754479978E+02  0.90344734040E+02  0.10000000000E-01 0. -1.
</event>
<event>
 5    1  0.3934322E-009  0.3877734E+03  0.7957747E-01  0.3417995E+00
         13   -1    0    0    0    0  0.00000000000E+00  0.00000000000E+00  0.14999999963E+04  0.15000000000E+04  0.10566000000E+00 0.  1.
        994   -1    0    0    0    0 -0.00000000000E+00 -0.00000000000E+00  0.11368683772E-12  0.17120000000E+03  0.17120000000E+03 0.  0.
         13    1    1    2    0    0 -0.11465346160E+03 -0.14284102195E+03  0.10715650924E+04  0.10871065873E+04  0.10566000000E+00 0.  1.
        994    1    1    2    0    0  0.12930001319E+03  0.17263862364E+03  0.17019067611E+03  0.32372348389E+03  0.17120000000E+03 0.  0.
        998    1    1    2    0    0 -0.14646551588E+02 -0.29797601689E+02  0.25824422780E+03  0.26036992882E+03  0.10000000000E-01 0. -1.
</event>
<event>
 5    1  0.3934322E-009  0.3882277E+03  0.7957747E-01  0.3416097E+00
         13   -1    0    0    0    0  0.00000000000E+00  0.00000000000E+00  0.14999999963E+04  0.15000000000E+04  0.10566000000E+00 0.  1.
        994   -1    0    0    0    0 -0.00000000000E+00 -0.00000000000E+00  0.11368683772E-12  0.17120000000E+03  0.17120000000E+03 0.  0.
         13    1    1    2    0    0  0.23744937326E+03  0.16454010952E+03  0.11249419015E+04  0.11614430444E+04  0.10566000000E+00 0.  1.
        994    1    1    2    0    0 -0.23997838721E+03 -0.16760794399E+03  0.36161717960E+03  0.49574032900E+03  0.17120000000E+03 0.  0.
        998    1    1    2    0    0  0.25290139550E+01  0.30678344772E+01  0.13440915144E+02  0.14016626551E+02  0.10000000000E-01 0. -1.
</event>
<event>
 5    1  0.3934322E-009  0.3847693E+03  0.7957747E-01  0.3430651E+00
         13   -1    0    0    0    0  0.00000000000E+00  0.00000000000E+00  0.14999999963E+04  0.15000000000E+04  0.10566000000E+00 0.  1.
        994   -1    0    0    0    0 -0.00000000000E+00 -0.00000000000E+00  0.11368683772E-12  0.17120000000E+03  0.17120000000E+03 0.  0.
         13    1    1    2    0    0  0.13601701205E+01  0.26263103883E+02  0.13810658652E+03  0.14058819685E+03  0.10566000000E+00 0.  1.
        994    1    1    2    0    0  0.89915708060E+02 -0.78362791328E+02  0.50055496066E+02  0.21457062778E+03  0.17120000000E+03 0.  0.
        998    1    1    2    0    0 -0.91275878180E+02  0.52099687445E+02  0.13118379137E+04  0.13160411754E+04  0.10000000000E-01 0.  1.
</event>
<event>
 5    1  0.3934322E-009  0.3851557E+03  0.7957747E-01  0.3429012E+00
         13   -1    0    0    0    0  0.00000000000E+00  0.00000000000E+00  0.14999999963E+04  0.15000000000E+04  0.10566000000E+00 0.  1.
        994   -1    0    0    0    0 -0.00000000000E+00 -0.00000000000E+00  0.11368683772E-12  0.17120000000E+03  0.17120000000E+03 0.  0.
         13    1    1    2    0    0  0.63153908318E+02 -0.83629888920E+02  0.56703723296E+03  0.57663993028E+03  0.10566000000E+00 0.  1.
        994    1    1    2    0    0 -0.82689058020E+02  0.23433426141E+03  0.24122749485E+03  0.38632909632E+03  0.17120000000E+03 0.  0.
        998    1    1    2    0    0  0.19535149701E+02 -0.15070437249E+03  0.69173526846E+03  0.70823097341E+03  0.10000000000E-01 0.  1.
</event>
<event>
 5    1  0.3934322E-009  0.3882854E+03  0.7957747E-01  0.3415857E+00
         13   -1    0    0    0    0  0.00000000000E+00  0.00000000000E+00  0.14999999963E+04  0.15000000000E+04  0.10566000000E+00 0. -1.
        994   -1    0    0    0    0 -0.00000000000E+00 -0.00000000000E+00  0.11368683772E-12  0.17120000000E+03  0.17120000000E+03 0.  0.
         13    1    1    2    0    0 -0.93312073374E+02 -0.29088876452E+03  0.10806380115E+04  0.11229879516E+04  0.10566000000E+00 0. -1.
        994    1    1    2    0    0  0.93966978866E+02  0.29193938367E+03  0.41503394599E+03  0.54371041298E+03  0.17120000000E+03 0.  0.
        998    1    1    2    0    0 -0.65490549253E+00 -0.10506191524E+01  0.43280387972E+01  0.45016354404E+01  0.10000000000E-01 0.  1.
</event>
<event>
 5    1  0.3934322E-009  0.3883009E+03  0.7957747E-01  0.3415792E+00
         13   -1    0    0    0    0  0.00000000000E+00  0.00000000000E+00  0.14999999963E+04  0.15000000000E+04  0.10566000000E+00 0.  1.
        994   -1    0    0    0    0 -0.00000000000E+00 -0.00000000000E+00  0.11368683772E-12  0.17120000000E+03  0.17120000000E+03 0.  0.
         13    1    1    2    0    0  0.19407677008E+03 -0.10000467745E+02  0.48137248344E+03  0.51911971742E+03  0.10566000000E+00 0.  1.
        994    1    1    2    0    0 -0.34254937863E+03  0.17294370856E+02  0.65014185061E+03  0.75474037786E+03  0.17120000000E+03 0.  0.
        998    1    1    2    0    0  0.14847260855E+03 -0.72939031113E+01  0.36848566223E+03  0.39733990472E+03  0.10000000000E-01 0.  1.
</event>
<event>
 5    1  0.3934322E-009  0.3854535E+03  0.7957747E-01  0.3427751E+00
         13   -1    0    0    0    0  0.00000000000E+00  0.00000000000E+00  0.14999999963E+04  0.15000000000E+04  0.10566000000E+00 0.  1.
        994   -1    0    0    0    0 -0.00000000000E+00 -0.00000000000E+00  0.11368683772E-12  0.17120000000E+03  0.17120000000E+03 0.  0.
         13    1    1    2    0    0  0.58217194717E+01  0.11160912318E+02  0.41019982700E+02  0.42908140558E+02  0.10566000000E+00 0.  1.
        994    1    1    2    0    0 -0.10713954568E+03 -0.24173070567E+02  0.42074265445E+02  0.20770869843E+03  0.17120000000E+03 0.  0.
        998    1    1    2    0    0  0.10131782621E+03  0.13012158249E+02  0.14169057481E+04  0.14205831610E+04  0.10000000000E-01 0.  1.
</event>
<event>
 5    1  0.3934322E-009  0.3882936E+03  0.7957747E-01  0.3415823E+00
         13   -1    0    0    0    0  0.00000000000E+00  0.00000000000E+00  0.14999999963E+04  0.15000000000E+04  0.10566000000E+00 0.  1.
        994   -1    0    0    0    0 -0.00000000000E+00 -0.00000000000E+00  0.11368683772E-12  0.17120000000E+03  0.17120000000E+03 0.  0.
         13    1    1    2    0    0 -0.25052402378E+03 -0.33465727564E+02  0.12496825026E+04  0.12749857293E+04  0.10566000000E+00 0.  1.
        994    1    1    2    0    0  0.25117006811E+03  0.33591029778E+02  0.24779437420E+03  0.39360672286E+03  0.17120000000E+03 0.  0.
        998    1    1    2    0    0 -0.64604432350E+00 -0.12530221337E+00  0.25231194582E+01  0.26075478352E+01  0.10000000000E-01 0.  1.
</event>
<event>
 5    1  0.3934322E-009  0.3882954E+03  0.7957747E-01  0.3415815E+00
         13   -1    0    0    0    0  0.00000000000E+00  0.00000000000E+00  0.14999999963E+04  0.15000000000E+04  0.10566000000E+00 0. -1.
        994   -1    0    0    0    0 -0.00000000000E+00 -0.00000000000E+00  0.11368683772E-12  0.17120000000E+03  0.17120000000E+03 0.  0.
         13    1    1    2    0    0 -0.66166244500E+02  0.22435471764E+03  0.12067856400E+04  0.12292455423E+04  0.10566000000E+00 0. -1.
        994    1    1    2    0    0  0.69188067158E+02 -0.23640553751E+03  0.23126357295E+03  0.37877017699E+03  0.17120000000E+03 0.  0.
        998    1    1    2    0    0 -0.30218226577E+01  0.12050819867E+02  0.61950783370E+02  0.63184280733E+02  0.10000000000E-01 0. -1.
</event>
<event>
 5    1  0.3934322E-009  0.3882968E+03  0.7957747E-01  0.3415809E+00
         13   -1    0    0    0    0  0.00000000000E+00  0.00000000000E+00  0.14999999963E+04  0.15000000000E+04  0.10566000000E+00 0.  1.
        994   -1    0    0    0    0 -0.00000000000E+00 -0.00000000000E+00  0.11368683772E-12  0.17120000000E+03  0.17120000000E+03 0.  0.
         13    1    1    2    0    0  0.15008701053E+03 -0.19611073132E+03  0.12660857665E+04  0.12899452349E+04  0.10566000000E+00 0.  1.
        994    1    1    2    0    0 -0.15016847008E+03  0.19619719292E+03  0.23296295771E+03  0.38029605255E+03  0.17120000000E+03 0.  0.
        998    1    1    2    0    0  0.81459548882E-01 -0.86461604410E-01  0.95127208393E+00  0.95871259760E+00  0.10000000000E-01 0. -1.
</event>
<event>
 5    1  0.3934322E-009  0.3881749E+03  0.7957747E-01  0.3416318E+00
         13   -1    0    0    0    0  0.00000000000E+00  0.00000000000E+00  0.14999999963E+04  0.15000000000E+04  0.10566000000E+00 0. -1.
        994   -1    0    0    0    0 -0.00000000000E+00 -0.00000000000E+00  0.11368683772E-12  0.17120000000E+03  0.17120000000E+03 0.  0.
         13    1    1    2    0    0  0.55984799404E+02 -0.21163943652E+03  0.13073771179E+04  0.13255793029E+04  0.10566000000E+00 0. -1.
        994    1    1    2    0    0 -0.55535756456E+02  0.21450806566E+03  0.18048398136E+03  0.33313936725E+03  0.17120000000E+03 0.  0.
        998    1    1    2    0    0 -0.44904294834E+00 -0.28686291490E+01  0.12138897037E+02  0.12481329819E+02  0.10000000000E-01 0. -1.
</event>
<event>
 5    1  0.3934322E-009  0.3883008E+03  0.7957747E-01  0.3415792E+00
         13   -1    0    0    0    0  0.00000000000E+00  0.00000000000E+00  0.14999999963E+04  0.15000000000E+04  0.10566000000E+00 0. -1.
        994   -1    0    0    0    0 -0.00000000000E+00 -0.00000000000E+00  0.11368683772E-12  0.17120000000E+03  0.17120000000E+03 0.  0.
         13    1    1    2    0    0  0.22387301875E+03 -0.17438662630E+02  0.12858767623E+04  0.13053360849E+04  0.10566000000E+00 0. -1.
        994    1    1    2    0    0 -0.22755829203E+03  0.17674140581E+02  0.19309653037E+03  0.34451540104E+03  0.17120000000E+03 0.  0.
        998    1    1    2    0    0  0.36852732793E+01 -0.23547795181E+00  0.21026703580E+02  0.21348514057E+02  0.10000000000E-01 0.  1.
</event>
<event>
 5    1  0.3934322E-009  0.3883001E+03  0.7957747E-01  0.3415796E+00
         13   -1    0    0    0    0  0.00000000000E+00  0.00000000000E+00  0.14999999963E+04  0.15000000000E+04  0.10566000000E+00 0.  1.
        994   -1    0    0    0    0 -0.00000000000E+00 -0.00000000000E+00  0.11368683772E-12  0.17120000000E+03  0.17120000000E+03 0.  0.
         13    1    1    2    0    0 -0.74806523966E+02 -0.21923968289E+03  0.12987182316E+04  0.13192160971E+04  0.10566000000E+00 0.  1.
        994    1    1    2    0    0  0.74839907645E+02  0.21942816213E+03  0.20026458072E+03  0.35094881736E+03  0.17120000000E+03 0.  0.
        998    1    1    2    0    0 -0.33383679454E-01 -0.18847924176E+00  0.10171839793E+01  0.10350855725E+01  0.10000000000E-01 0. -1.
</event>
<event>
 5    1  0.3934322E-009  0.3882790E+03  0.7957747E-01  0.3415884E+00
         13   -1    0    0    0    0  0.00000000000E+00  0.00000000000E+00  0.14999999963E+04  0.15000000000E+04  0.10566000000E+00 0.  1.
        994   -1    0    0    0    0 -0.00000000000E+00 -0.00000000000E+00  0.11368683772E-12  0.17120000000E+03  0.17120000000E+03 0.  0.
         13    1    1    2    0    0  0.11498270156E+01  0.25991234338E+03  0.12341439762E+04  0.12612165212E+04  0.10566000000E+00 0.  1.
        994    1    1    2    0    0 -0.12533763866E+01 -0.26027032722E+03  0.26480522168E+03  0.40886851140E+03  0.17120000000E+03 0.  0.
        998    1    1    2    0    0  0.10354937095E+00  0.35798383838E+00  0.10507984182E+01  0.11149673611E+01  0.10000000000E-01 0. -1.
</event>
<event>
 5    1  0.3934322E-009  0.3882952E+03  0.7957747E-01  0.3415816E+00
         13   -1    0    0    0    0  0.00000000000E+00  0.00000000000E+00  0.14999999963E+04  0.15000000000E+04  0.10566000000E+00 0.  1.
        994   -1    0    0    0    0 -0.00000000000E+00 -0.00000000000E+00  0.11368683772E-12  0.17120000000E+03  0.17120000000E+03 0.  0.
         13    1    1    2    0    0  0.26819515600E+03 -0.51231942469E+02  0.11993519091E+04  0.12300399858E+04  0.10566000000E+00 0.  1.
        994    1    1    2    0    0 -0.26840753045E+03  0.51195318761E+02  0.29980881755E+03  0.44029345912E+03  0.17120000000E+03 0.  0.
        998    1    1    2    0    0  0.21237445093E+00  0.36623707437E-01  0.83926966198E+00  0.86655511589E+00  0.10000000000E-01 0.  1.
</event>
<event>
 5    1  0.3934322E-009  0.3872098E+03  0.7957747E-01  0.3420354E+00
         13   -1    0    0    0    0  0.00000000000E+00  0.00000000000E+00  0.14999999963E+04  0.15000000000E+04  0.10566000000E+00 0.  1.
        994   -1    0    0    0    0 -0.00000000000E+00 -0.00000000000E+00  0.11368683772E-12  0.17120000000E+03  0.17120000000E+03 0.  0.
         13    1    1    2    0    0 -0.23069487031E+03  0.10401186864E+03  0.12447021923E+04  0.12701661901E+04  0.10566000000E+00 0.  1.
        994    1    1    2    0    0  0.23128526405E+03 -0.10619048127E+03  0.25165328132E+03  0.39674690380E+03  0.17120000000E+03 0.  0.
        998    1    1    2    0    0 -0.59039374031E+00  0.21786126320E+01  0.36445227100E+01  0.42869060583E+01  0.10000000000E-01 0. -1.
</event>
<event>
 5    1  0.3934322E-009  0.3883010E+03  0.7957747E-01  0.3415792E+00
         13   -1    0    0    0    0  0.00000000000E+00  0.00000000000E+00  0.14999999963E+04  0.15000000000E+04  0.10566000000E+00 0. -1.
        994   -1    0    0    0    0 -0.00000000000E+00 -0.00000000000E+00  0.11368683772E-12  0.17120000000E+03  0.17120000000E+03 0.  0.
         13    1    1    2    0    0  0.22922536864E+03  0.92729589256E+02  0.12153172301E+04  0.12402173306E+04  0.10566000000E+00 0. -1.
        994    1    1    2    0    0 -0.23578597850E+03 -0.95365437605E+02  0.25003741853E+03  0.39562323619E+03  0.17120000000E+03 0.  0.
        998    1    1    2    0    0  0.65606098615E+01  0.26358483485E+01  0.34645347687E+02  0.35359433177E+02  0.10000000000E-01 0. -1.
</event>
<event>
 5    1  0.3934322E-009  0.3882972E+03  0.7957747E-01  0.3415808E+00
         13   -1    0    0    0    0  0.00000000000E+00  0.00000000000E+00  0.14999999963E+04  0.15000000000E+04  0.10566000000E+00 0. -1.
        994   -1    0    0    0    0 -0.00000000000E+00 -0.00000000000E+00  0.11368683772E-12  0.17120000000E+03  0.17120000000E+03 0.  0.
         13    1    1    2    0    0 -0.21995237233E+03  0.97428444038E+02  0.12620865912E+04  0.12848089051E+04  0.10566000000E+00 0. -1.
        994    1    1    2    0    0  0.22225565444E+03 -0.98301872704E+02  0.22388708125E+03  0.37215010313E+03  0.17120000000E+03 0.  0.
        998    1    1    2    0    0 -0.23032821155E+01  0.87342866618E+00  0.14026323816E+02  0.14240991746E+02  0.10000000000E-01 0.  1.
</event>
<event>
 5    1  0.3934322E-009  0.3882328E+03  0.7957747E-01  0.3416076E+00
         13   -1    0    0    0    0  0.00000000000E+00  0.00000000000E+00  0.14999999963E+04  0.15000000000E+04  0.10566000000E+00 0.  1.
        994   -1    0    0    0    0 -0.00000000000E+00 -0.00000000000E+00  0.11368683772E-12  0.17120000000E+03  0.17120000000E+03 0.  0.
         13    1    1    2    0    0  0.34631899864E+02  0.80954779278E+01  0.19864508807E+03  0.20180383403E+03  0.10566000000E+00 0.  1.
        994    1    1    2    0    0 -0.21054435771E+03 -0.43283783195E+02  0.16832143781E+03  0.32224828762E+03  0.17120000000E+03 0.  0.
        998    1    1    2    0    0  0.17591245784E+03  0.35188305267E+02  0.11330334704E+04  0.11471478783E+04  0.10000000000E-01 0.  1.
</event>
<event>
 5    1  0.3934322E-009  0.3881052E+03  0.7957747E-01  0.3416609E+00
         13   -1    0    0    0    0  0.00000000000E+00  0.00000000000E+00  0.14999999963E+04  0.15000000000E+04  0.10566000000E+00 0. -1.
        994   -1    0    0    0    0 -0.00000000000E+00 -0.00000000000E+00  0.11368683772E-12  0.17120000000E+03  0.17120000000E+03 0.  0.
         13    1    1    2    0    0 -0.10489776101E+03 -0.18529876296E+03  0.12668710029E+04  0.12846405415E+04  0.10566000000E+00 0. -1.
        994    1    1    2    0    0  0.10645457705E+03  0.19494311260E+03  0.18157332047E+03  0.33408637331E+03  0.17120000000E+03 0.  0.
        998    1    1    2    0    0 -0.15568160407E+01 -0.96443496392E+01  0.51555672899E+02  0.52473085141E+02  0.10000000000E-01 0. -1.
</event>
<event>
 5    1  0.3934322E-009  0.3878799E+03  0.7957747E-01  0.3417549E+00
         13   -1    0    0    0    0  0.00000000000E+00  0.00000000000E+00  0.14999999963E+04  0.15000000000E+04  0.10566000000E+00 0.  1.
        994   -1    0    0    0    0 -0.00000000000E+00 -0.00000000000E+00  0.11368683772E-12  0.17120000000E+03  0.17120000000E+03 0.  0.
         13    1    1    2    0    0  0.12862382916E+03 -0.28804685057E+03  0.96950524706E+03  0.10195369109E+04  0.10566000000E+00 0.  1.
        994    1    1    2    0    0 -0.12949675316E+03  0.29572376681E+03  0.49460811700E+03  0.61495413222E+03  0.17120000000E+03 0.  0.
        998    1    1    2    0    0  0.87292400121E+00 -0.76769162439E+01  0.35886632225E+02  0.36708956833E+02  0.10000000000E-01 0.  1.
</event>
<event>
 5    1  0.3934322E-009  0.3883010E+03  0.7957747E-01  0.3415792E+00
         13   -1    0    0    0    0  0.00000000000E+00  0.00000000000E+00  0.14999999963E+04  0.15000000000E+04  0.10566000000E+00 0. -1.
        994   -1    0    0    0    0 -0.00000000000E+00 -0.00000000000E+00  0.11368683772E-12  0.17120000000E+03  0.17120000000E+03 0.  0.
         13    1    1    2    0    0  0.16733030574E+03 -0.14682272961E+03  0.12603442788E+04  0.12798531390E+04  0.10566000000E+00 0. -1.
        994    1    1    2    0    0 -0.17300577480E+03  0.15182263375E+03  0.19692326532E+03  0.34795017266E+03  0.17120000000E+03 0.  0.
        998    1    1    2    0    0  0.56754690597E+01 -0.49999041345E+01  0.42732452169E+02  0.43396688339E+02  0.10000000000E-01 0.  1.
</event>
<event>
 5    1  0.3934322E-009  0.3883010E+03  0.7957747E-01  0.3415792E+00
         13   -1    0    0    0    0  0.00000000000E+00  0.00000000000E+00  0.14999999963E+04  0.15000000000E+04  0.10566000000E+00 0.  1.
        994   -1    0    0    0    0 -0.00000000000E+00 -0.00000000000E+00  0.11368683772E-12  0.17120000000E+03  0.17120000000E+03 0.  0.
         13    1    1    2    0    0  0.23448335296E+03  0.14486928540E+03  0.11084277171E+04  0.11421828085E+04  0.10566000000E+00 0.  1.
        994    1    1    2    0    0 -0.24461658982E+03 -0.15111571995E+03  0.34375185209E+03  0.47973744136E+03  0.17120000000E+03 0.  0.
        998    1    1    2    0    0  0.10133236854E+02  0.62464345550E+01  0.47820427068E+02  0.49279750190E+02  0.10000000000E-01 0. -1.
</event>
<event>
 5    1  0.3934322E-009  0.3880915E+03  0.7957747E-01  0.3416666E+00
         13   -1    0    0    0    0  0.00000000000E+00  0.00000000000E+00  0.14999999963E+04  0.15000000000E+04  0.10566000000E+00 0.  1.
        994   -1    0    0    0    0 -0.00000000000E+00 -0.00000000000E+00  0.11368683772E-12  0.17120000000E+03  0.17120000000E+03 0.  0.
         13    1    1    2    0    0 -0.11734973348E+03 -0.83396126821E+01  0.69562845892E+03  0.70550653655E+03  0.10566000000E+00 0.  1.
        994    1    1    2    0    0  0.20986185737E+03  0.22160206293E+02  0.16161751198E+03  0.31616883797E+03  0.17120000000E+03 0.  0.
        998    1    1    2    0    0 -0.92512123896E+02 -0.13820593611E+02  0.64275402538E+03  0.64952462549E+03  0.10000000000E-01 0.  1.
</event>
<event>
 5    1  0.3934322E-009  0.3882919E+03  0.7957747E-01  0.3415830E+00
         13   -1    0    0    0    0  0.00000000000E+00  0.00000000000E+00  0.14999999963E+04  0.15000000000E+04  0.10566000000E+00 0.  1.
        994   -1    0    0    0    0 -0.00000000000E+00 -0.00000000000E+00  0.11368683772E-12  0.17120000000E+03  0.17120000000E+03 0.  0.
         13    1    1    2    0    0  0.25003594782E+03 -0.12521579157E+03  0.11800994507E+04  0.12127785017E+04  0.10566000000E+00 0.  1.
        994    1    1    2    0    0 -0.25012323955E+03  0.12535054214E+03  0.31912457427E+03  0.45762902802E+03  0.17120000000E+03 0.  0.
        998    1    1    2    0    0  0.87291731072E-01 -0.13475056588E+00  0.77597135164E+00  0.79247025174E+00  0.10000000000E-01 0.  1.
</event>
<event>
 5    1  0.3934322E-009  0.3882980E+03  0.7957747E-01  0.3415805E+00
         13   -1    0    0    0    0  0.00000000000E+00  0.00000000000E+00  0.14999999963E+04  0.15000000000E+04  0.10566000000E+00 0.  1.
        994   -1    0    0    0    0 -0.00000000000E+00 -0.00000000000E+00  0.11368683772E-12  0.17120000000E+03  0.17120000000E+03 0.  0.
         13    1    1    2    0    0  0.14013706083E+03  0.19030900513E+03  0.87797185946E+03  0.90922522535E+03  0.10566000000E+00 0.  1.
        994    1    1    2    0    0 -0.17861041530E+03 -0.24092456004E+03  0.38780825772E+03  0.51927931679E+03  0.17120000000E+03 0.  0.
        998    1    1    2    0    0  0.38473354471E+02  0.50615554912E+02  0.23421987910E+03  0.24269545786E+03  0.10000000000E-01 0. -1.
</event>
<event>
 5    1  0.3934322E-009  0.3882981E+03  0.7957747E-01  0.3415804E+00
         13   -1    0    0    0    0  0.00000000000E+00  0.00000000000E+00  0.14999999963E+04  0.15000000000E+04  0.10566000000E+00 0. -1.
        994   -1    0    0    0    0 -0.00000000000E+00 -0.00000000000E+00  0.11368683772E-12  0.17120000000E+03  0.17120000000E+03 0.  0.
         13    1    1    2    0    0 -0.83501002840E+02 -0.23322344262E+03  0.12467119731E+04  0.12710847126E+04  0.10566000000E+00 0. -1.
        994    1    1    2    0    0  0.84503659323E+02  0.23550255248E+03  0.24019766281E+03  0.38679022464E+03  0.17120000000E+03 0.  0.
        998    1    1    2    0    0 -0.10026564833E+01 -0.22791098566E+01  0.13090360374E+02  0.13325062720E+02  0.10000000000E-01 0.  1.
</event>
<event>
 5    1  0.3934322E-009  0.3882398E+03  0.7957747E-01  0.3416047E+00
         13   -1    0    0    0    0  0.00000000000E+00  0.00000000000E+00  0.14999999963E+04  0.15000000000E+04  0.10566000000E+00 0. -1.
        994   -1    0    0    0    0 -0.00000000000E+00 -0.00000000000E+00  0.11368683772E-12  0.17120000000E+03  0.17120000000E+03 0.  0.
         13    1    1    2    0    0  0.23752617192E+03 -0.37815551841E+02  0.12079966141E+04  0.12317079723E+04  0.10566000000E+00 0. -1.
        994    1    1    2    0    0 -0.24668453908E+03  0.41104095410E+02  0.24001239905E+03  0.38659824130E+03  0.17120000000E+03 0.  0.
        998    1    1    2    0    0  0.91583671540E+01 -0.32885435684E+01  0.51990983162E+02  0.52893786382E+02  0.10000000000E-01 0.  1.
</event>
<event>
 5    1  0.3934322E-009  0.3882997E+03  0.7957747E-01  0.3415797E+00
         13   -1    0    0    0    0  0.00000000000E+00  0.00000000000E+00  0.14999999963E+04  0.15000000000E+04  0.10566000000E+00 0. -1.
        994   -1    0    0    0    0 -0.00000000000E+00 -0.00000000000E+00  0.11368683772E-12  0.17120000000E+03  0.17120000000E+03 0.  0.
         13    1    1    2    0    0 -0.11929904474E+03  0.19026566175E+03  0.12830341515E+04  0.13025397994E+04  0.10566000000E+00 0. -1.
        994    1    1    2    0    0  0.12128824441E+03 -0.19366852975E+03  0.19362872941E+03  0.34499255427E+03  0.17120000000E+03 0.  0.
        998    1    1    2    0    0 -0.19891996658E+01  0.34028679973E+01  0.23337115420E+02  0.23667646314E+02  0.10000000000E-01 0.  1.
</event>
<event>
 5    1  0.4046140E-009  0.3882966E+03  0.7957747E-01  0.3415810E+00
         13   -1    0    0    0    0  0.00000000000E+00  0.00000000000E+00  0.14999999963E+04  0.15000000000E+04  0.10566000000E+00 0.  1.
        994   -1    0    0    0    0 -0.00000000000E+00 -0.00000000000E+00  0.11368683772E-12  0.17120000000E+03  0.17120000000E+03 0.  0.
         13    1    1    2    0    0  0.26853881177E+03 -0.16694362696E+03  0.10414353334E+04  0.10883799119E+04  0.10566000000E+00 0.  1.
        994    1    1    2    0    0 -0.26856856619E+03  0.16700145051E+03  0.45832589320E+03  0.58257241918E+03  0.17120000000E+03 0.  0.
        998    1    1    2    0    0  0.29754412522E-01 -0.57823549951E-01  0.23876972706E+00  0.24766887280E+00  0.10000000000E-01 0. -1.
</event>
<event>
 5    1  0.3934322E-009  0.3861596E+03  0.7957747E-01  0.3424769E+00
         13   -1    0    0    0    0  0.00000000000E+00  0.00000000000E+00  0.14999999963E+04  0.15000000000E+04  0.10566000000E+00 0.  1.
        994   -1    0    0    0    0 -0.00000000000E+00 -0.00000000000E+00  0.11368683772E-12  0.17120000000E+03  0.17120000000E+03 0.  0.
         13    1    1    2    0    0  0.11534690251E+02 -0.40665893655E+01  0.64357252435E+02  0.65509185107E+02  0.10566000000E+00 0.  1.
        994    1    1    2    0    0 -0.44675068978E+02 -0.51932496796E+02  0.16584419902E+02  0.18514137570E+03  0.17120000000E+03 0.  0.
        998    1    1    2    0    0  0.33140378727E+02  0.55999086161E+02  0.14190583239E+04  0.14205494392E+04  0.10000000000E-01 0.  1.
</event>
<event>
 5    1  0.3934322E-009  0.3883000E+03  0.7957747E-01  0.3415796E+00
         13   -1    0    0    0    0  0.00000000000E+00  0.00000000000E+00  0.14999999963E+04  0.15000000000E+04  0.10566000000E+00 0.  1.
        994   -1    0    0    0    0 -0.00000000000E+00 -0.00000000000E+00  0.11368683772E-12  0.17120000000E+03  0.17120000000E+03 0.  0.
         13    1    1    2    0    0  0.28328429938E+03  0.80899747877E+02  0.10099071223E+04  0.10520015068E+04  0.10566000000E+00 0.  1.
        994    1    1    2    0    0 -0.29892224566E+03 -0.85526309109E+02  0.43331771902E+03  0.56012761413E+03  0.17120000000E+03 0.  0.
        998    1    1    2    0    0  0.15637946275E+02  0.46265612320E+01  0.56775154922E+02  0.59070879026E+02  0.10000000000E-01 0. -1.
</event>
<event>
 5    1  0.3934322E-009  0.3883008E+03  0.7957747E-01  0.3415793E+00
         13   -1    0    0    0    0  0.00000000000E+00  0.00000000000E+00  0.14999999963E+04  0.15000000000E+04  0.10566000000E+00 0.  1.
        994   -1    0    0    0    0 -0.00000000000E+00 -0.00000000000E+00  0.11368683772E-12  0.17120000000E+03  0.17120000000E+03 0.  0.
         13    1    1    2    0    0 -0.93589173713E+02  0.22627404580E+03  0.10429467578E+04  0.10713061318E+04  0.10566000000E+00 0.  1.
        994    1    1    2    0    0  0.10624166619E+03 -0.25727472914E+03  0.31477692451E+03  0.45373068013E+03  0.17120000000E+03 0.  0.
        998    1    1    2    0    0 -0.12652492481E+02  0.31000683335E+02  0.14227631401E+03  0.14616318812E+03  0.10000000000E-01 0. -1.
</event>
<event>
 5    1  0.3934322E-009  0.3845926E+03  0.7957747E-01  0.3431402E+00
         13   -1    0    0    0    0  0.00000000000E+00  0.00000000000E+00  0.14999999963E+04  0.15000000000E+04  0.10566000000E+00 0.  1.
        994   -1    0    0    0    0 -0.00000000000E+00 -0.00000000000E+00  0.11368683772E-12  0.17120000000E+03  0.17120000000E+03 0.  0.
         13    1    1    2    0    0 -0.14447165223E+03  0.45098854122E+02  0.81097106225E+03  0.82497275102E+03  0.10566000000E+00 0.  1.
        994    1    1    2    0    0  0.19673610026E+03 -0.33677565356E+02  0.14640074134E+03  0.30096825184E+03  0.17120000000E+03 0.  0.
        998    1    1    2    0    0 -0.52264448027E+02 -0.11421288767E+02  0.54262819269E+03  0.54525899714E+03  0.10000000000E-01 0.  1.
</event>
<event>
 5    1  0.3934322E-009  0.4251692E+03  0.7957747E-01  0.3275344E+00
         13   -1    0    0    0    0  0.00000000000E+00  0.00000000000E+00  0.14999999963E+04  0.15000000000E+04  0.10566000000E+00 0. -1.
        994   -1    0    0    0    0 -0.00000000000E+00 -0.00000000000E+00  0.11368683772E-12  0.17120000000E+03  0.17120000000E+03 0.  0.
         13    1    1    2    0    0 -0.88715829194E+02  0.64008759251E+01  0.77388647787E+02  0.11790031184E+03  0.10566000000E+00 0. -1.
        994    1    1    2    0    0  0.67149370819E+02  0.90496597523E+02  0.10195334369E+03  0.22891613410E+03  0.17120000000E+03 0.  0.
        998    1    1    2    0    0  0.21566458376E+02 -0.96897473448E+02  0.13206580048E+04  0.13243835541E+04  0.10000000000E-01 0. -1.
</event>
<event>
 5    1  0.3934322E-009  0.3883009E+03  0.7957747E-01  0.3415792E+00
         13   -1    0    0    0    0  0.00000000000E+00  0.00000000000E+00  0.14999999963E+04  0.15000000000E+04  0.10566000000E+00 0. -1.
        994   -1    0    0    0    0 -0.00000000000E+00 -0.00000000000E+00  0.11368683772E-12  0.17120000000E+03  0.17120000000E+03 0.  0.
         13    1    1    2    0    0  0.15026906554E+03 -0.19674221552E+03  0.12156342466E+04  0.12405865242E+04  0.10566000000E+00 0. -1.
        994    1    1    2    0    0 -0.15443702428E+03  0.20226442958E+03  0.25038070584E+03  0.39593134734E+03  0.17120000000E+03 0.  0.
        998    1    1    2    0    0  0.41679587482E+01 -0.55222140675E+01  0.33985043863E+02  0.34682128463E+02  0.10000000000E-01 0.  1.
</event>
<event>
 5    1  0.3934322E-009  0.3883008E+03  0.7957747E-01  0.3415793E+00
         13   -1    0    0    0    0  0.00000000000E+00  0.00000000000E+00  0.14999999963E+04  0.15000000000E+04  0.10566000000E+00 0.  1.
        994   -1    0    0    0    0 -0.00000000000E+00 -0.00000000000E+00  0.11368683772E-12  0.17120000000E+03  0.17120000000E+03 0.  0.
         13    1    1    2    0    0  0.60210416789E+02 -0.20969084338E+03  0.13165363355E+04  0.13344899692E+04  0.10566000000E+00 0.  1.
        994    1    1    2    0    0 -0.60568162916E+02  0.21082470693E+03  0.17620072487E+03  0.32935041348E+03  0.17120000000E+03 0.  0.
        998    1    1    2    0    0  0.35774612700E+00 -0.11338635487E+01  0.72629359279E+01  0.73596173224E+01  0.10000000000E-01 0. -1.
</event>
<event>
 5    1  0.3934322E-009  0.3190328E+03  0.7957747E-01  0.3768863E+00
         13   -1    0    0    0    0  0.00000000000E+00  0.00000000000E+00  0.14999999963E+04  0.15000000000E+04  0.10566000000E+00 0.  1.
        994   -1    0    0    0    0 -0.00000000000E+00 -0.00000000000E+00  0.11368683772E-12  0.17120000000E+03  0.17120000000E+03 0.  0.
         13    1    1    2    0    0 -0.16487158027E+03  0.15979241794E+03  0.64929845457E+03  0.68869786487E+03  0.10566000000E+00 0.  1.
        994    1    1    2    0    0  0.29140541556E+03 -0.11847148678E+03  0.60472177076E+03  0.70281609930E+03  0.17120000000E+03 0.  0.
        998    1    1    2    0    0 -0.12653383528E+03 -0.41320931158E+02  0.24597977094E+03  0.27968603583E+03  0.10000000000E-01 0.  1.
</event>
<event>
 5    1  0.3934322E-009  0.3881969E+03  0.7957747E-01  0.3416226E+00
         13   -1    0    0    0    0  0.00000000000E+00  0.00000000000E+00  0.14999999963E+04  0.15000000000E+04  0.10566000000E+00 0.  1.
        994   -1    0    0    0    0 -0.00000000000E+00 -0.00000000000E+00  0.11368683772E-12  0.17120000000E+03  0.17120000000E+03 0.  0.
         13    1    1    2    0    0  0.42529419316E+02  0.12904506316E+03  0.77844888177E+03  0.79021772476E+03  0.10566000000E+00 0.  1.
        994    1    1    2    0    0 -0.79179027212E+02 -0.22037569241E+03  0.20515432127E+03  0.35529213289E+03  0.17120000000E+03 0.  0.
        998    1    1    2    0    0  0.36649607896E+02  0.91330629247E+02  0.51639679324E+03  0.52569014235E+03  0.10000000000E-01 0.  1.
</event>
<event>
 5    1  0.7239688E-009  0.3883000E+03  0.7957747E-01  0.3415796E+00
         13   -1    0    0    0    0  0.00000000000E+00  0.00000000000E+00  0.14999999963E+04  0.15000000000E+04  0.10566000000E+00 0.  1.
        994   -1    0    0    0    0 -0.00000000000E+00 -0.00000000000E+00  0.11368683772E-12  0.17120000000E+03  0.17120000000E+03 0.  0.
         13    1    1    2    0    0  0.23191466561E+02  0.27812842102E+03  0.11828200186E+04  0.12153009793E+04  0.10566000000E+00 0.  1.
        994    1    1    2    0    0 -0.23190877273E+02 -0.27814784673E+03  0.31709020305E+03  0.45580662380E+03  0.17120000000E+03 0.  0.
        998    1    1    2    0    0 -0.58928822971E-03  0.19425701482E-01  0.89774584005E-01  0.92396867220E-01  0.10000000000E-01 0.  0.
</event>
<event>
 5    1  0.3934322E-009  0.3882998E+03  0.7957747E-01  0.3415797E+00
         13   -1    0    0    0    0  0.00000000000E+00  0.00000000000E+00  0.14999999963E+04  0.15000000000E+04  0.10566000000E+00 0.  1.
        994   -1    0    0    0    0 -0.00000000000E+00 -0.00000000000E+00  0.11368683772E-12  0.17120000000E+03  0.17120000000E+03 0.  0.
         13    1    1    2    0    0 -0.10658572613E+03 -0.13144383193E+03  0.95601300103E+03  0.97087530984E+03  0.10566000000E+00 0.  1.
        994    1    1    2    0    0  0.14521259811E+03  0.17840263151E+03  0.19663493810E+03  0.34769086335E+03  0.17120000000E+03 0.  0.
        998    1    1    2    0    0 -0.38626871975E+02 -0.46958799585E+02  0.34735205716E+03  0.35263382680E+03  0.10000000000E-01 0. -1.
</event>
<event>
 5    1  0.3934322E-009  0.3845116E+03  0.7957747E-01  0.3431746E+00
         13   -1    0    0    0    0  0.00000000000E+00  0.00000000000E+00  0.14999999963E+04  0.15000000000E+04  0.10566000000E+00 0.  1.
        994   -1    0    0    0    0 -0.00000000000E+00 -0.00000000000E+00  0.11368683772E-12  0.17120000000E+03  0.17120000000E+03 0.  0.
         13    1    1    2    0    0 -0.65299683676E+02  0.12081405178E+03  0.63322066593E+03  0.64794174640E+03  0.10566000000E+00 0.  1.
        994    1    1    2    0    0  0.62992006687E+02 -0.21885563544E+03  0.19711882326E+03  0.34645497912E+03  0.17120000000E+03 0.  0.
        998    1    1    2    0    0  0.23076769895E+01  0.98041583661E+02  0.66966050709E+03  0.67680327448E+03  0.10000000000E-01 0.  1.
</event>
<event>
 5    1  0.3934322E-009  0.3755418E+03  0.7957747E-01  0.3470803E+00
         13   -1    0    0    0    0  0.00000000000E+00  0.00000000000E+00  0.14999999963E+04  0.15000000000E+04  0.10566000000E+00 0. -1.
        994   -1    0    0    0    0 -0.00000000000E+00 -0.00000000000E+00  0.11368683772E-12  0.17120000000E+03  0.17120000000E+03 0.  0.
         13    1    1    2    0    0  0.10779903661E+03 -0.41680769578E+02  0.29550567847E+03  0.31730353925E+03  0.10566000000E+00 0. -1.
        994    1    1    2    0    0 -0.21443008260E+03  0.10806477347E+03  0.23714087191E+03  0.37842236816E+03  0.17120000000E+03 0.  0.
        998    1    1    2    0    0  0.10663104599E+03 -0.66384003894E+02  0.96735344589E+03  0.97547409259E+03  0.10000000000E-01 0. -1.
</event>
<event>
 5    1  0.3934322E-009  0.3882320E+03  0.7957747E-01  0.3416080E+00
         13   -1    0    0    0    0  0.00000000000E+00  0.00000000000E+00  0.14999999963E+04  0.15000000000E+04  0.10566000000E+00 0. -1.
        994   -1    0    0    0    0 -0.00000000000E+00 -0.00000000000E+00  0.11368683772E-12  0.17120000000E+03  0.17120000000E+03 0.  0.
         13    1    1    2    0    0 -0.22598614456E+03  0.78416854529E+02  0.12797295598E+04  0.13018935049E+04  0.10566000000E+00 0. -1.
        994    1    1    2    0    0  0.22653049165E+03 -0.79094914808E+02  0.21726284114E+03  0.36617571101E+03  0.17120000000E+03 0.  0.
        998    1    1    2    0    0 -0.54434709708E+00  0.67806027898E+00  0.30075952923E+01  0.31307840785E+01  0.10000000000E-01 0.  1.
</event>
<event>
 5    1  0.3934322E-009  0.3883009E+03  0.7957747E-01  0.3415792E+00
         13   -1    0    0    0    0  0.00000000000E+00  0.00000000000E+00  0.14999999963E+04  0.15000000000E+04  0.10566000000E+00 0. -1.
        994   -1    0    0    0    0 -0.00000000000E+00 -0.00000000000E+00  0.11368683772E-12  0.17120000000E+03  0.17120000000E+03 0.  0.
         13    1    1    2    0    0 -0.24569115502E+03  0.11668799569E+03  0.10419392525E+04  0.10768554448E+04  0.10566000000E+00 0. -1.
        994    1    1    2    0    0  0.26656215204E+03 -0.12658030212E+03  0.36987676397E+03  0.50318606331E+03  0.17120000000E+03 0.  0.
        998    1    1    2    0    0 -0.20870997018E+02  0.98923064328E+01  0.88183979838E+02  0.91158491887E+02  0.10000000000E-01 0. -1.
</event>
<event>
 5    1  0.3934322E-009  0.3883004E+03  0.7957747E-01  0.3415794E+00
         13   -1    0    0    0    0  0.00000000000E+00  0.00000000000E+00  0.14999999963E+04  0.15000000000E+04  0.10566000000E+00 0. -1.
        994   -1    0    0    0    0 -0.00000000000E+00 -0.00000000000E+00  0.11368683772E-12  0.17120000000E+03  0.17120000000E+03 0.  0.
         13    1    1    2    0    0 -0.21900371572E+03  0.22357862359E+03  0.10384332086E+04  0.10845706838E+04  0.10566000000E+00 0. -1.
        994    1    1    2    0    0  0.22060096178E+03 -0.22526249709E+03  0.45361594270E+03  0.57834664381E+03  0.17120000000E+03 0.  0.
        998    1    1    2    0    0 -0.15972460547E+01  0.16838734985E+01  0.79508450008E+01  0.82826723432E+01  0.10000000000E-01 0. -1.
</event>
<event>
 5    1  0.3934322E-009  0.3883010E+03  0.7957747E-01  0.3415792E+00
         13   -1    0    0    0    0  0.00000000000E+00  0.00000000000E+00  0.14999999963E+04  0.15000000000E+04  0.10566000000E+00 0.  1.
        994   -1    0    0    0    0 -0.00000000000E+00 -0.00000000000E+00  0.11368683772E-12  0.17120000000E+03  0.17120000000E+03 0.  0.
         13    1    1    2    0    0  0.77440465214E+02  0.21839565297E+03  0.12636268581E+04  0.12846970595E+04  0.10566000000E+00 0.  1.
        994    1    1    2    0    0 -0.79041863048E+02 -0.22294568892E+03  0.20994186882E+03  0.35963512705E+03  0.17120000000E+03 0.  0.
        998    1    1    2    0    0  0.16013978336E+01  0.45500359507E+01  0.26431269326E+02  0.26867813464E+02  0.10000000000E-01 0.  1.
</event>
<event>
 5    1  0.3934322E-009  0.3879894E+03  0.7957747E-01  0.3417092E+00
         13   -1    0    0    0    0  0.00000000000E+00  0.00000000000E+00  0.14999999963E+04  0.15000000000E+04  0.10566000000E+00 0. -1.
        994   -1    0    0    0    0 -0.00000000000E+00 -0.00000000000E+00  0.11368683772E-12  0.17120000000E+03  0.17120000000E+03 0.  0.
         13    1    1    2    0    0  0.13745567280E+03 -0.19280455831E+02  0.82283234837E+03  0.83445723836E+03  0.10566000000E+00 0. -1.
        994    1    1    2    0    0 -0.20695197161E+03  0.33967150522E+02  0.15948509984E+03  0.31420983902E+03  0.17120000000E+03 0.  0.
        998    1    1    2    0    0  0.69496298812E+02 -0.14686694691E+02  0.51768254807E+03  0.52253292262E+03  0.10000000000E-01 0. -1.
</event>
<event>
 5    1  0.3934322E-009  0.3883008E+03  0.7957747E-01  0.3415793E+00
         13   -1    0    0    0    0  0.00000000000E+00  0.00000000000E+00  0.14999999963E+04  0.15000000000E+04  0.10566000000E+00 0. -1.
        994   -1    0    0    0    0 -0.00000000000E+00 -0.00000000000E+00  0.11368683772E-12  0.17120000000E+03  0.17120000000E+03 0.  0.
         13    1    1    2    0    0  0.28140077068E+03  0.31241996116E+01  0.11260086258E+04  0.11606427490E+04  0.10566000000E+00 0. -1.
        994    1    1    2    0    0 -0.28825800099E+03 -0.31702896179E+01  0.34623205705E+03  0.48196348741E+03  0.17120000000E+03 0.  0.
        998    1    1    2    0    0  0.68572303031E+01  0.46090006319E-01  0.27759313471E+02  0.28593763588E+02  0.10000000000E-01 0.  1.
</event>
<event>
 5    1  0.3934322E-009  0.3882849E+03  0.7957747E-01  0.3415859E+00
         13   -1    0    0    0    0  0.00000000000E+00  0.00000000000E+00  0.14999999963E+04  0.15000000000E+04  0.10566000000E+00 0. -1.
        994   -1    0    0    0    0 -0.00000000000E+00 -0.00000000000E+00  0.11368683772E-12  0.17120000000E+03  0.17120000000E+03 0.  0.
         13    1    1    2    0    0  0.24374595269E+03 -0.10309724291E+03  0.12086967233E+04  0.12373313667E+04  0.10566000000E+00 0. -1.
        994    1    1    2    0    0 -0.24560283744E+03  0.10354833266E+03  0.28120219626E+03  0.42358839235E+03  0.17120000000E+03 0.  0.
        998    1    1    2    0    0  0.18568847485E+01 -0.45108974857E+00  0.10101076677E+02  0.10280240900E+02  0.10000000000E-01 0. -1.
</event>
<event>
 5    1  0.3934322E-009  0.3882976E+03  0.7957747E-01  0.3415806E+00
         13   -1    0    0    0    0  0.00000000000E+00  0.00000000000E+00  0.14999999963E+04  0.15000000000E+04  0.10566000000E+00 0. -1.
        994   -1    0    0    0    0 -0.00000000000E+00 -0.00000000000E+00  0.11368683772E-12  0.17120000000E+03  0.17120000000E+03 0.  0.
         13    1    1    2    0    0 -0.25308796194E+03  0.54060013442E+02  0.12359836843E+04  0.12627872665E+04  0.10566000000E+00 0. -1.
        994    1    1    2    0    0  0.25343100601E+03 -0.54119722747E+02  0.26191305121E+03  0.40628082109E+03  0.17120000000E+03 0.  0.
        998    1    1    2    0    0 -0.34304406863E+00  0.59709304936E-01  0.21032608055E+01  0.21319123927E+01  0.10000000000E-01 0. -1.
</event>
<event>
 5    1  0.3934322E-009  0.3883009E+03  0.7957747E-01  0.3415792E+00
         13   -1    0    0    0    0  0.00000000000E+00  0.00000000000E+00  0.14999999963E+04  0.15000000000E+04  0.10566000000E+00 0. -1.
        994   -1    0    0    0    0 -0.00000000000E+00 -0.00000000000E+00  0.11368683772E-12  0.17120000000E+03  0.17120000000E+03 0.  0.
         13    1    1    2    0    0  0.59872774385E+02 -0.23124592185E+03  0.54046248491E+03  0.59089688969E+03  0.10566000000E+00 0. -1.
        994    1    1    2    0    0 -0.86714783774E+02  0.33593334090E+03  0.71535165192E+03  0.81326999770E+03  0.17120000000E+03 0.  0.
        998    1    1    2    0    0  0.26842009389E+02 -0.10468741906E+03  0.24418585945E+03  0.26703311261E+03  0.10000000000E-01 0.  1.
</event>
<event>
 5    1  0.3934322E-009  0.3883009E+03  0.7957747E-01  0.3415792E+00
         13   -1    0    0    0    0  0.00000000000E+00  0.00000000000E+00  0.14999999963E+04  0.15000000000E+04  0.10566000000E+00 0.  1.
        994   -1    0    0    0    0 -0.00000000000E+00 -0.00000000000E+00  0.11368683772E-12  0.17120000000E+03  0.17120000000E+03 0.  0.
         13    1    1    2    0    0  0.95491432109E+02  0.20495039823E+03  0.12970514867E+04  0.13166115029E+04  0.10566000000E+00 0.  1.
        994    1    1    2    0    0 -0.96284082441E+02 -0.20659718812E+03  0.19248478453E+03  0.34396635729E+03  0.17120000000E+03 0.  0.
        998    1    1    2    0    0  0.79265033165E+00  0.16467898893E+01  0.10463725092E+02  0.10622139816E+02  0.10000000000E-01 0.  0.
</event>
<event>
 5    1  0.3934322E-009  0.3883010E+03  0.7957747E-01  0.3415792E+00
         13   -1    0    0    0    0  0.00000000000E+00  0.00000000000E+00  0.14999999963E+04  0.15000000000E+04  0.10566000000E+00 0. -1.
        994   -1    0    0    0    0 -0.00000000000E+00 -0.00000000000E+00  0.11368683772E-12  0.17120000000E+03  0.17120000000E+03 0.  0.
         13    1    1    2    0    0 -0.21341889859E+03 -0.66329144827E+00  0.11465342270E+04  0.11662284558E+04  0.10566000000E+00 0. -1.
        994    1    1    2    0    0  0.23910858422E+03  0.80813250345E+00  0.21537783487E+03  0.36451422452E+03  0.17120000000E+03 0.  0.
        998    1    1    2    0    0 -0.25689685631E+02 -0.14484105518E+00  0.13808793444E+03  0.14045731973E+03  0.10000000000E-01 0.  1.
</event>
<event>
 5    1  0.3934322E-009  0.3882870E+03  0.7957747E-01  0.3415850E+00
         13   -1    0    0    0    0  0.00000000000E+00  0.00000000000E+00  0.14999999963E+04  0.15000000000E+04  0.10566000000E+00 0. -1.
        994   -1    0    0    0    0 -0.00000000000E+00 -0.00000000000E+00  0.11368683772E-12  0.17120000000E+03  0.17120000000E+03 0.  0.
         13    1    1    2    0    0 -0.24141476549E+02 -0.23645808758E+03  0.12310517485E+04  0.12537877239E+04  0.10566000000E+00 0. -1.
        994    1    1    2    0    0  0.24118948286E+02  0.24423761297E+03  0.22925247476E+03  0.37696136730E+03  0.17120000000E+03 0.  0.
        998    1    1    2    0    0  0.22528263450E-01 -0.77795253907E+01  0.39695773028E+02  0.40450908756E+02  0.10000000000E-01 0. -1.
</event>
<event>
 5    1  0.3934322E-009  0.3883008E+03  0.7957747E-01  0.3415793E+00
         13   -1    0    0    0    0  0.00000000000E+00  0.00000000000E+00  0.14999999963E+04  0.15000000000E+04  0.10566000000E+00 0. -1.
        994   -1    0    0    0    0 -0.00000000000E+00 -0.00000000000E+00  0.11368683772E-12  0.17120000000E+03  0.17120000000E+03 0.  0.
         13    1    1    2    0    0 -0.49350131272E+02 -0.16129259755E+03  0.88102263016E+03  0.89702375860E+03  0.10566000000E+00 0. -1.
        994    1    1    2    0    0  0.71669045263E+02  0.23311896895E+03  0.22579183492E+03  0.37386133586E+03  0.17120000000E+03 0.  0.
        998    1    1    2    0    0 -0.22318913991E+02 -0.71826371405E+02  0.39318553120E+03  0.40031490554E+03  0.10000000000E-01 0. -1.
</event>
<event>
 5    1  0.3934322E-009  0.3882672E+03  0.7957747E-01  0.3415933E+00
         13   -1    0    0    0    0  0.00000000000E+00  0.00000000000E+00  0.14999999963E+04  0.15000000000E+04  0.10566000000E+00 0. -1.
        994   -1    0    0    0    0 -0.00000000000E+00 -0.00000000000E+00  0.11368683772E-12  0.17120000000E+03  0.17120000000E+03 0.  0.
         13    1    1    2    0    0  0.28405105086E+03 -0.96506179071E+02  0.11116246671E+04  0.11513938743E+04  0.10566000000E+00 0. -1.
        994    1    1    2    0    0 -0.28407131927E+03  0.96545723292E+02  0.38835477137E+03  0.51975615394E+03  0.17120000000E+03 0.  0.
        998    1    1    2    0    0  0.20268408393E-01 -0.39544221580E-01  0.20557819165E-01  0.49971769710E-01  0.10000000000E-01 0.  1.
</event>
<event>
 5    1  0.3934322E-009  0.3883009E+03  0.7957747E-01  0.3415792E+00
         13   -1    0    0    0    0  0.00000000000E+00  0.00000000000E+00  0.14999999963E+04  0.15000000000E+04  0.10566000000E+00 0. -1.
        994   -1    0    0    0    0 -0.00000000000E+00 -0.00000000000E+00  0.11368683772E-12  0.17120000000E+03  0.17120000000E+03 0.  0.
         13    1    1    2    0    0 -0.16272946197E+03  0.12671662864E+03  0.10142848885E+04  0.10350419450E+04  0.10566000000E+00 0. -1.
        994    1    1    2    0    0  0.20057081100E+03 -0.15635752719E+03  0.24997441983E+03  0.39556665317E+03  0.17120000000E+03 0.  0.
        998    1    1    2    0    0 -0.37841349031E+02  0.29640898546E+02  0.23574068799E+03  0.24059140184E+03  0.10000000000E-01 0.  1.
</event>
<event>
 5    1  0.3934322E-009  0.3883001E+03  0.7957747E-01  0.3415795E+00
         13   -1    0    0    0    0  0.00000000000E+00  0.00000000000E+00  0.14999999963E+04  0.15000000000E+04  0.10566000000E+00 0.  1.
        994   -1    0    0    0    0 -0.00000000000E+00 -0.00000000000E+00  0.11368683772E-12  0.17120000000E+03  0.17120000000E+03 0.  0.
         13    1    1    2    0    0 -0.16159701834E+03  0.18417449380E+03  0.11225147990E+04  0.11489444398E+04  0.10566000000E+00 0.  1.
        994    1    1    2    0    0  0.17554386270E+03 -0.19988810678E+03  0.27980117127E+03  0.42233758821E+03  0.17120000000E+03 0.  0.
        998    1    1    2    0    0 -0.13946844363E+02  0.15713612987E+02  0.97684026003E+02  0.99917972041E+02  0.10000000000E-01 0.  1.
</event>
<event>
 5    1  0.3934322E-009  0.3882326E+03  0.7957747E-01  0.3416077E+00
         13   -1    0    0    0    0  0.00000000000E+00  0.00000000000E+00  0.14999999963E+04  0.15000000000E+04  0.10566000000E+00 0.  1.
        994   -1    0    0    0    0 -0.00000000000E+00 -0.00000000000E+00  0.11368683772E-12  0.17120000000E+03  0.17120000000E+03 0.  0.
         13    1    1    2    0    0  0.11689536849E+03  0.18127425186E+03  0.12894322458E+04  0.13073486181E+04  0.10566000000E+00 0.  1.
        994    1    1    2    0    0 -0.12107577290E+03 -0.18487340537E+03  0.17931534432E+03  0.33211587060E+03  0.17120000000E+03 0.  0.
        998    1    1    2    0    0  0.41804044107E+01  0.35991535096E+01  0.31252406172E+02  0.31735511317E+02  0.10000000000E-01 0.  1.
</event>
<event>
 5    1  0.3934322E-009  0.3883007E+03  0.7957747E-01  0.3415793E+00
         13   -1    0    0    0    0  0.00000000000E+00  0.00000000000E+00  0.14999999963E+04  0.15000000000E+04  0.10566000000E+00 0.  1.
        994   -1    0    0    0    0 -0.00000000000E+00 -0.00000000000E+00  0.11368683772E-12  0.17120000000E+03  0.17120000000E+03 0.  0.
         13    1    1    2    0    0 -0.22594374040E+03  0.15938540950E+02  0.11743435724E+04  0.11959880635E+04  0.10566000000E+00 0.  1.
        994    1    1    2    0    0  0.24471615594E+03 -0.17179545332E+02  0.22899056832E+03  0.37673233752E+03  0.17120000000E+03 0.  0.
        998    1    1    2    0    0 -0.18772415534E+02  0.12410043824E+01  0.96665855561E+02  0.98479598944E+02  0.10000000000E-01 0.  1.
</event>
<event>
 5    1  0.3934322E-009  0.3882880E+03  0.7957747E-01  0.3415846E+00
         13   -1    0    0    0    0  0.00000000000E+00  0.00000000000E+00  0.14999999963E+04  0.15000000000E+04  0.10566000000E+00 0.  1.
        994   -1    0    0    0    0 -0.00000000000E+00 -0.00000000000E+00  0.11368683772E-12  0.17120000000E+03  0.17120000000E+03 0.  0.
         13    1    1    2    0    0  0.30353413077E+03 -0.74872336418E+02  0.76566702879E+03  0.82703376318E+03  0.10566000000E+00 0.  1.
        994    1    1    2    0    0 -0.33361229302E+03  0.81486785576E+02  0.65587953608E+03  0.75988463870E+03  0.17120000000E+03 0.  0.
        998    1    1    2    0    0  0.30078162255E+02 -0.66144491582E+01  0.78453431402E+02  0.84281598116E+02  0.10000000000E-01 0.  1.
</event>
<event>
 5    1  0.3934322E-009  0.3882865E+03  0.7957747E-01  0.3415852E+00
         13   -1    0    0    0    0  0.00000000000E+00  0.00000000000E+00  0.14999999963E+04  0.15000000000E+04  0.10566000000E+00 0. -1.
        994   -1    0    0    0    0 -0.00000000000E+00 -0.00000000000E+00  0.11368683772E-12  0.17120000000E+03  0.17120000000E+03 0.  0.
         13    1    1    2    0    0 -0.13968597057E+03 -0.31826056772E+03  0.69030890877E+03  0.77287020904E+03  0.10566000000E+00 0. -1.
        994    1    1    2    0    0  0.14002130521E+03  0.31905353637E+03  0.80740497594E+03  0.89588691259E+03  0.17120000000E+03 0.  0.
        998    1    1    2    0    0 -0.33533463740E+00 -0.79296864959E+00  0.22861115723E+01  0.24428783677E+01  0.10000000000E-01 0. -1.
</event>
<event>
 5    1  0.3934322E-009  0.3882916E+03  0.7957747E-01  0.3415831E+00
         13   -1    0    0    0    0  0.00000000000E+00  0.00000000000E+00  0.14999999963E+04  0.15000000000E+04  0.10566000000E+00 0. -1.
        994   -1    0    0    0    0 -0.00000000000E+00 -0.00000000000E+00  0.11368683772E-12  0.17120000000E+03  0.17120000000E+03 0.  0.
         13    1    1    2    0    0  0.16195628133E+03 -0.15921007206E+03  0.12770010650E+04  0.12970387100E+04  0.10566000000E+00 0. -1.
        994    1    1    2    0    0 -0.16540405407E+03  0.16212244084E+03  0.19980759234E+03  0.35053487827E+03  0.17120000000E+03 0.  0.
        998    1    1    2    0    0  0.34477727362E+01 -0.29123687717E+01  0.23191338964E+02  0.23626411739E+02  0.10000000000E-01 0.  1.
</event>
<event>
 5    1  0.3934322E-009  0.3822345E+03  0.7957747E-01  0.3441486E+00
         13   -1    0    0    0    0  0.00000000000E+00  0.00000000000E+00  0.14999999963E+04  0.15000000000E+04  0.10566000000E+00 0.  1.
        994   -1    0    0    0    0 -0.00000000000E+00 -0.00000000000E+00  0.11368683772E-12  0.17120000000E+03  0.17120000000E+03 0.  0.
         13    1    1    2    0    0 -0.33992101000E+02  0.15815576065E+02  0.12176958718E+03  0.12741051332E+03  0.10566000000E+00 0.  1.
        994    1    1    2    0    0  0.99420854464E+02 -0.91126986820E+02  0.65918934279E+02  0.22769141382E+03  0.17120000000E+03 0.  0.
        998    1    1    2    0    0 -0.65428753464E+02  0.75311410755E+02  0.13123114748E+04  0.13160980729E+04  0.10000000000E-01 0.  1.
</event>
<event>
 5    1  0.3934322E-009  0.3882892E+03  0.7957747E-01  0.3415841E+00
         13   -1    0    0    0    0  0.00000000000E+00  0.00000000000E+00  0.14999999963E+04  0.15000000000E+04  0.10566000000E+00 0. -1.
        994   -1    0    0    0    0 -0.00000000000E+00 -0.00000000000E+00  0.11368683772E-12  0.17120000000E+03  0.17120000000E+03 0.  0.
         13    1    1    2    0    0 -0.20999057028E+03 -0.44015898904E+02  0.12545852139E+04  0.12727990843E+04  0.10566000000E+00 0. -1.
        994    1    1    2    0    0  0.22059190127E+03  0.46099241753E+02  0.18750068628E+03  0.33948766450E+03  0.17120000000E+03 0.  0.
        998    1    1    2    0    0 -0.10601330993E+02 -0.20833428491E+01  0.57914096090E+02  0.58913251160E+02  0.10000000000E-01 0. -1.
</event>
<event>
 5    1  0.3934322E-009  0.3882887E+03  0.7957747E-01  0.3415843E+00
         13   -1    0    0    0    0  0.00000000000E+00  0.00000000000E+00  0.14999999963E+04  0.15000000000E+04  0.10566000000E+00 0. -1.
        994   -1    0    0    0    0 -0.00000000000E+00 -0.00000000000E+00  0.11368683772E-12  0.17120000000E+03  0.17120000000E+03 0.  0.
         13    1    1    2    0    0  0.23982153979E+03  0.10364547396E+03  0.12210537682E+04  0.12486909431E+04  0.10566000000E+00 0. -1.
        994    1    1    2    0    0 -0.24138327387E+03 -0.10451650988E+03  0.27191850938E+03  0.41525739185E+03  0.17120000000E+03 0.  0.
        998    1    1    2    0    0  0.15617340729E+01  0.87103591310E+00  0.70277186578E+01  0.72516650784E+01  0.10000000000E-01 0. -1.
</event>
<event>
 5    1  0.3934322E-009  0.3883009E+03  0.7957747E-01  0.3415792E+00
         13   -1    0    0    0    0  0.00000000000E+00  0.00000000000E+00  0.14999999963E+04  0.15000000000E+04  0.10566000000E+00 0.  1.
        994   -1    0    0    0    0 -0.00000000000E+00 -0.00000000000E+00  0.11368683772E-12  0.17120000000E+03  0.17120000000E+03 0.  0.
         13    1    1    2    0    0  0.11289798507E+03 -0.22591590692E+03  0.12351986902E+04  0.12607536506E+04  0.10566000000E+00 0.  1.
        994    1    1    2    0    0 -0.11402660581E+03  0.22825647886E+03  0.25200910457E+03  0.39739289848E+03  0.17120000000E+03 0.  0.
        998    1    1    2    0    0  0.11286207422E+01 -0.23405719459E+01  0.12792201534E+02  0.13053450958E+02  0.10000000000E-01 0.  1.
</event>
<event>
 5    1  0.3934322E-009  0.3883006E+03  0.7957747E-01  0.3415794E+00
         13   -1    0    0    0    0  0.00000000000E+00  0.00000000000E+00  0.14999999963E+04  0.15000000000E+04  0.10566000000E+00 0.  1.
        994   -1    0    0    0    0 -0.00000000000E+00 -0.00000000000E+00  0.11368683772E-12  0.17120000000E+03  0.17120000000E+03 0.  0.
         13    1    1    2    0    0  0.15382432120E+03 -0.20079260234E+03  0.12528279416E+04  0.12781069804E+04  0.10566000000E+00 0.  1.
        994    1    1    2    0    0 -0.15385984337E+03  0.20084488788E+03  0.24682049804E+03  0.39273568547E+03  0.17120000000E+03 0.  0.
        998    1    1    2    0    0  0.35522170495E-01 -0.52285544347E-01  0.35155667199E+00  0.35733415225E+00  0.10000000000E-01 0.  0.
</event>
<event>
 5    1  0.3934322E-009  0.3883001E+03  0.7957747E-01  0.3415795E+00
         13   -1    0    0    0    0  0.00000000000E+00  0.00000000000E+00  0.14999999963E+04  0.15000000000E+04  0.10566000000E+00 0.  1.
        994   -1    0    0    0    0 -0.00000000000E+00 -0.00000000000E+00  0.11368683772E-12  0.17120000000E+03  0.17120000000E+03 0.  0.
         13    1    1    2    0    0  0.15101892957E+02 -0.24869979644E+03  0.12617785859E+04  0.12861434084E+04  0.10566000000E+00 0.  1.
        994    1    1    2    0    0 -0.15118212306E+02  0.24875631879E+03  0.23788998038E+03  0.38471983215E+03  0.17120000000E+03 0.  0.
        998    1    1    2    0    0  0.16319349396E-01 -0.56522353547E-01  0.33142996384E+00  0.33675943721E+00  0.10000000000E-01 0.  1.
</event>
<event>
 5    1  0.3934322E-009  0.3883000E+03  0.7957747E-01  0.3415796E+00
         13   -1    0    0    0    0  0.00000000000E+00  0.00000000000E+00  0.14999999963E+04  0.15000000000E+04  0.10566000000E+00 0. -1.
        994   -1    0    0    0    0 -0.00000000000E+00 -0.00000000000E+00  0.11368683772E-12  0.17120000000E+03  0.17120000000E+03 0.  0.
         13    1    1    2    0    0 -0.15968896819E+03 -0.23142417577E+03  0.11743567309E+04  0.12075477044E+04  0.10566000000E+00 0. -1.
        994    1    1    2    0    0  0.15985467167E+03  0.23170530540E+03  0.32441033298E+03  0.46237686874E+03  0.17120000000E+03 0.  0.
        998    1    1    2    0    0 -0.16570347820E+00 -0.28112962596E+00  0.12329323544E+01  0.12754268696E+01  0.10000000000E-01 0.  1.
</event>
<event>
 5    1  0.3934322E-009  0.3882415E+03  0.7957747E-01  0.3416040E+00
         13   -1    0    0    0    0  0.00000000000E+00  0.00000000000E+00  0.14999999963E+04  0.15000000000E+04  0.10566000000E+00 0.  1.
        994   -1    0    0    0    0 -0.00000000000E+00 -0.00000000000E+00  0.11368683772E-12  0.17120000000E+03  0.17120000000E+03 0.  0.
         13    1    1    2    0    0 -0.13809019007E+03  0.31037243528E+03  0.55599798070E+03  0.65156251801E+03  0.10566000000E+00 0.  1.
        994    1    1    2    0    0  0.13888095602E+03 -0.31288368519E+03  0.93801985229E+03  0.10131015762E+04  0.17120000000E+03 0.  0.
        998    1    1    2    0    0 -0.79076595371E+00  0.25112499101E+01  0.59821632859E+01  0.65359057890E+01  0.10000000000E-01 0.  1.
</event>
<event>
 5    1  0.3934322E-009  0.3882466E+03  0.7957747E-01  0.3416019E+00
         13   -1    0    0    0    0  0.00000000000E+00  0.00000000000E+00  0.14999999963E+04  0.15000000000E+04  0.10566000000E+00 0.  1.
        994   -1    0    0    0    0 -0.00000000000E+00 -0.00000000000E+00  0.11368683772E-12  0.17120000000E+03  0.17120000000E+03 0.  0.
         13    1    1    2    0    0  0.24387166648E+03  0.16501262759E+03  0.11203934032E+04  0.11584403075E+04  0.10566000000E+00 0.  1.
        994    1    1    2    0    0 -0.24494028385E+03 -0.16561334446E+03  0.37214414139E+03  0.50519721346E+03  0.17120000000E+03 0.  0.
        998    1    1    2    0    0  0.10686173729E+01  0.60071686859E+00  0.74624517270E+01  0.75624790660E+01  0.10000000000E-01 0. -1.
</event>
<event>
 5    1  0.3934322E-009  0.3883002E+03  0.7957747E-01  0.3415795E+00
         13   -1    0    0    0    0  0.00000000000E+00  0.00000000000E+00  0.14999999963E+04  0.15000000000E+04  0.10566000000E+00 0. -1.
        994   -1    0    0    0    0 -0.00000000000E+00 -0.00000000000E+00  0.11368683772E-12  0.17120000000E+03  0.17120000000E+03 0.  0.
         13    1    1    2    0    0 -0.21470072578E+03 -0.55860896548E+02  0.13162061282E+04  0.13347716751E+04  0.10566000000E+00 0. -1.
        994    1    1    2    0    0  0.21508970822E+03  0.55986490335E+02  0.18159540193E+03  0.33419215982E+03  0.17120000000E+03 0.  0.
        998    1    1    2    0    0 -0.38898243568E+00 -0.12559378693E+00  0.21984661378E+01  0.22361651311E+01  0.10000000000E-01 0. -1.
</event>
<event>
 5    1  0.3934322E-009  0.3883010E+03  0.7957747E-01  0.3415792E+00
         13   -1    0    0    0    0  0.00000000000E+00  0.00000000000E+00  0.14999999963E+04  0.15000000000E+04  0.10566000000E+00 0. -1.
        994   -1    0    0    0    0 -0.00000000000E+00 -0.00000000000E+00  0.11368683772E-12  0.17120000000E+03  0.17120000000E+03 0.  0.
         13    1    1    2    0    0 -0.26191224849E+03 -0.29567397591E+02  0.10966221529E+04  0.11278530110E+04  0.10566000000E+00 0. -1.
        994    1    1    2    0    0  0.28030962264E+03  0.31616673337E+02  0.32624530965E+03  0.46402428886E+03  0.17120000000E+03 0.  0.
        998    1    1    2    0    0 -0.18397374156E+02 -0.20492757469E+01  0.77132533704E+02  0.79322700171E+02  0.10000000000E-01 0. -1.
</event>
<event>
 5    1  0.3934322E-009  0.3882997E+03  0.7957747E-01  0.3415797E+00
         13   -1    0    0    0    0  0.00000000000E+00  0.00000000000E+00  0.14999999963E+04  0.15000000000E+04  0.10566000000E+00 0.  1.
        994   -1    0    0    0    0 -0.00000000000E+00 -0.00000000000E+00  0.11368683772E-12  0.17120000000E+03  0.17120000000E+03 0.  0.
         13    1    1    2    0    0  0.23102124728E+03  0.74725001460E+01  0.11558017819E+04  0.11786875859E+04  0.10566000000E+00 0.  1.
        994    1    1    2    0    0 -0.25101391683E+03 -0.83416803005E+01  0.24242101146E+03  0.38878651837E+03  0.17120000000E+03 0.  0.
        998    1    1    2    0    0  0.19992669546E+02  0.86918015447E+00  0.10177720290E+03  0.10372589571E+03  0.10000000000E-01 0. -1.
</event>
<event>
 5    1  0.3934322E-009  0.3882987E+03  0.7957747E-01  0.3415801E+00
         13   -1    0    0    0    0  0.00000000000E+00  0.00000000000E+00  0.14999999963E+04  0.15000000000E+04  0.10566000000E+00 0. -1.
        994   -1    0    0    0    0 -0.00000000000E+00 -0.00000000000E+00  0.11368683772E-12  0.17120000000E+03  0.17120000000E+03 0.  0.
         13    1    1    2    0    0 -0.20826499672E+03 -0.10847580053E+03  0.12929811699E+04  0.13141315098E+04  0.10566000000E+00 0. -1.
        994    1    1    2    0    0  0.20831786736E+03  0.10850489490E+03  0.20648725332E+03  0.35653340918E+03  0.17120000000E+03 0.  0.
        998    1    1    2    0    0 -0.52870636540E-01 -0.29094368811E-01  0.53157308299E+00  0.53508104906E+00  0.10000000000E-01 0.  1.
</event>
<event>
 5    1  0.3934322E-009  0.3865448E+03  0.7957747E-01  0.3423147E+00
         13   -1    0    0    0    0  0.00000000000E+00  0.00000000000E+00  0.14999999963E+04  0.15000000000E+04  0.10566000000E+00 0. -1.
        994   -1    0    0    0    0 -0.00000000000E+00 -0.00000000000E+00  0.11368683772E-12  0.17120000000E+03  0.17120000000E+03 0.  0.
         13    1    1    2    0    0  0.97538552731E+02  0.20109866517E+03  0.11199637195E+04  0.11420478040E+04  0.10566000000E+00 0. -1.
        994    1    1    2    0    0 -0.12116436708E+03 -0.21266997551E+03  0.23042566239E+03  0.37724626999E+03  0.17120000000E+03 0.  0.
        998    1    1    2    0    0  0.23625814350E+02  0.11571310340E+02  0.14961061440E+03  0.15190592604E+03  0.10000000000E-01 0. -1.
</event>
<event>
 5    1  0.3934322E-009  0.3882879E+03  0.7957747E-01  0.3415847E+00
         13   -1    0    0    0    0  0.00000000000E+00  0.00000000000E+00  0.14999999963E+04  0.15000000000E+04  0.10566000000E+00 0. -1.
        994   -1    0    0    0    0 -0.00000000000E+00 -0.00000000000E+00  0.11368683772E-12  0.17120000000E+03  0.17120000000E+03 0.  0.
         13    1    1    2    0    0 -0.24479036897E+03  0.24263659106E+02  0.12259510550E+04  0.12503867603E+04  0.10566000000E+00 0. -1.
        994    1    1    2    0    0  0.25031873244E+03 -0.24519272313E+02  0.24330010032E+03  0.38957032914E+03  0.17120000000E+03 0.  0.
        998    1    1    2    0    0 -0.55283634751E+01  0.25561320682E+00  0.30748840974E+02  0.31242910589E+02  0.10000000000E-01 0. -1.
</event>
<event>
 5    1  0.3934322E-009  0.3883008E+03  0.7957747E-01  0.3415793E+00
         13   -1    0    0    0    0  0.00000000000E+00  0.00000000000E+00  0.14999999963E+04  0.15000000000E+04  0.10566000000E+00 0. -1.
        994   -1    0    0    0    0 -0.00000000000E+00 -0.00000000000E+00  0.11368683772E-12  0.17120000000E+03  0.17120000000E+03 0.  0.
         13    1    1    2    0    0 -0.15342638036E+03  0.17613328994E+03  0.12954969494E+04  0.13163870810E+04  0.10566000000E+00 0. -1.
        994    1    1    2    0    0  0.15348213688E+03 -0.17619978727E+03  0.20399455824E+03  0.35429698159E+03  0.17120000000E+03 0.  0.
        998    1    1    2    0    0 -0.55756522156E-01  0.66497334196E-01  0.50848861729E+00  0.51593735970E+00  0.10000000000E-01 0. -1.
</event>
<event>
 5    1  0.3934322E-009  0.3782403E+03  0.7957747E-01  0.3458857E+00
         13   -1    0    0    0    0  0.00000000000E+00  0.00000000000E+00  0.14999999963E+04  0.15000000000E+04  0.10566000000E+00 0.  1.
        994   -1    0    0    0    0 -0.00000000000E+00 -0.00000000000E+00  0.11368683772E-12  0.17120000000E+03  0.17120000000E+03 0.  0.
         13    1    1    2    0    0 -0.18507201257E+03 -0.45959432781E+01  0.10214586487E+04  0.10380994917E+04  0.10566000000E+00 0.  1.
        994    1    1    2    0    0  0.20711342783E+03 -0.51615191761E+02  0.17770412484E+03  0.32626415064E+03  0.17120000000E+03 0.  0.
        998    1    1    2    0    0 -0.22041415252E+02  0.56211135039E+02  0.30083722276E+03  0.30683635767E+03  0.10000000000E-01 0.  1.
</event>
<event>
 5    1  0.3934322E-009  0.3883004E+03  0.7957747E-01  0.3415794E+00
         13   -1    0    0    0    0  0.00000000000E+00  0.00000000000E+00  0.14999999963E+04  0.15000000000E+04  0.10566000000E+00 0. -1.
        994   -1    0    0    0    0 -0.00000000000E+00 -0.00000000000E+00  0.11368683772E-12  0.17120000000E+03  0.17120000000E+03 0.  0.
         13    1    1    2    0    0 -0.84629971445E+02 -0.20944032537E+02  0.24960728442E+03  0.26439495488E+03  0.10566000000E+00 0. -1.
        994    1    1    2    0    0  0.32164492047E+03  0.80874282979E+02  0.54756028557E+03  0.66266719464E+03  0.17120000000E+03 0.  0.
        998    1    1    2    0    0 -0.23701494903E+03 -0.59930250442E+02  0.70283242629E+03  0.74413785048E+03  0.10000000000E-01 0. -1.
</event>
<event>
 5    1  0.4442403E-009  0.3882979E+03  0.7957747E-01  0.3415805E+00
         13   -1    0    0    0    0  0.00000000000E+00  0.00000000000E+00  0.14999999963E+04  0.15000000000E+04  0.10566000000E+00 0. -1.
        994   -1    0    0    0    0 -0.00000000000E+00 -0.00000000000E+00  0.11368683772E-12  0.17120000000E+03  0.17120000000E+03 0.  0.
         13    1    1    2    0    0  0.18045145554E+03 -0.18029049257E+03  0.12481186436E+04  0.12739181878E+04  0.10566000000E+00 0. -1.
        994    1    1    2    0    0 -0.18045242639E+03  0.18029314407E+03  0.25184985363E+03  0.39724864350E+03  0.17120000000E+03 0.  0.
        998    1    1    2    0    0  0.97084993897E-03 -0.26515030135E-02  0.31499041219E-01  0.33168699335E-01  0.10000000000E-01 0.  0.
</event>
<event>
 5    1  0.3934322E-009  0.3864518E+03  0.7957747E-01  0.3423538E+00
         13   -1    0    0    0    0  0.00000000000E+00  0.00000000000E+00  0.14999999963E+04  0.15000000000E+04  0.10566000000E+00 0.  1.
        994   -1    0    0    0    0 -0.00000000000E+00 -0.00000000000E+00  0.11368683772E-12  0.17120000000E+03  0.17120000000E+03 0.  0.
         13    1    1    2    0    0 -0.12619830460E+02  0.35240604636E+02  0.20089502025E+03  0.20435258908E+03  0.10566000000E+00 0.  1.
        994    1    1    2    0    0  0.38971139757E+02 -0.13162381480E+03  0.65222504319E+02  0.22892573780E+03  0.17120000000E+03 0.  0.
        998    1    1    2    0    0 -0.26351309297E+02  0.96383210168E+02  0.12338824717E+04  0.12379216731E+04  0.10000000000E-01 0.  1.
</event>
<event>
 5    1  0.3934322E-009  0.3879954E+03  0.7957747E-01  0.3417067E+00
         13   -1    0    0    0    0  0.00000000000E+00  0.00000000000E+00  0.14999999963E+04  0.15000000000E+04  0.10566000000E+00 0.  1.
        994   -1    0    0    0    0 -0.00000000000E+00 -0.00000000000E+00  0.11368683772E-12  0.17120000000E+03  0.17120000000E+03 0.  0.
         13    1    1    2    0    0 -0.11019197839E+03  0.82292440717E+02  0.62490449685E+03  0.63985932770E+03  0.10566000000E+00 0.  1.
        994    1    1    2    0    0  0.21395527211E+03 -0.14287449916E+03  0.25774938856E+03  0.40241044752E+03  0.17120000000E+03 0.  0.
        998    1    1    2    0    0 -0.10376329371E+03  0.60582058443E+02  0.61734611087E+03  0.62893022478E+03  0.10000000000E-01 0.  1.
</event>
<event>
 5    1  0.3934322E-009  0.3883007E+03  0.7957747E-01  0.3415793E+00
         13   -1    0    0    0    0  0.00000000000E+00  0.00000000000E+00  0.14999999963E+04  0.15000000000E+04  0.10566000000E+00 0. -1.
        994   -1    0    0    0    0 -0.00000000000E+00 -0.00000000000E+00  0.11368683772E-12  0.17120000000E+03  0.17120000000E+03 0.  0.
         13    1    1    2    0    0  0.15068435395E+03 -0.20167105156E+03  0.12551683698E+04  0.12801658624E+04  0.10566000000E+00 0. -1.
        994    1    1    2    0    0 -0.15075533752E+03  0.20178314535E+03  0.24414004989E+03  0.39032987779E+03  0.17120000000E+03 0.  0.
        998    1    1    2    0    0  0.70983571864E-01 -0.11209378466E+00  0.69157656838E+00  0.70425977733E+00  0.10000000000E-01 0.  1.
</event>
<event>
 5    1  0.3934322E-009  0.3863919E+03  0.7957747E-01  0.3423791E+00
         13   -1    0    0    0    0  0.00000000000E+00  0.00000000000E+00  0.14999999963E+04  0.15000000000E+04  0.10566000000E+00 0. -1.
        994   -1    0    0    0    0 -0.00000000000E+00 -0.00000000000E+00  0.11368683772E-12  0.17120000000E+03  0.17120000000E+03 0.  0.
         13    1    1    2    0    0  0.16761415680E+03 -0.12443711009E+03  0.93584279879E+03  0.95884349877E+03  0.10566000000E+00 0. -1.
        994    1    1    2    0    0 -0.20840639419E+03  0.14006189399E+03  0.24538966159E+03  0.39060988890E+03  0.17120000000E+03 0.  0.
        998    1    1    2    0    0  0.40792237397E+02 -0.15624783904E+02  0.31876753589E+03  0.32174661233E+03  0.10000000000E-01 0.  1.
</event>
<event>
 5    1  0.3934322E-009  0.3882997E+03  0.7957747E-01  0.3415797E+00
         13   -1    0    0    0    0  0.00000000000E+00  0.00000000000E+00  0.14999999963E+04  0.15000000000E+04  0.10566000000E+00 0.  1.
        994   -1    0    0    0    0 -0.00000000000E+00 -0.00000000000E+00  0.11368683772E-12  0.17120000000E+03  0.17120000000E+03 0.  0.
         13    1    1    2    0    0  0.22954989799E+03 -0.24436634341E+03  0.91681369067E+03  0.97619435566E+03  0.10566000000E+00 0.  1.
        994    1    1    2    0    0 -0.23011975390E+03  0.24493687213E+03  0.58115528372E+03  0.69282037806E+03  0.17120000000E+03 0.  0.
        998    1    1    2    0    0  0.56985590943E+00 -0.57052872542E+00  0.20310218905E+01  0.21852662776E+01  0.10000000000E-01 0. -1.
</event>
<event>
 5    1  0.3934322E-009  0.3880783E+03  0.7957747E-01  0.3416721E+00
         13   -1    0    0    0    0  0.00000000000E+00  0.00000000000E+00  0.14999999963E+04  0.15000000000E+04  0.10566000000E+00 0. -1.
        994   -1    0    0    0    0 -0.00000000000E+00 -0.00000000000E+00  0.11368683772E-12  0.17120000000E+03  0.17120000000E+03 0.  0.
         13    1    1    2    0    0 -0.18499937600E+03 -0.17069205738E+03  0.11729774269E+04  0.11996818757E+04  0.10566000000E+00 0. -1.
        994    1    1    2    0    0  0.19034804382E+03  0.17871701509E+03  0.26727067881E+03  0.41099295009E+03  0.17120000000E+03 0.  0.
        998    1    1    2    0    0 -0.53486678141E+01 -0.80249577115E+01  0.59751890519E+02  0.60525174219E+02  0.10000000000E-01 0. -1.
</event>
<event>
 5    1  0.3934322E-009  0.3882907E+03  0.7957747E-01  0.3415835E+00
         13   -1    0    0    0    0  0.00000000000E+00  0.00000000000E+00  0.14999999963E+04  0.15000000000E+04  0.10566000000E+00 0. -1.
        994   -1    0    0    0    0 -0.00000000000E+00 -0.00000000000E+00  0.11368683772E-12  0.17120000000E+03  0.17120000000E+03 0.  0.
         13    1    1    2    0    0  0.24807370016E+03  0.22803540746E+02  0.12164973282E+04  0.12417432596E+04  0.10566000000E+00 0. -1.
        994    1    1    2    0    0 -0.25456409115E+03 -0.22827157751E+02  0.25308223879E+03  0.39835162260E+03  0.17120000000E+03 0.  0.
        998    1    1    2    0    0  0.64903909936E+01  0.23617004983E-01  0.30420429325E+02  0.31105117800E+02  0.10000000000E-01 0. -1.
</event>
<event>
 5    1  0.3934322E-009  0.3883009E+03  0.7957747E-01  0.3415792E+00
         13   -1    0    0    0    0  0.00000000000E+00  0.00000000000E+00  0.14999999963E+04  0.15000000000E+04  0.10566000000E+00 0.  1.
        994   -1    0    0    0    0 -0.00000000000E+00 -0.00000000000E+00  0.11368683772E-12  0.17120000000E+03  0.17120000000E+03 0.  0.
         13    1    1    2    0    0  0.94881491881E+02  0.22329170717E+03  0.12748628506E+04  0.12977430343E+04  0.10566000000E+00 0.  1.
        994    1    1    2    0    0 -0.94994264440E+02 -0.22356378924E+03  0.22362666684E+03  0.37191800744E+03  0.17120000000E+03 0.  0.
        998    1    1    2    0    0  0.11277255902E+00  0.27208206990E+00  0.15104788411E+01  0.15389582945E+01  0.10000000000E-01 0.  1.
</event>
<event>
 5    1  0.3934322E-009  0.3883009E+03  0.7957747E-01  0.3415792E+00
         13   -1    0    0    0    0  0.00000000000E+00  0.00000000000E+00  0.14999999963E+04  0.15000000000E+04  0.10566000000E+00 0. -1.
        994   -1    0    0    0    0 -0.00000000000E+00 -0.00000000000E+00  0.11368683772E-12  0.17120000000E+03  0.17120000000E+03 0.  0.
         13    1    1    2    0    0  0.14666950215E+03 -0.26872330564E+02  0.77446846083E+03  0.78869225493E+03  0.10566000000E+00 0. -1.
        994    1    1    2    0    0 -0.24070527492E+03  0.44295337149E+02  0.22770895666E+03  0.37558210182E+03  0.17120000000E+03 0.  0.
        998    1    1    2    0    0  0.94035772774E+02 -0.17423006585E+02  0.49782257880E+03  0.50692564324E+03  0.10000000000E-01 0. -1.
</event>
<event>
 5    1  0.3934322E-009  0.3883009E+03  0.7957747E-01  0.3415792E+00
         13   -1    0    0    0    0  0.00000000000E+00  0.00000000000E+00  0.14999999963E+04  0.15000000000E+04  0.10566000000E+00 0.  1.
        994   -1    0    0    0    0 -0.00000000000E+00 -0.00000000000E+00  0.11368683772E-12  0.17120000000E+03  0.17120000000E+03 0.  0.
         13    1    1    2    0    0 -0.63788651669E+02  0.17604993127E+03  0.10949996191E+04  0.11108945708E+04  0.10566000000E+00 0.  1.
        994    1    1    2    0    0  0.76654882546E+02 -0.21118053277E+03  0.18615316838E+03  0.33828335835E+03  0.17120000000E+03 0.  0.
        998    1    1    2    0    0 -0.12866230876E+02  0.35130601498E+02  0.21884720879E+03  0.22202207087E+03  0.10000000000E-01 0.  0.
</event>
<event>
 5    1  0.3934322E-009  0.3833802E+03  0.7957747E-01  0.3436571E+00
         13   -1    0    0    0    0  0.00000000000E+00  0.00000000000E+00  0.14999999963E+04  0.15000000000E+04  0.10566000000E+00 0.  1.
        994   -1    0    0    0    0 -0.00000000000E+00 -0.00000000000E+00  0.11368683772E-12  0.17120000000E+03  0.17120000000E+03 0.  0.
         13    1    1    2    0    0  0.19526091383E+02 -0.14075878444E+01  0.86823374177E+02  0.89003140482E+02  0.10566000000E+00 0.  1.
        994    1    1    2    0    0 -0.81680879338E+01 -0.87906727344E+02  0.28645735114E+02  0.19474169690E+03  0.17120000000E+03 0.  0.
        998    1    1    2    0    0 -0.11358003449E+02  0.89314315189E+02  0.13845308870E+04  0.13874551626E+04  0.10000000000E-01 0.  1.
</event>
<event>
 5    1  0.3934322E-009  0.3882979E+03  0.7957747E-01  0.3415805E+00
         13   -1    0    0    0    0  0.00000000000E+00  0.00000000000E+00  0.14999999963E+04  0.15000000000E+04  0.10566000000E+00 0. -1.
        994   -1    0    0    0    0 -0.00000000000E+00 -0.00000000000E+00  0.11368683772E-12  0.17120000000E+03  0.17120000000E+03 0.  0.
         13    1    1    2    0    0 -0.17813650377E+03  0.18730991080E+03  0.12323917371E+04  0.12592088872E+04  0.10566000000E+00 0. -1.
        994    1    1    2    0    0  0.17894323912E+03 -0.18800047170E+03  0.26292876425E+03  0.40719262672E+03  0.17120000000E+03 0.  0.
        998    1    1    2    0    0 -0.80673535067E+00  0.69056089831E+00  0.46794948982E+01  0.47984860928E+01  0.10000000000E-01 0.  1.
</event>
<event>
 5    1  0.3934322E-009  0.3883008E+03  0.7957747E-01  0.3415793E+00
         13   -1    0    0    0    0  0.00000000000E+00  0.00000000000E+00  0.14999999963E+04  0.15000000000E+04  0.10566000000E+00 0.  1.
        994   -1    0    0    0    0 -0.00000000000E+00 -0.00000000000E+00  0.11368683772E-12  0.17120000000E+03  0.17120000000E+03 0.  0.
         13    1    1    2    0    0  0.36304321126E+01 -0.19944434056E+03  0.89532656384E+03  0.91727906991E+03  0.10566000000E+00 0.  1.
        994    1    1    2    0    0 -0.50312839595E+01  0.26942504456E+03  0.28917496182E+03  0.43075139814E+03  0.17120000000E+03 0.  0.
        998    1    1    2    0    0  0.14008518469E+01 -0.69980704001E+02  0.31549847062E+03  0.32316953195E+03  0.10000000000E-01 0.  1.
</event>
<event>
 5    1  0.3934322E-009  0.3863283E+03  0.7957747E-01  0.3424058E+00
         13   -1    0    0    0    0  0.00000000000E+00  0.00000000000E+00  0.14999999963E+04  0.15000000000E+04  0.10566000000E+00 0.  1.
        994   -1    0    0    0    0 -0.00000000000E+00 -0.00000000000E+00  0.11368683772E-12  0.17120000000E+03  0.17120000000E+03 0.  0.
         13    1    1    2    0    0  0.39666895644E+01 -0.23147442228E+02  0.13187100999E+03  0.13394593368E+03  0.10566000000E+00 0.  1.
        994    1    1    2    0    0 -0.25600782606E+02  0.86417763157E+02  0.28039072086E+02  0.19549695502E+03  0.17120000000E+03 0.  0.
        998    1    1    2    0    0  0.21634093042E+02 -0.63270320929E+02  0.13400899142E+04  0.13417571113E+04  0.10000000000E-01 0.  1.
</event>
<event>
 5    1  0.3934322E-009  0.3858435E+03  0.7957747E-01  0.3426103E+00
         13   -1    0    0    0    0  0.00000000000E+00  0.00000000000E+00  0.14999999963E+04  0.15000000000E+04  0.10566000000E+00 0. -1.
        994   -1    0    0    0    0 -0.00000000000E+00 -0.00000000000E+00  0.11368683772E-12  0.17120000000E+03  0.17120000000E+03 0.  0.
         13    1    1    2    0    0 -0.26144016989E+02 -0.96385388225E+01  0.12566238371E+03  0.12871463358E+03  0.10566000000E+00 0. -1.
        994    1    1    2    0    0  0.12333592680E+03  0.24864179458E+02  0.54971713039E+02  0.21945684654E+03  0.17120000000E+03 0.  0.
        998    1    1    2    0    0 -0.97191909807E+02 -0.15225640635E+02  0.13193658995E+04  0.13230285199E+04  0.10000000000E-01 0. -1.
</event>
<event>
 5    1  0.3934322E-009  0.3883010E+03  0.7957747E-01  0.3415792E+00
         13   -1    0    0    0    0  0.00000000000E+00  0.00000000000E+00  0.14999999963E+04  0.15000000000E+04  0.10566000000E+00 0.  1.
        994   -1    0    0    0    0 -0.00000000000E+00 -0.00000000000E+00  0.11368683772E-12  0.17120000000E+03  0.17120000000E+03 0.  0.
         13    1    1    2    0    0 -0.22601807535E+03  0.80779494065E+02  0.11979818236E+04  0.12217896537E+04  0.10566000000E+00 0.  1.
        994    1    1    2    0    0  0.23701974640E+03 -0.84726116852E+02  0.24373138469E+03  0.38996320717E+03  0.17120000000E+03 0.  0.
        998    1    1    2    0    0 -0.11001671054E+02  0.39466227874E+01  0.58286788012E+02  0.59447139159E+02  0.10000000000E-01 0. -1.
</event>
<event>
 5    1  0.3934322E-009  0.3883004E+03  0.7957747E-01  0.3415794E+00
         13   -1    0    0    0    0  0.00000000000E+00  0.00000000000E+00  0.14999999963E+04  0.15000000000E+04  0.10566000000E+00 0.  1.
        994   -1    0    0    0    0 -0.00000000000E+00 -0.00000000000E+00  0.11368683772E-12  0.17120000000E+03  0.17120000000E+03 0.  0.
         13    1    1    2    0    0  0.17768506258E+03  0.22800570503E+03  0.11465501181E+04  0.11824279122E+04  0.10566000000E+00 0.  1.
        994    1    1    2    0    0 -0.17809299778E+03 -0.22850365244E+03  0.35105498380E+03  0.48629217214E+03  0.17120000000E+03 0.  0.
        998    1    1    2    0    0  0.40793519370E+00  0.49794740851E+00  0.23948943288E+01  0.24799156417E+01  0.10000000000E-01 0. -1.
</event>
<event>
 5    1  0.3934322E-009  0.3360694E+03  0.7957747E-01  0.3668013E+00
         13   -1    0    0    0    0  0.00000000000E+00  0.00000000000E+00  0.14999999963E+04  0.15000000000E+04  0.10566000000E+00 0.  1.
        994   -1    0    0    0    0 -0.00000000000E+00 -0.00000000000E+00  0.11368683772E-12  0.17120000000E+03  0.17120000000E+03 0.  0.
         13    1    1    2    0    0  0.81826225568E+02 -0.17716959869E+03  0.97797822371E+03  0.99725925171E+03  0.10566000000E+00 0.  1.
        994    1    1    2    0    0 -0.12327668966E+03  0.12556027830E+03  0.13277911879E+03  0.27910976351E+03  0.17120000000E+03 0.  0.
        998    1    1    2    0    0  0.41450464096E+02  0.51609320392E+02  0.38924265378E+03  0.39483098478E+03  0.10000000000E-01 0.  1.
</event>
<event>
 5    1  0.3934322E-009  0.3882857E+03  0.7957747E-01  0.3415856E+00
         13   -1    0    0    0    0  0.00000000000E+00  0.00000000000E+00  0.14999999963E+04  0.15000000000E+04  0.10566000000E+00 0. -1.
        994   -1    0    0    0    0 -0.00000000000E+00 -0.00000000000E+00  0.11368683772E-12  0.17120000000E+03  0.17120000000E+03 0.  0.
         13    1    1    2    0    0 -0.12887047178E+03  0.17211336405E+03  0.12559735737E+04  0.12742449676E+04  0.10566000000E+00 0. -1.
        994    1    1    2    0    0  0.13564603891E+03 -0.17949479641E+03  0.18679020390E+03  0.33884841756E+03  0.17120000000E+03 0.  0.
        998    1    1    2    0    0 -0.67755671337E+01  0.73814323648E+01  0.57236218710E+02  0.58106614821E+02  0.10000000000E-01 0.  1.
</event>
<event>
 5    1  0.3934322E-009  0.3883008E+03  0.7957747E-01  0.3415793E+00
         13   -1    0    0    0    0  0.00000000000E+00  0.00000000000E+00  0.14999999963E+04  0.15000000000E+04  0.10566000000E+00 0.  1.
        994   -1    0    0    0    0 -0.00000000000E+00 -0.00000000000E+00  0.11368683772E-12  0.17120000000E+03  0.17120000000E+03 0.  0.
         13    1    1    2    0    0  0.17614976863E+03 -0.75901177874E+02  0.85532889599E+03  0.87657130986E+03  0.10566000000E+00 0.  1.
        994    1    1    2    0    0 -0.24882493990E+03  0.10719284716E+03  0.29323955740E+03  0.43439962618E+03  0.17120000000E+03 0.  0.
        998    1    1    2    0    0  0.72675171273E+02 -0.31291669290E+02  0.35143154288E+03  0.36022906396E+03  0.10000000000E-01 0.  1.
</event>
<event>
 5    1  0.3934322E-009  0.3882952E+03  0.7957747E-01  0.3415816E+00
         13   -1    0    0    0    0  0.00000000000E+00  0.00000000000E+00  0.14999999963E+04  0.15000000000E+04  0.10566000000E+00 0.  1.
        994   -1    0    0    0    0 -0.00000000000E+00 -0.00000000000E+00  0.11368683772E-12  0.17120000000E+03  0.17120000000E+03 0.  0.
         13    1    1    2    0    0 -0.18654670307E+03 -0.13703964433E+02  0.93896870834E+03  0.95741825629E+03  0.10566000000E+00 0.  1.
        994    1    1    2    0    0  0.25105039117E+03  0.17413998765E+02  0.24361209506E+03  0.38985361242E+03  0.17120000000E+03 0.  0.
        998    1    1    2    0    0 -0.64503688096E+02 -0.37100343313E+01  0.31741919288E+03  0.32392813129E+03  0.10000000000E-01 0.  1.
</event>
<event>
 5    1  0.3934322E-009  0.3883005E+03  0.7957747E-01  0.3415794E+00
         13   -1    0    0    0    0  0.00000000000E+00  0.00000000000E+00  0.14999999963E+04  0.15000000000E+04  0.10566000000E+00 0.  1.
        994   -1    0    0    0    0 -0.00000000000E+00 -0.00000000000E+00  0.11368683772E-12  0.17120000000E+03  0.17120000000E+03 0.  0.
         13    1    1    2    0    0 -0.14727627819E+02 -0.21470255644E+03  0.12727855968E+04  0.12908513769E+04  0.10566000000E+00 0.  1.
        994    1    1    2    0    0  0.15355720224E+02  0.22214964883E+03  0.18239049316E+03  0.33490595189E+03  0.17120000000E+03 0.  0.
        998    1    1    2    0    0 -0.62809240477E+00 -0.74470923856E+01  0.44823906334E+02  0.45442671182E+02  0.10000000000E-01 0.  1.
</event>
<event>
 5    1  0.3934322E-009  0.3883005E+03  0.7957747E-01  0.3415794E+00
         13   -1    0    0    0    0  0.00000000000E+00  0.00000000000E+00  0.14999999963E+04  0.15000000000E+04  0.10566000000E+00 0. -1.
        994   -1    0    0    0    0 -0.00000000000E+00 -0.00000000000E+00  0.11368683772E-12  0.17120000000E+03  0.17120000000E+03 0.  0.
         13    1    1    2    0    0 -0.10046879758E+01 -0.32066902394E+03  0.10161638695E+04  0.10655602531E+04  0.10566000000E+00 0. -1.
        994    1    1    2    0    0  0.99980866293E+00  0.32101047872E+03  0.48266687710E+03  0.60442160891E+03  0.17120000000E+03 0.  0.
        998    1    1    2    0    0  0.48793128936E-02 -0.34145477310E+00  0.11692497109E+01  0.12181379463E+01  0.10000000000E-01 0.  1.
</event>
<event>
 5    1  0.3934322E-009  0.3882989E+03  0.7957747E-01  0.3415800E+00
         13   -1    0    0    0    0  0.00000000000E+00  0.00000000000E+00  0.14999999963E+04  0.15000000000E+04  0.10566000000E+00 0. -1.
        994   -1    0    0    0    0 -0.00000000000E+00 -0.00000000000E+00  0.11368683772E-12  0.17120000000E+03  0.17120000000E+03 0.  0.
         13    1    1    2    0    0  0.11067676671E+03  0.32455144020E+03  0.79238977476E+03  0.86340288992E+03  0.10566000000E+00 0. -1.
        994    1    1    2    0    0 -0.11160063758E+03 -0.32775395335E+03  0.70006576293E+03  0.79954916588E+03  0.17120000000E+03 0.  0.
        998    1    1    2    0    0  0.92387087023E+00  0.32025131578E+01  0.75444585945E+01  0.82479441920E+01  0.10000000000E-01 0.  1.
</event>
<event>
 5    1  0.3934322E-009  0.3883009E+03  0.7957747E-01  0.3415792E+00
         13   -1    0    0    0    0  0.00000000000E+00  0.00000000000E+00  0.14999999963E+04  0.15000000000E+04  0.10566000000E+00 0. -1.
        994   -1    0    0    0    0 -0.00000000000E+00 -0.00000000000E+00  0.11368683772E-12  0.17120000000E+03  0.17120000000E+03 0.  0.
         13    1    1    2    0    0 -0.20267618676E+03 -0.27417020503E+03  0.64324689345E+03  0.72802027108E+03  0.10566000000E+00 0. -1.
        994    1    1    2    0    0  0.20667294893E+03  0.27964182086E+03  0.84391747716E+03  0.92866538864E+03  0.17120000000E+03 0.  0.
        998    1    1    2    0    0 -0.39967621682E+01 -0.54716158309E+01  0.12835625660E+02  0.14514340278E+02  0.10000000000E-01 0. -1.
</event>
<event>
 5    1  0.3934322E-009  0.3883009E+03  0.7957747E-01  0.3415792E+00
         13   -1    0    0    0    0  0.00000000000E+00  0.00000000000E+00  0.14999999963E+04  0.15000000000E+04  0.10566000000E+00 0.  1.
        994   -1    0    0    0    0 -0.00000000000E+00 -0.00000000000E+00  0.11368683772E-12  0.17120000000E+03  0.17120000000E+03 0.  0.
         13    1    1    2    0    0 -0.32726954867E+02  0.23465113475E+03  0.12851074502E+04  0.13067644693E+04  0.10566000000E+00 0.  1.
        994    1    1    2    0    0  0.32797476253E+02 -0.23520037329E+03  0.21190572471E+03  0.36139779497E+03  0.17120000000E+03 0.  0.
        998    1    1    2    0    0 -0.70521386044E-01  0.54923853148E+00  0.29868213896E+01  0.30377357100E+01  0.10000000000E-01 0.  0.
</event>
<event>
 5    1  0.3934322E-009  0.3882964E+03  0.7957747E-01  0.3415811E+00
         13   -1    0    0    0    0  0.00000000000E+00  0.00000000000E+00  0.14999999963E+04  0.15000000000E+04  0.10566000000E+00 0. -1.
        994   -1    0    0    0    0 -0.00000000000E+00 -0.00000000000E+00  0.11368683772E-12  0.17120000000E+03  0.17120000000E+03 0.  0.
         13    1    1    2    0    0 -0.23588687439E+03  0.68166279016E+02  0.12684715830E+04  0.12920175801E+04  0.10566000000E+00 0. -1.
        994    1    1    2    0    0  0.23612525998E+03 -0.68169466522E+02  0.23001079603E+03  0.37764615827E+03  0.17120000000E+03 0.  0.
        998    1    1    2    0    0 -0.23838558714E+00  0.31875054633E-02  0.15176172233E+01  0.15362616589E+01  0.10000000000E-01 0.  1.
</event>
<event>
 5    1  0.3934322E-009  0.3882942E+03  0.7957747E-01  0.3415820E+00
         13   -1    0    0    0    0  0.00000000000E+00  0.00000000000E+00  0.14999999963E+04  0.15000000000E+04  0.10566000000E+00 0.  1.
        994   -1    0    0    0    0 -0.00000000000E+00 -0.00000000000E+00  0.11368683772E-12  0.17120000000E+03  0.17120000000E+03 0.  0.
         13    1    1    2    0    0  0.16047992475E+02  0.12840078786E+02  0.11214867180E+03  0.11401640863E+03  0.10566000000E+00 0.  1.
        994    1    1    2    0    0 -0.17821067242E+03 -0.14367013190E+03  0.19441990449E+03  0.34570028902E+03  0.17120000000E+03 0.  0.
        998    1    1    2    0    0  0.16216267995E+03  0.13083005311E+03  0.11934314200E+04  0.12114833024E+04  0.10000000000E-01 0.  1.
</event>
<event>
 5    1  0.3934322E-009  0.3883010E+03  0.7957747E-01  0.3415792E+00
         13   -1    0    0    0    0  0.00000000000E+00  0.00000000000E+00  0.14999999963E+04  0.15000000000E+04  0.10566000000E+00 0. -1.
        994   -1    0    0    0    0 -0.00000000000E+00 -0.00000000000E+00  0.11368683772E-12  0.17120000000E+03  0.17120000000E+03 0.  0.
         13    1    1    2    0    0 -0.20553963139E+03 -0.78371513772E+02  0.12841044964E+04  0.13028096572E+04  0.10566000000E+00 0. -1.
        994    1    1    2    0    0  0.21021171329E+03  0.80142369367E+02  0.18674319239E+03  0.33881296268E+03  0.17120000000E+03 0.  0.
        998    1    1    2    0    0 -0.46720818985E+01 -0.17708555954E+01  0.29152307522E+02  0.29577380085E+02  0.10000000000E-01 0.  1.
</event>
<event>
 5    1  0.3934322E-009  0.3882997E+03  0.7957747E-01  0.3415797E+00
         13   -1    0    0    0    0  0.00000000000E+00  0.00000000000E+00  0.14999999963E+04  0.15000000000E+04  0.10566000000E+00 0.  1.
        994   -1    0    0    0    0 -0.00000000000E+00 -0.00000000000E+00  0.11368683772E-12  0.17120000000E+03  0.17120000000E+03 0.  0.
         13    1    1    2    0    0 -0.16117963939E+03 -0.16188607910E+03  0.13050464703E+04  0.13248895348E+04  0.10566000000E+00 0.  1.
        994    1    1    2    0    0  0.16127899552E+03  0.16203100719E+03  0.19382968274E+03  0.34517292419E+03  0.17120000000E+03 0.  0.
        998    1    1    2    0    0 -0.99356132229E-01 -0.14492808742E+00  0.11238432850E+01  0.11375409974E+01  0.10000000000E-01 0. -1.
</event>
<event>
 5    1  0.3934322E-009  0.3872916E+03  0.7957747E-01  0.3420011E+00
         13   -1    0    0    0    0  0.00000000000E+00  0.00000000000E+00  0.14999999963E+04  0.15000000000E+04  0.10566000000E+00 0.  1.
        994   -1    0    0    0    0 -0.00000000000E+00 -0.00000000000E+00  0.11368683772E-12  0.17120000000E+03  0.17120000000E+03 0.  0.
         13    1    1    2    0    0 -0.13787533069E+03 -0.63740336815E+02  0.90442153919E+03  0.91708820135E+03  0.10566000000E+00 0.  1.
        994    1    1    2    0    0  0.18097496067E+03  0.10797924990E+03  0.16203321445E+03  0.31618927462E+03  0.17120000000E+03 0.  0.
        998    1    1    2    0    0 -0.43099629976E+02 -0.44238913085E+02  0.43354524264E+03  0.43792252403E+03  0.10000000000E-01 0.  1.
</event>
<event>
 5    1  0.3934322E-009  0.3803007E+03  0.7957747E-01  0.3449850E+00
         13   -1    0    0    0    0  0.00000000000E+00  0.00000000000E+00  0.14999999963E+04  0.15000000000E+04  0.10566000000E+00 0.  1.
        994   -1    0    0    0    0 -0.00000000000E+00 -0.00000000000E+00  0.11368683772E-12  0.17120000000E+03  0.17120000000E+03 0.  0.
         13    1    1    2    0    0 -0.10884173024E+01 -0.19844907252E+02  0.45395448248E+02  0.49555654387E+02  0.10566000000E+00 0.  1.
        994    1    1    2    0    0 -0.16191397303E+03  0.39863663217E+02  0.10323238296E+03  0.26032981235E+03  0.17120000000E+03 0.  0.
        998    1    1    2    0    0  0.16300239033E+03 -0.20018755965E+02  0.13513721651E+04  0.13613145333E+04  0.10000000000E-01 0.  1.
</event>
<event>
 5    1  0.3934322E-009  0.3882692E+03  0.7957747E-01  0.3415924E+00
         13   -1    0    0    0    0  0.00000000000E+00  0.00000000000E+00  0.14999999963E+04  0.15000000000E+04  0.10566000000E+00 0.  1.
        994   -1    0    0    0    0 -0.00000000000E+00 -0.00000000000E+00  0.11368683772E-12  0.17120000000E+03  0.17120000000E+03 0.  0.
         13    1    1    2    0    0  0.22829714896E+03 -0.89245310818E+02  0.12556020860E+04  0.12793048594E+04  0.10566000000E+00 0.  1.
        994    1    1    2    0    0 -0.23023466537E+03  0.89430080563E+02  0.23282943518E+03  0.38016407817E+03  0.17120000000E+03 0.  0.
        998    1    1    2    0    0  0.19375164185E+01 -0.18476974561E+00  0.11568475117E+02  0.11731062453E+02  0.10000000000E-01 0. -1.
</event>
<event>
 5    1  0.3934322E-009  0.3882996E+03  0.7957747E-01  0.3415798E+00
         13   -1    0    0    0    0  0.00000000000E+00  0.00000000000E+00  0.14999999963E+04  0.15000000000E+04  0.10566000000E+00 0.  1.
        994   -1    0    0    0    0 -0.00000000000E+00 -0.00000000000E+00  0.11368683772E-12  0.17120000000E+03  0.17120000000E+03 0.  0.
         13    1    1    2    0    0 -0.23223945089E+03 -0.58632671377E+02  0.12830887898E+04  0.13052546902E+04  0.10566000000E+00 0.  1.
        994    1    1    2    0    0  0.23233608619E+03  0.58635615372E+02  0.21647490485E+03  0.36549831294E+03  0.17120000000E+03 0.  0.
        998    1    1    2    0    0 -0.96635298650E-01 -0.29439949556E-02  0.43630167205E+00  0.44699686473E+00  0.10000000000E-01 0. -1.
</event>
<event>
 5    1  0.3934322E-009  0.3877134E+03  0.7957747E-01  0.3418245E+00
         13   -1    0    0    0    0  0.00000000000E+00  0.00000000000E+00  0.14999999963E+04  0.15000000000E+04  0.10566000000E+00 0. -1.
        994   -1    0    0    0    0 -0.00000000000E+00 -0.00000000000E+00  0.11368683772E-12  0.17120000000E+03  0.17120000000E+03 0.  0.
         13    1    1    2    0    0 -0.20047666916E+03 -0.78273505881E+02  0.11937813876E+04  0.12130258237E+04  0.10566000000E+00 0. -1.
        994    1    1    2    0    0  0.21192421322E+03  0.91196652661E+02  0.19878374490E+03  0.34936101505E+03  0.17120000000E+03 0.  0.
        998    1    1    2    0    0 -0.11447544064E+02 -0.12923146780E+02  0.10743486381E+03  0.10881316120E+03  0.10000000000E-01 0.  1.
</event>
<event>
 5    1  0.3934322E-009  0.3882933E+03  0.7957747E-01  0.3415824E+00
         13   -1    0    0    0    0  0.00000000000E+00  0.00000000000E+00  0.14999999963E+04  0.15000000000E+04  0.10566000000E+00 0.  1.
        994   -1    0    0    0    0 -0.00000000000E+00 -0.00000000000E+00  0.11368683772E-12  0.17120000000E+03  0.17120000000E+03 0.  0.
         13    1    1    2    0    0 -0.29434689944E+03 -0.32627188668E+02  0.11247809485E+04  0.11631151379E+04  0.10566000000E+00 0.  1.
        994    1    1    2    0    0  0.29458192989E+03  0.32666922257E+02  0.37461905150E+03  0.50743917367E+03  0.17120000000E+03 0.  0.
        998    1    1    2    0    0 -0.23503044674E+00 -0.39733588559E-01  0.59999625589E+00  0.64568845122E+00  0.10000000000E-01 0.  1.
</event>
<event>
 5    1  0.3934322E-009  0.3867926E+03  0.7957747E-01  0.3422105E+00
         13   -1    0    0    0    0  0.00000000000E+00  0.00000000000E+00  0.14999999963E+04  0.15000000000E+04  0.10566000000E+00 0.  1.
        994   -1    0    0    0    0 -0.00000000000E+00 -0.00000000000E+00  0.11368683772E-12  0.17120000000E+03  0.17120000000E+03 0.  0.
         13    1    1    2    0    0 -0.43351658314E+01 -0.26452952018E+02  0.11374777657E+03  0.11686368200E+03  0.10566000000E+00 0.  1.
        994    1    1    2    0    0 -0.39470846672E+02  0.18881067242E+03  0.13362088411E+03  0.29046755142E+03  0.17120000000E+03 0.  0.
        998    1    1    2    0    0  0.43806012504E+02 -0.16235772040E+03  0.12526313356E+04  0.12638687666E+04  0.10000000000E-01 0.  1.
</event>
<event>
 5    1  0.3934322E-009  0.3882978E+03  0.7957747E-01  0.3415805E+00
         13   -1    0    0    0    0  0.00000000000E+00  0.00000000000E+00  0.14999999963E+04  0.15000000000E+04  0.10566000000E+00 0.  1.
        994   -1    0    0    0    0 -0.00000000000E+00 -0.00000000000E+00  0.11368683772E-12  0.17120000000E+03  0.17120000000E+03 0.  0.
         13    1    1    2    0    0 -0.95701434327E+02 -0.20426596153E+03  0.12945043818E+04  0.13140110172E+04  0.10566000000E+00 0.  1.
        994    1    1    2    0    0  0.96719952035E+02  0.20616247788E+03  0.19207905537E+03  0.34360081478E+03  0.17120000000E+03 0.  0.
        998    1    1    2    0    0 -0.10185177076E+01 -0.18965163499E+01  0.13416559086E+02  0.13588168026E+02  0.10000000000E-01 0.  1.
</event>
<event>
 5    1  0.3934322E-009  0.3882971E+03  0.7957747E-01  0.3415808E+00
         13   -1    0    0    0    0  0.00000000000E+00  0.00000000000E+00  0.14999999963E+04  0.15000000000E+04  0.10566000000E+00 0. -1.
        994   -1    0    0    0    0 -0.00000000000E+00 -0.00000000000E+00  0.11368683772E-12  0.17120000000E+03  0.17120000000E+03 0.  0.
         13    1    1    2    0    0 -0.13965604070E+03  0.17305341936E+03  0.13147179080E+04  0.13333920970E+04  0.10566000000E+00 0. -1.
        994    1    1    2    0    0  0.13992996072E+03 -0.17348709510E+03  0.18278361085E+03  0.33525729592E+03  0.17120000000E+03 0.  0.
        998    1    1    2    0    0 -0.27392001852E+00  0.43367574445E+00  0.24984774604E+01  0.25506070744E+01  0.10000000000E-01 0.  1.
</event>
<event>
 5    1  0.3934322E-009  0.3882898E+03  0.7957747E-01  0.3415838E+00
         13   -1    0    0    0    0  0.00000000000E+00  0.00000000000E+00  0.14999999963E+04  0.15000000000E+04  0.10566000000E+00 0.  1.
        994   -1    0    0    0    0 -0.00000000000E+00 -0.00000000000E+00  0.11368683772E-12  0.17120000000E+03  0.17120000000E+03 0.  0.
         13    1    1    2    0    0 -0.17815782653E+03  0.23735422410E+03  0.11200116460E+04  0.11586644628E+04  0.10566000000E+00 0.  1.
        994    1    1    2    0    0  0.17833744681E+03 -0.23778622352E+03  0.37773852061E+03  0.51023755544E+03  0.17120000000E+03 0.  0.
        998    1    1    2    0    0 -0.17962028264E+00  0.43199941785E+00  0.22498296437E+01  0.22979818033E+01  0.10000000000E-01 0.  1.
</event>
<event>
 5    1  0.3934322E-009  0.3874570E+03  0.7957747E-01  0.3419318E+00
         13   -1    0    0    0    0  0.00000000000E+00  0.00000000000E+00  0.14999999963E+04  0.15000000000E+04  0.10566000000E+00 0. -1.
        994   -1    0    0    0    0 -0.00000000000E+00 -0.00000000000E+00  0.11368683772E-12  0.17120000000E+03  0.17120000000E+03 0.  0.
         13    1    1    2    0    0  0.29925513852E+02  0.31378757323E+03  0.79576243333E+03  0.85591824315E+03  0.10566000000E+00 0. -1.
        994    1    1    2    0    0 -0.41647016551E+02 -0.33759890282E+03  0.62670091673E+03  0.73332869315E+03  0.17120000000E+03 0.  0.
        998    1    1    2    0    0  0.11721502699E+02  0.23811329585E+02  0.77536646221E+02  0.81953063697E+02  0.10000000000E-01 0.  1.
</event>
<event>
 5    1  0.3934322E-009  0.3874600E+03  0.7957747E-01  0.3419305E+00
         13   -1    0    0    0    0  0.00000000000E+00  0.00000000000E+00  0.14999999963E+04  0.15000000000E+04  0.10566000000E+00 0. -1.
        994   -1    0    0    0    0 -0.00000000000E+00 -0.00000000000E+00  0.11368683772E-12  0.17120000000E+03  0.17120000000E+03 0.  0.
         13    1    1    2    0    0  0.48411096168E+02  0.20998495741E+03  0.11405890524E+04  0.11607672955E+04  0.10566000000E+00 0. -1.
        994    1    1    2    0    0 -0.48089860572E+02 -0.22761179372E+03  0.20302395588E+03  0.35305513732E+03  0.17120000000E+03 0.  0.
        998    1    1    2    0    0 -0.32123559579E+00  0.17626836308E+02  0.15638698797E+03  0.15737756720E+03  0.10000000000E-01 0.  1.
</event>
<event>
 5    1  0.3934322E-009  0.3878240E+03  0.7957747E-01  0.3417783E+00
         13   -1    0    0    0    0  0.00000000000E+00  0.00000000000E+00  0.14999999963E+04  0.15000000000E+04  0.10566000000E+00 0.  1.
        994   -1    0    0    0    0 -0.00000000000E+00 -0.00000000000E+00  0.11368683772E-12  0.17120000000E+03  0.17120000000E+03 0.  0.
         13    1    1    2    0    0 -0.66541080474E+02 -0.23017640876E+03  0.12745548280E+04  0.12968804553E+04  0.10566000000E+00 0.  1.
        994    1    1    2    0    0  0.64945319551E+02  0.23128646842E+03  0.21848195879E+03  0.36709008611E+03  0.17120000000E+03 0.  0.
        998    1    1    2    0    0  0.15957609230E+01 -0.11100596599E+01  0.69632094489E+01  0.72294585690E+01  0.10000000000E-01 0.  1.
</event>
<event>
 5    1  0.3934322E-009  0.3882591E+03  0.7957747E-01  0.3415966E+00
         13   -1    0    0    0    0  0.00000000000E+00  0.00000000000E+00  0.14999999963E+04  0.15000000000E+04  0.10566000000E+00 0. -1.
        994   -1    0    0    0    0 -0.00000000000E+00 -0.00000000000E+00  0.11368683772E-12  0.17120000000E+03  0.17120000000E+03 0.  0.
         13    1    1    2    0    0 -0.24324135177E+02  0.24298136546E+01  0.68349634373E+02  0.72589608275E+02  0.10566000000E+00 0. -1.
        994    1    1    2    0    0  0.33094573487E+03 -0.71219340379E+01  0.54339932436E+03  0.65891430937E+03  0.17120000000E+03 0.  0.
        998    1    1    2    0    0 -0.30662159970E+03  0.46921203833E+01  0.88825103755E+03  0.93969608236E+03  0.10000000000E-01 0. -1.
</event>
<event>
 5    1  0.3934322E-009  0.3883007E+03  0.7957747E-01  0.3415793E+00
         13   -1    0    0    0    0  0.00000000000E+00  0.00000000000E+00  0.14999999963E+04  0.15000000000E+04  0.10566000000E+00 0.  1.
        994   -1    0    0    0    0 -0.00000000000E+00 -0.00000000000E+00  0.11368683772E-12  0.17120000000E+03  0.17120000000E+03 0.  0.
         13    1    1    2    0    0 -0.13247515059E+02  0.28739794173E+03  0.11474418521E+04  0.11829606455E+04  0.10566000000E+00 0.  1.
        994    1    1    2    0    0  0.13266879666E+02 -0.28853133079E+03  0.34810984182E+03  0.48364888185E+03  0.17120000000E+03 0.  0.
        998    1    1    2    0    0 -0.19364606764E-01  0.11333890545E+01  0.44483023616E+01  0.45904727031E+01  0.10000000000E-01 0. -1.
</event>
<event>
 5    1  0.3934322E-009  0.3880666E+03  0.7957747E-01  0.3416770E+00
         13   -1    0    0    0    0  0.00000000000E+00  0.00000000000E+00  0.14999999963E+04  0.15000000000E+04  0.10566000000E+00 0.  1.
        994   -1    0    0    0    0 -0.00000000000E+00 -0.00000000000E+00  0.11368683772E-12  0.17120000000E+03  0.17120000000E+03 0.  0.
         13    1    1    2    0    0 -0.18790908114E+02  0.22498367303E+03  0.12200895560E+04  0.12408018726E+04  0.10566000000E+00 0.  1.
        994    1    1    2    0    0  0.16944656713E+02 -0.23958093924E+03  0.21801538402E+03  0.36677826477E+03  0.17120000000E+03 0.  0.
        998    1    1    2    0    0  0.18462514008E+01  0.14597266206E+02  0.61895056306E+02  0.63619862622E+02  0.10000000000E-01 0. -1.
</event>
<event>
 5    1  0.3934322E-009  0.3883009E+03  0.7957747E-01  0.3415792E+00
         13   -1    0    0    0    0  0.00000000000E+00  0.00000000000E+00  0.14999999963E+04  0.15000000000E+04  0.10566000000E+00 0. -1.
        994   -1    0    0    0    0 -0.00000000000E+00 -0.00000000000E+00  0.11368683772E-12  0.17120000000E+03  0.17120000000E+03 0.  0.
         13    1    1    2    0    0  0.20231709460E+03  0.16364058536E+03  0.11943992442E+04  0.12224156469E+04  0.10566000000E+00 0. -1.
        994    1    1    2    0    0 -0.20672279388E+03 -0.16724183269E+03  0.27946352338E+03  0.42203488601E+03  0.17120000000E+03 0.  0.
        998    1    1    2    0    0  0.44056992757E+01  0.36012473291E+01  0.26137228666E+02  0.26749467112E+02  0.10000000000E-01 0.  1.
</event>
<event>
 5    1  0.3934322E-009  0.3674363E+03  0.7957747E-01  0.3507757E+00
         13   -1    0    0    0    0  0.00000000000E+00  0.00000000000E+00  0.14999999963E+04  0.15000000000E+04  0.10566000000E+00 0.  1.
        994   -1    0    0    0    0 -0.00000000000E+00 -0.00000000000E+00  0.11368683772E-12  0.17120000000E+03  0.17120000000E+03 0.  0.
         13    1    1    2    0    0  0.23937142530E+03 -0.18669361470E+02  0.11513463931E+04  0.11761146851E+04  0.10566000000E+00 0.  1.
        994    1    1    2    0    0 -0.22765733514E+03 -0.18196352123E+02  0.21893897249E+03  0.35972584443E+03  0.17120000000E+03 0.  0.
        998    1    1    2    0    0 -0.11714090155E+02  0.36865713593E+02  0.12971463067E+03  0.13535947051E+03  0.10000000000E-01 0.  1.
</event>
<event>
 5    1  0.3934322E-009  0.3881538E+03  0.7957747E-01  0.3416406E+00
         13   -1    0    0    0    0  0.00000000000E+00  0.00000000000E+00  0.14999999963E+04  0.15000000000E+04  0.10566000000E+00 0. -1.
        994   -1    0    0    0    0 -0.00000000000E+00 -0.00000000000E+00  0.11368683772E-12  0.17120000000E+03  0.17120000000E+03 0.  0.
         13    1    1    2    0    0 -0.24670584476E+03 -0.75201299154E+02  0.12160386743E+04  0.12430885237E+04  0.10566000000E+00 0. -1.
        994    1    1    2    0    0  0.25109224233E+03  0.75803252578E+02  0.27020041346E+03  0.41365583604E+03  0.17120000000E+03 0.  0.
        998    1    1    2    0    0 -0.43863975631E+01 -0.60195342348E+00  0.13760908511E+02  0.14455640233E+02  0.10000000000E-01 0. -1.
</event>
<event>
 5    1  0.3934322E-009  0.3882879E+03  0.7957747E-01  0.3415846E+00
         13   -1    0    0    0    0  0.00000000000E+00  0.00000000000E+00  0.14999999963E+04  0.15000000000E+04  0.10566000000E+00 0.  1.
        994   -1    0    0    0    0 -0.00000000000E+00 -0.00000000000E+00  0.11368683772E-12  0.17120000000E+03  0.17120000000E+03 0.  0.
         13    1    1    2    0    0 -0.26442757535E+03 -0.10602852056E+03  0.11434533253E+04  0.11784097369E+04  0.10566000000E+00 0.  1.
        994    1    1    2    0    0  0.26742824123E+03  0.10691990072E+03  0.34537861366E+03  0.48119180806E+03  0.17120000000E+03 0.  0.
        998    1    1    2    0    0 -0.30006658783E+01 -0.89138016857E+00  0.11168057334E+02  0.11598455023E+02  0.10000000000E-01 0. -1.
</event>
<event>
 5    1  0.3934322E-009  0.3854413E+03  0.7957747E-01  0.3427803E+00
         13   -1    0    0    0    0  0.00000000000E+00  0.00000000000E+00  0.14999999963E+04  0.15000000000E+04  0.10566000000E+00 0. -1.
        994   -1    0    0    0    0 -0.00000000000E+00 -0.00000000000E+00  0.11368683772E-12  0.17120000000E+03  0.17120000000E+03 0.  0.
         13    1    1    2    0    0 -0.34220850403E+02 -0.20981642512E+02  0.20763585317E+03  0.21148038824E+03  0.10566000000E+00 0. -1.
        994    1    1    2    0    0  0.82040891183E+02  0.10792409385E+03  0.64288323256E+02  0.22764170612E+03  0.17120000000E+03 0.  0.
        998    1    1    2    0    0 -0.47820040780E+02 -0.86942451342E+02  0.12280758199E+04  0.12320779056E+04  0.10000000000E-01 0. -1.
</event>
<event>
 5    1  0.3934322E-009  0.3883001E+03  0.7957747E-01  0.3415796E+00
         13   -1    0    0    0    0  0.00000000000E+00  0.00000000000E+00  0.14999999963E+04  0.15000000000E+04  0.10566000000E+00 0. -1.
        994   -1    0    0    0    0 -0.00000000000E+00 -0.00000000000E+00  0.11368683772E-12  0.17120000000E+03  0.17120000000E+03 0.  0.
         13    1    1    2    0    0  0.24354405178E+03 -0.84598152022E+02  0.12409717524E+04  0.12674704943E+04  0.10566000000E+00 0. -1.
        994    1    1    2    0    0 -0.24360152754E+03  0.84604153425E+02  0.25872288084E+03  0.40341856188E+03  0.17120000000E+03 0.  0.
        998    1    1    2    0    0  0.57475762218E-01 -0.60014031391E-02  0.30536306529E+00  0.31094385623E+00  0.10000000000E-01 0. -1.
</event>
<event>
 5    1  0.3934322E-009  0.3882889E+03  0.7957747E-01  0.3415842E+00
         13   -1    0    0    0    0  0.00000000000E+00  0.00000000000E+00  0.14999999963E+04  0.15000000000E+04  0.10566000000E+00 0.  1.
        994   -1    0    0    0    0 -0.00000000000E+00 -0.00000000000E+00  0.11368683772E-12  0.17120000000E+03  0.17120000000E+03 0.  0.
         13    1    1    2    0    0  0.21393903028E+03  0.15882906434E+03  0.11083606478E+04  0.11399385584E+04  0.10566000000E+00 0.  1.
        994    1    1    2    0    0 -0.22640662209E+03 -0.16745175692E+03  0.32476211594E+03  0.46268771474E+03  0.17120000000E+03 0.  0.
        998    1    1    2    0    0  0.12467591801E+02  0.86226925812E+01  0.66877232574E+02  0.68573726816E+02  0.10000000000E-01 0. -1.
</event>
<event>
 5    1  0.3934322E-009  0.3883008E+03  0.7957747E-01  0.3415793E+00
         13   -1    0    0    0    0  0.00000000000E+00  0.00000000000E+00  0.14999999963E+04  0.15000000000E+04  0.10566000000E+00 0. -1.
        994   -1    0    0    0    0 -0.00000000000E+00 -0.00000000000E+00  0.11368683772E-12  0.17120000000E+03  0.17120000000E+03 0.  0.
         13    1    1    2    0    0 -0.92419270935E+02 -0.21567295290E+03  0.10388537097E+04  0.10650226221E+04  0.10566000000E+00 0. -1.
        994    1    1    2    0    0  0.10708033784E+03  0.25007664935E+03  0.29635489755E+03  0.43719583095E+03  0.17120000000E+03 0.  0.
        998    1    1    2    0    0 -0.14661066907E+02 -0.34403696447E+02  0.16479138902E+03  0.16898154695E+03  0.10000000000E-01 0. -1.
</event>
<event>
 5    1  0.3934322E-009  0.3882948E+03  0.7957747E-01  0.3415818E+00
         13   -1    0    0    0    0  0.00000000000E+00  0.00000000000E+00  0.14999999963E+04  0.15000000000E+04  0.10566000000E+00 0. -1.
        994   -1    0    0    0    0 -0.00000000000E+00 -0.00000000000E+00  0.11368683772E-12  0.17120000000E+03  0.17120000000E+03 0.  0.
         13    1    1    2    0    0 -0.21123466038E+03 -0.82928363646E+02  0.13054436919E+04  0.13250209202E+04  0.10566000000E+00 0. -1.
        994    1    1    2    0    0  0.21160776449E+03  0.83100784805E+02  0.19133498678E+03  0.34293163108E+03  0.17120000000E+03 0.  0.
        998    1    1    2    0    0 -0.37310410842E+00 -0.17242115927E+00  0.32213176256E+01  0.32474486873E+01  0.10000000000E-01 0. -1.
</event>
<event>
 5    1  0.3934322E-009  0.3877963E+03  0.7957747E-01  0.3417899E+00
         13   -1    0    0    0    0  0.00000000000E+00  0.00000000000E+00  0.14999999963E+04  0.15000000000E+04  0.10566000000E+00 0. -1.
        994   -1    0    0    0    0 -0.00000000000E+00 -0.00000000000E+00  0.11368683772E-12  0.17120000000E+03  0.17120000000E+03 0.  0.
         13    1    1    2    0    0 -0.16064575866E+03 -0.55416087422E+02  0.97494569162E+03  0.98964494406E+03  0.10566000000E+00 0. -1.
        994    1    1    2    0    0  0.20579390878E+03  0.65538649205E+02  0.17067817030E+03  0.32417113574E+03  0.17120000000E+03 0.  0.
        998    1    1    2    0    0 -0.45148150124E+02 -0.10122561783E+02  0.35437613436E+03  0.35738392020E+03  0.10000000000E-01 0.  1.
</event>
<event>
 5    1  0.3934322E-009  0.3883010E+03  0.7957747E-01  0.3415792E+00
         13   -1    0    0    0    0  0.00000000000E+00  0.00000000000E+00  0.14999999963E+04  0.15000000000E+04  0.10566000000E+00 0. -1.
        994   -1    0    0    0    0 -0.00000000000E+00 -0.00000000000E+00  0.11368683772E-12  0.17120000000E+03  0.17120000000E+03 0.  0.
         13    1    1    2    0    0  0.15344425313E+03  0.15191431554E+03  0.12831405524E+04  0.13011813042E+04  0.10566000000E+00 0. -1.
        994    1    1    2    0    0 -0.15773138522E+03 -0.15614011944E+03  0.18100689317E+03  0.33366429560E+03  0.17120000000E+03 0.  0.
        998    1    1    2    0    0  0.42871320860E+01  0.42258039034E+01  0.35852550705E+02  0.36354400177E+02  0.10000000000E-01 0.  1.
</event>
<event>
 5    1  0.3934322E-009  0.3883008E+03  0.7957747E-01  0.3415793E+00
         13   -1    0    0    0    0  0.00000000000E+00  0.00000000000E+00  0.14999999963E+04  0.15000000000E+04  0.10566000000E+00 0. -1.
        994   -1    0    0    0    0 -0.00000000000E+00 -0.00000000000E+00  0.11368683772E-12  0.17120000000E+03  0.17120000000E+03 0.  0.
         13    1    1    2    0    0  0.13839396240E+03  0.18830819309E+03  0.12622784107E+04  0.12837288116E+04  0.10566000000E+00 0. -1.
        994    1    1    2    0    0 -0.14112123687E+03 -0.19192315255E+03  0.21348542385E+03  0.36281560906E+03  0.17120000000E+03 0.  0.
        998    1    1    2    0    0  0.27272744770E+01  0.36149594567E+01  0.24236161763E+02  0.24655579388E+02  0.10000000000E-01 0.  1.
</event>
<event>
 5    1  0.3934322E-009  0.3881927E+03  0.7957747E-01  0.3416243E+00
         13   -1    0    0    0    0  0.00000000000E+00  0.00000000000E+00  0.14999999963E+04  0.15000000000E+04  0.10566000000E+00 0. -1.
        994   -1    0    0    0    0 -0.00000000000E+00 -0.00000000000E+00  0.11368683772E-12  0.17120000000E+03  0.17120000000E+03 0.  0.
         13    1    1    2    0    0 -0.25498406828E+03  0.93448424824E+02  0.11666798132E+04  0.11978694757E+04  0.10566000000E+00 0. -1.
        994    1    1    2    0    0  0.25872518179E+03 -0.95573231786E+02  0.30746874423E+03  0.44712350755E+03  0.17120000000E+03 0.  0.
        998    1    1    2    0    0 -0.37411135153E+01  0.21248069618E+01  0.25851438881E+02  0.26207016754E+02  0.10000000000E-01 0. -1.
</event>
<event>
 5    1  0.3934322E-009  0.3882272E+03  0.7957747E-01  0.3416099E+00
         13   -1    0    0    0    0  0.00000000000E+00  0.00000000000E+00  0.14999999963E+04  0.15000000000E+04  0.10566000000E+00 0. -1.
        994   -1    0    0    0    0 -0.00000000000E+00 -0.00000000000E+00  0.11368683772E-12  0.17120000000E+03  0.17120000000E+03 0.  0.
         13    1    1    2    0    0 -0.46179451408E+02 -0.32833924883E+03  0.93074292713E+03  0.98803927636E+03  0.10566000000E+00 0. -1.
        994    1    1    2    0    0  0.45704381325E+02  0.33065122366E+03  0.56362080477E+03  0.67705020031E+03  0.17120000000E+03 0.  0.
        998    1    1    2    0    0  0.47507008311E+00 -0.23119748241E+01  0.56362643777E+01  0.61105233251E+01  0.10000000000E-01 0.  1.
</event>
<event>
 5    1  0.5296908E-009  0.3882974E+03  0.7957747E-01  0.3415807E+00
         13   -1    0    0    0    0  0.00000000000E+00  0.00000000000E+00  0.14999999963E+04  0.15000000000E+04  0.10566000000E+00 0. -1.
        994   -1    0    0    0    0 -0.00000000000E+00 -0.00000000000E+00  0.11368683772E-12  0.17120000000E+03  0.17120000000E+03 0.  0.
         13    1    1    2    0    0 -0.65885919294E+02 -0.27778146867E+03  0.11626429365E+04  0.11971809002E+04  0.10566000000E+00 0. -1.
        994    1    1    2    0    0  0.65917330244E+02  0.27780828667E+03  0.33718331256E+03  0.47384023134E+03  0.17120000000E+03 0.  0.
        998    1    1    2    0    0 -0.31410950466E-01 -0.26817995629E-01  0.17374718778E+00  0.17886849348E+00  0.10000000000E-01 0.  1.
</event>
<event>
 5    1  0.3934322E-009  0.3882995E+03  0.7957747E-01  0.3415798E+00
         13   -1    0    0    0    0  0.00000000000E+00  0.00000000000E+00  0.14999999963E+04  0.15000000000E+04  0.10566000000E+00 0.  1.
        994   -1    0    0    0    0 -0.00000000000E+00 -0.00000000000E+00  0.11368683772E-12  0.17120000000E+03  0.17120000000E+03 0.  0.
         13    1    1    2    0    0  0.10858746440E+03  0.20790635616E+03  0.12928481259E+04  0.13139530350E+04  0.10566000000E+00 0.  1.
        994    1    1    2    0    0 -0.10869355652E+03 -0.20803421277E+03  0.20614656291E+03  0.35622797239E+03  0.17120000000E+03 0.  0.
        998    1    1    2    0    0  0.10609212401E+00  0.12785660889E+00  0.10053075027E+01  0.10189926527E+01  0.10000000000E-01 0. -1.
</event>
<event>
 5    1  0.3934322E-009  0.3883007E+03  0.7957747E-01  0.3415793E+00
         13   -1    0    0    0    0  0.00000000000E+00  0.00000000000E+00  0.14999999963E+04  0.15000000000E+04  0.10566000000E+00 0. -1.
        994   -1    0    0    0    0 -0.00000000000E+00 -0.00000000000E+00  0.11368683772E-12  0.17120000000E+03  0.17120000000E+03 0.  0.
         13    1    1    2    0    0  0.24281586493E+02  0.21315096708E+01  0.80489327688E+02  0.84099237879E+02  0.10566000000E+00 0. -1.
        994    1    1    2    0    0 -0.31520741864E+03 -0.26228055585E+02  0.45850350194E+03  0.58273366898E+03  0.17120000000E+03 0.  0.
        998    1    1    2    0    0  0.29092583215E+03  0.24096545914E+02  0.96100716665E+03  0.10043670931E+04  0.10000000000E-01 0. -1.
</event>
<event>
 5    1  0.3934322E-009  0.3882970E+03  0.7957747E-01  0.3415809E+00
         13   -1    0    0    0    0  0.00000000000E+00  0.00000000000E+00  0.14999999963E+04  0.15000000000E+04  0.10566000000E+00 0. -1.
        994   -1    0    0    0    0 -0.00000000000E+00 -0.00000000000E+00  0.11368683772E-12  0.17120000000E+03  0.17120000000E+03 0.  0.
         13    1    1    2    0    0 -0.17657497682E+02  0.78850278412E+02  0.42225753249E+03  0.42991928142E+03  0.10566000000E+00 0. -1.
        994    1    1    2    0    0  0.54126577453E+02 -0.23543360904E+03  0.22070869066E+03  0.36929722012E+03  0.17120000000E+03 0.  0.
        998    1    1    2    0    0 -0.36469079772E+02  0.15658333063E+03  0.85703377313E+03  0.87198349846E+03  0.10000000000E-01 0. -1.
</event>
<event>
 5    1  0.3934322E-009  0.3883009E+03  0.7957747E-01  0.3415792E+00
         13   -1    0    0    0    0  0.00000000000E+00  0.00000000000E+00  0.14999999963E+04  0.15000000000E+04  0.10566000000E+00 0.  1.
        994   -1    0    0    0    0 -0.00000000000E+00 -0.00000000000E+00  0.11368683772E-12  0.17120000000E+03  0.17120000000E+03 0.  0.
         13    1    1    2    0    0 -0.94494572248E+02  0.24598518421E+03  0.12098952216E+04  0.12382586133E+04  0.10566000000E+00 0.  1.
        994    1    1    2    0    0  0.95335524273E+02 -0.24818792539E+03  0.27937276970E+03  0.42195342510E+03  0.17120000000E+03 0.  0.
        998    1    1    2    0    0 -0.84095202563E+00  0.22027411864E+01  0.10732004988E+02  0.10987961600E+02  0.10000000000E-01 0.  0.
</event>
<event>
 5    1  0.3934322E-009  0.3883010E+03  0.7957747E-01  0.3415792E+00
         13   -1    0    0    0    0  0.00000000000E+00  0.00000000000E+00  0.14999999963E+04  0.15000000000E+04  0.10566000000E+00 0. -1.
        994   -1    0    0    0    0 -0.00000000000E+00 -0.00000000000E+00  0.11368683772E-12  0.17120000000E+03  0.17120000000E+03 0.  0.
         13    1    1    2    0    0 -0.24385755509E+03 -0.83691828607E+02  0.11471143415E+04  0.11757304763E+04  0.10566000000E+00 0. -1.
        994    1    1    2    0    0  0.25644122466E+03  0.87964912266E+02  0.29373493452E+03  0.43484431611E+03  0.17120000000E+03 0.  0.
        998    1    1    2    0    0 -0.12583669572E+02 -0.42730836598E+01  0.59150720282E+02  0.60625207577E+02  0.10000000000E-01 0.  1.
</event>
<event>
 5    1  0.3934322E-009  0.3882980E+03  0.7957747E-01  0.3415804E+00
         13   -1    0    0    0    0  0.00000000000E+00  0.00000000000E+00  0.14999999963E+04  0.15000000000E+04  0.10566000000E+00 0.  1.
        994   -1    0    0    0    0 -0.00000000000E+00 -0.00000000000E+00  0.11368683772E-12  0.17120000000E+03  0.17120000000E+03 0.  0.
         13    1    1    2    0    0 -0.22567404403E+03 -0.18490227610E+01  0.13118169292E+04  0.13310882239E+04  0.10566000000E+00 0.  1.
        994    1    1    2    0    0  0.22567719462E+03  0.18561755736E+01  0.18811983282E+03  0.34004728062E+03  0.17120000000E+03 0.  0.
        998    1    1    2    0    0 -0.31505861003E-02 -0.71528126177E-02  0.63234288347E-01  0.64495458320E-01  0.10000000000E-01 0. -1.
</event>
<event>
 5    1  0.3934322E-009  0.3883009E+03  0.7957747E-01  0.3415792E+00
         13   -1    0    0    0    0  0.00000000000E+00  0.00000000000E+00  0.14999999963E+04  0.15000000000E+04  0.10566000000E+00 0.  1.
        994   -1    0    0    0    0 -0.00000000000E+00 -0.00000000000E+00  0.11368683772E-12  0.17120000000E+03  0.17120000000E+03 0.  0.
         13    1    1    2    0    0  0.97964318515E+02  0.93322753410E+02  0.46945851073E+03  0.48856672877E+03  0.10566000000E+00 0.  1.
        994    1    1    2    0    0 -0.22430131101E+03 -0.21318954457E+03  0.42683148545E+03  0.55430624840E+03  0.17120000000E+03 0.  0.
        998    1    1    2    0    0  0.12633699250E+03  0.11986679117E+03  0.60371000010E+03  0.62832702283E+03  0.10000000000E-01 0.  1.
</event>
<event>
 5    1  0.3934322E-009  0.3882984E+03  0.7957747E-01  0.3415803E+00
         13   -1    0    0    0    0  0.00000000000E+00  0.00000000000E+00  0.14999999963E+04  0.15000000000E+04  0.10566000000E+00 0.  1.
        994   -1    0    0    0    0 -0.00000000000E+00 -0.00000000000E+00  0.11368683772E-12  0.17120000000E+03  0.17120000000E+03 0.  0.
         13    1    1    2    0    0 -0.61208959587E+02 -0.25048436163E+03  0.12342270060E+04  0.12608748017E+04  0.10566000000E+00 0.  1.
        994    1    1    2    0    0  0.61549631328E+02  0.25144501797E+03  0.26121499620E+03  0.40565461716E+03  0.17120000000E+03 0.  0.
        998    1    1    2    0    0 -0.34067174022E+00 -0.96065634795E+00  0.45579941256E+01  0.46705811526E+01  0.10000000000E-01 0. -1.
</event>
<event>
 5    1  0.3934322E-009  0.3882981E+03  0.7957747E-01  0.3415804E+00
         13   -1    0    0    0    0  0.00000000000E+00  0.00000000000E+00  0.14999999963E+04  0.15000000000E+04  0.10566000000E+00 0.  1.
        994   -1    0    0    0    0 -0.00000000000E+00 -0.00000000000E+00  0.11368683772E-12  0.17120000000E+03  0.17120000000E+03 0.  0.
         13    1    1    2    0    0  0.13927024150E+03  0.17639210959E+03  0.12612094807E+04  0.12810775706E+04  0.10566000000E+00 0.  1.
        994    1    1    2    0    0 -0.14387922026E+03 -0.18182016738E+03  0.20031118320E+03  0.35098976253E+03  0.17120000000E+03 0.  0.
        998    1    1    2    0    0  0.46089787592E+01  0.54280577860E+01  0.38479332406E+02  0.39132666903E+02  0.10000000000E-01 0. -1.
</event>
<event>
 5    1  0.3934322E-009  0.3882838E+03  0.7957747E-01  0.3415863E+00
         13   -1    0    0    0    0  0.00000000000E+00  0.00000000000E+00  0.14999999963E+04  0.15000000000E+04  0.10566000000E+00 0.  1.
        994   -1    0    0    0    0 -0.00000000000E+00 -0.00000000000E+00  0.11368683772E-12  0.17120000000E+03  0.17120000000E+03 0.  0.
         13    1    1    2    0    0 -0.31806167526E+02  0.22655470363E+03  0.13003996750E+04  0.13203703995E+04  0.10566000000E+00 0.  1.
        994    1    1    2    0    0  0.31829544825E+02 -0.22704742599E+03  0.19513959918E+03  0.34634167630E+03  0.17120000000E+03 0.  0.
        998    1    1    2    0    0 -0.23377298754E-01  0.49272235379E+00  0.44607221424E+01  0.44879242248E+01  0.10000000000E-01 0. -1.
</event>
<event>
 5    1  0.3934322E-009  0.3882574E+03  0.7957747E-01  0.3415974E+00
         13   -1    0    0    0    0  0.00000000000E+00  0.00000000000E+00  0.14999999963E+04  0.15000000000E+04  0.10566000000E+00 0. -1.
        994   -1    0    0    0    0 -0.00000000000E+00 -0.00000000000E+00  0.11368683772E-12  0.17120000000E+03  0.17120000000E+03 0.  0.
         13    1    1    2    0    0 -0.25850439375E+02  0.44250500049E+02  0.19912870337E+03  0.20561761510E+03  0.10566000000E+00 0. -1.
        994    1    1    2    0    0  0.13977211635E+03 -0.26450358659E+03  0.38507435763E+03  0.51680759740E+03  0.17120000000E+03 0.  0.
        998    1    1    2    0    0 -0.11392167698E+03  0.22025308654E+03  0.91579693529E+03  0.94877478750E+03  0.10000000000E-01 0. -1.
</event>
<event>
 5    1  0.3934322E-009  0.3876011E+03  0.7957747E-01  0.3418715E+00
         13   -1    0    0    0    0  0.00000000000E+00  0.00000000000E+00  0.14999999963E+04  0.15000000000E+04  0.10566000000E+00 0.  1.
        994   -1    0    0    0    0 -0.00000000000E+00 -0.00000000000E+00  0.11368683772E-12  0.17120000000E+03  0.17120000000E+03 0.  0.
         13    1    1    2    0    0  0.11200532486E+01  0.18742167051E+03  0.10328787661E+04  0.10497460139E+04  0.10566000000E+00 0.  1.
        994    1    1    2    0    0 -0.61521645406E+00 -0.22208965148E+03  0.18215467038E+03  0.33438593829E+03  0.17120000000E+03 0.  0.
        998    1    1    2    0    0 -0.50483679455E+00  0.34667980968E+02  0.28496655984E+03  0.28706804784E+03  0.10000000000E-01 0.  1.
</event>
<event>
 5    1  0.3934322E-009  0.3882521E+03  0.7957747E-01  0.3415996E+00
         13   -1    0    0    0    0  0.00000000000E+00  0.00000000000E+00  0.14999999963E+04  0.15000000000E+04  0.10566000000E+00 0.  1.
        994   -1    0    0    0    0 -0.00000000000E+00 -0.00000000000E+00  0.11368683772E-12  0.17120000000E+03  0.17120000000E+03 0.  0.
         13    1    1    2    0    0 -0.17549800071E+03 -0.21024366762E+03  0.11902960327E+04  0.12213953515E+04  0.10566000000E+00 0.  1.
        994    1    1    2    0    0  0.17607887125E+03  0.21074191619E+03  0.30385810017E+03  0.44390889739E+03  0.17120000000E+03 0.  0.
        998    1    1    2    0    0 -0.58087054424E+00 -0.49824857544E+00  0.58458633584E+01  0.58957510664E+01  0.10000000000E-01 0. -1.
</event>
<event>
 5    1  0.3934322E-009  0.3883010E+03  0.7957747E-01  0.3415792E+00
         13   -1    0    0    0    0  0.00000000000E+00  0.00000000000E+00  0.14999999963E+04  0.15000000000E+04  0.10566000000E+00 0. -1.
        994   -1    0    0    0    0 -0.00000000000E+00 -0.00000000000E+00  0.11368683772E-12  0.17120000000E+03  0.17120000000E+03 0.  0.
         13    1    1    2    0    0 -0.26356004295E+03 -0.11068137157E+03  0.78077211899E+03  0.83145617756E+03  0.10566000000E+00 0. -1.
        994    1    1    2    0    0  0.30994603187E+03  0.13012932945E+03  0.58177341057E+03  0.69337574684E+03  0.17120000000E+03 0.  0.
        998    1    1    2    0    0 -0.46385988921E+02 -0.19447957887E+02  0.13745446672E+03  0.14636807560E+03  0.10000000000E-01 0. -1.
</event>
<event>
 5    1  0.3934322E-009  0.3883010E+03  0.7957747E-01  0.3415792E+00
         13   -1    0    0    0    0  0.00000000000E+00  0.00000000000E+00  0.14999999963E+04  0.15000000000E+04  0.10566000000E+00 0. -1.
        994   -1    0    0    0    0 -0.00000000000E+00 -0.00000000000E+00  0.11368683772E-12  0.17120000000E+03  0.17120000000E+03 0.  0.
         13    1    1    2    0    0  0.56458743480E+02  0.21935867585E+03  0.11890587209E+04  0.12104406104E+04  0.10566000000E+00 0. -1.
        994    1    1    2    0    0 -0.60596918673E+02 -0.23538154404E+03  0.22395234385E+03  0.37221035738E+03  0.17120000000E+03 0.  0.
        998    1    1    2    0    0  0.41381751934E+01  0.16022868184E+02  0.86988931527E+02  0.88549032219E+02  0.10000000000E-01 0. -1.
</event>
<event>
 5    1  0.3934322E-009  0.3883009E+03  0.7957747E-01  0.3415792E+00
         13   -1    0    0    0    0  0.00000000000E+00  0.00000000000E+00  0.14999999963E+04  0.15000000000E+04  0.10566000000E+00 0. -1.
        994   -1    0    0    0    0 -0.00000000000E+00 -0.00000000000E+00  0.11368683772E-12  0.17120000000E+03  0.17120000000E+03 0.  0.
         13    1    1    2    0    0  0.66580822257E+02  0.29122770335E+03  0.10926995076E+04  0.11328013092E+04  0.10566000000E+00 0. -1.
        994    1    1    2    0    0 -0.67254413814E+02 -0.29433717739E+03  0.39561203033E+03  0.52628495011E+03  0.17120000000E+03 0.  0.
        998    1    1    2    0    0  0.67359155651E+00  0.31094740486E+01  0.11688458387E+02  0.12113740706E+02  0.10000000000E-01 0.  0.
</event>
<event>
 5    1  0.3934322E-009  0.3883009E+03  0.7957747E-01  0.3415792E+00
         13   -1    0    0    0    0  0.00000000000E+00  0.00000000000E+00  0.14999999963E+04  0.15000000000E+04  0.10566000000E+00 0. -1.
        994   -1    0    0    0    0 -0.00000000000E+00 -0.00000000000E+00  0.11368683772E-12  0.17120000000E+03  0.17120000000E+03 0.  0.
         13    1    1    2    0    0 -0.12670688151E+03 -0.18173480740E+03  0.12955637475E+04  0.13143696623E+04  0.10566000000E+00 0. -1.
        994    1    1    2    0    0  0.12851722100E+03  0.18430540358E+03  0.18620410094E+03  0.33832907810E+03  0.17120000000E+03 0.  0.
        998    1    1    2    0    0 -0.18103394880E+01 -0.25705961784E+01  0.18232147823E+02  0.18501259634E+02  0.10000000000E-01 0.  1.
</event>
<event>
 5    1  0.3934322E-009  0.3882970E+03  0.7957747E-01  0.3415808E+00
         13   -1    0    0    0    0  0.00000000000E+00  0.00000000000E+00  0.14999999963E+04  0.15000000000E+04  0.10566000000E+00 0. -1.
        994   -1    0    0    0    0 -0.00000000000E+00 -0.00000000000E+00  0.11368683772E-12  0.17120000000E+03  0.17120000000E+03 0.  0.
         13    1    1    2    0    0  0.26206013516E+03 -0.62441116665E+02  0.91148912792E+03  0.95046664800E+03  0.10566000000E+00 0. -1.
        994    1    1    2    0    0 -0.30400398319E+03  0.73426876417E+02  0.44163976820E+03  0.56759585343E+03  0.17120000000E+03 0.  0.
        998    1    1    2    0    0  0.41943848030E+02 -0.10985759753E+02  0.14687110016E+03  0.15313749856E+03  0.10000000000E-01 0. -1.
</event>
<event>
 5    1  0.3934322E-009  0.3882982E+03  0.7957747E-01  0.3415804E+00
         13   -1    0    0    0    0  0.00000000000E+00  0.00000000000E+00  0.14999999963E+04  0.15000000000E+04  0.10566000000E+00 0.  1.
        994   -1    0    0    0    0 -0.00000000000E+00 -0.00000000000E+00  0.11368683772E-12  0.17120000000E+03  0.17120000000E+03 0.  0.
         13    1    1    2    0    0  0.24707433978E+03 -0.77706044028E+02  0.12373574534E+04  0.12641746072E+04  0.10566000000E+00 0.  1.
        994    1    1    2    0    0 -0.24718646888E+03  0.77733545252E+02  0.26185084045E+03  0.40622525414E+03  0.17120000000E+03 0.  0.
        998    1    1    2    0    0  0.11212910087E+00 -0.27501224016E-01  0.79170239858E+00  0.80013870079E+00  0.10000000000E-01 0. -1.
</event>
<event>
 5    1  0.3934322E-009  0.3883008E+03  0.7957747E-01  0.3415793E+00
         13   -1    0    0    0    0  0.00000000000E+00  0.00000000000E+00  0.14999999963E+04  0.15000000000E+04  0.10566000000E+00 0. -1.
        994   -1    0    0    0    0 -0.00000000000E+00 -0.00000000000E+00  0.11368683772E-12  0.17120000000E+03  0.17120000000E+03 0.  0.
         13    1    1    2    0    0  0.29839933609E+03  0.12794435247E+03  0.77070881634E+03  0.83630377965E+03  0.10566000000E+00 0. -1.
        994    1    1    2    0    0 -0.31718311147E+03 -0.13604082994E+03  0.68040197721E+03  0.78190058460E+03  0.17120000000E+03 0.  0.
        998    1    1    2    0    0  0.18783775376E+02  0.80964774684E+01  0.48889202733E+02  0.52995635751E+02  0.10000000000E-01 0. -1.
</event>
<event>
 5    1  0.3934322E-009  0.3883003E+03  0.7957747E-01  0.3415795E+00
         13   -1    0    0    0    0  0.00000000000E+00  0.00000000000E+00  0.14999999963E+04  0.15000000000E+04  0.10566000000E+00 0. -1.
        994   -1    0    0    0    0 -0.00000000000E+00 -0.00000000000E+00  0.11368683772E-12  0.17120000000E+03  0.17120000000E+03 0.  0.
         13    1    1    2    0    0 -0.16490905428E+03  0.16657555764E+03  0.12724967704E+04  0.12939051180E+04  0.10566000000E+00 0. -1.
        994    1    1    2    0    0  0.16706712758E+03 -0.16861756478E+03  0.21167735051E+03  0.36119253728E+03  0.17120000000E+03 0.  0.
        998    1    1    2    0    0 -0.21580733069E+01  0.20420071415E+01  0.15825875411E+02  0.16102344739E+02  0.10000000000E-01 0. -1.
</event>
<event>
 5    1  0.3934322E-009  0.3882951E+03  0.7957747E-01  0.3415816E+00
         13   -1    0    0    0    0  0.00000000000E+00  0.00000000000E+00  0.14999999963E+04  0.15000000000E+04  0.10566000000E+00 0.  1.
        994   -1    0    0    0    0 -0.00000000000E+00 -0.00000000000E+00  0.11368683772E-12  0.17120000000E+03  0.17120000000E+03 0.  0.
         13    1    1    2    0    0 -0.11051982359E+03  0.21446504692E+03  0.12500616321E+04  0.12731315655E+04  0.10566000000E+00 0.  1.
        994    1    1    2    0    0  0.11265260727E+03 -0.21817194409E+03  0.22949622661E+03  0.37718372863E+03  0.17120000000E+03 0.  0.
        998    1    1    2    0    0 -0.21327836823E+01  0.37068971704E+01  0.20442137557E+02  0.20884705905E+02  0.10000000000E-01 0.  1.
</event>
<event>
 5    1  0.3934322E-009  0.3882335E+03  0.7957747E-01  0.3416073E+00
         13   -1    0    0    0    0  0.00000000000E+00  0.00000000000E+00  0.14999999963E+04  0.15000000000E+04  0.10566000000E+00 0.  1.
        994   -1    0    0    0    0 -0.00000000000E+00 -0.00000000000E+00  0.11368683772E-12  0.17120000000E+03  0.17120000000E+03 0.  0.
         13    1    1    2    0    0  0.85292418653E+02 -0.27577825521E+03  0.11157911588E+04  0.11525269471E+04  0.10566000000E+00 0.  1.
        994    1    1    2    0    0 -0.87136647642E+02  0.27972660330E+03  0.36254942267E+03  0.49657959265E+03  0.17120000000E+03 0.  0.
        998    1    1    2    0    0  0.18442289893E+01 -0.39483480909E+01  0.21659414852E+02  0.22093460230E+02  0.10000000000E-01 0.  1.
</event>
<event>
 5    1  0.3934322E-009  0.3883010E+03  0.7957747E-01  0.3415792E+00
         13   -1    0    0    0    0  0.00000000000E+00  0.00000000000E+00  0.14999999963E+04  0.15000000000E+04  0.10566000000E+00 0. -1.
        994   -1    0    0    0    0 -0.00000000000E+00 -0.00000000000E+00  0.11368683772E-12  0.17120000000E+03  0.17120000000E+03 0.  0.
         13    1    1    2    0    0  0.14552530223E+03  0.17534572074E+03  0.11448595942E+04  0.11673162540E+04  0.10566000000E+00 0. -1.
        994    1    1    2    0    0 -0.16003257981E+03 -0.19282479176E+03  0.24107959716E+03  0.38758307379E+03  0.17120000000E+03 0.  0.
        998    1    1    2    0    0  0.14507277586E+02  0.17479071022E+02  0.11406080492E+03  0.11630067217E+03  0.10000000000E-01 0.  0.
</event>
<event>
 5    1  0.3934322E-009  0.3882804E+03  0.7957747E-01  0.3415878E+00
         13   -1    0    0    0    0  0.00000000000E+00  0.00000000000E+00  0.14999999963E+04  0.15000000000E+04  0.10566000000E+00 0.  1.
        994   -1    0    0    0    0 -0.00000000000E+00 -0.00000000000E+00  0.11368683772E-12  0.17120000000E+03  0.17120000000E+03 0.  0.
         13    1    1    2    0    0  0.77635749703E+02 -0.23753334324E+03  0.12584511587E+04  0.12830232768E+04  0.10566000000E+00 0.  1.
        994    1    1    2    0    0 -0.77568744696E+02  0.23773539422E+03  0.23991141317E+03  0.38652548944E+03  0.17120000000E+03 0.  0.
        998    1    1    2    0    0 -0.67005006471E-01 -0.20205098072E+00  0.16374243910E+01  0.16512337527E+01  0.10000000000E-01 0.  1.
</event>
<event>
 5    1  0.3934322E-009  0.3883004E+03  0.7957747E-01  0.3415794E+00
         13   -1    0    0    0    0  0.00000000000E+00  0.00000000000E+00  0.14999999963E+04  0.15000000000E+04  0.10566000000E+00 0.  1.
        994   -1    0    0    0    0 -0.00000000000E+00 -0.00000000000E+00  0.11368683772E-12  0.17120000000E+03  0.17120000000E+03 0.  0.
         13    1    1    2    0    0  0.25738415616E+03  0.52087348388E+02  0.12287102857E+04  0.12564587829E+04  0.10566000000E+00 0.  1.
        994    1    1    2    0    0 -0.25746315774E+03 -0.52098827568E+02  0.27096551002E+03  0.41440718267E+03  0.17120000000E+03 0.  0.
        998    1    1    2    0    0  0.79001573151E-01  0.11479180640E-01  0.32420056675E+00  0.33403447072E+00  0.10000000000E-01 0.  0.
</event>
<event>
 5    1  0.3934322E-009  0.3883009E+03  0.7957747E-01  0.3415792E+00
         13   -1    0    0    0    0  0.00000000000E+00  0.00000000000E+00  0.14999999963E+04  0.15000000000E+04  0.10566000000E+00 0.  1.
        994   -1    0    0    0    0 -0.00000000000E+00 -0.00000000000E+00  0.11368683772E-12  0.17120000000E+03  0.17120000000E+03 0.  0.
         13    1    1    2    0    0 -0.27021420405E+02  0.99795383119E+02  0.61324409449E+03  0.62189838900E+03  0.10566000000E+00 0.  1.
        994    1    1    2    0    0  0.57898367675E+02 -0.21473383385E+03  0.18186812774E+03  0.33443728301E+03  0.17120000000E+03 0.  0.
        998    1    1    2    0    0 -0.30876947270E+02  0.11493845073E+03  0.70488777406E+03  0.71486432800E+03  0.10000000000E-01 0. -1.
</event>
<event>
 5    1  0.3934322E-009  0.3883004E+03  0.7957747E-01  0.3415794E+00
         13   -1    0    0    0    0  0.00000000000E+00  0.00000000000E+00  0.14999999963E+04  0.15000000000E+04  0.10566000000E+00 0.  1.
        994   -1    0    0    0    0 -0.00000000000E+00 -0.00000000000E+00  0.11368683772E-12  0.17120000000E+03  0.17120000000E+03 0.  0.
         13    1    1    2    0    0  0.17728294132E+03 -0.21743842114E+03  0.11777957055E+04  0.12107482989E+04  0.10566000000E+00 0.  1.
        994    1    1    2    0    0 -0.17735426874E+03  0.21751816817E+03  0.32181088998E+03  0.46004388816E+03  0.17120000000E+03 0.  0.
        998    1    1    2    0    0  0.71327425546E-01 -0.79747032890E-01  0.39340084666E+00  0.40781296821E+00  0.10000000000E-01 0. -1.
</event>
<event>
 5    1  0.3934322E-009  0.3882651E+03  0.7957747E-01  0.3415942E+00
         13   -1    0    0    0    0  0.00000000000E+00  0.00000000000E+00  0.14999999963E+04  0.15000000000E+04  0.10566000000E+00 0.  1.
        994   -1    0    0    0    0 -0.00000000000E+00 -0.00000000000E+00  0.11368683772E-12  0.17120000000E+03  0.17120000000E+03 0.  0.
         13    1    1    2    0    0 -0.76191798861E+02 -0.21287336753E+03  0.12003662201E+04  0.12214742463E+04  0.10566000000E+00 0.  1.
        994    1    1    2    0    0  0.80313219738E+02  0.22835470441E+03  0.22182860282E+03  0.37028833808E+03  0.17120000000E+03 0.  0.
        998    1    1    2    0    0 -0.41214208768E+01 -0.15481336874E+02  0.77805173384E+02  0.79437415660E+02  0.10000000000E-01 0.  1.
</event>
<event>
 5    1  0.3934322E-009  0.3882628E+03  0.7957747E-01  0.3415951E+00
         13   -1    0    0    0    0  0.00000000000E+00  0.00000000000E+00  0.14999999963E+04  0.15000000000E+04  0.10566000000E+00 0.  1.
        994   -1    0    0    0    0 -0.00000000000E+00 -0.00000000000E+00  0.11368683772E-12  0.17120000000E+03  0.17120000000E+03 0.  0.
         13    1    1    2    0    0 -0.22582360552E+03 -0.85344412869E+02  0.12565742689E+04  0.12795541700E+04  0.10566000000E+00 0.  1.
        994    1    1    2    0    0  0.22862849487E+03  0.85658686271E+02  0.22643015031E+03  0.37441748380E+03  0.17120000000E+03 0.  0.
        998    1    1    2    0    0 -0.28048893560E+01 -0.31427340119E+00  0.16995577093E+02  0.17228346200E+02  0.10000000000E-01 0.  1.
</event>
<event>
 5    1  0.3934322E-009  0.3882757E+03  0.7957747E-01  0.3415897E+00
         13   -1    0    0    0    0  0.00000000000E+00  0.00000000000E+00  0.14999999963E+04  0.15000000000E+04  0.10566000000E+00 0.  1.
        994   -1    0    0    0    0 -0.00000000000E+00 -0.00000000000E+00  0.11368683772E-12  0.17120000000E+03  0.17120000000E+03 0.  0.
         13    1    1    2    0    0  0.21622964486E+03 -0.10240009415E+03  0.12801199360E+04  0.13022857215E+04  0.10566000000E+00 0.  1.
        994    1    1    2    0    0 -0.21657392708E+03  0.10246153229E+03  0.21643969920E+03  0.36545617368E+03  0.17120000000E+03 0.  0.
        998    1    1    2    0    0  0.34428221818E+00 -0.61438142520E-01  0.34403610603E+01  0.34581048446E+01  0.10000000000E-01 0. -1.
</event>
<event>
 5    1  0.3934322E-009  0.3882979E+03  0.7957747E-01  0.3415805E+00
         13   -1    0    0    0    0  0.00000000000E+00  0.00000000000E+00  0.14999999963E+04  0.15000000000E+04  0.10566000000E+00 0. -1.
        994   -1    0    0    0    0 -0.00000000000E+00 -0.00000000000E+00  0.11368683772E-12  0.17120000000E+03  0.17120000000E+03 0.  0.
         13    1    1    2    0    0  0.66469973459E+02 -0.56181557336E+02  0.51650771187E+03  0.52378893874E+03  0.10566000000E+00 0. -1.
        994    1    1    2    0    0 -0.17099794231E+03  0.14500514488E+03  0.18527918883E+03  0.33749756463E+03  0.17120000000E+03 0.  0.
        998    1    1    2    0    0  0.10452796886E+03 -0.88823587545E+02  0.79821309558E+03  0.80991349663E+03  0.10000000000E-01 0.  1.
</event>
<event>
 5    1  0.3934322E-009  0.3883007E+03  0.7957747E-01  0.3415793E+00
         13   -1    0    0    0    0  0.00000000000E+00  0.00000000000E+00  0.14999999963E+04  0.15000000000E+04  0.10566000000E+00 0.  1.
        994   -1    0    0    0    0 -0.00000000000E+00 -0.00000000000E+00  0.11368683772E-12  0.17120000000E+03  0.17120000000E+03 0.  0.
         13    1    1    2    0    0  0.12845539098E+03  0.16459488694E+03  0.12621526842E+04  0.12793051527E+04  0.10566000000E+00 0.  1.
        994    1    1    2    0    0 -0.13485050705E+03 -0.17279629363E+03  0.17589808129E+03  0.32907870388E+03  0.17120000000E+03 0.  0.
        998    1    1    2    0    0  0.63951160729E+01  0.82014066959E+01  0.61949230784E+02  0.62816143435E+02  0.10000000000E-01 0. -1.
</event>
<event>
 5    1  0.3934322E-009  0.3883010E+03  0.7957747E-01  0.3415792E+00
         13   -1    0    0    0    0  0.00000000000E+00  0.00000000000E+00  0.14999999963E+04  0.15000000000E+04  0.10566000000E+00 0.  1.
        994   -1    0    0    0    0 -0.00000000000E+00 -0.00000000000E+00  0.11368683772E-12  0.17120000000E+03  0.17120000000E+03 0.  0.
         13    1    1    2    0    0 -0.12284732399E+03 -0.18349971747E+03  0.12808384373E+04  0.12997348672E+04  0.10566000000E+00 0.  1.
        994    1    1    2    0    0  0.12576595514E+03  0.18783960453E+03  0.18883023245E+03  0.34068620340E+03  0.17120000000E+03 0.  0.
        998    1    1    2    0    0 -0.29186311494E+01 -0.43398870579E+01  0.30331326532E+02  0.30778929426E+02  0.10000000000E-01 0.  0.
</event>
<event>
 5    1  0.3934322E-009  0.3883010E+03  0.7957747E-01  0.3415792E+00
         13   -1    0    0    0    0  0.00000000000E+00  0.00000000000E+00  0.14999999963E+04  0.15000000000E+04  0.10566000000E+00 0.  1.
        994   -1    0    0    0    0 -0.00000000000E+00 -0.00000000000E+00  0.11368683772E-12  0.17120000000E+03  0.17120000000E+03 0.  0.
         13    1    1    2    0    0 -0.14258702693E+03 -0.16041950392E+03  0.12636335381E+04  0.12817313320E+04  0.10566000000E+00 0.  1.
        994    1    1    2    0    0  0.14848841062E+03  0.16706881143E+03  0.18397618003E+03  0.33632940797E+03  0.17120000000E+03 0.  0.
        998    1    1    2    0    0 -0.59013836918E+01 -0.66493075081E+01  0.52390278100E+02  0.53139260055E+02  0.10000000000E-01 0.  1.
</event>
<event>
 5    1  0.3934322E-009  0.3882947E+03  0.7957747E-01  0.3415818E+00
         13   -1    0    0    0    0  0.00000000000E+00  0.00000000000E+00  0.14999999963E+04  0.15000000000E+04  0.10566000000E+00 0. -1.
        994   -1    0    0    0    0 -0.00000000000E+00 -0.00000000000E+00  0.11368683772E-12  0.17120000000E+03  0.17120000000E+03 0.  0.
         13    1    1    2    0    0 -0.18722521673E+03 -0.13240052739E+03  0.12912871705E+04  0.13114898968E+04  0.10566000000E+00 0. -1.
        994    1    1    2    0    0  0.18867759256E+03  0.13318012006E+03  0.19847231981E+03  0.34933777357E+03  0.17120000000E+03 0.  0.
        998    1    1    2    0    0 -0.14523758344E+01 -0.77959266463E+00  0.10240505926E+02  0.10372329627E+02  0.10000000000E-01 0.  1.
</event>
<event>
 5    1  0.3934322E-009  0.3862713E+03  0.7957747E-01  0.3424298E+00
         13   -1    0    0    0    0  0.00000000000E+00  0.00000000000E+00  0.14999999963E+04  0.15000000000E+04  0.10566000000E+00 0. -1.
        994   -1    0    0    0    0 -0.00000000000E+00 -0.00000000000E+00  0.11368683772E-12  0.17120000000E+03  0.17120000000E+03 0.  0.
         13    1    1    2    0    0 -0.47080300379E+02 -0.30918088423E+02  0.31049794336E+03  0.31556531316E+03  0.10566000000E+00 0. -1.
        994    1    1    2    0    0  0.12328417100E+03  0.19332433856E+03  0.19785831761E+03  0.34789458252E+03  0.17120000000E+03 0.  0.
        998    1    1    2    0    0 -0.76203870617E+02 -0.16240625014E+03  0.99164373531E+03  0.10077401043E+04  0.10000000000E-01 0. -1.
</event>
<event>
 5    1  0.3934322E-009  0.3883008E+03  0.7957747E-01  0.3415793E+00
         13   -1    0    0    0    0  0.00000000000E+00  0.00000000000E+00  0.14999999963E+04  0.15000000000E+04  0.10566000000E+00 0. -1.
        994   -1    0    0    0    0 -0.00000000000E+00 -0.00000000000E+00  0.11368683772E-12  0.17120000000E+03  0.17120000000E+03 0.  0.
         13    1    1    2    0    0  0.26779711867E+03 -0.86939048769E+02  0.96142111322E+03  0.10018005106E+04  0.10566000000E+00 0. -1.
        994    1    1    2    0    0 -0.29623731327E+03  0.96288227217E+02  0.43590738101E+03  0.56245235646E+03  0.17120000000E+03 0.  0.
        998    1    1    2    0    0  0.28440194596E+02 -0.93491784479E+01  0.10267150205E+03  0.10694713292E+03  0.10000000000E-01 0. -1.
</event>
<event>
 5    1  0.3934322E-009  0.3882800E+03  0.7957747E-01  0.3415880E+00
         13   -1    0    0    0    0  0.00000000000E+00  0.00000000000E+00  0.14999999963E+04  0.15000000000E+04  0.10566000000E+00 0. -1.
        994   -1    0    0    0    0 -0.00000000000E+00 -0.00000000000E+00  0.11368683772E-12  0.17120000000E+03  0.17120000000E+03 0.  0.
         13    1    1    2    0    0  0.55477618488E+01  0.23065997705E+03  0.12943826161E+04  0.13147855988E+04  0.10566000000E+00 0. -1.
        994    1    1    2    0    0 -0.58953337248E+01 -0.23176330463E+03  0.20028850683E+03  0.35096140856E+03  0.17120000000E+03 0.  0.
        998    1    1    2    0    0  0.34757187596E+00  0.11033275856E+01  0.53288733340E+01  0.54529926628E+01  0.10000000000E-01 0.  1.
</event>
<event>
 5    1  0.3934322E-009  0.3882520E+03  0.7957747E-01  0.3415996E+00
         13   -1    0    0    0    0  0.00000000000E+00  0.00000000000E+00  0.14999999963E+04  0.15000000000E+04  0.10566000000E+00 0. -1.
        994   -1    0    0    0    0 -0.00000000000E+00 -0.00000000000E+00  0.11368683772E-12  0.17120000000E+03  0.17120000000E+03 0.  0.
         13    1    1    2    0    0 -0.10228279510E+03  0.21382805798E+03  0.12407678491E+04  0.12632058720E+04  0.10566000000E+00 0. -1.
        994    1    1    2    0    0  0.10531360519E+03 -0.21859041324E+03  0.22310079061E+03  0.37142445661E+03  0.17120000000E+03 0.  0.
        998    1    1    2    0    0 -0.30308100936E+01  0.47623552531E+01  0.36131356557E+02  0.36569671369E+02  0.10000000000E-01 0. -1.
</event>
<event>
 5    1  0.3934322E-009  0.3882875E+03  0.7957747E-01  0.3415848E+00
         13   -1    0    0    0    0  0.00000000000E+00  0.00000000000E+00  0.14999999963E+04  0.15000000000E+04  0.10566000000E+00 0. -1.
        994   -1    0    0    0    0 -0.00000000000E+00 -0.00000000000E+00  0.11368683772E-12  0.17120000000E+03  0.17120000000E+03 0.  0.
         13    1    1    2    0    0 -0.92534444426E+02 -0.11278949103E+03  0.63106781808E+03  0.64771189187E+03  0.10566000000E+00 0. -1.
        994    1    1    2    0    0  0.17815158547E+03  0.21316161875E+03  0.31317699833E+03  0.45228877435E+03  0.17120000000E+03 0.  0.
        998    1    1    2    0    0 -0.85617141047E+02 -0.10037212772E+03  0.55575517987E+03  0.57119933379E+03  0.10000000000E-01 0. -1.
</event>
<event>
 5    1  0.3934322E-009  0.3866527E+03  0.7957747E-01  0.3422693E+00
         13   -1    0    0    0    0  0.00000000000E+00  0.00000000000E+00  0.14999999963E+04  0.15000000000E+04  0.10566000000E+00 0.  1.
        994   -1    0    0    0    0 -0.00000000000E+00 -0.00000000000E+00  0.11368683772E-12  0.17120000000E+03  0.17120000000E+03 0.  0.
         13    1    1    2    0    0  0.55692313803E+02  0.20399107353E+03  0.12037644194E+04  0.12221958846E+04  0.10566000000E+00 0.  1.
        994    1    1    2    0    0 -0.47819349365E+02 -0.21579954571E+03  0.18135339087E+03  0.33324859562E+03  0.17120000000E+03 0.  0.
        998    1    1    2    0    0 -0.78729644384E+01  0.11808472180E+02  0.11488218605E+03  0.11575551977E+03  0.10000000000E-01 0.  1.
</event>
<event>
 5    1  0.3934322E-009  0.3882999E+03  0.7957747E-01  0.3415796E+00
         13   -1    0    0    0    0  0.00000000000E+00  0.00000000000E+00  0.14999999963E+04  0.15000000000E+04  0.10566000000E+00 0. -1.
        994   -1    0    0    0    0 -0.00000000000E+00 -0.00000000000E+00  0.11368683772E-12  0.17120000000E+03  0.17120000000E+03 0.  0.
         13    1    1    2    0    0 -0.26576163651E+03  0.16155596471E+02  0.12178265117E+04  0.12465920240E+04  0.10566000000E+00 0. -1.
        994    1    1    2    0    0  0.26598772251E+03 -0.16196892220E+02  0.28101634865E+03  0.42342819468E+03  0.17120000000E+03 0.  0.
        998    1    1    2    0    0 -0.22608599291E+00  0.41295748403E-01  0.11571359694E+01  0.11797812791E+01  0.10000000000E-01 0.  0.
</event>
<event>
 5    1  0.3934322E-009  0.3883010E+03  0.7957747E-01  0.3415792E+00
         13   -1    0    0    0    0  0.00000000000E+00  0.00000000000E+00  0.14999999963E+04  0.15000000000E+04  0.10566000000E+00 0. -1.
        994   -1    0    0    0    0 -0.00000000000E+00 -0.00000000000E+00  0.11368683772E-12  0.17120000000E+03  0.17120000000E+03 0.  0.
         13    1    1    2    0    0  0.54745028991E+02 -0.24335383683E+03  0.12509937625E+04  0.12756188745E+04  0.10566000000E+00 0. -1.
        994    1    1    2    0    0 -0.55061010135E+02  0.24475289625E+03  0.24175359742E+03  0.38818801749E+03  0.17120000000E+03 0.  0.
        998    1    1    2    0    0  0.31598114483E+00 -0.13990594150E+01  0.72526363926E+01  0.73931080051E+01  0.10000000000E-01 0. -1.
</event>
<event>
 5    1  0.3934322E-009  0.3883002E+03  0.7957747E-01  0.3415795E+00
         13   -1    0    0    0    0  0.00000000000E+00  0.00000000000E+00  0.14999999963E+04  0.15000000000E+04  0.10566000000E+00 0.  1.
        994   -1    0    0    0    0 -0.00000000000E+00 -0.00000000000E+00  0.11368683772E-12  0.17120000000E+03  0.17120000000E+03 0.  0.
         13    1    1    2    0    0  0.22933012481E+03 -0.18131926545E+03  0.11103180740E+04  0.11481616692E+04  0.10566000000E+00 0.  1.
        994    1    1    2    0    0 -0.23247896864E+03  0.18370780093E+03  0.37428702909E+03  0.50714420743E+03  0.17120000000E+03 0.  0.
        998    1    1    2    0    0  0.31488438370E+01 -0.23885354707E+01  0.15394893237E+02  0.15894123347E+02  0.10000000000E-01 0. -1.
</event>
<event>
 5    1  0.3934322E-009  0.3882986E+03  0.7957747E-01  0.3415802E+00
         13   -1    0    0    0    0  0.00000000000E+00  0.00000000000E+00  0.14999999963E+04  0.15000000000E+04  0.10566000000E+00 0. -1.
        994   -1    0    0    0    0 -0.00000000000E+00 -0.00000000000E+00  0.11368683772E-12  0.17120000000E+03  0.17120000000E+03 0.  0.
         13    1    1    2    0    0 -0.13830870487E+03  0.18834178293E+03  0.12941800818E+04  0.13151060871E+04  0.10566000000E+00 0. -1.
        994    1    1    2    0    0  0.13844741831E+03 -0.18848715769E+03  0.20440105889E+03  0.35466086495E+03  0.17120000000E+03 0.  0.
        998    1    1    2    0    0 -0.13871344369E+00  0.14537476378E+00  0.14188556372E+01  0.14330479966E+01  0.10000000000E-01 0.  1.
</event>
<event>
 5    1  0.3934322E-009  0.3882988E+03  0.7957747E-01  0.3415801E+00
         13   -1    0    0    0    0  0.00000000000E+00  0.00000000000E+00  0.14999999963E+04  0.15000000000E+04  0.10566000000E+00 0.  1.
        994   -1    0    0    0    0 -0.00000000000E+00 -0.00000000000E+00  0.11368683772E-12  0.17120000000E+03  0.17120000000E+03 0.  0.
         13    1    1    2    0    0  0.13183242709E+03 -0.19455606533E+03  0.12897988769E+04  0.13110350893E+04  0.10566000000E+00 0.  1.
        994    1    1    2    0    0 -0.13202399508E+03  0.19497713305E+03  0.20770735321E+03  0.35762858145E+03  0.17120000000E+03 0.  0.
        998    1    1    2    0    0  0.19156799649E+00 -0.42106772403E+00  0.24937661931E+01  0.25363292671E+01  0.10000000000E-01 0.  1.
</event>
<event>
 5    1  0.3934322E-009  0.3882901E+03  0.7957747E-01  0.3415837E+00
         13   -1    0    0    0    0  0.00000000000E+00  0.00000000000E+00  0.14999999963E+04  0.15000000000E+04  0.10566000000E+00 0. -1.
        994   -1    0    0    0    0 -0.00000000000E+00 -0.00000000000E+00  0.11368683772E-12  0.17120000000E+03  0.17120000000E+03 0.  0.
         13    1    1    2    0    0  0.52837327495E+02  0.94051330294E+01  0.29845207459E+03  0.30323900095E+03  0.10566000000E+00 0. -1.
        994    1    1    2    0    0 -0.23199227429E+03 -0.34069637332E+02  0.20566944312E+03  0.35579560895E+03  0.17120000000E+03 0.  0.
        998    1    1    2    0    0  0.17915494680E+03  0.24664504302E+02  0.99587847857E+03  0.10121653901E+04  0.10000000000E-01 0. -1.
</event>
<event>
 5    1  0.3934322E-009  0.3855203E+03  0.7957747E-01  0.3427469E+00
         13   -1    0    0    0    0  0.00000000000E+00  0.00000000000E+00  0.14999999963E+04  0.15000000000E+04  0.10566000000E+00 0. -1.
        994   -1    0    0    0    0 -0.00000000000E+00 -0.00000000000E+00  0.11368683772E-12  0.17120000000E+03  0.17120000000E+03 0.  0.
         13    1    1    2    0    0 -0.80696591420E+01 -0.63444602463E+01  0.35275109907E+02  0.36738482786E+02  0.10566000000E+00 0. -1.
        994    1    1    2    0    0  0.64389866269E+02 -0.43936251086E+02  0.21582331391E+02  0.18934541469E+03  0.17120000000E+03 0.  0.
        998    1    1    2    0    0 -0.56320207127E+02  0.50280711332E+02  0.14431425550E+04  0.14451161025E+04  0.10000000000E-01 0. -1.
</event>
<event>
 5    1  0.3934322E-009  0.3882873E+03  0.7957747E-01  0.3415849E+00
         13   -1    0    0    0    0  0.00000000000E+00  0.00000000000E+00  0.14999999963E+04  0.15000000000E+04  0.10566000000E+00 0.  1.
        994   -1    0    0    0    0 -0.00000000000E+00 -0.00000000000E+00  0.11368683772E-12  0.17120000000E+03  0.17120000000E+03 0.  0.
         13    1    1    2    0    0 -0.24445777763E+03  0.16239919472E+03  0.11346796167E+04  0.11720200285E+04  0.10566000000E+00 0.  1.
        994    1    1    2    0    0  0.24463133465E+03 -0.16250408814E+03  0.36489255390E+03  0.49870641108E+03  0.17120000000E+03 0.  0.
        998    1    1    2    0    0 -0.17355701479E+00  0.10489341946E+00  0.42782571094E+00  0.47356045630E+00  0.10000000000E-01 0. -1.
</event>
<event>
 5    1  0.4358133E-009  0.3882980E+03  0.7957747E-01  0.3415804E+00
         13   -1    0    0    0    0  0.00000000000E+00  0.00000000000E+00  0.14999999963E+04  0.15000000000E+04  0.10566000000E+00 0. -1.
        994   -1    0    0    0    0 -0.00000000000E+00 -0.00000000000E+00  0.11368683772E-12  0.17120000000E+03  0.17120000000E+03 0.  0.
         13    1    1    2    0    0  0.13755292927E+03 -0.19717722140E+03  0.12815865886E+04  0.13039416629E+04  0.10566000000E+00 0. -1.
        994    1    1    2    0    0 -0.13757995754E+03  0.19718330831E+03  0.21823345639E+03  0.36707599115E+03  0.17120000000E+03 0.  0.
        998    1    1    2    0    0  0.27028274548E-01 -0.60869090732E-02  0.17995131712E+00  0.18234597506E+00  0.10000000000E-01 0.  1.
</event>
<event>
 5    1  0.3934322E-009  0.3883010E+03  0.7957747E-01  0.3415792E+00
         13   -1    0    0    0    0  0.00000000000E+00  0.00000000000E+00  0.14999999963E+04  0.15000000000E+04  0.10566000000E+00 0.  1.
        994   -1    0    0    0    0 -0.00000000000E+00 -0.00000000000E+00  0.11368683772E-12  0.17120000000E+03  0.17120000000E+03 0.  0.
         13    1    1    2    0    0 -0.13270041851E+03 -0.16883097976E+03  0.12838727390E+04  0.13017075408E+04  0.10566000000E+00 0.  1.
        994    1    1    2    0    0  0.13653322140E+03  0.17368947825E+03  0.17911252643E+03  0.33196399281E+03  0.17120000000E+03 0.  0.
        998    1    1    2    0    0 -0.38328028912E+01 -0.48584984918E+01  0.37014730901E+02  0.37528466386E+02  0.10000000000E-01 0. -1.
</event>
<event>
 5    1  0.3934322E-009  0.3883010E+03  0.7957747E-01  0.3415792E+00
         13   -1    0    0    0    0  0.00000000000E+00  0.00000000000E+00  0.14999999963E+04  0.15000000000E+04  0.10566000000E+00 0.  1.
        994   -1    0    0    0    0 -0.00000000000E+00 -0.00000000000E+00  0.11368683772E-12  0.17120000000E+03  0.17120000000E+03 0.  0.
         13    1    1    2    0    0 -0.16922884209E+03 -0.12858855251E+03  0.12658429152E+04  0.12835621192E+04  0.10566000000E+00 0.  1.
        994    1    1    2    0    0  0.17642242161E+03  0.13406334455E+03  0.18032748209E+03  0.33305448803E+03  0.17120000000E+03 0.  0.
        998    1    1    2    0    0 -0.71935795229E+01 -0.54747920415E+01  0.53829599016E+02  0.54583392753E+02  0.10000000000E-01 0.  0.
</event>
<event>
 5    1  0.3934322E-009  0.3882986E+03  0.7957747E-01  0.3415802E+00
         13   -1    0    0    0    0  0.00000000000E+00  0.00000000000E+00  0.14999999963E+04  0.15000000000E+04  0.10566000000E+00 0.  1.
        994   -1    0    0    0    0 -0.00000000000E+00 -0.00000000000E+00  0.11368683772E-12  0.17120000000E+03  0.17120000000E+03 0.  0.
         13    1    1    2    0    0 -0.20926592799E+03  0.53298639952E+02  0.10772981214E+04  0.10987284593E+04  0.10566000000E+00 0.  1.
        994    1    1    2    0    0  0.24451507353E+03 -0.62245533050E+02  0.24517322976E+03  0.39125628450E+03  0.17120000000E+03 0.  0.
        998    1    1    2    0    0 -0.35249145543E+02  0.89468930981E+01  0.17752864510E+03  0.18121525623E+03  0.10000000000E-01 0.  1.
</event>
<event>
 5    1  0.3934322E-009  0.3881965E+03  0.7957747E-01  0.3416228E+00
         13   -1    0    0    0    0  0.00000000000E+00  0.00000000000E+00  0.14999999963E+04  0.15000000000E+04  0.10566000000E+00 0.  1.
        994   -1    0    0    0    0 -0.00000000000E+00 -0.00000000000E+00  0.11368683772E-12  0.17120000000E+03  0.17120000000E+03 0.  0.
         13    1    1    2    0    0  0.98677974484E+02  0.19002274924E+03  0.12787427155E+04  0.12965449978E+04  0.10566000000E+00 0.  1.
        994    1    1    2    0    0 -0.99920144180E+02 -0.19575428336E+03  0.17711673790E+03  0.33012657195E+03  0.17120000000E+03 0.  0.
        998    1    1    2    0    0  0.12421696956E+01  0.57315341175E+01  0.44140542903E+02  0.44528430206E+02  0.10000000000E-01 0.  1.
</event>
<event>
 5    1  0.3934322E-009  0.3787625E+03  0.7957747E-01  0.3456565E+00
         13   -1    0    0    0    0  0.00000000000E+00  0.00000000000E+00  0.14999999963E+04  0.15000000000E+04  0.10566000000E+00 0. -1.
        994   -1    0    0    0    0 -0.00000000000E+00 -0.00000000000E+00  0.11368683772E-12  0.17120000000E+03  0.17120000000E+03 0.  0.
         13    1    1    2    0    0 -0.14627409561E+03 -0.74850153305E+02  0.77307204694E+03  0.79034110194E+03  0.10566000000E+00 0. -1.
        994    1    1    2    0    0  0.17638340545E+03  0.19018123744E+03  0.28002835153E+03  0.41833637955E+03  0.17120000000E+03 0.  0.
        998    1    1    2    0    0 -0.30109309845E+02 -0.11533108413E+03  0.44689959781E+03  0.46252251851E+03  0.10000000000E-01 0. -1.
</event>
<event>
 5    1  0.3934322E-009  0.3882996E+03  0.7957747E-01  0.3415798E+00
         13   -1    0    0    0    0  0.00000000000E+00  0.00000000000E+00  0.14999999963E+04  0.15000000000E+04  0.10566000000E+00 0. -1.
        994   -1    0    0    0    0 -0.00000000000E+00 -0.00000000000E+00  0.11368683772E-12  0.17120000000E+03  0.17120000000E+03 0.  0.
         13    1    1    2    0    0  0.19895904832E+03 -0.10503312428E+03  0.13125249176E+04  0.13316675000E+04  0.10566000000E+00 0. -1.
        994    1    1    2    0    0 -0.19904716539E+03  0.10509692629E+03  0.18697237682E+03  0.33901806392E+03  0.17120000000E+03 0.  0.
        998    1    1    2    0    0  0.88117068184E-01 -0.63802016424E-01  0.50270184018E+00  0.51443605543E+00  0.10000000000E-01 0. -1.
</event>
<event>
 5    1  0.3934322E-009  0.3882852E+03  0.7957747E-01  0.3415858E+00
         13   -1    0    0    0    0  0.00000000000E+00  0.00000000000E+00  0.14999999963E+04  0.15000000000E+04  0.10566000000E+00 0.  1.
        994   -1    0    0    0    0 -0.00000000000E+00 -0.00000000000E+00  0.11368683772E-12  0.17120000000E+03  0.17120000000E+03 0.  0.
         13    1    1    2    0    0 -0.49094574459E+01  0.27891016835E+03  0.11743419032E+04  0.12070186003E+04  0.10566000000E+00 0.  1.
        994    1    1    2    0    0  0.48757270678E+01 -0.27995530968E+03  0.31981848241E+03  0.45824889505E+03  0.17120000000E+03 0.  0.
        998    1    1    2    0    0  0.33730378153E-01  0.10451413282E+01  0.58396106892E+01  0.59325046258E+01  0.10000000000E-01 0.  1.
</event>
<event>
 5    1  0.3934322E-009  0.3882796E+03  0.7957747E-01  0.3415881E+00
         13   -1    0    0    0    0  0.00000000000E+00  0.00000000000E+00  0.14999999963E+04  0.15000000000E+04  0.10566000000E+00 0.  1.
        994   -1    0    0    0    0 -0.00000000000E+00 -0.00000000000E+00  0.11368683772E-12  0.17120000000E+03  0.17120000000E+03 0.  0.
         13    1    1    2    0    0  0.27194188174E+03 -0.12710280597E+03  0.96087434000E+03  0.10066712565E+04  0.10566000000E+00 0.  1.
        994    1    1    2    0    0 -0.28903191496E+03  0.13555075432E+03  0.47341143830E+03  0.59610509541E+03  0.17120000000E+03 0.  0.
        998    1    1    2    0    0  0.17090033214E+02 -0.84479483488E+01  0.65714217980E+02  0.68423648042E+02  0.10000000000E-01 0. -1.
</event>
<event>
 5    1  0.3934322E-009  0.3883002E+03  0.7957747E-01  0.3415795E+00
         13   -1    0    0    0    0  0.00000000000E+00  0.00000000000E+00  0.14999999963E+04  0.15000000000E+04  0.10566000000E+00 0. -1.
        994   -1    0    0    0    0 -0.00000000000E+00 -0.00000000000E+00  0.11368683772E-12  0.17120000000E+03  0.17120000000E+03 0.  0.
         13    1    1    2    0    0 -0.28868539862E+03  0.24950613578E+01  0.11492315848E+04  0.11849382816E+04  0.10566000000E+00 0. -1.
        994    1    1    2    0    0  0.28913243245E+03 -0.24909743621E+01  0.34914393741E+03  0.48457682309E+03  0.17120000000E+03 0.  0.
        998    1    1    2    0    0 -0.44703383242E+00 -0.40869957172E-02  0.16244740989E+01  0.16848952634E+01  0.10000000000E-01 0.  1.
</event>
<event>
 5    1  0.3934322E-009  0.3883009E+03  0.7957747E-01  0.3415792E+00
         13   -1    0    0    0    0  0.00000000000E+00  0.00000000000E+00  0.14999999963E+04  0.15000000000E+04  0.10566000000E+00 0. -1.
        994   -1    0    0    0    0 -0.00000000000E+00 -0.00000000000E+00  0.11368683772E-12  0.17120000000E+03  0.17120000000E+03 0.  0.
         13    1    1    2    0    0 -0.88628936367E+02 -0.48905996020E+02  0.56994655208E+03  0.57886610559E+03  0.10566000000E+00 0. -1.
        994    1    1    2    0    0  0.20219977734E+03  0.11186423274E+03  0.19873417292E+03  0.34957555408E+03  0.17120000000E+03 0.  0.
        998    1    1    2    0    0 -0.11357084097E+03 -0.62958236721E+02  0.73131927127E+03  0.74275834033E+03  0.10000000000E-01 0. -1.
</event>
<event>
 5    1  0.3934322E-009  0.3881220E+03  0.7957747E-01  0.3416538E+00
         13   -1    0    0    0    0  0.00000000000E+00  0.00000000000E+00  0.14999999963E+04  0.15000000000E+04  0.10566000000E+00 0. -1.
        994   -1    0    0    0    0 -0.00000000000E+00 -0.00000000000E+00  0.11368683772E-12  0.17120000000E+03  0.17120000000E+03 0.  0.
         13    1    1    2    0    0  0.24396999793E+03  0.48826672430E+01  0.12676086434E+04  0.12908822116E+04  0.10566000000E+00 0. -1.
        994    1    1    2    0    0 -0.24474311309E+03 -0.39464757647E+01  0.22804243208E+03  0.37580255042E+03  0.17120000000E+03 0.  0.
        998    1    1    2    0    0  0.77311516451E+00 -0.93619147837E+00  0.43489208352E+01  0.45152379752E+01  0.10000000000E-01 0.  1.
</event>
<event>
 5    1  0.3934322E-009  0.3883007E+03  0.7957747E-01  0.3415793E+00
         13   -1    0    0    0    0  0.00000000000E+00  0.00000000000E+00  0.14999999963E+04  0.15000000000E+04  0.10566000000E+00 0. -1.
        994   -1    0    0    0    0 -0.00000000000E+00 -0.00000000000E+00  0.11368683772E-12  0.17120000000E+03  0.17120000000E+03 0.  0.
         13    1    1    2    0    0 -0.20440312899E+03  0.94174896203E+02  0.10761860787E+04  0.10994662512E+04  0.10566000000E+00 0. -1.
        994    1    1    2    0    0  0.23523886619E+03 -0.10816156811E+03  0.26132407134E+03  0.40575356961E+03  0.17120000000E+03 0.  0.
        998    1    1    2    0    0 -0.30835737202E+02  0.13986671907E+02  0.16248984619E+03  0.16598017922E+03  0.10000000000E-01 0. -1.
</event>
<event>
 5    1  0.3934322E-009  0.3883006E+03  0.7957747E-01  0.3415794E+00
         13   -1    0    0    0    0  0.00000000000E+00  0.00000000000E+00  0.14999999963E+04  0.15000000000E+04  0.10566000000E+00 0.  1.
        994   -1    0    0    0    0 -0.00000000000E+00 -0.00000000000E+00  0.11368683772E-12  0.17120000000E+03  0.17120000000E+03 0.  0.
         13    1    1    2    0    0  0.92256028192E+02 -0.13761649898E+03  0.87093210166E+03  0.88655073876E+03  0.10566000000E+00 0.  1.
        994    1    1    2    0    0 -0.13489791683E+03  0.20210204129E+03  0.22379962918E+03  0.37207310717E+03  0.17120000000E+03 0.  0.
        998    1    1    2    0    0  0.42641888637E+02 -0.64485542313E+02  0.40526826544E+03  0.41257615407E+03  0.10000000000E-01 0. -1.
</event>
<event>
 5    1  0.3934322E-009  0.3882899E+03  0.7957747E-01  0.3415838E+00
         13   -1    0    0    0    0  0.00000000000E+00  0.00000000000E+00  0.14999999963E+04  0.15000000000E+04  0.10566000000E+00 0.  1.
        994   -1    0    0    0    0 -0.00000000000E+00 -0.00000000000E+00  0.11368683772E-12  0.17120000000E+03  0.17120000000E+03 0.  0.
         13    1    1    2    0    0  0.10396916425E+03 -0.19131657009E+03  0.13110839205E+04  0.13290420140E+04  0.10566000000E+00 0.  1.
        994    1    1    2    0    0 -0.10470098149E+03  0.19284653857E+03  0.17636701650E+03  0.32949483679E+03  0.17120000000E+03 0.  0.
        998    1    1    2    0    0  0.73181724150E+00 -0.15299684866E+01  0.12549059274E+02  0.12663149241E+02  0.10000000000E-01 0.  1.
</event>
<event>
 5    1  0.3934322E-009  0.3883010E+03  0.7957747E-01  0.3415792E+00
         13   -1    0    0    0    0  0.00000000000E+00  0.00000000000E+00  0.14999999963E+04  0.15000000000E+04  0.10566000000E+00 0. -1.
        994   -1    0    0    0    0 -0.00000000000E+00 -0.00000000000E+00  0.11368683772E-12  0.17120000000E+03  0.17120000000E+03 0.  0.
         13    1    1    2    0    0 -0.21557299605E+03  0.13643908852E+03  0.11498983455E+04  0.11778597360E+04  0.10566000000E+00 0. -1.
        994    1    1    2    0    0  0.22726469859E+03 -0.14384635729E+03  0.28776992833E+03  0.42949038334E+03  0.17120000000E+03 0.  0.
        998    1    1    2    0    0 -0.11691702543E+02  0.74072687704E+01  0.62331722408E+02  0.63849880637E+02  0.10000000000E-01 0.  1.
</event>
<event>
 5    1  0.3934322E-009  0.3883007E+03  0.7957747E-01  0.3415793E+00
         13   -1    0    0    0    0  0.00000000000E+00  0.00000000000E+00  0.14999999963E+04  0.15000000000E+04  0.10566000000E+00 0. -1.
        994   -1    0    0    0    0 -0.00000000000E+00 -0.00000000000E+00  0.11368683772E-12  0.17120000000E+03  0.17120000000E+03 0.  0.
         13    1    1    2    0    0 -0.43221412906E+02  0.16795714754E+03  0.84568895848E+03  0.86328878111E+03  0.10566000000E+00 0. -1.
        994    1    1    2    0    0  0.63861456539E+02 -0.24728157953E+03  0.25259909891E+03  0.39792236677E+03  0.17120000000E+03 0.  0.
        998    1    1    2    0    0 -0.20640043633E+02  0.79324431987E+02  0.40171193889E+03  0.40998885212E+03  0.10000000000E-01 0.  1.
</event>
<event>
 5    1  0.3934322E-009  0.3883006E+03  0.7957747E-01  0.3415793E+00
         13   -1    0    0    0    0  0.00000000000E+00  0.00000000000E+00  0.14999999963E+04  0.15000000000E+04  0.10566000000E+00 0. -1.
        994   -1    0    0    0    0 -0.00000000000E+00 -0.00000000000E+00  0.11368683772E-12  0.17120000000E+03  0.17120000000E+03 0.  0.
         13    1    1    2    0    0  0.19263918555E+03 -0.22914443232E+03  0.11009902341E+04  0.11409629851E+04  0.10566000000E+00 0. -1.
        994    1    1    2    0    0 -0.19375739729E+03  0.23053871886E+03  0.39257925237E+03  0.52356273673E+03  0.17120000000E+03 0.  0.
        998    1    1    2    0    0  0.11182117335E+01 -0.13942865417E+01  0.64305098175E+01  0.66742781598E+01  0.10000000000E-01 0.  1.
</event>
<event>
 5    1  0.3934322E-009  0.3882999E+03  0.7957747E-01  0.3415797E+00
         13   -1    0    0    0    0  0.00000000000E+00  0.00000000000E+00  0.14999999963E+04  0.15000000000E+04  0.10566000000E+00 0.  1.
        994   -1    0    0    0    0 -0.00000000000E+00 -0.00000000000E+00  0.11368683772E-12  0.17120000000E+03  0.17120000000E+03 0.  0.
         13    1    1    2    0    0  0.15210688108E+03 -0.22645041530E+03  0.12007238727E+04  0.12313221039E+04  0.10566000000E+00 0.  1.
        994    1    1    2    0    0 -0.15216653220E+03  0.22652174480E+03  0.29876880573E+03  0.43936203030E+03  0.17120000000E+03 0.  0.
        998    1    1    2    0    0  0.59651114946E-01 -0.71329503664E-01  0.50731781868E+00  0.51586579917E+00  0.10000000000E-01 0. -1.
</event>
<event>
 5    1  0.3934322E-009  0.3882997E+03  0.7957747E-01  0.3415797E+00
         13   -1    0    0    0    0  0.00000000000E+00  0.00000000000E+00  0.14999999963E+04  0.15000000000E+04  0.10566000000E+00 0.  1.
        994   -1    0    0    0    0 -0.00000000000E+00 -0.00000000000E+00  0.11368683772E-12  0.17120000000E+03  0.17120000000E+03 0.  0.
         13    1    1    2    0    0  0.23894946973E+03 -0.75223315707E+02  0.96443541488E+03  0.99643919882E+03  0.10566000000E+00 0.  1.
        994    1    1    2    0    0 -0.28080486173E+03  0.87810278996E+02  0.36673677087E+03  0.50036717975E+03  0.17120000000E+03 0.  0.
        998    1    1    2    0    0  0.41855392005E+02 -0.12586963290E+02  0.16882781053E+03  0.17439362142E+03  0.10000000000E-01 0.  1.
</event>
<event>
 5    1  0.3934322E-009  0.3882481E+03  0.7957747E-01  0.3416012E+00
         13   -1    0    0    0    0  0.00000000000E+00  0.00000000000E+00  0.14999999963E+04  0.15000000000E+04  0.10566000000E+00 0. -1.
        994   -1    0    0    0    0 -0.00000000000E+00 -0.00000000000E+00  0.11368683772E-12  0.17120000000E+03  0.17120000000E+03 0.  0.
         13    1    1    2    0    0 -0.28986197978E+03 -0.16370516303E+03  0.93842805805E+03  0.99572414806E+03  0.10566000000E+00 0. -1.
        994    1    1    2    0    0  0.29043882139E+03  0.16370962347E+03  0.56051074437E+03  0.67426796182E+03  0.17120000000E+03 0.  0.
        998    1    1    2    0    0 -0.57684160775E+00 -0.44604369176E-02  0.10611938555E+01  0.12078901170E+01  0.10000000000E-01 0.  1.
</event>
<event>
 5    1  0.3934322E-009  0.3882336E+03  0.7957747E-01  0.3416073E+00
         13   -1    0    0    0    0  0.00000000000E+00  0.00000000000E+00  0.14999999963E+04  0.15000000000E+04  0.10566000000E+00 0. -1.
        994   -1    0    0    0    0 -0.00000000000E+00 -0.00000000000E+00  0.11368683772E-12  0.17120000000E+03  0.17120000000E+03 0.  0.
         13    1    1    2    0    0  0.16743261963E+02 -0.22309208464E+03  0.13051025370E+04  0.13241386099E+04  0.10566000000E+00 0. -1.
        994    1    1    2    0    0 -0.16258350630E+02  0.22481068457E+03  0.18764964237E+03  0.33959682882E+03  0.17120000000E+03 0.  0.
        998    1    1    2    0    0 -0.48491133356E+00 -0.17185999330E+01  0.72478168961E+01  0.74645612390E+01  0.10000000000E-01 0.  1.
</event>
<event>
 5    1  0.3934322E-009  0.3882862E+03  0.7957747E-01  0.3415853E+00
         13   -1    0    0    0    0  0.00000000000E+00  0.00000000000E+00  0.14999999963E+04  0.15000000000E+04  0.10566000000E+00 0.  1.
        994   -1    0    0    0    0 -0.00000000000E+00 -0.00000000000E+00  0.11368683772E-12  0.17120000000E+03  0.17120000000E+03 0.  0.
         13    1    1    2    0    0  0.27673589207E+03  0.80447432724E+02  0.11528762221E+04  0.11883510164E+04  0.10566000000E+00 0.  1.
        994    1    1    2    0    0 -0.27683287208E+03 -0.80433152944E+02  0.34628647476E+03  0.48200590635E+03  0.17120000000E+03 0.  0.
        998    1    1    2    0    0  0.96980002217E-01 -0.14279779819E-01  0.83729937646E+00  0.84307726737E+00  0.10000000000E-01 0.  1.
</event>
<event>
 5    1  0.3934322E-009  0.3883002E+03  0.7957747E-01  0.3415795E+00
         13   -1    0    0    0    0  0.00000000000E+00  0.00000000000E+00  0.14999999963E+04  0.15000000000E+04  0.10566000000E+00 0.  1.
        994   -1    0    0    0    0 -0.00000000000E+00 -0.00000000000E+00  0.11368683772E-12  0.17120000000E+03  0.17120000000E+03 0.  0.
         13    1    1    2    0    0 -0.19972668362E+03 -0.97953279982E+01  0.69090927707E+03  0.71926513672E+03  0.10566000000E+00 0.  1.
        994    1    1    2    0    0  0.30981412675E+03  0.15771907965E+02  0.43019285425E+03  0.55732295670E+03  0.17120000000E+03 0.  0.
        998    1    1    2    0    0 -0.11008744313E+03 -0.59765799671E+01  0.37889786496E+03  0.39461190658E+03  0.10000000000E-01 0. -1.
</event>
<event>
 5    1  0.3934322E-009  0.3877586E+03  0.7957747E-01  0.3418056E+00
         13   -1    0    0    0    0  0.00000000000E+00  0.00000000000E+00  0.14999999963E+04  0.15000000000E+04  0.10566000000E+00 0. -1.
        994   -1    0    0    0    0 -0.00000000000E+00 -0.00000000000E+00  0.11368683772E-12  0.17120000000E+03  0.17120000000E+03 0.  0.
         13    1    1    2    0    0 -0.17011640245E+03  0.12199595194E+03  0.12303628796E+04  0.12480446424E+04  0.10566000000E+00 0. -1.
        994    1    1    2    0    0  0.17737435170E+03 -0.12625453732E+03  0.17387166500E+03  0.32702089341E+03  0.17120000000E+03 0.  0.
        998    1    1    2    0    0 -0.72579492513E+01  0.42585853840E+01  0.95765451684E+02  0.96134464232E+02  0.10000000000E-01 0.  1.
</event>
<event>
 5    1  0.3934322E-009  0.3883010E+03  0.7957747E-01  0.3415792E+00
         13   -1    0    0    0    0  0.00000000000E+00  0.00000000000E+00  0.14999999963E+04  0.15000000000E+04  0.10566000000E+00 0.  1.
        994   -1    0    0    0    0 -0.00000000000E+00 -0.00000000000E+00  0.11368683772E-12  0.17120000000E+03  0.17120000000E+03 0.  0.
         13    1    1    2    0    0 -0.19700780001E+03  0.11561173335E+03  0.11191635776E+04  0.11422369591E+04  0.10566000000E+00 0.  1.
        994    1    1    2    0    0  0.21982555607E+03 -0.12899460446E+03  0.25133962298E+03  0.39679204775E+03  0.17120000000E+03 0.  0.
        998    1    1    2    0    0 -0.22817756065E+02  0.13382871106E+02  0.12949679570E+03  0.13217099313E+03  0.10000000000E-01 0.  1.
</event>
<event>
 5    1  0.3934322E-009  0.3882919E+03  0.7957747E-01  0.3415830E+00
         13   -1    0    0    0    0  0.00000000000E+00  0.00000000000E+00  0.14999999963E+04  0.15000000000E+04  0.10566000000E+00 0.  1.
        994   -1    0    0    0    0 -0.00000000000E+00 -0.00000000000E+00  0.11368683772E-12  0.17120000000E+03  0.17120000000E+03 0.  0.
         13    1    1    2    0    0 -0.26056213704E+03  0.11365388495E+03  0.11423103626E+04  0.11771502914E+04  0.10566000000E+00 0.  1.
        994    1    1    2    0    0  0.26339303665E+03 -0.11522858991E+03  0.34366051243E+03  0.47965144375E+03  0.17120000000E+03 0.  0.
        998    1    1    2    0    0 -0.28308996121E+01  0.15747049672E+01  0.14029121203E+02  0.14398264828E+02  0.10000000000E-01 0.  1.
</event>
<event>
 5    1  0.3934322E-009  0.3882975E+03  0.7957747E-01  0.3415806E+00
         13   -1    0    0    0    0  0.00000000000E+00  0.00000000000E+00  0.14999999963E+04  0.15000000000E+04  0.10566000000E+00 0.  1.
        994   -1    0    0    0    0 -0.00000000000E+00 -0.00000000000E+00  0.11368683772E-12  0.17120000000E+03  0.17120000000E+03 0.  0.
         13    1    1    2    0    0 -0.36756808442E+02  0.28156373066E+03  0.80611600773E+03  0.85466497908E+03  0.10566000000E+00 0.  1.
        994    1    1    2    0    0  0.42522162307E+02 -0.32978056663E+03  0.55366112769E+03  0.66814178191E+03  0.17120000000E+03 0.  0.
        998    1    1    2    0    0 -0.57653538656E+01  0.48216835967E+02  0.14022286086E+03  0.14839323901E+03  0.10000000000E-01 0.  1.
</event>
<event>
 5    1  0.3934322E-009  0.3883003E+03  0.7957747E-01  0.3415795E+00
         13   -1    0    0    0    0  0.00000000000E+00  0.00000000000E+00  0.14999999963E+04  0.15000000000E+04  0.10566000000E+00 0.  1.
        994   -1    0    0    0    0 -0.00000000000E+00 -0.00000000000E+00  0.11368683772E-12  0.17120000000E+03  0.17120000000E+03 0.  0.
         13    1    1    2    0    0  0.23724662857E+03  0.14402913543E+02  0.12622726268E+04  0.12844553719E+04  0.10566000000E+00 0.  1.
        994    1    1    2    0    0 -0.24067174650E+03 -0.14723916383E+02  0.21971611269E+03  0.36840778148E+03  0.17120000000E+03 0.  0.
        998    1    1    2    0    0  0.34251179342E+01  0.32100283970E+00  0.18011256759E+02  0.18336846668E+02  0.10000000000E-01 0. -1.
</event>
<event>
 5    1  0.3934322E-009  0.3883009E+03  0.7957747E-01  0.3415792E+00
         13   -1    0    0    0    0  0.00000000000E+00  0.00000000000E+00  0.14999999963E+04  0.15000000000E+04  0.10566000000E+00 0. -1.
        994   -1    0    0    0    0 -0.00000000000E+00 -0.00000000000E+00  0.11368683772E-12  0.17120000000E+03  0.17120000000E+03 0.  0.
         13    1    1    2    0    0 -0.86116046565E+02  0.96684067263E+02  0.62063357824E+03  0.63399513558E+03  0.10566000000E+00 0. -1.
        994    1    1    2    0    0  0.17176707876E+03 -0.19334161757E+03  0.26058867482E+03  0.40509357916E+03  0.17120000000E+03 0.  0.
        998    1    1    2    0    0 -0.85651032199E+02  0.96657550309E+02  0.61877774322E+03  0.63211128526E+03  0.10000000000E-01 0.  1.
</event>
<event>
 5    1  0.3934322E-009  0.3883008E+03  0.7957747E-01  0.3415792E+00
         13   -1    0    0    0    0  0.00000000000E+00  0.00000000000E+00  0.14999999963E+04  0.15000000000E+04  0.10566000000E+00 0.  1.
        994   -1    0    0    0    0 -0.00000000000E+00 -0.00000000000E+00  0.11368683772E-12  0.17120000000E+03  0.17120000000E+03 0.  0.
         13    1    1    2    0    0 -0.10015093536E+03  0.22043158869E+03  0.12761904910E+04  0.12989543778E+04  0.10566000000E+00 0.  1.
        994    1    1    2    0    0  0.10025562310E+03 -0.22067494957E+03  0.22246607617E+03  0.37087628446E+03  0.17120000000E+03 0.  0.
        998    1    1    2    0    0 -0.10468773836E+00  0.24336087949E+00  0.13434290673E+01  0.13693376863E+01  0.10000000000E-01 0.  0.
</event>
<event>
 5    1  0.4210074E-009  0.3882973E+03  0.7957747E-01  0.3415807E+00
         13   -1    0    0    0    0  0.00000000000E+00  0.00000000000E+00  0.14999999963E+04  0.15000000000E+04  0.10566000000E+00 0.  1.
        994   -1    0    0    0    0 -0.00000000000E+00 -0.00000000000E+00  0.11368683772E-12  0.17120000000E+03  0.17120000000E+03 0.  0.
         13    1    1    2    0    0 -0.12889065000E+03  0.20384215657E+03  0.12797831073E+04  0.13023091943E+04  0.10566000000E+00 0.  1.
        994    1    1    2    0    0  0.12888813373E+03 -0.20388338487E+03  0.21990479806E+03  0.36857583460E+03  0.17120000000E+03 0.  0.
        998    1    1    2    0    0  0.25162708879E-02  0.41228301818E-01  0.31209087899E+00  0.31497114350E+00  0.10000000000E-01 0. -1.
</event>
<event>
 5    1  0.3934322E-009  0.3882997E+03  0.7957747E-01  0.3415797E+00
         13   -1    0    0    0    0  0.00000000000E+00  0.00000000000E+00  0.14999999963E+04  0.15000000000E+04  0.10566000000E+00 0.  1.
        994   -1    0    0    0    0 -0.00000000000E+00 -0.00000000000E+00  0.11368683772E-12  0.17120000000E+03  0.17120000000E+03 0.  0.
         13    1    1    2    0    0 -0.90602027018E+02 -0.21696920455E+03  0.12779721161E+04  0.12994218344E+04  0.10566000000E+00 0.  1.
        994    1    1    2    0    0  0.91308755519E+02  0.21873992036E+03  0.21097270491E+03  0.36055979228E+03  0.17120000000E+03 0.  0.
        998    1    1    2    0    0 -0.70672850076E+00 -0.17707158126E+01  0.11055175247E+02  0.11218373296E+02  0.10000000000E-01 0. -1.
</event>
<event>
 5    1  0.3934322E-009  0.3883009E+03  0.7957747E-01  0.3415792E+00
         13   -1    0    0    0    0  0.00000000000E+00  0.00000000000E+00  0.14999999963E+04  0.15000000000E+04  0.10566000000E+00 0.  1.
        994   -1    0    0    0    0 -0.00000000000E+00 -0.00000000000E+00  0.11368683772E-12  0.17120000000E+03  0.17120000000E+03 0.  0.
         13    1    1    2    0    0 -0.19882734691E+03 -0.85304667515E+02  0.12782058422E+04  0.12963870511E+04  0.10566000000E+00 0.  1.
        994    1    1    2    0    0  0.20488094676E+03  0.87863759691E+02  0.18285531124E+03  0.33532334763E+03  0.17120000000E+03 0.  0.
        998    1    1    2    0    0 -0.60535998515E+01 -0.25590921758E+01  0.38938842840E+02  0.39489601234E+02  0.10000000000E-01 0.  1.
</event>
<event>
 5    1  0.3934322E-009  0.3883009E+03  0.7957747E-01  0.3415792E+00
         13   -1    0    0    0    0  0.00000000000E+00  0.00000000000E+00  0.14999999963E+04  0.15000000000E+04  0.10566000000E+00 0. -1.
        994   -1    0    0    0    0 -0.00000000000E+00 -0.00000000000E+00  0.11368683772E-12  0.17120000000E+03  0.17120000000E+03 0.  0.
         13    1    1    2    0    0 -0.15915812198E+03 -0.29109986249E+02  0.93013430443E+03  0.94410197253E+03  0.10566000000E+00 0. -1.
        994    1    1    2    0    0  0.22373895076E+03  0.41003312411E+02  0.19157088294E+03  0.34314608100E+03  0.17120000000E+03 0.  0.
        998    1    1    2    0    0 -0.64580828775E+02 -0.11893326162E+02  0.37829480891E+03  0.38395194647E+03  0.10000000000E-01 0. -1.
</event>
<event>
 5    1  0.3934322E-009  0.3874656E+03  0.7957747E-01  0.3419282E+00
         13   -1    0    0    0    0  0.00000000000E+00  0.00000000000E+00  0.14999999963E+04  0.15000000000E+04  0.10566000000E+00 0. -1.
        994   -1    0    0    0    0 -0.00000000000E+00 -0.00000000000E+00  0.11368683772E-12  0.17120000000E+03  0.17120000000E+03 0.  0.
         13    1    1    2    0    0 -0.21956163439E+03  0.71386171987E+01  0.12236223634E+04  0.12431854128E+04  0.10566000000E+00 0. -1.
        994    1    1    2    0    0  0.23422175648E+03  0.62891809515E+00  0.20627678497E+03  0.35597721664E+03  0.17120000000E+03 0.  0.
        998    1    1    2    0    0 -0.14660122094E+02 -0.77675352939E+01  0.70100847921E+02  0.72037370605E+02  0.10000000000E-01 0.  1.
</event>
<event>
 5    1  0.3934322E-009  0.3882808E+03  0.7957747E-01  0.3415876E+00
         13   -1    0    0    0    0  0.00000000000E+00  0.00000000000E+00  0.14999999963E+04  0.15000000000E+04  0.10566000000E+00 0.  1.
        994   -1    0    0    0    0 -0.00000000000E+00 -0.00000000000E+00  0.11368683772E-12  0.17120000000E+03  0.17120000000E+03 0.  0.
         13    1    1    2    0    0  0.20716496359E+03 -0.77720546956E+02  0.10871360590E+04  0.11094244578E+04  0.10566000000E+00 0.  1.
        994    1    1    2    0    0 -0.23893160307E+03  0.90793878868E+02  0.25313657613E+03  0.39839604109E+03  0.17120000000E+03 0.  0.
        998    1    1    2    0    0  0.31766639474E+02 -0.13073331911E+02  0.15972736112E+03  0.16337950111E+03  0.10000000000E-01 0. -1.
</event>
<event>
 5    1  0.3934322E-009  0.3882983E+03  0.7957747E-01  0.3415803E+00
         13   -1    0    0    0    0  0.00000000000E+00  0.00000000000E+00  0.14999999963E+04  0.15000000000E+04  0.10566000000E+00 0.  1.
        994   -1    0    0    0    0 -0.00000000000E+00 -0.00000000000E+00  0.11368683772E-12  0.17120000000E+03  0.17120000000E+03 0.  0.
         13    1    1    2    0    0  0.41552362141E+02 -0.23169382951E+03  0.12535418573E+04  0.12754512255E+04  0.10566000000E+00 0.  1.
        994    1    1    2    0    0 -0.42243742420E+02  0.23672381284E+03  0.21829225254E+03  0.36712892130E+03  0.17120000000E+03 0.  0.
        998    1    1    2    0    0  0.69138027820E+00 -0.50299833294E+01  0.28165886472E+02  0.28619853245E+02  0.10000000000E-01 0.  1.
</event>
<event>
 5    1  0.3934322E-009  0.3832435E+03  0.7957747E-01  0.3437156E+00
         13   -1    0    0    0    0  0.00000000000E+00  0.00000000000E+00  0.14999999963E+04  0.15000000000E+04  0.10566000000E+00 0. -1.
        994   -1    0    0    0    0 -0.00000000000E+00 -0.00000000000E+00  0.11368683772E-12  0.17120000000E+03  0.17120000000E+03 0.  0.
         13    1    1    2    0    0  0.82037680331E+01  0.38554798571E+02  0.12174408927E+03  0.12796643599E+03  0.10566000000E+00 0. -1.
        994    1    1    2    0    0 -0.10213554214E+03 -0.15329447117E+03  0.12426054668E+03  0.28050131429E+03  0.17120000000E+03 0.  0.
        998    1    1    2    0    0  0.93931774111E+02  0.11473967260E+03  0.12539953603E+04  0.12627322497E+04  0.10000000000E-01 0. -1.
</event>
<event>
 5    1  0.3934322E-009  0.3882932E+03  0.7957747E-01  0.3415824E+00
         13   -1    0    0    0    0  0.00000000000E+00  0.00000000000E+00  0.14999999963E+04  0.15000000000E+04  0.10566000000E+00 0.  1.
        994   -1    0    0    0    0 -0.00000000000E+00 -0.00000000000E+00  0.11368683772E-12  0.17120000000E+03  0.17120000000E+03 0.  0.
         13    1    1    2    0    0 -0.21275014959E+03  0.13968695467E+03  0.12494300248E+04  0.12750884164E+04  0.10566000000E+00 0.  1.
        994    1    1    2    0    0  0.21274966977E+03 -0.13971605121E+03  0.25049496059E+03  0.39603050670E+03  0.17120000000E+03 0.  0.
        998    1    1    2    0    0  0.47981266102E-03  0.29096548155E-01  0.75010844635E-01  0.81076915010E-01  0.10000000000E-01 0.  1.
</event>
<event>
 5    1  0.3934322E-009  0.3881953E+03  0.7957747E-01  0.3416233E+00
         13   -1    0    0    0    0  0.00000000000E+00  0.00000000000E+00  0.14999999963E+04  0.15000000000E+04  0.10566000000E+00 0.  1.
        994   -1    0    0    0    0 -0.00000000000E+00 -0.00000000000E+00  0.11368683772E-12  0.17120000000E+03  0.17120000000E+03 0.  0.
         13    1    1    2    0    0  0.82571132649E+02  0.21133470378E+03  0.13065536593E+04  0.13261081497E+04  0.10566000000E+00 0.  1.
        994    1    1    2    0    0 -0.82386677669E+02 -0.21199138556E+03  0.19165460358E+03  0.34317464837E+03  0.17120000000E+03 0.  0.
        998    1    1    2    0    0 -0.18445497953E+00  0.65668177505E+00  0.17917333824E+01  0.19172018952E+01  0.10000000000E-01 0.  1.
</event>
<event>
 5    1  0.3934322E-009  0.3882842E+03  0.7957747E-01  0.3415862E+00
         13   -1    0    0    0    0  0.00000000000E+00  0.00000000000E+00  0.14999999963E+04  0.15000000000E+04  0.10566000000E+00 0.  1.
        994   -1    0    0    0    0 -0.00000000000E+00 -0.00000000000E+00  0.11368683772E-12  0.17120000000E+03  0.17120000000E+03 0.  0.
         13    1    1    2    0    0  0.13989626101E+03  0.12517634865E+03  0.10938876241E+04  0.11098784741E+04  0.10566000000E+00 0.  1.
        994    1    1    2    0    0 -0.16598057037E+03 -0.15120627765E+03  0.18591778879E+03  0.33806471618E+03  0.17120000000E+03 0.  0.
        998    1    1    2    0    0  0.26084309358E+02  0.26029928999E+02  0.22019458341E+03  0.22325680967E+03  0.10000000000E-01 0. -1.
</event>
<event>
 5    1  0.3934322E-009  0.3883008E+03  0.7957747E-01  0.3415793E+00
         13   -1    0    0    0    0  0.00000000000E+00  0.00000000000E+00  0.14999999963E+04  0.15000000000E+04  0.10566000000E+00 0.  1.
        994   -1    0    0    0    0 -0.00000000000E+00 -0.00000000000E+00  0.11368683772E-12  0.17120000000E+03  0.17120000000E+03 0.  0.
         13    1    1    2    0    0 -0.25174885296E+03 -0.79070717939E+02  0.10530252204E+04  0.10855836169E+04  0.10566000000E+00 0.  1.
        994    1    1    2    0    0  0.27537921306E+03  0.86603750137E+02  0.34757256726E+03  0.48316668970E+03  0.17120000000E+03 0.  0.
        998    1    1    2    0    0 -0.23630360093E+02 -0.75330321983E+01  0.99402208625E+02  0.10244969337E+03  0.10000000000E-01 0.  1.
</event>
<event>
 5    1  0.3934322E-009  0.3883010E+03  0.7957747E-01  0.3415792E+00
         13   -1    0    0    0    0  0.00000000000E+00  0.00000000000E+00  0.14999999963E+04  0.15000000000E+04  0.10566000000E+00 0. -1.
        994   -1    0    0    0    0 -0.00000000000E+00 -0.00000000000E+00  0.11368683772E-12  0.17120000000E+03  0.17120000000E+03 0.  0.
         13    1    1    2    0    0 -0.13417893752E+03  0.14556690969E+03  0.11543135383E+04  0.11711675663E+04  0.10566000000E+00 0. -1.
        994    1    1    2    0    0  0.15264970000E+03 -0.16557734029E+03  0.18719506656E+03  0.33921854235E+03  0.17120000000E+03 0.  0.
        998    1    1    2    0    0 -0.18470762480E+02  0.20010430602E+02  0.15849139146E+03  0.16081389140E+03  0.10000000000E-01 0. -1.
</event>
<event>
 5    1  0.3934322E-009  0.3846492E+03  0.7957747E-01  0.3431161E+00
         13   -1    0    0    0    0  0.00000000000E+00  0.00000000000E+00  0.14999999963E+04  0.15000000000E+04  0.10566000000E+00 0.  1.
        994   -1    0    0    0    0 -0.00000000000E+00 -0.00000000000E+00  0.11368683772E-12  0.17120000000E+03  0.17120000000E+03 0.  0.
         13    1    1    2    0    0  0.11769327892E+02 -0.12939603591E+02  0.51727845682E+02  0.54605234209E+02  0.10566000000E+00 0.  1.
        994    1    1    2    0    0 -0.13256199753E+03  0.25327008362E+02  0.64269302599E+02  0.22727543597E+03  0.17120000000E+03 0.  0.
        998    1    1    2    0    0  0.12079266963E+03 -0.12387404771E+02  0.13840028480E+04  0.13893193298E+04  0.10000000000E-01 0.  1.
</event>
<event>
 5    1  0.3934322E-009  0.3882982E+03  0.7957747E-01  0.3415803E+00
         13   -1    0    0    0    0  0.00000000000E+00  0.00000000000E+00  0.14999999963E+04  0.15000000000E+04  0.10566000000E+00 0. -1.
        994   -1    0    0    0    0 -0.00000000000E+00 -0.00000000000E+00  0.11368683772E-12  0.17120000000E+03  0.17120000000E+03 0.  0.
         13    1    1    2    0    0 -0.31315481878E+03 -0.46510927341E+01  0.10234850456E+04  0.10703313613E+04  0.10566000000E+00 0. -1.
        994    1    1    2    0    0  0.31715695880E+03  0.48960140450E+01  0.46295095618E+03  0.58672441171E+03  0.17120000000E+03 0.  0.
        998    1    1    2    0    0 -0.40021400238E+01 -0.24492131083E+00  0.13563994468E+02  0.14144226990E+02  0.10000000000E-01 0.  1.
</event>
<event>
 5    1  0.3934322E-009  0.3882953E+03  0.7957747E-01  0.3415816E+00
         13   -1    0    0    0    0  0.00000000000E+00  0.00000000000E+00  0.14999999963E+04  0.15000000000E+04  0.10566000000E+00 0. -1.
        994   -1    0    0    0    0 -0.00000000000E+00 -0.00000000000E+00  0.11368683772E-12  0.17120000000E+03  0.17120000000E+03 0.  0.
         13    1    1    2    0    0  0.21711689304E+03  0.87149392440E+02  0.12722601751E+04  0.12935921792E+04  0.10566000000E+00 0. -1.
        994    1    1    2    0    0 -0.22001971883E+03 -0.87974570607E+02  0.21081804509E+03  0.36041904761E+03  0.17120000000E+03 0.  0.
        998    1    1    2    0    0  0.29028257891E+01  0.82517816675E+00  0.16921776120E+02  0.17188773186E+02  0.10000000000E-01 0.  1.
</event>
<event>
 5    1  0.3934322E-009  0.3882946E+03  0.7957747E-01  0.3415818E+00
         13   -1    0    0    0    0  0.00000000000E+00  0.00000000000E+00  0.14999999963E+04  0.15000000000E+04  0.10566000000E+00 0.  1.
        994   -1    0    0    0    0 -0.00000000000E+00 -0.00000000000E+00  0.11368683772E-12  0.17120000000E+03  0.17120000000E+03 0.  0.
         13    1    1    2    0    0  0.94173092401E+02  0.28251005150E+03  0.11191464650E+04  0.11580886502E+04  0.10566000000E+00 0.  1.
        994    1    1    2    0    0 -0.94159953494E+02 -0.28266844175E+03  0.38035709441E+03  0.51258999607E+03  0.17120000000E+03 0.  0.
        998    1    1    2    0    0 -0.13138907175E-01  0.15839025047E+00  0.49643688839E+00  0.52135370573E+00  0.10000000000E-01 0. -1.
</event>
<event>
 5    1  0.3934322E-009  0.3760035E+03  0.7957747E-01  0.3468747E+00
         13   -1    0    0    0    0  0.00000000000E+00  0.00000000000E+00  0.14999999963E+04  0.15000000000E+04  0.10566000000E+00 0.  1.
        994   -1    0    0    0    0 -0.00000000000E+00 -0.00000000000E+00  0.11368683772E-12  0.17120000000E+03  0.17120000000E+03 0.  0.
         13    1    1    2    0    0  0.65275184083E+02  0.12677324751E+03  0.75852293852E+03  0.77180915088E+03  0.10566000000E+00 0.  1.
        994    1    1    2    0    0 -0.12067794376E+01 -0.19536868063E+03  0.14888304258E+03  0.29940938204E+03  0.17120000000E+03 0.  0.
        998    1    1    2    0    0 -0.64068404646E+02  0.68595433118E+02  0.59259401518E+03  0.59998146708E+03  0.10000000000E-01 0. -1.
</event>
<event>
 5    1  0.3934322E-009  0.3882007E+03  0.7957747E-01  0.3416210E+00
         13   -1    0    0    0    0  0.00000000000E+00  0.00000000000E+00  0.14999999963E+04  0.15000000000E+04  0.10566000000E+00 0. -1.
        994   -1    0    0    0    0 -0.00000000000E+00 -0.00000000000E+00  0.11368683772E-12  0.17120000000E+03  0.17120000000E+03 0.  0.
         13    1    1    2    0    0  0.16364377501E+03 -0.18062426117E+03  0.10077424386E+04  0.10367975899E+04  0.10566000000E+00 0. -1.
        994    1    1    2    0    0 -0.19333273299E+03  0.20618310732E+03  0.32822815811E+03  0.46575979128E+03  0.17120000000E+03 0.  0.
        998    1    1    2    0    0  0.29688957983E+02 -0.25558846152E+02  0.16402939958E+03  0.16864261878E+03  0.10000000000E-01 0. -1.
</event>
<event>
 5    1  0.3934322E-009  0.3871252E+03  0.7957747E-01  0.3420709E+00
         13   -1    0    0    0    0  0.00000000000E+00  0.00000000000E+00  0.14999999963E+04  0.15000000000E+04  0.10566000000E+00 0. -1.
        994   -1    0    0    0    0 -0.00000000000E+00 -0.00000000000E+00  0.11368683772E-12  0.17120000000E+03  0.17120000000E+03 0.  0.
         13    1    1    2    0    0 -0.10799348728E+02 -0.15871412446E+01  0.65197126539E+02  0.66104624825E+02  0.10566000000E+00 0. -1.
        994    1    1    2    0    0  0.58934951091E+02 -0.18880448190E+02  0.13188409419E+02  0.18251896868E+03  0.17120000000E+03 0.  0.
        998    1    1    2    0    0 -0.48135602363E+02  0.20467589435E+02  0.14216144603E+04  0.14225764065E+04  0.10000000000E-01 0. -1.
</event>
<event>
 5    1  0.3934322E-009  0.3883009E+03  0.7957747E-01  0.3415792E+00
         13   -1    0    0    0    0  0.00000000000E+00  0.00000000000E+00  0.14999999963E+04  0.15000000000E+04  0.10566000000E+00 0. -1.
        994   -1    0    0    0    0 -0.00000000000E+00 -0.00000000000E+00  0.11368683772E-12  0.17120000000E+03  0.17120000000E+03 0.  0.
         13    1    1    2    0    0  0.15506204979E+02 -0.22848305847E+03  0.12962207252E+04  0.13162952291E+04  0.10566000000E+00 0. -1.
        994    1    1    2    0    0 -0.15584606961E+02  0.22965874304E+03  0.19694467761E+03  0.34796934387E+03  0.17120000000E+03 0.  0.
        998    1    1    2    0    0  0.78401982435E-01 -0.11756845772E+01  0.68345934480E+01  0.69354270738E+01  0.10000000000E-01 0.  1.
</event>
<event>
 5    1  0.3934322E-009  0.3883009E+03  0.7957747E-01  0.3415792E+00
         13   -1    0    0    0    0  0.00000000000E+00  0.00000000000E+00  0.14999999963E+04  0.15000000000E+04  0.10566000000E+00 0. -1.
        994   -1    0    0    0    0 -0.00000000000E+00 -0.00000000000E+00  0.11368683772E-12  0.17120000000E+03  0.17120000000E+03 0.  0.
         13    1    1    2    0    0  0.10711315469E+03 -0.19388538455E+03  0.13144108457E+04  0.13329443547E+04  0.10566000000E+00 0. -1.
        994    1    1    2    0    0 -0.10744037791E+03  0.19450222962E+03  0.18149512589E+03  0.33410248855E+03  0.17120000000E+03 0.  0.
        998    1    1    2    0    0  0.32722322668E+00 -0.61684507417E+00  0.40940247333E+01  0.41531567996E+01  0.10000000000E-01 0. -1.
</event>
<event>
 5    1  0.3934322E-009  0.3815886E+03  0.7957747E-01  0.3444271E+00
         13   -1    0    0    0    0  0.00000000000E+00  0.00000000000E+00  0.14999999963E+04  0.15000000000E+04  0.10566000000E+00 0.  1.
        994   -1    0    0    0    0 -0.00000000000E+00 -0.00000000000E+00  0.11368683772E-12  0.17120000000E+03  0.17120000000E+03 0.  0.
         13    1    1    2    0    0  0.30593459524E+02 -0.21764562320E+02  0.43182583974E+02  0.57222396502E+02  0.10566000000E+00 0.  1.
        994    1    1    2    0    0  0.17262939183E+03  0.69977912800E+02  0.15757844614E+03  0.29805741375E+03  0.17120000000E+03 0.  0.
        998    1    1    2    0    0 -0.20322285136E+03 -0.48213350480E+02  0.12992389662E+04  0.13159201897E+04  0.10000000000E-01 0.  1.
</event>
<event>
 5    1  0.3934322E-009  0.3880750E+03  0.7957747E-01  0.3416734E+00
         13   -1    0    0    0    0  0.00000000000E+00  0.00000000000E+00  0.14999999963E+04  0.15000000000E+04  0.10566000000E+00 0.  1.
        994   -1    0    0    0    0 -0.00000000000E+00 -0.00000000000E+00  0.11368683772E-12  0.17120000000E+03  0.17120000000E+03 0.  0.
         13    1    1    2    0    0  0.51525798021E+02 -0.32366333727E+02  0.23360406127E+03  0.24139874902E+03  0.10566000000E+00 0.  1.
        994    1    1    2    0    0 -0.23788117756E+03  0.13764083310E+03  0.30484220689E+03  0.44471413815E+03  0.17120000000E+03 0.  0.
        998    1    1    2    0    0  0.18635537954E+03 -0.10527449937E+03  0.96155372812E+03  0.98508711283E+03  0.10000000000E-01 0.  1.
</event>
<event>
 5    1  0.3934322E-009  0.3881911E+03  0.7957747E-01  0.3416250E+00
         13   -1    0    0    0    0  0.00000000000E+00  0.00000000000E+00  0.14999999963E+04  0.15000000000E+04  0.10566000000E+00 0.  1.
        994   -1    0    0    0    0 -0.00000000000E+00 -0.00000000000E+00  0.11368683772E-12  0.17120000000E+03  0.17120000000E+03 0.  0.
         13    1    1    2    0    0 -0.18931690079E+03 -0.93904037567E+02  0.11763402079E+04  0.11951715998E+04  0.10566000000E+00 0.  1.
        994    1    1    2    0    0  0.20638771490E+03  0.10147002018E+03  0.19668338916E+03  0.34768642399E+03  0.17120000000E+03 0.  0.
        998    1    1    2    0    0 -0.17070814109E+02 -0.75659826115E+01  0.12697639925E+03  0.12834197619E+03  0.10000000000E-01 0.  1.
</event>
<event>
 5    1  0.3934322E-009  0.3883008E+03  0.7957747E-01  0.3415792E+00
         13   -1    0    0    0    0  0.00000000000E+00  0.00000000000E+00  0.14999999963E+04  0.15000000000E+04  0.10566000000E+00 0. -1.
        994   -1    0    0    0    0 -0.00000000000E+00 -0.00000000000E+00  0.11368683772E-12  0.17120000000E+03  0.17120000000E+03 0.  0.
         13    1    1    2    0    0  0.21384343600E+03 -0.46260354120E+02  0.13181673412E+04  0.13362014017E+04  0.10566000000E+00 0. -1.
        994    1    1    2    0    0 -0.21465410610E+03  0.46428995151E+02  0.17668861363E+03  0.32978833066E+03  0.17120000000E+03 0.  0.
        998    1    1    2    0    0  0.81067009982E+00 -0.16864103053E+00  0.51440414774E+01  0.52102676063E+01  0.10000000000E-01 0. -1.
</event>
<event>
 5    1  0.3934322E-009  0.3882034E+03  0.7957747E-01  0.3416199E+00
         13   -1    0    0    0    0  0.00000000000E+00  0.00000000000E+00  0.14999999963E+04  0.15000000000E+04  0.10566000000E+00 0.  1.
        994   -1    0    0    0    0 -0.00000000000E+00 -0.00000000000E+00  0.11368683772E-12  0.17120000000E+03  0.17120000000E+03 0.  0.
         13    1    1    2    0    0 -0.17990251608E+03 -0.18197154385E+03  0.12257798243E+04  0.12522039558E+04  0.10566000000E+00 0.  1.
        994    1    1    2    0    0  0.18095558891E+03  0.18365209068E+03  0.25876079083E+03  0.40340996820E+03  0.17120000000E+03 0.  0.
        998    1    1    2    0    0 -0.10530728361E+01 -0.16805468305E+01  0.15459381174E+02  0.15586076040E+02  0.10000000000E-01 0. -1.
</event>
<event>
 5    1  0.3934322E-009  0.3883008E+03  0.7957747E-01  0.3415793E+00
         13   -1    0    0    0    0  0.00000000000E+00  0.00000000000E+00  0.14999999963E+04  0.15000000000E+04  0.10566000000E+00 0.  1.
        994   -1    0    0    0    0 -0.00000000000E+00 -0.00000000000E+00  0.11368683772E-12  0.17120000000E+03  0.17120000000E+03 0.  0.
         13    1    1    2    0    0  0.59715248160E+02 -0.21142466446E+03  0.11839165397E+04  0.12041281841E+04  0.10566000000E+00 0.  1.
        994    1    1    2    0    0 -0.64727760753E+02  0.22968713735E+03  0.21436056228E+03  0.36360109287E+03  0.17120000000E+03 0.  0.
        998    1    1    2    0    0  0.50125125928E+01 -0.18262472889E+02  0.10172289427E+03  0.10347072299E+03  0.10000000000E-01 0. -1.
</event>
<event>
 5    1  0.3934322E-009  0.3882805E+03  0.7957747E-01  0.3415877E+00
         13   -1    0    0    0    0  0.00000000000E+00  0.00000000000E+00  0.14999999963E+04  0.15000000000E+04  0.10566000000E+00 0. -1.
        994   -1    0    0    0    0 -0.00000000000E+00 -0.00000000000E+00  0.11368683772E-12  0.17120000000E+03  0.17120000000E+03 0.  0.
         13    1    1    2    0    0  0.18262397051E+02 -0.16712378245E+02  0.13072003796E+03  0.13304344486E+03  0.10566000000E+00 0. -1.
        994    1    1    2    0    0 -0.19111454301E+03  0.16465451674E+03  0.24507888849E+03  0.39116362307E+03  0.17120000000E+03 0.  0.
        998    1    1    2    0    0  0.17285214596E+03 -0.14794213849E+03  0.11242010698E+04  0.11469929321E+04  0.10000000000E-01 0. -1.
</event>
<event>
 5    1  0.3934322E-009  0.3883010E+03  0.7957747E-01  0.3415792E+00
         13   -1    0    0    0    0  0.00000000000E+00  0.00000000000E+00  0.14999999963E+04  0.15000000000E+04  0.10566000000E+00 0.  1.
        994   -1    0    0    0    0 -0.00000000000E+00 -0.00000000000E+00  0.11368683772E-12  0.17120000000E+03  0.17120000000E+03 0.  0.
         13    1    1    2    0    0  0.18432547523E+03  0.12033059975E+03  0.12149096416E+04  0.12346905614E+04  0.10566000000E+00 0.  1.
        994    1    1    2    0    0 -0.19634297736E+03 -0.12817488774E+03  0.20564665467E+03  0.35577992240E+03  0.17120000000E+03 0.  0.
        998    1    1    2    0    0  0.12017502126E+02  0.78442879819E+01  0.79443700027E+02  0.80729516196E+02  0.10000000000E-01 0.  1.
</event>
<event>
 5    1  0.3934322E-009  0.3883009E+03  0.7957747E-01  0.3415792E+00
         13   -1    0    0    0    0  0.00000000000E+00  0.00000000000E+00  0.14999999963E+04  0.15000000000E+04  0.10566000000E+00 0.  1.
        994   -1    0    0    0    0 -0.00000000000E+00 -0.00000000000E+00  0.11368683772E-12  0.17120000000E+03  0.17120000000E+03 0.  0.
         13    1    1    2    0    0  0.15660472131E+03  0.15385574339E+03  0.11832893813E+04  0.12034826129E+04  0.10566000000E+00 0.  1.
        994    1    1    2    0    0 -0.17023427893E+03 -0.16713516904E+03  0.21421756962E+03  0.36347280722E+03  0.17120000000E+03 0.  0.
        998    1    1    2    0    0  0.13629557620E+02  0.13279425650E+02  0.10249304533E+03  0.10424457985E+03  0.10000000000E-01 0. -1.
</event>
<event>
 5    1  0.3934322E-009  0.3882953E+03  0.7957747E-01  0.3415816E+00
         13   -1    0    0    0    0  0.00000000000E+00  0.00000000000E+00  0.14999999963E+04  0.15000000000E+04  0.10566000000E+00 0.  1.
        994   -1    0    0    0    0 -0.00000000000E+00 -0.00000000000E+00  0.11368683772E-12  0.17120000000E+03  0.17120000000E+03 0.  0.
         13    1    1    2    0    0 -0.20521476894E+03  0.18161967194E+03  0.11935151856E+04  0.12245722992E+04  0.10566000000E+00 0.  1.
        994    1    1    2    0    0  0.20559814234E+03 -0.18196902100E+03  0.30359636698E+03  0.44369304117E+03  0.17120000000E+03 0.  0.
        998    1    1    2    0    0 -0.38337340041E+00  0.34934906138E+00  0.28884437440E+01  0.29346596383E+01  0.10000000000E-01 0.  1.
</event>
<event>
 5    1  0.3934322E-009  0.3804450E+03  0.7957747E-01  0.3449223E+00
         13   -1    0    0    0    0  0.00000000000E+00  0.00000000000E+00  0.14999999963E+04  0.15000000000E+04  0.10566000000E+00 0.  1.
        994   -1    0    0    0    0 -0.00000000000E+00 -0.00000000000E+00  0.11368683772E-12  0.17120000000E+03  0.17120000000E+03 0.  0.
         13    1    1    2    0    0 -0.12520118837E+02 -0.20252393008E+02  0.95389031364E+02  0.98315773235E+02  0.10566000000E+00 0.  1.
        994    1    1    2    0    0 -0.11156267703E+03  0.34694400689E+02  0.50904269978E+02  0.21342590529E+03  0.17120000000E+03 0.  0.
        998    1    1    2    0    0  0.12408279587E+03 -0.14442007682E+02  0.13537066949E+04  0.13594583215E+04  0.10000000000E-01 0.  1.
</event>
<event>
 5    1  0.3934322E-009  0.3883009E+03  0.7957747E-01  0.3415792E+00
         13   -1    0    0    0    0  0.00000000000E+00  0.00000000000E+00  0.14999999963E+04  0.15000000000E+04  0.10566000000E+00 0. -1.
        994   -1    0    0    0    0 -0.00000000000E+00 -0.00000000000E+00  0.11368683772E-12  0.17120000000E+03  0.17120000000E+03 0.  0.
         13    1    1    2    0    0 -0.16002307720E+03  0.27892175168E+03  0.10073822523E+04  0.10574609885E+04  0.10566000000E+00 0. -1.
        994    1    1    2    0    0  0.16043464692E+03 -0.27961510674E+03  0.49006682688E+03  0.61106367807E+03  0.17120000000E+03 0.  0.
        998    1    1    2    0    0 -0.41156971926E+00  0.69335506283E+00  0.25509171132E+01  0.26753334363E+01  0.10000000000E-01 0.  1.
</event>
<event>
 5    1  0.3934322E-009  0.3880294E+03  0.7957747E-01  0.3416925E+00
         13   -1    0    0    0    0  0.00000000000E+00  0.00000000000E+00  0.14999999963E+04  0.15000000000E+04  0.10566000000E+00 0. -1.
        994   -1    0    0    0    0 -0.00000000000E+00 -0.00000000000E+00  0.11368683772E-12  0.17120000000E+03  0.17120000000E+03 0.  0.
         13    1    1    2    0    0  0.31819377671E+03 -0.11368774514E+03  0.89895978400E+03  0.96036497612E+03  0.10566000000E+00 0. -1.
        994    1    1    2    0    0 -0.31851491595E+03  0.11361633708E+03  0.60093830949E+03  0.71049047534E+03  0.17120000000E+03 0.  0.
        998    1    1    2    0    0  0.32113924098E+00  0.71408060718E-01  0.10190279042E+00  0.34454854799E+00  0.10000000000E-01 0. -1.
</event>
<event>
 5    1  0.3934322E-009  0.3883010E+03  0.7957747E-01  0.3415792E+00
         13   -1    0    0    0    0  0.00000000000E+00  0.00000000000E+00  0.14999999963E+04  0.15000000000E+04  0.10566000000E+00 0.  1.
        994   -1    0    0    0    0 -0.00000000000E+00 -0.00000000000E+00  0.11368683772E-12  0.17120000000E+03  0.17120000000E+03 0.  0.
         13    1    1    2    0    0  0.25176270532E+03  0.10668664663E+03  0.10586081976E+04  0.10933516487E+04  0.10566000000E+00 0.  1.
        994    1    1    2    0    0 -0.27016756570E+03 -0.11448257162E+03  0.36391864144E+03  0.49783831747E+03  0.17120000000E+03 0.  0.
        998    1    1    2    0    0  0.18404860381E+02  0.77959249889E+01  0.77473157213E+02  0.80010033874E+02  0.10000000000E-01 0.  1.
</event>
<event>
 5    1  0.3934322E-009  0.3882626E+03  0.7957747E-01  0.3415952E+00
         13   -1    0    0    0    0  0.00000000000E+00  0.00000000000E+00  0.14999999963E+04  0.15000000000E+04  0.10566000000E+00 0.  1.
        994   -1    0    0    0    0 -0.00000000000E+00 -0.00000000000E+00  0.11368683772E-12  0.17120000000E+03  0.17120000000E+03 0.  0.
         13    1    1    2    0    0  0.29826003526E+03  0.94221157719E+01  0.11133103774E+04  0.11526091412E+04  0.10566000000E+00 0.  1.
        994    1    1    2    0    0 -0.29866277574E+03 -0.93909992241E+01  0.38372423759E+03  0.51559807505E+03  0.17120000000E+03 0.  0.
        998    1    1    2    0    0  0.40274047962E+00 -0.31116547746E-01  0.29653813010E+01  0.29927837198E+01  0.10000000000E-01 0.  1.
</event>
<event>
 5    1  0.3934322E-009  0.3882603E+03  0.7957747E-01  0.3415962E+00
         13   -1    0    0    0    0  0.00000000000E+00  0.00000000000E+00  0.14999999963E+04  0.15000000000E+04  0.10566000000E+00 0. -1.
        994   -1    0    0    0    0 -0.00000000000E+00 -0.00000000000E+00  0.11368683772E-12  0.17120000000E+03  0.17120000000E+03 0.  0.
         13    1    1    2    0    0 -0.15841239874E+03  0.21529063926E+03  0.10161015410E+04  0.10506697389E+04  0.10566000000E+00 0. -1.
        994    1    1    2    0    0  0.17643824216E+03 -0.23671226107E+03  0.37050866592E+03  0.50373530684E+03  0.17120000000E+03 0.  0.
        998    1    1    2    0    0 -0.18025843420E+02  0.21421621810E+02  0.11338978937E+03  0.11679495428E+03  0.10000000000E-01 0. -1.
</event>
<event>
 5    1  0.3934322E-009  0.3882267E+03  0.7957747E-01  0.3416101E+00
         13   -1    0    0    0    0  0.00000000000E+00  0.00000000000E+00  0.14999999963E+04  0.15000000000E+04  0.10566000000E+00 0. -1.
        994   -1    0    0    0    0 -0.00000000000E+00 -0.00000000000E+00  0.11368683772E-12  0.17120000000E+03  0.17120000000E+03 0.  0.
         13    1    1    2    0    0  0.23543208832E+03  0.10288432728E+03  0.10534606838E+04  0.10843398344E+04  0.10566000000E+00 0. -1.
        994    1    1    2    0    0 -0.25830271685E+03 -0.11527240060E+03  0.32883132768E+03  0.46631266543E+03  0.17120000000E+03 0.  0.
        998    1    1    2    0    0  0.22870628537E+02  0.12388073320E+02  0.11770798482E+03  0.12054750018E+03  0.10000000000E-01 0. -1.
</event>
<event>
 5    1  0.3934322E-009  0.3883008E+03  0.7957747E-01  0.3415793E+00
         13   -1    0    0    0    0  0.00000000000E+00  0.00000000000E+00  0.14999999963E+04  0.15000000000E+04  0.10566000000E+00 0. -1.
        994   -1    0    0    0    0 -0.00000000000E+00 -0.00000000000E+00  0.11368683772E-12  0.17120000000E+03  0.17120000000E+03 0.  0.
         13    1    1    2    0    0  0.17903793144E+03  0.19644086656E+03  0.11630614660E+04  0.11930446680E+04  0.10566000000E+00 0. -1.
        994    1    1    2    0    0 -0.18447135494E+03 -0.20235506514E+03  0.30144454854E+03  0.44176408752E+03  0.17120000000E+03 0.  0.
        998    1    1    2    0    0  0.54334235069E+01  0.59141985766E+01  0.35493981717E+02  0.36391244468E+02  0.10000000000E-01 0.  1.
</event>
<event>
 5    1  0.3934322E-009  0.3881112E+03  0.7957747E-01  0.3416583E+00
         13   -1    0    0    0    0  0.00000000000E+00  0.00000000000E+00  0.14999999963E+04  0.15000000000E+04  0.10566000000E+00 0. -1.
        994   -1    0    0    0    0 -0.00000000000E+00 -0.00000000000E+00  0.11368683772E-12  0.17120000000E+03  0.17120000000E+03 0.  0.
         13    1    1    2    0    0  0.14743903901E+03  0.17378861862E+03  0.11646375755E+04  0.11867272001E+04  0.10566000000E+00 0. -1.
        994    1    1    2    0    0 -0.15912753136E+03 -0.18524363251E+03  0.22678799241E+03  0.37467186727E+03  0.17120000000E+03 0.  0.
        998    1    1    2    0    0  0.11688492346E+02  0.11455013894E+02  0.10857442839E+03  0.10980093259E+03  0.10000000000E-01 0. -1.
</event>
<event>
 5    1  0.3934322E-009  0.3883009E+03  0.7957747E-01  0.3415792E+00
         13   -1    0    0    0    0  0.00000000000E+00  0.00000000000E+00  0.14999999963E+04  0.15000000000E+04  0.10566000000E+00 0.  1.
        994   -1    0    0    0    0 -0.00000000000E+00 -0.00000000000E+00  0.11368683772E-12  0.17120000000E+03  0.17120000000E+03 0.  0.
         13    1    1    2    0    0 -0.17439970356E+03 -0.19625083066E+03  0.12208477089E+04  0.12487588977E+04  0.10566000000E+00 0.  1.
        994    1    1    2    0    0  0.17519426703E+03  0.19712640035E+03  0.27369620521E+03  0.41685837122E+03  0.17120000000E+03 0.  0.
        998    1    1    2    0    0 -0.79456347483E+00 -0.87556969030E+00  0.54560821441E+01  0.55827310307E+01  0.10000000000E-01 0.  0.
</event>
<event>
 5    1  0.3934322E-009  0.3883006E+03  0.7957747E-01  0.3415793E+00
         13   -1    0    0    0    0  0.00000000000E+00  0.00000000000E+00  0.14999999963E+04  0.15000000000E+04  0.10566000000E+00 0. -1.
        994   -1    0    0    0    0 -0.00000000000E+00 -0.00000000000E+00  0.11368683772E-12  0.17120000000E+03  0.17120000000E+03 0.  0.
         13    1    1    2    0    0 -0.73955315660E+01  0.18419169870E+02  0.85936611039E+02  0.88199047539E+02  0.10566000000E+00 0.  1.
        994    1    1    2    0    0  0.10105203042E+03 -0.25714426363E+03  0.30863741961E+03  0.44822001512E+03  0.17120000000E+03 0.  0.
        998    1    1    2    0    0 -0.93656498856E+02  0.23872509376E+03  0.11054259656E+04  0.11347809373E+04  0.10000000000E-01 0. -1.
</event>
<event>
 5    1  0.3934322E-009  0.3882969E+03  0.7957747E-01  0.3415809E+00
         13   -1    0    0    0    0  0.00000000000E+00  0.00000000000E+00  0.14999999963E+04  0.15000000000E+04  0.10566000000E+00 0. -1.
        994   -1    0    0    0    0 -0.00000000000E+00 -0.00000000000E+00  0.11368683772E-12  0.17120000000E+03  0.17120000000E+03 0.  0.
         13    1    1    2    0    0 -0.16303542544E+03 -0.97597333106E+02  0.10752193979E+04  0.10918802838E+04  0.10566000000E+00 0. -1.
        994    1    1    2    0    0  0.19824868218E+03  0.11876069571E+03  0.19877563768E+03  0.34961097948E+03  0.17120000000E+03 0.  0.
        998    1    1    2    0    0 -0.35213256739E+02 -0.21163362602E+02  0.22600496069E+03  0.22970873672E+03  0.10000000000E-01 0. -1.
</event>
<event>
 5    1  0.3934322E-009  0.3883010E+03  0.7957747E-01  0.3415792E+00
         13   -1    0    0    0    0  0.00000000000E+00  0.00000000000E+00  0.14999999963E+04  0.15000000000E+04  0.10566000000E+00 0. -1.
        994   -1    0    0    0    0 -0.00000000000E+00 -0.00000000000E+00  0.11368683772E-12  0.17120000000E+03  0.17120000000E+03 0.  0.
         13    1    1    2    0    0  0.27407113329E+03 -0.19495879038E+02  0.23670052620E+03  0.36265993116E+03  0.10566000000E+00 0. -1.
        994    1    1    2    0    0 -0.28037217126E+03  0.19944599466E+02  0.12578630745E+04  0.13002058666E+04  0.17120000000E+03 0.  0.
        998    1    1    2    0    0  0.63010379748E+01 -0.44872042841E+00  0.54363956210E+01  0.83342022372E+01  0.10000000000E-01 0.  0.
</event>
<event>
 5    1  0.3934322E-009  0.3819479E+03  0.7957747E-01  0.3442721E+00
         13   -1    0    0    0    0  0.00000000000E+00  0.00000000000E+00  0.14999999963E+04  0.15000000000E+04  0.10566000000E+00 0. -1.
        994   -1    0    0    0    0 -0.00000000000E+00 -0.00000000000E+00  0.11368683772E-12  0.17120000000E+03  0.17120000000E+03 0.  0.
         13    1    1    2    0    0 -0.20302930863E+03  0.13382823235E+02  0.11495090890E+04  0.11673778981E+04  0.10566000000E+00 0. -1.
        994    1    1    2    0    0  0.22549913853E+03  0.19926617445E+02  0.19784196490E+03  0.34597371957E+03  0.17120000000E+03 0.  0.
        998    1    1    2    0    0 -0.22469829900E+02 -0.33309440680E+02  0.15264894237E+03  0.15784838232E+03  0.10000000000E-01 0. -1.
</event>
<event>
 5    1  0.3934322E-009  0.3857233E+03  0.7957747E-01  0.3426610E+00
         13   -1    0    0    0    0  0.00000000000E+00  0.00000000000E+00  0.14999999963E+04  0.15000000000E+04  0.10566000000E+00 0. -1.
        994   -1    0    0    0    0 -0.00000000000E+00 -0.00000000000E+00  0.11368683772E-12  0.17120000000E+03  0.17120000000E+03 0.  0.
         13    1    1    2    0    0  0.18410351558E+03  0.74960310876E+02  0.89917073367E+03  0.92088065030E+03  0.10566000000E+00 0. -1.
        994    1    1    2    0    0 -0.26636740890E+03 -0.72750601480E+02  0.31366636201E+03  0.45159746810E+03  0.17120000000E+03 0.  0.
        998    1    1    2    0    0  0.82263893326E+02 -0.22097093963E+01  0.28716290060E+03  0.29872188160E+03  0.10000000000E-01 0. -1.
</event>
<event>
 5    1  0.3934322E-009  0.3882999E+03  0.7957747E-01  0.3415797E+00
         13   -1    0    0    0    0  0.00000000000E+00  0.00000000000E+00  0.14999999963E+04  0.15000000000E+04  0.10566000000E+00 0.  1.
        994   -1    0    0    0    0 -0.00000000000E+00 -0.00000000000E+00  0.11368683772E-12  0.17120000000E+03  0.17120000000E+03 0.  0.
         13    1    1    2    0    0  0.21284193338E+03  0.36471952216E+02  0.11766880528E+04  0.11963388637E+04  0.10566000000E+00 0.  1.
        994    1    1    2    0    0 -0.23354075236E+03 -0.40148104059E+02  0.21083355436E+03  0.36043498848E+03  0.17120000000E+03 0.  0.
        998    1    1    2    0    0  0.20698818979E+02  0.36761518422E+01  0.11247838908E+03  0.11442614784E+03  0.10000000000E-01 0.  1.
</event>
<event>
 5    1  0.3934322E-009  0.3883010E+03  0.7957747E-01  0.3415792E+00
         13   -1    0    0    0    0  0.00000000000E+00  0.00000000000E+00  0.14999999963E+04  0.15000000000E+04  0.10566000000E+00 0.  1.
        994   -1    0    0    0    0 -0.00000000000E+00 -0.00000000000E+00  0.11368683772E-12  0.17120000000E+03  0.17120000000E+03 0.  0.
         13    1    1    2    0    0  0.13368883893E+03 -0.17381048632E+03  0.12397376400E+04  0.12589806265E+04  0.10566000000E+00 0.  1.
        994    1    1    2    0    0 -0.14044384493E+03  0.18263302459E+03  0.19734889640E+03  0.34833220087E+03  0.17120000000E+03 0.  0.
        998    1    1    2    0    0  0.67550060021E+01 -0.88225382717E+01  0.62913459900E+02  0.63887172611E+02  0.10000000000E-01 0.  1.
</event>
<event>
 5    1  0.3934322E-009  0.3883008E+03  0.7957747E-01  0.3415793E+00
         13   -1    0    0    0    0  0.00000000000E+00  0.00000000000E+00  0.14999999963E+04  0.15000000000E+04  0.10566000000E+00 0. -1.
        994   -1    0    0    0    0 -0.00000000000E+00 -0.00000000000E+00  0.11368683772E-12  0.17120000000E+03  0.17120000000E+03 0.  0.
         13    1    1    2    0    0 -0.20040296863E+03  0.20926397346E+02  0.10864037939E+04  0.11049309836E+04  0.10566000000E+00 0. -1.
        994    1    1    2    0    0  0.23722171569E+03 -0.25002024983E+02  0.21415249074E+03  0.36341432682E+03  0.17120000000E+03 0.  0.
        998    1    1    2    0    0 -0.36818747057E+02  0.40756276364E+01  0.19944371166E+03  0.20285468961E+03  0.10000000000E-01 0. -1.
</event>
<event>
 5    1  0.3934322E-009  0.3882672E+03  0.7957747E-01  0.3415933E+00
         13   -1    0    0    0    0  0.00000000000E+00  0.00000000000E+00  0.14999999963E+04  0.15000000000E+04  0.10566000000E+00 0.  1.
        994   -1    0    0    0    0 -0.00000000000E+00 -0.00000000000E+00  0.11368683772E-12  0.17120000000E+03  0.17120000000E+03 0.  0.
         13    1    1    2    0    0 -0.79023602964E+02  0.71444914421E+02  0.62763384843E+03  0.63661084225E+03  0.10566000000E+00 0.  1.
        994    1    1    2    0    0  0.17214393186E+03 -0.14748481077E+03  0.19009143773E+03  0.34180330219E+03  0.17120000000E+03 0.  0.
        998    1    1    2    0    0 -0.93120328900E+02  0.76039896352E+02  0.68227471012E+03  0.69278585556E+03  0.10000000000E-01 0.  1.
</event>
<event>
 5    1  0.3934322E-009  0.3880265E+03  0.7957747E-01  0.3416937E+00
         13   -1    0    0    0    0  0.00000000000E+00  0.00000000000E+00  0.14999999963E+04  0.15000000000E+04  0.10566000000E+00 0.  1.
        994   -1    0    0    0    0 -0.00000000000E+00 -0.00000000000E+00  0.11368683772E-12  0.17120000000E+03  0.17120000000E+03 0.  0.
         13    1    1    2    0    0  0.18083257039E+03 -0.16400707049E+03  0.12426259199E+04  0.12663798504E+04  0.10566000000E+00 0.  1.
        994    1    1    2    0    0 -0.18420227456E+03  0.16869240843E+03  0.23962678020E+03  0.38615805107E+03  0.17120000000E+03 0.  0.
        998    1    1    2    0    0  0.33697041720E+01 -0.46853379352E+01  0.17747296194E+02  0.18662098488E+02  0.10000000000E-01 0.  1.
</event>
<event>
 5    1  0.3934322E-009  0.3883009E+03  0.7957747E-01  0.3415792E+00
         13   -1    0    0    0    0  0.00000000000E+00  0.00000000000E+00  0.14999999963E+04  0.15000000000E+04  0.10566000000E+00 0. -1.
        994   -1    0    0    0    0 -0.00000000000E+00 -0.00000000000E+00  0.11368683772E-12  0.17120000000E+03  0.17120000000E+03 0.  0.
         13    1    1    2    0    0 -0.22402141918E+03  0.25975911557E+03  0.64324750156E+03  0.72899091475E+03  0.10566000000E+00 0. -1.
        994    1    1    2    0    0  0.22703698754E+03 -0.26320091358E+03  0.84820940186E+03  0.93251763738E+03  0.17120000000E+03 0.  0.
        998    1    1    2    0    0 -0.30155683586E+01  0.34417980138E+01  0.85430928654E+01  0.96914478692E+01  0.10000000000E-01 0. -1.
</event>
<event>
 5    1  0.3934322E-009  0.3883007E+03  0.7957747E-01  0.3415793E+00
         13   -1    0    0    0    0  0.00000000000E+00  0.00000000000E+00  0.14999999963E+04  0.15000000000E+04  0.10566000000E+00 0. -1.
        994   -1    0    0    0    0 -0.00000000000E+00 -0.00000000000E+00  0.11368683772E-12  0.17120000000E+03  0.17120000000E+03 0.  0.
         13    1    1    2    0    0  0.15318604615E+02  0.21746449709E+02  0.86920861971E+02  0.90900028229E+02  0.10566000000E+00 0. -1.
        994    1    1    2    0    0 -0.18146214541E+03 -0.26061559289E+03  0.46480336601E+03  0.58838814275E+03  0.17120000000E+03 0.  0.
        998    1    1    2    0    0  0.16614354079E+03  0.23886914318E+03  0.94827576830E+03  0.99191182903E+03  0.10000000000E-01 0. -1.
</event>
<event>
 5    1  0.3934322E-009  0.3883009E+03  0.7957747E-01  0.3415792E+00
         13   -1    0    0    0    0  0.00000000000E+00  0.00000000000E+00  0.14999999963E+04  0.15000000000E+04  0.10566000000E+00 0.  1.
        994   -1    0    0    0    0 -0.00000000000E+00 -0.00000000000E+00  0.11368683772E-12  0.17120000000E+03  0.17120000000E+03 0.  0.
         13    1    1    2    0    0 -0.19004662021E+03 -0.15992524432E+03  0.11763109275E+04  0.12022483982E+04  0.10566000000E+00 0.  1.
        994    1    1    2    0    0  0.19942994493E+03  0.16774646088E+03  0.26559387429E+03  0.40958603996E+03  0.17120000000E+03 0.  0.
        998    1    1    2    0    0 -0.93833247192E+01 -0.78212165616E+01  0.58095194464E+02  0.59365561828E+02  0.10000000000E-01 0.  1.
</event>
<event>
 5    1  0.3934322E-009  0.3857536E+03  0.7957747E-01  0.3426482E+00
         13   -1    0    0    0    0  0.00000000000E+00  0.00000000000E+00  0.14999999963E+04  0.15000000000E+04  0.10566000000E+00 0. -1.
        994   -1    0    0    0    0 -0.00000000000E+00 -0.00000000000E+00  0.11368683772E-12  0.17120000000E+03  0.17120000000E+03 0.  0.
         13    1    1    2    0    0 -0.17755193917E+03  0.19231286409E+03  0.12163784711E+04  0.12442208505E+04  0.10566000000E+00 0. -1.
        994    1    1    2    0    0  0.18134599550E+03 -0.18851619487E+03  0.27286239050E+03  0.41495547949E+03  0.17120000000E+03 0.  0.
        998    1    1    2    0    0 -0.37940563305E+01 -0.37966692201E+01  0.10759134704E+02  0.12023669997E+02  0.10000000000E-01 0.  1.
</event>
<event>
 5    1  0.3934322E-009  0.3881729E+03  0.7957747E-01  0.3416326E+00
         13   -1    0    0    0    0  0.00000000000E+00  0.00000000000E+00  0.14999999963E+04  0.15000000000E+04  0.10566000000E+00 0.  1.
        994   -1    0    0    0    0 -0.00000000000E+00 -0.00000000000E+00  0.11368683772E-12  0.17120000000E+03  0.17120000000E+03 0.  0.
         13    1    1    2    0    0 -0.25588614163E+03  0.89593618247E+02  0.10873371857E+04  0.11206279046E+04  0.10566000000E+00 0.  1.
        994    1    1    2    0    0  0.27368951201E+03 -0.93063721332E+02  0.34924567773E+03  0.48461199802E+03  0.17120000000E+03 0.  0.
        998    1    1    2    0    0 -0.17803370380E+02  0.34701030847E+01  0.63417132839E+02  0.65960097406E+02  0.10000000000E-01 0. -1.
</event>
<event>
 5    1  0.3934322E-009  0.3882992E+03  0.7957747E-01  0.3415799E+00
         13   -1    0    0    0    0  0.00000000000E+00  0.00000000000E+00  0.14999999963E+04  0.15000000000E+04  0.10566000000E+00 0.  1.
        994   -1    0    0    0    0 -0.00000000000E+00 -0.00000000000E+00  0.11368683772E-12  0.17120000000E+03  0.17120000000E+03 0.  0.
         13    1    1    2    0    0 -0.10619401019E+03 -0.21644223664E+03  0.12238159329E+04  0.12473371069E+04  0.10566000000E+00 0.  1.
        994    1    1    2    0    0  0.10939930366E+03  0.22327580208E+03  0.23655256886E+03  0.38351903378E+03  0.17120000000E+03 0.  0.
        998    1    1    2    0    0 -0.32052934740E+01 -0.68335654407E+01  0.39631494522E+02  0.40343859271E+02  0.10000000000E-01 0. -1.
</event>
<event>
 5    1  0.3934322E-009  0.3883009E+03  0.7957747E-01  0.3415792E+00
         13   -1    0    0    0    0  0.00000000000E+00  0.00000000000E+00  0.14999999963E+04  0.15000000000E+04  0.10566000000E+00 0.  1.
        994   -1    0    0    0    0 -0.00000000000E+00 -0.00000000000E+00  0.11368683772E-12  0.17120000000E+03  0.17120000000E+03 0.  0.
         13    1    1    2    0    0  0.22831902388E+02 -0.21533289095E+03  0.11587534321E+04  0.11788125709E+04  0.10566000000E+00 0.  1.
        994    1    1    2    0    0 -0.25330670828E+02  0.23837785665E+03  0.21668570342E+03  0.36568809044E+03  0.17120000000E+03 0.  0.
        998    1    1    2    0    0  0.24987684394E+01 -0.23044965705E+02  0.12456086078E+03  0.12669933870E+03  0.10000000000E-01 0.  1.
</event>
<event>
 5    1  0.3934322E-009  0.3883010E+03  0.7957747E-01  0.3415792E+00
         13   -1    0    0    0    0  0.00000000000E+00  0.00000000000E+00  0.14999999963E+04  0.15000000000E+04  0.10566000000E+00 0.  1.
        994   -1    0    0    0    0 -0.00000000000E+00 -0.00000000000E+00  0.11368683772E-12  0.17120000000E+03  0.17120000000E+03 0.  0.
         13    1    1    2    0    0 -0.15165974160E+03  0.14989093430E+03  0.12145397960E+04  0.12331159300E+04  0.10566000000E+00 0.  1.
        994    1    1    2    0    0  0.16301132001E+03 -0.16105930157E+03  0.19489730178E+03  0.34613174849E+03  0.17120000000E+03 0.  0.
        998    1    1    2    0    0 -0.11351578409E+02  0.11168367269E+02  0.90562898459E+02  0.91952321543E+02  0.10000000000E-01 0. -1.
</event>
<event>
 5    1  0.3934322E-009  0.3882943E+03  0.7957747E-01  0.3415820E+00
         13   -1    0    0    0    0  0.00000000000E+00  0.00000000000E+00  0.14999999963E+04  0.15000000000E+04  0.10566000000E+00 0.  1.
        994   -1    0    0    0    0 -0.00000000000E+00 -0.00000000000E+00  0.11368683772E-12  0.17120000000E+03  0.17120000000E+03 0.  0.
         13    1    1    2    0    0 -0.55397706909E+02 -0.23411258977E+03  0.12805748663E+04  0.13029772101E+04  0.10566000000E+00 0.  1.
        994    1    1    2    0    0  0.55366952992E+02  0.23420152088E+03  0.21871706673E+03  0.36750843140E+03  0.17120000000E+03 0.  0.
        998    1    1    2    0    0  0.30753916423E-01 -0.88931112293E-01  0.70806327262E+00  0.71435855433E+00  0.10000000000E-01 0.  1.
</event>
<event>
 5    1  0.3934322E-009  0.3857515E+03  0.7957747E-01  0.3426491E+00
         13   -1    0    0    0    0  0.00000000000E+00  0.00000000000E+00  0.14999999963E+04  0.15000000000E+04  0.10566000000E+00 0. -1.
        994   -1    0    0    0    0 -0.00000000000E+00 -0.00000000000E+00  0.11368683772E-12  0.17120000000E+03  0.17120000000E+03 0.  0.
         13    1    1    2    0    0 -0.47374244386E+01 -0.17782815324E+02  0.97049020571E+02  0.98778516232E+02  0.10566000000E+00 0. -1.
        994    1    1    2    0    0  0.62433620741E+02  0.38928702536E+02  0.19222789512E+02  0.18732953989E+03  0.17120000000E+03 0.  0.
        998    1    1    2    0    0 -0.57696196303E+02 -0.21145887212E+02  0.13837281862E+04  0.13850919439E+04  0.10000000000E-01 0. -1.
</event>
<event>
 5    1  0.3934322E-009  0.3883010E+03  0.7957747E-01  0.3415792E+00
         13   -1    0    0    0    0  0.00000000000E+00  0.00000000000E+00  0.14999999963E+04  0.15000000000E+04  0.10566000000E+00 0.  1.
        994   -1    0    0    0    0 -0.00000000000E+00 -0.00000000000E+00  0.11368683772E-12  0.17120000000E+03  0.17120000000E+03 0.  0.
         13    1    1    2    0    0 -0.19771556749E+02  0.20676980853E+03  0.11397579209E+04  0.11585304474E+04  0.10566000000E+00 0.  1.
        994    1    1    2    0    0  0.22420584822E+02 -0.23443646474E+03  0.20777816815E+03  0.35769308881E+03  0.17120000000E+03 0.  0.
        998    1    1    2    0    0 -0.26490280730E+01  0.27666656215E+02  0.15246390720E+03  0.15497646375E+03  0.10000000000E-01 0.  1.
</event>
<event>
 5    1  0.3934322E-009  0.3883006E+03  0.7957747E-01  0.3415793E+00
         13   -1    0    0    0    0  0.00000000000E+00  0.00000000000E+00  0.14999999963E+04  0.15000000000E+04  0.10566000000E+00 0.  1.
        994   -1    0    0    0    0 -0.00000000000E+00 -0.00000000000E+00  0.11368683772E-12  0.17120000000E+03  0.17120000000E+03 0.  0.
         13    1    1    2    0    0  0.64919396346E+02  0.22543432659E+03  0.12863190866E+04  0.13075366027E+04  0.10566000000E+00 0.  1.
        994    1    1    2    0    0 -0.65216562194E+02 -0.22645838383E+03  0.20810305233E+03  0.35798452477E+03  0.17120000000E+03 0.  0.
        998    1    1    2    0    0  0.29716584818E+00  0.10240572392E+01  0.55778573220E+01  0.56788725179E+01  0.10000000000E-01 0.  1.
</event>
<event>
 5    1  0.3934322E-009  0.3870271E+03  0.7957747E-01  0.3421120E+00
         13   -1    0    0    0    0  0.00000000000E+00  0.00000000000E+00  0.14999999963E+04  0.15000000000E+04  0.10566000000E+00 0. -1.
        994   -1    0    0    0    0 -0.00000000000E+00 -0.00000000000E+00  0.11368683772E-12  0.17120000000E+03  0.17120000000E+03 0.  0.
         13    1    1    2    0    0 -0.13166314842E+02 -0.20288970250E+03  0.59005501264E+03  0.62410136383E+03  0.10566000000E+00 0. -1.
        994    1    1    2    0    0 -0.37709593458E+01  0.32108751625E+03  0.48897678663E+03  0.60952370839E+03  0.17120000000E+03 0.  0.
        998    1    1    2    0    0  0.16937274188E+02 -0.11819781375E+03  0.42096819700E+03  0.43757492778E+03  0.10000000000E-01 0. -1.
</event>
<event>
 5    1  0.3934322E-009  0.3883009E+03  0.7957747E-01  0.3415792E+00
         13   -1    0    0    0    0  0.00000000000E+00  0.00000000000E+00  0.14999999963E+04  0.15000000000E+04  0.10566000000E+00 0. -1.
        994   -1    0    0    0    0 -0.00000000000E+00 -0.00000000000E+00  0.11368683772E-12  0.17120000000E+03  0.17120000000E+03 0.  0.
         13    1    1    2    0    0 -0.20050863080E+03 -0.10807260496E+03  0.12996835819E+04  0.13194926385E+04  0.10566000000E+00 0. -1.
        994    1    1    2    0    0  0.20144534770E+03  0.10858363519E+03  0.19428371397E+03  0.34558101142E+03  0.17120000000E+03 0.  0.
        998    1    1    2    0    0 -0.93671689711E+00 -0.51103023660E+00  0.60327004164E+01  0.61263500359E+01  0.10000000000E-01 0.  0.
</event>
<event>
 5    1  0.3934322E-009  0.3882796E+03  0.7957747E-01  0.3415881E+00
         13   -1    0    0    0    0  0.00000000000E+00  0.00000000000E+00  0.14999999963E+04  0.15000000000E+04  0.10566000000E+00 0. -1.
        994   -1    0    0    0    0 -0.00000000000E+00 -0.00000000000E+00  0.11368683772E-12  0.17120000000E+03  0.17120000000E+03 0.  0.
         13    1    1    2    0    0 -0.22132523517E+03  0.54500443752E+01  0.13139922092E+04  0.13325127015E+04  0.10566000000E+00 0. -1.
        994    1    1    2    0    0  0.22182976428E+03 -0.54280010390E+01  0.18094465710E+03  0.33359903545E+03  0.17120000000E+03 0.  0.
        998    1    1    2    0    0 -0.50452911123E+00 -0.22043336142E-01  0.50631299949E+01  0.50882630512E+01  0.10000000000E-01 0. -1.
</event>
<event>
 5    1  0.3934322E-009  0.3876199E+03  0.7957747E-01  0.3418636E+00
         13   -1    0    0    0    0  0.00000000000E+00  0.00000000000E+00  0.14999999963E+04  0.15000000000E+04  0.10566000000E+00 0. -1.
        994   -1    0    0    0    0 -0.00000000000E+00 -0.00000000000E+00  0.11368683772E-12  0.17120000000E+03  0.17120000000E+03 0.  0.
         13    1    1    2    0    0  0.10874126236E+03  0.13912932733E+03  0.92586183302E+03  0.94255067602E+03  0.10566000000E+00 0. -1.
        994    1    1    2    0    0 -0.14668013036E+03 -0.17645814335E+03  0.19640356611E+03  0.34718343534E+03  0.17120000000E+03 0.  0.
        998    1    1    2    0    0  0.37938867997E+02  0.37328816020E+02  0.37773459715E+03  0.38146588864E+03  0.10000000000E-01 0.  1.
</event>
<event>
 5    1  0.3934322E-009  0.3846238E+03  0.7957747E-01  0.3431269E+00
         13   -1    0    0    0    0  0.00000000000E+00  0.00000000000E+00  0.14999999963E+04  0.15000000000E+04  0.10566000000E+00 0.  1.
        994   -1    0    0    0    0 -0.00000000000E+00 -0.00000000000E+00  0.11368683772E-12  0.17120000000E+03  0.17120000000E+03 0.  0.
         13    1    1    2    0    0 -0.83037203829E+01 -0.27584505771E+02  0.12530741743E+03  0.12857611270E+03  0.10566000000E+00 0.  1.
        994    1    1    2    0    0  0.12603632719E+03  0.76857447294E+02  0.77209083256E+02  0.23887843250E+03  0.17120000000E+03 0.  0.
        998    1    1    2    0    0 -0.11773260681E+03 -0.49272941523E+02  0.12974834956E+04  0.13037454548E+04  0.10000000000E-01 0.  1.
</event>
<event>
 5    1  0.3934322E-009  0.3883010E+03  0.7957747E-01  0.3415792E+00
         13   -1    0    0    0    0  0.00000000000E+00  0.00000000000E+00  0.14999999963E+04  0.15000000000E+04  0.10566000000E+00 0. -1.
        994   -1    0    0    0    0 -0.00000000000E+00 -0.00000000000E+00  0.11368683772E-12  0.17120000000E+03  0.17120000000E+03 0.  0.
         13    1    1    2    0    0 -0.75074300355E+02 -0.10671097508E+03  0.77659773676E+03  0.78748170689E+03  0.10566000000E+00 0. -1.
        994    1    1    2    0    0  0.12766528178E+03  0.18130306959E+03  0.18062846629E+03  0.33332463163E+03  0.17120000000E+03 0.  0.
        998    1    1    2    0    0 -0.52590981422E+02 -0.74592094513E+02  0.54277379323E+03  0.55039366149E+03  0.10000000000E-01 0. -1.
</event>
<event>
 5    1  0.8094188E-009  0.3882962E+03  0.7957747E-01  0.3415812E+00
         13   -1    0    0    0    0  0.00000000000E+00  0.00000000000E+00  0.14999999963E+04  0.15000000000E+04  0.10566000000E+00 0.  1.
        994   -1    0    0    0    0 -0.00000000000E+00 -0.00000000000E+00  0.11368683772E-12  0.17120000000E+03  0.17120000000E+03 0.  0.
         13    1    1    2    0    0 -0.24625715209E+03 -0.18047558215E+03  0.10900680924E+04  0.11320169954E+04  0.10566000000E+00 0.  1.
        994    1    1    2    0    0  0.24630946962E+03  0.18051204619E+03  0.40952057903E+03  0.53876664549E+03  0.17120000000E+03 0.  0.
        998    1    1    2    0    0 -0.52317525061E-01 -0.36464046219E-01  0.41132488457E+00  0.41635911274E+00  0.10000000000E-01 0. -1.
</event>
<event>
 5    1  0.3934322E-009  0.3882993E+03  0.7957747E-01  0.3415799E+00
         13   -1    0    0    0    0  0.00000000000E+00  0.00000000000E+00  0.14999999963E+04  0.15000000000E+04  0.10566000000E+00 0. -1.
        994   -1    0    0    0    0 -0.00000000000E+00 -0.00000000000E+00  0.11368683772E-12  0.17120000000E+03  0.17120000000E+03 0.  0.
         13    1    1    2    0    0 -0.23000863690E+03  0.12435620224E+03  0.11746346662E+04  0.12033848296E+04  0.10566000000E+00 0. -1.
        994    1    1    2    0    0  0.23725365248E+03 -0.12798298277E+03  0.28945381954E+03  0.43100103613E+03  0.17120000000E+03 0.  0.
        998    1    1    2    0    0 -0.72450155804E+01  0.36267805364E+01  0.35911510583E+02  0.36814134244E+02  0.10000000000E-01 0.  1.
</event>
<event>
 5    1  0.3934322E-009  0.3823959E+03  0.7957747E-01  0.3440792E+00
         13   -1    0    0    0    0  0.00000000000E+00  0.00000000000E+00  0.14999999963E+04  0.15000000000E+04  0.10566000000E+00 0.  1.
        994   -1    0    0    0    0 -0.00000000000E+00 -0.00000000000E+00  0.11368683772E-12  0.17120000000E+03  0.17120000000E+03 0.  0.
         13    1    1    2    0    0 -0.82656675469E+01  0.48867390999E+02  0.22375401223E+03  0.22917725087E+03  0.10566000000E+00 0.  1.
        994    1    1    2    0    0 -0.93546084527E+02 -0.14620565190E+03  0.11027779576E+03  0.26757726887E+03  0.17120000000E+03 0.  0.
        998    1    1    2    0    0  0.10181175207E+03  0.97338260904E+02  0.11659681883E+04  0.11744454803E+04  0.10000000000E-01 0.  1.
</event>
<event>
 5    1  0.3934322E-009  0.3883009E+03  0.7957747E-01  0.3415792E+00
         13   -1    0    0    0    0  0.00000000000E+00  0.00000000000E+00  0.14999999963E+04  0.15000000000E+04  0.10566000000E+00 0.  1.
        994   -1    0    0    0    0 -0.00000000000E+00 -0.00000000000E+00  0.11368683772E-12  0.17120000000E+03  0.17120000000E+03 0.  0.
         13    1    1    2    0    0 -0.14684312113E+03  0.20174376803E+03  0.11077471121E+04  0.11355030276E+04  0.10566000000E+00 0.  1.
        994    1    1    2    0    0  0.15969514072E+03 -0.21948073901E+03  0.29463890640E+03  0.43565566440E+03  0.17120000000E+03 0.  0.
        998    1    1    2    0    0 -0.12852019584E+02  0.17736970975E+02  0.97613977783E+02  0.10004130799E+03  0.10000000000E-01 0.  1.
</event>
<event>
 5    1  0.3934322E-009  0.3883010E+03  0.7957747E-01  0.3415792E+00
         13   -1    0    0    0    0  0.00000000000E+00  0.00000000000E+00  0.14999999963E+04  0.15000000000E+04  0.10566000000E+00 0. -1.
        994   -1    0    0    0    0 -0.00000000000E+00 -0.00000000000E+00  0.11368683772E-12  0.17120000000E+03  0.17120000000E+03 0.  0.
         13    1    1    2    0    0 -0.72724299617E+02  0.21915596063E+03  0.12582994564E+04  0.12793106316E+04  0.10566000000E+00 0. -1.
        994    1    1    2    0    0  0.74539501660E+02 -0.22463763842E+03  0.21023348753E+03  0.35989688132E+03  0.17120000000E+03 0.  0.
        998    1    1    2    0    0 -0.18152020426E+01  0.54816777888E+01  0.31467052316E+02  0.31992487107E+02  0.10000000000E-01 0.  0.
</event>
<event>
 5    1  0.3934322E-009  0.3883009E+03  0.7957747E-01  0.3415792E+00
         13   -1    0    0    0    0  0.00000000000E+00  0.00000000000E+00  0.14999999963E+04  0.15000000000E+04  0.10566000000E+00 0. -1.
        994   -1    0    0    0    0 -0.00000000000E+00 -0.00000000000E+00  0.11368683772E-12  0.17120000000E+03  0.17120000000E+03 0.  0.
         13    1    1    2    0    0 -0.23304566825E+03  0.16531359234E+03  0.10393340480E+04  0.10778933815E+04  0.10566000000E+00 0. -1.
        994    1    1    2    0    0  0.24692840770E+03 -0.17518994418E+03  0.39893243444E+03  0.52926522871E+03  0.17120000000E+03 0.  0.
        998    1    1    2    0    0 -0.13882739453E+02  0.98763518480E+01  0.61733513847E+02  0.64041389839E+02  0.10000000000E-01 0.  1.
</event>
<event>
 5    1  0.3934322E-009  0.3882989E+03  0.7957747E-01  0.3415801E+00
         13   -1    0    0    0    0  0.00000000000E+00  0.00000000000E+00  0.14999999963E+04  0.15000000000E+04  0.10566000000E+00 0. -1.
        994   -1    0    0    0    0 -0.00000000000E+00 -0.00000000000E+00  0.11368683772E-12  0.17120000000E+03  0.17120000000E+03 0.  0.
         13    1    1    2    0    0  0.23018353518E+03  0.41484665089E+02  0.12901580705E+04  0.13111877422E+04  0.10566000000E+00 0. -1.
        994    1    1    2    0    0 -0.23083259322E+03 -0.41550927121E+02  0.20578496259E+03  0.35590315602E+03  0.17120000000E+03 0.  0.
        998    1    1    2    0    0  0.64905803845E+00  0.66262032520E-01  0.40569631661E+01  0.41091017419E+01  0.10000000000E-01 0. -1.
</event>
<event>
 5    1  0.3934322E-009  0.3882927E+03  0.7957747E-01  0.3415826E+00
         13   -1    0    0    0    0  0.00000000000E+00  0.00000000000E+00  0.14999999963E+04  0.15000000000E+04  0.10566000000E+00 0.  1.
        994   -1    0    0    0    0 -0.00000000000E+00 -0.00000000000E+00  0.11368683772E-12  0.17120000000E+03  0.17120000000E+03 0.  0.
         13    1    1    2    0    0  0.13278405022E+03 -0.18612564284E+03  0.13055861142E+04  0.13254544397E+04  0.10566000000E+00 0.  1.
        994    1    1    2    0    0 -0.13287212140E+03  0.18614517199E+03  0.19401149801E+03  0.34533306685E+03  0.17120000000E+03 0.  0.
        998    1    1    2    0    0  0.88071178910E-01 -0.19529147392E-01  0.40238405631E+00  0.41249345319E+00  0.10000000000E-01 0.  1.
</event>
<event>
 5    1  0.3934322E-009  0.3881896E+03  0.7957747E-01  0.3416256E+00
         13   -1    0    0    0    0  0.00000000000E+00  0.00000000000E+00  0.14999999963E+04  0.15000000000E+04  0.10566000000E+00 0.  1.
        994   -1    0    0    0    0 -0.00000000000E+00 -0.00000000000E+00  0.11368683772E-12  0.17120000000E+03  0.17120000000E+03 0.  0.
         13    1    1    2    0    0  0.24603239586E+03 -0.81186064982E+02  0.10271147351E+04  0.10592864614E+04  0.10566000000E+00 0.  1.
        994    1    1    2    0    0 -0.27248214279E+03  0.93418582606E+02  0.34575776427E+03  0.48148875508E+03  0.17120000000E+03 0.  0.
        998    1    1    2    0    0  0.26449746932E+02 -0.12232517624E+02  0.12712749690E+03  0.13042478356E+03  0.10000000000E-01 0. -1.
</event>
<event>
 5    1  0.3934322E-009  0.3883008E+03  0.7957747E-01  0.3415792E+00
         13   -1    0    0    0    0  0.00000000000E+00  0.00000000000E+00  0.14999999963E+04  0.15000000000E+04  0.10566000000E+00 0. -1.
        994   -1    0    0    0    0 -0.00000000000E+00 -0.00000000000E+00  0.11368683772E-12  0.17120000000E+03  0.17120000000E+03 0.  0.
         13    1    1    2    0    0 -0.15027572510E+03  0.25239085082E+03  0.11310247335E+04  0.11685464878E+04  0.10566000000E+00 0. -1.
        994    1    1    2    0    0  0.15053669035E+03 -0.25285650622E+03  0.36695032936E+03  0.50055937920E+03  0.17120000000E+03 0.  0.
        998    1    1    2    0    0 -0.26096524761E+00  0.46565540375E+00  0.20249333806E+01  0.20941329975E+01  0.10000000000E-01 0. -1.
</event>
<event>
 5    1  0.3934322E-009  0.3880876E+03  0.7957747E-01  0.3416682E+00
         13   -1    0    0    0    0  0.00000000000E+00  0.00000000000E+00  0.14999999963E+04  0.15000000000E+04  0.10566000000E+00 0. -1.
        994   -1    0    0    0    0 -0.00000000000E+00 -0.00000000000E+00  0.11368683772E-12  0.17120000000E+03  0.17120000000E+03 0.  0.
         13    1    1    2    0    0 -0.17071738213E+03 -0.14820740177E+03  0.11501341442E+04  0.11721426617E+04  0.10566000000E+00 0. -1.
        994    1    1    2    0    0  0.19183601931E+03  0.15951498827E+03  0.23886868276E+03  0.38550457506E+03  0.17120000000E+03 0.  0.
        998    1    1    2    0    0 -0.21118637179E+02 -0.11307586496E+02  0.11099716934E+03  0.11355276329E+03  0.10000000000E-01 0. -1.
</event>
<event>
 5    1  0.3934322E-009  0.3882409E+03  0.7957747E-01  0.3416043E+00
         13   -1    0    0    0    0  0.00000000000E+00  0.00000000000E+00  0.14999999963E+04  0.15000000000E+04  0.10566000000E+00 0.  1.
        994   -1    0    0    0    0 -0.00000000000E+00 -0.00000000000E+00  0.11368683772E-12  0.17120000000E+03  0.17120000000E+03 0.  0.
         13    1    1    2    0    0 -0.89728116611E+02 -0.29174876318E+03  0.10776874833E+04  0.11200798179E+04  0.10566000000E+00 0.  1.
        994    1    1    2    0    0  0.90010977152E+02  0.29307103390E+03  0.41472939742E+03  0.54341744544E+03  0.17120000000E+03 0.  0.
        998    1    1    2    0    0 -0.28286054039E+00 -0.13222707247E+01  0.75831155961E+01  0.77027366629E+01  0.10000000000E-01 0.  1.
</event>
<event>
 5    1  0.3934322E-009  0.3883007E+03  0.7957747E-01  0.3415793E+00
         13   -1    0    0    0    0  0.00000000000E+00  0.00000000000E+00  0.14999999963E+04  0.15000000000E+04  0.10566000000E+00 0.  1.
        994   -1    0    0    0    0 -0.00000000000E+00 -0.00000000000E+00  0.11368683772E-12  0.17120000000E+03  0.17120000000E+03 0.  0.
         13    1    1    2    0    0  0.24967027382E+03 -0.99484838341E+02  0.12123177689E+04  0.12417515301E+04  0.10566000000E+00 0.  1.
        994    1    1    2    0    0 -0.24972958804E+03  0.99509555793E+02  0.28739200147E+03  0.42915104724E+03  0.17120000000E+03 0.  0.
        998    1    1    2    0    0  0.59314217985E-01 -0.24717451929E-01  0.29022595100E+00  0.29742264796E+00  0.10000000000E-01 0.  0.
</event>
<event>
 5    1  0.3934322E-009  0.3883010E+03  0.7957747E-01  0.3415792E+00
         13   -1    0    0    0    0  0.00000000000E+00  0.00000000000E+00  0.14999999963E+04  0.15000000000E+04  0.10566000000E+00 0.  1.
        994   -1    0    0    0    0 -0.00000000000E+00 -0.00000000000E+00  0.11368683772E-12  0.17120000000E+03  0.17120000000E+03 0.  0.
         13    1    1    2    0    0  0.86518224278E+02 -0.17657221311E+03  0.11651072906E+04  0.11815829042E+04  0.10566000000E+00 0.  1.
        994    1    1    2    0    0 -0.97878264169E+02  0.19975547841E+03  0.18195074944E+03  0.33451146614E+03  0.17120000000E+03 0.  0.
        998    1    1    2    0    0  0.11360039892E+02 -0.23183265306E+02  0.15294195622E+03  0.15510562971E+03  0.10000000000E-01 0.  0.
</event>
<event>
 5    1  0.3934322E-009  0.3881545E+03  0.7957747E-01  0.3416403E+00
         13   -1    0    0    0    0  0.00000000000E+00  0.00000000000E+00  0.14999999963E+04  0.15000000000E+04  0.10566000000E+00 0.  1.
        994   -1    0    0    0    0 -0.00000000000E+00 -0.00000000000E+00  0.11368683772E-12  0.17120000000E+03  0.17120000000E+03 0.  0.
         13    1    1    2    0    0 -0.78412307104E+02 -0.20541946676E+03  0.13219181299E+04  0.13400795501E+04  0.10566000000E+00 0.  1.
        994    1    1    2    0    0  0.78177179935E+02  0.20561928410E+03  0.17750737050E+03  0.33046825572E+03  0.17120000000E+03 0.  0.
        998    1    1    2    0    0  0.23512716907E+00 -0.19981734441E+00  0.57449590225E+00  0.65219421836E+00  0.10000000000E-01 0.  1.
</event>
<event>
 5    1  0.3934322E-009  0.3882992E+03  0.7957747E-01  0.3415799E+00
         13   -1    0    0    0    0  0.00000000000E+00  0.00000000000E+00  0.14999999963E+04  0.15000000000E+04  0.10566000000E+00 0. -1.
        994   -1    0    0    0    0 -0.00000000000E+00 -0.00000000000E+00  0.11368683772E-12  0.17120000000E+03  0.17120000000E+03 0.  0.
         13    1    1    2    0    0  0.16413842301E+03 -0.13377650286E+03  0.98674219108E+03  0.10092064890E+04  0.10566000000E+00 0. -1.
        994    1    1    2    0    0 -0.20363204888E+03  0.16621973087E+03  0.27143048318E+03  0.41482400781E+03  0.17120000000E+03 0.  0.
        998    1    1    2    0    0  0.39493625862E+02 -0.32443228014E+02  0.24182732202E+03  0.24716950318E+03  0.10000000000E-01 0.  1.
</event>
<event>
 5    1  0.3934322E-009  0.3879979E+03  0.7957747E-01  0.3417056E+00
         13   -1    0    0    0    0  0.00000000000E+00  0.00000000000E+00  0.14999999963E+04  0.15000000000E+04  0.10566000000E+00 0.  1.
        994   -1    0    0    0    0 -0.00000000000E+00 -0.00000000000E+00  0.11368683772E-12  0.17120000000E+03  0.17120000000E+03 0.  0.
         13    1    1    2    0    0  0.26235937058E+03 -0.11157752925E+02  0.12018147655E+04  0.12301689626E+04  0.10566000000E+00 0.  1.
        994    1    1    2    0    0 -0.26492115635E+03  0.13406686268E+02  0.27831370401E+03  0.42086923879E+03  0.17120000000E+03 0.  0.
        998    1    1    2    0    0  0.25617857674E+01 -0.22489333423E+01  0.19871526728E+02  0.20161798580E+02  0.10000000000E-01 0. -1.
</event>
<event>
 5    1  0.3934322E-009  0.3882986E+03  0.7957747E-01  0.3415802E+00
         13   -1    0    0    0    0  0.00000000000E+00  0.00000000000E+00  0.14999999963E+04  0.15000000000E+04  0.10566000000E+00 0. -1.
        994   -1    0    0    0    0 -0.00000000000E+00 -0.00000000000E+00  0.11368683772E-12  0.17120000000E+03  0.17120000000E+03 0.  0.
         13    1    1    2    0    0  0.21102435128E+03  0.15365015877E+03  0.12248143566E+04  0.12523217907E+04  0.10566000000E+00 0. -1.
        994    1    1    2    0    0 -0.21187015603E+03 -0.15434176747E+03  0.26952899797E+03  0.41311701121E+03  0.17120000000E+03 0.  0.
        998    1    1    2    0    0  0.84580475436E+00  0.69160869991E+00  0.56566416796E+01  0.57611980844E+01  0.10000000000E-01 0.  1.
</event>
<event>
 5    1  0.3934322E-009  0.3882864E+03  0.7957747E-01  0.3415853E+00
         13   -1    0    0    0    0  0.00000000000E+00  0.00000000000E+00  0.14999999963E+04  0.15000000000E+04  0.10566000000E+00 0. -1.
        994   -1    0    0    0    0 -0.00000000000E+00 -0.00000000000E+00  0.11368683772E-12  0.17120000000E+03  0.17120000000E+03 0.  0.
         13    1    1    2    0    0 -0.58168303148E+02 -0.63606153003E+02  0.48516951751E+03  0.49276644171E+03  0.10566000000E+00 0. -1.
        994    1    1    2    0    0  0.16132622584E+03  0.16881738212E+03  0.20367363457E+03  0.35400261167E+03  0.17120000000E+03 0.  0.
        998    1    1    2    0    0 -0.10315792269E+03 -0.10521122912E+03  0.81115684420E+03  0.82443094662E+03  0.10000000000E-01 0. -1.
</event>
<event>
 5    1  0.3934322E-009  0.3882921E+03  0.7957747E-01  0.3415829E+00
         13   -1    0    0    0    0  0.00000000000E+00  0.00000000000E+00  0.14999999963E+04  0.15000000000E+04  0.10566000000E+00 0.  1.
        994   -1    0    0    0    0 -0.00000000000E+00 -0.00000000000E+00  0.11368683772E-12  0.17120000000E+03  0.17120000000E+03 0.  0.
         13    1    1    2    0    0  0.11897105109E+02 -0.26238487039E+03  0.12290601853E+04  0.12568119635E+04  0.10566000000E+00 0.  1.
        994    1    1    2    0    0 -0.11903227800E+02  0.26239155461E+03  0.27093126753E+03  0.41437206287E+03  0.17120000000E+03 0.  0.
        998    1    1    2    0    0  0.61226914158E-02 -0.66842220327E-02  0.85434201607E-02  0.15973609561E-01  0.10000000000E-01 0.  1.
</event>
<event>
 5    1  0.3934322E-009  0.3883009E+03  0.7957747E-01  0.3415792E+00
         13   -1    0    0    0    0  0.00000000000E+00  0.00000000000E+00  0.14999999963E+04  0.15000000000E+04  0.10566000000E+00 0.  1.
        994   -1    0    0    0    0 -0.00000000000E+00 -0.00000000000E+00  0.11368683772E-12  0.17120000000E+03  0.17120000000E+03 0.  0.
         13    1    1    2    0    0 -0.10546555080E+03  0.14295384390E+03  0.10649249962E+04  0.10796407007E+04  0.10566000000E+00 0.  1.
        994    1    1    2    0    0  0.13077143167E+03 -0.17737028409E+03  0.17807025223E+03  0.33102845761E+03  0.17120000000E+03 0.  0.
        998    1    1    2    0    0 -0.25305880866E+02  0.34416440187E+02  0.25700474781E+03  0.26053084166E+03  0.10000000000E-01 0.  1.
</event>
<event>
 5    1  0.3934322E-009  0.3882758E+03  0.7957747E-01  0.3415897E+00
         13   -1    0    0    0    0  0.00000000000E+00  0.00000000000E+00  0.14999999963E+04  0.15000000000E+04  0.10566000000E+00 0.  1.
        994   -1    0    0    0    0 -0.00000000000E+00 -0.00000000000E+00  0.11368683772E-12  0.17120000000E+03  0.17120000000E+03 0.  0.
         13    1    1    2    0    0  0.17594774103E+03 -0.10680202890E+03  0.12234389325E+04  0.12406317398E+04  0.10566000000E+00 0.  1.
        994    1    1    2    0    0 -0.19063457674E+03  0.11372989180E+03  0.18111032434E+03  0.33374604076E+03  0.17120000000E+03 0.  0.
        998    1    1    2    0    0  0.14686835712E+02 -0.69278629074E+01  0.95450739423E+02  0.96822219475E+02  0.10000000000E-01 0.  1.
</event>
<event>
 5    1  0.3934322E-009  0.3882088E+03  0.7957747E-01  0.3416176E+00
         13   -1    0    0    0    0  0.00000000000E+00  0.00000000000E+00  0.14999999963E+04  0.15000000000E+04  0.10566000000E+00 0. -1.
        994   -1    0    0    0    0 -0.00000000000E+00 -0.00000000000E+00  0.11368683772E-12  0.17120000000E+03  0.17120000000E+03 0.  0.
         13    1    1    2    0    0  0.67999625451E+02 -0.31076694594E+03  0.10231630902E+04  0.10714769078E+04  0.10566000000E+00 0. -1.
        994    1    1    2    0    0 -0.68611116692E+02  0.31145866219E+03  0.47209706880E+03  0.59489416366E+03  0.17120000000E+03 0.  0.
        998    1    1    2    0    0  0.61149124079E+00 -0.69171624362E+00  0.47398373166E+01  0.48289285237E+01  0.10000000000E-01 0. -1.
</event>
<event>
 5    1  0.3934322E-009  0.3880829E+03  0.7957747E-01  0.3416702E+00
         13   -1    0    0    0    0  0.00000000000E+00  0.00000000000E+00  0.14999999963E+04  0.15000000000E+04  0.10566000000E+00 0. -1.
        994   -1    0    0    0    0 -0.00000000000E+00 -0.00000000000E+00  0.11368683772E-12  0.17120000000E+03  0.17120000000E+03 0.  0.
         13    1    1    2    0    0 -0.18220581090E+03  0.15994819332E+03  0.12246197697E+04  0.12483893518E+04  0.10566000000E+00 0. -1.
        994    1    1    2    0    0  0.18612686704E+03 -0.16725480648E+03  0.24061164750E+03  0.38706690099E+03  0.17120000000E+03 0.  0.
        998    1    1    2    0    0 -0.39210561395E+01  0.73066131616E+01  0.34768579065E+02  0.35743747249E+02  0.10000000000E-01 0.  1.
</event>
<event>
 5    1  0.3934322E-009  0.3883006E+03  0.7957747E-01  0.3415793E+00
         13   -1    0    0    0    0  0.00000000000E+00  0.00000000000E+00  0.14999999963E+04  0.15000000000E+04  0.10566000000E+00 0.  1.
        994   -1    0    0    0    0 -0.00000000000E+00 -0.00000000000E+00  0.11368683772E-12  0.17120000000E+03  0.17120000000E+03 0.  0.
         13    1    1    2    0    0 -0.10199241808E+03 -0.24145604774E+03  0.11687733593E+04  0.11978040962E+04  0.10566000000E+00 0.  1.
        994    1    1    2    0    0  0.10543951822E+03  0.24945270054E+03  0.29292961021E+03  0.43412134058E+03  0.17120000000E+03 0.  0.
        998    1    1    2    0    0 -0.34471001392E+01 -0.79966528087E+01  0.38297026818E+02  0.39274563251E+02  0.10000000000E-01 0. -1.
</event>
<event>
 5    1  0.3934322E-009  0.3882994E+03  0.7957747E-01  0.3415798E+00
         13   -1    0    0    0    0  0.00000000000E+00  0.00000000000E+00  0.14999999963E+04  0.15000000000E+04  0.10566000000E+00 0.  1.
        994   -1    0    0    0    0 -0.00000000000E+00 -0.00000000000E+00  0.11368683772E-12  0.17120000000E+03  0.17120000000E+03 0.  0.
         13    1    1    2    0    0 -0.15911908554E+03  0.15938903445E+03  0.12610367189E+04  0.12809907748E+04  0.10566000000E+00 0.  1.
        994    1    1    2    0    0  0.16406867670E+03 -0.16438118452E+03  0.20109399861E+03  0.35169296378E+03  0.17120000000E+03 0.  0.
        998    1    1    2    0    0 -0.49495911588E+01  0.49921500637E+01  0.37869278804E+02  0.38516261398E+02  0.10000000000E-01 0. -1.
</event>
<event>
 5    1  0.3934322E-009  0.3881830E+03  0.7957747E-01  0.3416284E+00
         13   -1    0    0    0    0  0.00000000000E+00  0.00000000000E+00  0.14999999963E+04  0.15000000000E+04  0.10566000000E+00 0.  1.
        994   -1    0    0    0    0 -0.00000000000E+00 -0.00000000000E+00  0.11368683772E-12  0.17120000000E+03  0.17120000000E+03 0.  0.
         13    1    1    2    0    0  0.10980477587E+03 -0.28743436420E+03  0.10771450577E+04  0.11202308195E+04  0.10566000000E+00 0.  1.
        994    1    1    2    0    0 -0.10944835346E+03  0.28792469025E+03  0.42104789334E+03  0.54906314556E+03  0.17120000000E+03 0.  0.
        998    1    1    2    0    0 -0.35642240528E+00 -0.49032605780E+00  0.18070452649E+01  0.19060349323E+01  0.10000000000E-01 0. -1.
</event>
<event>
 5    1  0.3934322E-009  0.3882935E+03  0.7957747E-01  0.3415823E+00
         13   -1    0    0    0    0  0.00000000000E+00  0.00000000000E+00  0.14999999963E+04  0.15000000000E+04  0.10566000000E+00 0.  1.
        994   -1    0    0    0    0 -0.00000000000E+00 -0.00000000000E+00  0.11368683772E-12  0.17120000000E+03  0.17120000000E+03 0.  0.
         13    1    1    2    0    0  0.19658388029E+03 -0.18540333462E+03  0.12080209612E+04  0.12378749018E+04  0.10566000000E+00 0.  1.
        994    1    1    2    0    0 -0.19663604310E+03  0.18542847188E+03  0.29142254811E+03  0.43276551755E+03  0.17120000000E+03 0.  0.
        998    1    1    2    0    0  0.52162804936E-01 -0.25137258254E-01  0.55648692138E+00  0.55958067661E+00  0.10000000000E-01 0. -1.
</event>
<event>
 5    1  0.3934322E-009  0.3800786E+03  0.7957747E-01  0.3450816E+00
         13   -1    0    0    0    0  0.00000000000E+00  0.00000000000E+00  0.14999999963E+04  0.15000000000E+04  0.10566000000E+00 0.  1.
        994   -1    0    0    0    0 -0.00000000000E+00 -0.00000000000E+00  0.11368683772E-12  0.17120000000E+03  0.17120000000E+03 0.  0.
         13    1    1    2    0    0 -0.70685740951E+02 -0.67926684658E+01  0.30176957525E+03  0.31001209981E+03  0.10566000000E+00 0.  1.
        994    1    1    2    0    0 -0.81293501962E+02  0.39352125275E+02  0.46569904832E+02  0.19908646177E+03  0.17120000000E+03 0.  0.
        998    1    1    2    0    0  0.15197924291E+03 -0.32559456809E+02  0.11516605162E+04  0.11621014384E+04  0.10000000000E-01 0.  1.
</event>
<event>
 5    1  0.3934322E-009  0.3883010E+03  0.7957747E-01  0.3415792E+00
         13   -1    0    0    0    0  0.00000000000E+00  0.00000000000E+00  0.14999999963E+04  0.15000000000E+04  0.10566000000E+00 0.  1.
        994   -1    0    0    0    0 -0.00000000000E+00 -0.00000000000E+00  0.11368683772E-12  0.17120000000E+03  0.17120000000E+03 0.  0.
         13    1    1    2    0    0 -0.23624372424E+03  0.45164528537E+02  0.12740533336E+04  0.12965580743E+04  0.10566000000E+00 0.  1.
        994    1    1    2    0    0  0.23723226374E+03 -0.45349960194E+02  0.22059942424E+03  0.36920090983E+03  0.17120000000E+03 0.  0.
        998    1    1    2    0    0 -0.98853950413E+00  0.18543165716E+00  0.53472383991E+01  0.54410158746E+01  0.10000000000E-01 0. -1.
</event>
<event>
 5    1  0.3934322E-009  0.3882998E+03  0.7957747E-01  0.3415797E+00
         13   -1    0    0    0    0  0.00000000000E+00  0.00000000000E+00  0.14999999963E+04  0.15000000000E+04  0.10566000000E+00 0.  1.
        994   -1    0    0    0    0 -0.00000000000E+00 -0.00000000000E+00  0.11368683772E-12  0.17120000000E+03  0.17120000000E+03 0.  0.
         13    1    1    2    0    0 -0.57038135150E+02  0.12494483998E+03  0.82975732779E+03  0.84104803435E+03  0.10566000000E+00 0.  1.
        994    1    1    2    0    0  0.90524466347E+02 -0.20015970400E+03  0.17680112105E+03  0.32988886389E+03  0.17120000000E+03 0.  0.
        998    1    1    2    0    0 -0.33486331196E+02  0.75214864025E+02  0.49344154744E+03  0.50026310176E+03  0.10000000000E-01 0.  1.
</event>
<event>
 5    1  0.3934322E-009  0.3882967E+03  0.7957747E-01  0.3415810E+00
         13   -1    0    0    0    0  0.00000000000E+00  0.00000000000E+00  0.14999999963E+04  0.15000000000E+04  0.10566000000E+00 0.  1.
        994   -1    0    0    0    0 -0.00000000000E+00 -0.00000000000E+00  0.11368683772E-12  0.17120000000E+03  0.17120000000E+03 0.  0.
         13    1    1    2    0    0  0.28974697940E+03  0.17347419760E+03  0.54826187729E+03  0.64392368069E+03  0.10566000000E+00 0.  1.
        994    1    1    2    0    0 -0.29338802215E+03 -0.17533227799E+03  0.94509451035E+03  0.10194758520E+04  0.17120000000E+03 0.  0.
        998    1    1    2    0    0  0.36410427457E+01  0.18580803902E+01  0.66436086412E+01  0.78004673443E+01  0.10000000000E-01 0.  1.
</event>
<event>
 5    1  0.3934322E-009  0.3883003E+03  0.7957747E-01  0.3415795E+00
         13   -1    0    0    0    0  0.00000000000E+00  0.00000000000E+00  0.14999999963E+04  0.15000000000E+04  0.10566000000E+00 0. -1.
        994   -1    0    0    0    0 -0.00000000000E+00 -0.00000000000E+00  0.11368683772E-12  0.17120000000E+03  0.17120000000E+03 0.  0.
         13    1    1    2    0    0  0.17945372241E+03 -0.16965381041E+03  0.11456562970E+04  0.11719703135E+04  0.10566000000E+00 0. -1.
        994    1    1    2    0    0 -0.19173181659E+03  0.18141588388E+03  0.27429982554E+03  0.41739986429E+03  0.17120000000E+03 0.  0.
        998    1    1    2    0    0  0.12278094177E+02 -0.11762073465E+02  0.80043873763E+02  0.81829822167E+02  0.10000000000E-01 0.  1.
</event>
<event>
 5    1  0.3934322E-009  0.3882871E+03  0.7957747E-01  0.3415850E+00
         13   -1    0    0    0    0  0.00000000000E+00  0.00000000000E+00  0.14999999963E+04  0.15000000000E+04  0.10566000000E+00 0.  1.
        994   -1    0    0    0    0 -0.00000000000E+00 -0.00000000000E+00  0.11368683772E-12  0.17120000000E+03  0.17120000000E+03 0.  0.
         13    1    1    2    0    0 -0.15944302434E+03  0.12196704730E+03  0.10009130112E+04  0.10208451919E+04  0.10566000000E+00 0.  1.
        994    1    1    2    0    0  0.19869716818E+03 -0.15219701985E+03  0.24041238069E+03  0.38697810052E+03  0.17120000000E+03 0.  0.
        998    1    1    2    0    0 -0.39254143835E+02  0.30229972546E+02  0.25867460442E+03  0.26337670763E+03  0.10000000000E-01 0.  1.
</event>
<event>
 5    1  0.3934322E-009  0.3883009E+03  0.7957747E-01  0.3415792E+00
         13   -1    0    0    0    0  0.00000000000E+00  0.00000000000E+00  0.14999999963E+04  0.15000000000E+04  0.10566000000E+00 0.  1.
        994   -1    0    0    0    0 -0.00000000000E+00 -0.00000000000E+00  0.11368683772E-12  0.17120000000E+03  0.17120000000E+03 0.  0.
         13    1    1    2    0    0 -0.10665517159E+03  0.18669009162E+03  0.11786422169E+04  0.11980926519E+04  0.10566000000E+00 0.  1.
        994    1    1    2    0    0  0.11696247775E+03 -0.20455854290E+03  0.20804881865E+03  0.35793598536E+03  0.17120000000E+03 0.  0.
        998    1    1    2    0    0 -0.10307306159E+02  0.17868451281E+02  0.11330896075E+03  0.11517136275E+03  0.10000000000E-01 0.  1.
</event>
<event>
 5    1  0.3934322E-009  0.3883010E+03  0.7957747E-01  0.3415792E+00
         13   -1    0    0    0    0  0.00000000000E+00  0.00000000000E+00  0.14999999963E+04  0.15000000000E+04  0.10566000000E+00 0.  1.
        994   -1    0    0    0    0 -0.00000000000E+00 -0.00000000000E+00  0.11368683772E-12  0.17120000000E+03  0.17120000000E+03 0.  0.
         13    1    1    2    0    0 -0.18868179214E+03 -0.16258427771E+03  0.12375535736E+04  0.12623681415E+04  0.10566000000E+00 0.  1.
        994    1    1    2    0    0  0.19127393218E+03  0.16480508636E+03  0.24556713312E+03  0.39161089169E+03  0.17120000000E+03 0.  0.
        998    1    1    2    0    0 -0.25921400401E+01 -0.22208086437E+01  0.16879289547E+02  0.17220966774E+02  0.10000000000E-01 0.  0.
</event>
<event>
 5    1  0.3934322E-009  0.3877993E+03  0.7957747E-01  0.3417886E+00
         13   -1    0    0    0    0  0.00000000000E+00  0.00000000000E+00  0.14999999963E+04  0.15000000000E+04  0.10566000000E+00 0. -1.
        994   -1    0    0    0    0 -0.00000000000E+00 -0.00000000000E+00  0.11368683772E-12  0.17120000000E+03  0.17120000000E+03 0.  0.
         13    1    1    2    0    0 -0.16786179519E+03  0.13660738952E+03  0.12018206600E+04  0.12211519443E+04  0.10566000000E+00 0. -1.
        994    1    1    2    0    0  0.18033821283E+03 -0.14060520803E+03  0.19460304723E+03  0.34564646899E+03  0.17120000000E+03 0.  0.
        998    1    1    2    0    0 -0.12476417644E+02  0.39978185175E+01  0.10357628909E+03  0.10440158673E+03  0.10000000000E-01 0.  1.
</event>
<event>
 5    1  0.3934322E-009  0.3883010E+03  0.7957747E-01  0.3415792E+00
         13   -1    0    0    0    0  0.00000000000E+00  0.00000000000E+00  0.14999999963E+04  0.15000000000E+04  0.10566000000E+00 0. -1.
        994   -1    0    0    0    0 -0.00000000000E+00 -0.00000000000E+00  0.11368683772E-12  0.17120000000E+03  0.17120000000E+03 0.  0.
         13    1    1    2    0    0 -0.21038163077E+03  0.33147514905E+02  0.10743163087E+04  0.10952235984E+04  0.10566000000E+00 0. -1.
        994    1    1    2    0    0  0.24684403960E+03 -0.38888563313E+02  0.23945498448E+03  0.38612488891E+03  0.17120000000E+03 0.  0.
        998    1    1    2    0    0 -0.36462408820E+02  0.57410484085E+01  0.18622870313E+03  0.18985151267E+03  0.10000000000E-01 0. -1.
</event>
<event>
 5    1  0.3934322E-009  0.3814391E+03  0.7957747E-01  0.3444916E+00
         13   -1    0    0    0    0  0.00000000000E+00  0.00000000000E+00  0.14999999963E+04  0.15000000000E+04  0.10566000000E+00 0. -1.
        994   -1    0    0    0    0 -0.00000000000E+00 -0.00000000000E+00  0.11368683772E-12  0.17120000000E+03  0.17120000000E+03 0.  0.
         13    1    1    2    0    0  0.12859004996E+02 -0.23051525306E+02  0.90293678534E+02  0.94072771702E+02  0.10566000000E+00 0. -1.
        994    1    1    2    0    0 -0.10938476812E+03 -0.10735904851E+02  0.44702814395E+02  0.20829802871E+03  0.17120000000E+03 0.  0.
        998    1    1    2    0    0  0.96525763128E+02  0.33787430158E+02  0.13650035033E+04  0.13688291996E+04  0.10000000000E-01 0. -1.
</event>
<event>
 5    1  0.3934322E-009  0.3882230E+03  0.7957747E-01  0.3416117E+00
         13   -1    0    0    0    0  0.00000000000E+00  0.00000000000E+00  0.14999999963E+04  0.15000000000E+04  0.10566000000E+00 0.  1.
        994   -1    0    0    0    0 -0.00000000000E+00 -0.00000000000E+00  0.11368683772E-12  0.17120000000E+03  0.17120000000E+03 0.  0.
         13    1    1    2    0    0  0.16043454776E+03  0.16351593177E+03  0.12773273786E+04  0.12977064180E+04  0.10566000000E+00 0.  1.
        994    1    1    2    0    0 -0.16399712713E+03 -0.16640700390E+03  0.20402751509E+03  0.35429227421E+03  0.17120000000E+03 0.  0.
        998    1    1    2    0    0  0.35625793656E+01  0.28910721309E+01  0.18645102616E+02  0.19201307803E+02  0.10000000000E-01 0.  1.
</event>
<event>
 5    1  0.3934322E-009  0.3882974E+03  0.7957747E-01  0.3415807E+00
         13   -1    0    0    0    0  0.00000000000E+00  0.00000000000E+00  0.14999999963E+04  0.15000000000E+04  0.10566000000E+00 0. -1.
        994   -1    0    0    0    0 -0.00000000000E+00 -0.00000000000E+00  0.11368683772E-12  0.17120000000E+03  0.17120000000E+03 0.  0.
         13    1    1    2    0    0 -0.25678264118E+03 -0.26257001429E+02  0.12405450219E+04  0.12671143269E+04  0.10566000000E+00 0. -1.
        994    1    1    2    0    0  0.25680456591E+03  0.26265028787E+02  0.25939973715E+03  0.40402487602E+03  0.17120000000E+03 0.  0.
        998    1    1    2    0    0 -0.21924736688E-01 -0.80273575453E-02  0.55237277236E-01  0.60797116251E-01  0.10000000000E-01 0.  1.
</event>
<event>
 5    1  0.3934322E-009  0.3882978E+03  0.7957747E-01  0.3415805E+00
         13   -1    0    0    0    0  0.00000000000E+00  0.00000000000E+00  0.14999999963E+04  0.15000000000E+04  0.10566000000E+00 0. -1.
        994   -1    0    0    0    0 -0.00000000000E+00 -0.00000000000E+00  0.11368683772E-12  0.17120000000E+03  0.17120000000E+03 0.  0.
         13    1    1    2    0    0  0.12805913740E+03 -0.12159774583E+03  0.10265250640E+04  0.10416039903E+04  0.10566000000E+00 0. -1.
        994    1    1    2    0    0 -0.16269301681E+03  0.15592724626E+03  0.18747428079E+03  0.33946777432E+03  0.17120000000E+03 0.  0.
        998    1    1    2    0    0  0.34633879411E+02 -0.34329500424E+02  0.28600065149E+03  0.29012823537E+03  0.10000000000E-01 0.  1.
</event>
<event>
 5    1  0.3934322E-009  0.3882997E+03  0.7957747E-01  0.3415797E+00
         13   -1    0    0    0    0  0.00000000000E+00  0.00000000000E+00  0.14999999963E+04  0.15000000000E+04  0.10566000000E+00 0.  1.
        994   -1    0    0    0    0 -0.00000000000E+00 -0.00000000000E+00  0.11368683772E-12  0.17120000000E+03  0.17120000000E+03 0.  0.
         13    1    1    2    0    0 -0.23094936780E+03 -0.93775151816E+02  0.12591704800E+04  0.12836049620E+04  0.10566000000E+00 0.  1.
        994    1    1    2    0    0  0.23127056226E+03  0.93957463105E+02  0.23884954410E+03  0.38558088977E+03  0.17120000000E+03 0.  0.
        998    1    1    2    0    0 -0.32119446126E+00 -0.18231128843E+00  0.19799721364E+01  0.20141481944E+01  0.10000000000E-01 0. -1.
</event>
<event>
 5    1  0.3934322E-009  0.3883008E+03  0.7957747E-01  0.3415793E+00
         13   -1    0    0    0    0  0.00000000000E+00  0.00000000000E+00  0.14999999963E+04  0.15000000000E+04  0.10566000000E+00 0.  1.
        994   -1    0    0    0    0 -0.00000000000E+00 -0.00000000000E+00  0.11368683772E-12  0.17120000000E+03  0.17120000000E+03 0.  0.
         13    1    1    2    0    0  0.27668576392E+03 -0.83970807919E+02  0.11469021096E+04  0.11827893171E+04  0.10566000000E+00 0.  1.
        994    1    1    2    0    0 -0.27720695992E+03  0.84134920190E+02  0.35100327642E+03  0.48624594958E+03  0.17120000000E+03 0.  0.
        998    1    1    2    0    0  0.52119599978E+00 -0.16411227145E+00  0.20946102542E+01  0.21647332919E+01  0.10000000000E-01 0.  1.
</event>
<event>
 5    1  0.3934322E-009  0.3882992E+03  0.7957747E-01  0.3415799E+00
         13   -1    0    0    0    0  0.00000000000E+00  0.00000000000E+00  0.14999999963E+04  0.15000000000E+04  0.10566000000E+00 0.  1.
        994   -1    0    0    0    0 -0.00000000000E+00 -0.00000000000E+00  0.11368683772E-12  0.17120000000E+03  0.17120000000E+03 0.  0.
         13    1    1    2    0    0 -0.14676030956E+03  0.54932841551E+02  0.82714089963E+03  0.84185407557E+03  0.10566000000E+00 0.  1.
        994    1    1    2    0    0  0.22593201303E+03 -0.84641579517E+02  0.22003231400E+03  0.36869110472E+03  0.17120000000E+03 0.  0.
        998    1    1    2    0    0 -0.79171703466E+02  0.29708737966E+02  0.45282678264E+03  0.46065481971E+03  0.10000000000E-01 0.  1.
</event>
<event>
 5    1  0.3934322E-009  0.3881169E+03  0.7957747E-01  0.3416560E+00
         13   -1    0    0    0    0  0.00000000000E+00  0.00000000000E+00  0.14999999963E+04  0.15000000000E+04  0.10566000000E+00 0. -1.
        994   -1    0    0    0    0 -0.00000000000E+00 -0.00000000000E+00  0.11368683772E-12  0.17120000000E+03  0.17120000000E+03 0.  0.
         13    1    1    2    0    0  0.16602090474E+03  0.83027948500E+02  0.10788572757E+04  0.10947098308E+04  0.10566000000E+00 0. -1.
        994    1    1    2    0    0 -0.19810014728E+03 -0.10761922711E+03  0.18789012476E+03  0.33976124761E+03  0.17120000000E+03 0.  0.
        998    1    1    2    0    0  0.32079242540E+02  0.24591278607E+02  0.23325259580E+03  0.23672892162E+03  0.10000000000E-01 0. -1.
</event>
<event>
 5    1  0.3934322E-009  0.3883009E+03  0.7957747E-01  0.3415792E+00
         13   -1    0    0    0    0  0.00000000000E+00  0.00000000000E+00  0.14999999963E+04  0.15000000000E+04  0.10566000000E+00 0. -1.
        994   -1    0    0    0    0 -0.00000000000E+00 -0.00000000000E+00  0.11368683772E-12  0.17120000000E+03  0.17120000000E+03 0.  0.
         13    1    1    2    0    0 -0.16405774521E+03 -0.24655207046E+03  0.10956229516E+04  0.11349416419E+04  0.10566000000E+00 0. -1.
        994    1    1    2    0    0  0.16635856486E+03  0.24994856572E+03  0.38909928675E+03  0.52043938413E+03  0.17120000000E+03 0.  0.
        998    1    1    2    0    0 -0.23008196433E+01 -0.33964952597E+01  0.15277757902E+02  0.15818973974E+02  0.10000000000E-01 0.  1.
</event>
<event>
 5    1  0.3934322E-009  0.3877416E+03  0.7957747E-01  0.3418127E+00
         13   -1    0    0    0    0  0.00000000000E+00  0.00000000000E+00  0.14999999963E+04  0.15000000000E+04  0.10566000000E+00 0.  1.
        994   -1    0    0    0    0 -0.00000000000E+00 -0.00000000000E+00  0.11368683772E-12  0.17120000000E+03  0.17120000000E+03 0.  0.
         13    1    1    2    0    0  0.16633758357E+03  0.16723669155E+03  0.12176392269E+04  0.12402748086E+04  0.10566000000E+00 0.  1.
        994    1    1    2    0    0 -0.16989652205E+03 -0.17887585787E+03  0.23297964595E+03  0.38006625233E+03  0.17120000000E+03 0.  0.
        998    1    1    2    0    0  0.35589384860E+01  0.11639166320E+02  0.49381123435E+02  0.50858939111E+02  0.10000000000E-01 0. -1.
</event>
<event>
 5    1  0.3934322E-009  0.3881700E+03  0.7957747E-01  0.3416338E+00
         13   -1    0    0    0    0  0.00000000000E+00  0.00000000000E+00  0.14999999963E+04  0.15000000000E+04  0.10566000000E+00 0. -1.
        994   -1    0    0    0    0 -0.00000000000E+00 -0.00000000000E+00  0.11368683772E-12  0.17120000000E+03  0.17120000000E+03 0.  0.
         13    1    1    2    0    0 -0.12288091215E+03 -0.21326155741E+03  0.12544617934E+04  0.12783796825E+04  0.10566000000E+00 0. -1.
        994    1    1    2    0    0  0.12348691400E+03  0.21408507340E+03  0.23333246977E+03  0.38057183032E+03  0.17120000000E+03 0.  0.
        998    1    1    2    0    0 -0.60600184647E+00 -0.82351599621E+00  0.12205733144E+02  0.12248487189E+02  0.10000000000E-01 0. -1.
</event>
<event>
 5    1  0.3934322E-009  0.3882903E+03  0.7957747E-01  0.3415836E+00
         13   -1    0    0    0    0  0.00000000000E+00  0.00000000000E+00  0.14999999963E+04  0.15000000000E+04  0.10566000000E+00 0.  1.
        994   -1    0    0    0    0 -0.00000000000E+00 -0.00000000000E+00  0.11368683772E-12  0.17120000000E+03  0.17120000000E+03 0.  0.
         13    1    1    2    0    0  0.21679865104E+03 -0.61022113260E+02  0.12935788544E+04  0.13130390768E+04  0.10566000000E+00 0.  1.
        994    1    1    2    0    0 -0.21932105611E+03  0.61299063479E+02  0.19209560476E+03  0.34361237201E+03  0.17120000000E+03 0.  0.
        998    1    1    2    0    0  0.25224050616E+01 -0.27695021897E+00  0.14325537131E+02  0.14548551227E+02  0.10000000000E-01 0. -1.
</event>
<event>
 5    1  0.3934322E-009  0.3717705E+03  0.7957747E-01  0.3487793E+00
         13   -1    0    0    0    0  0.00000000000E+00  0.00000000000E+00  0.14999999963E+04  0.15000000000E+04  0.10566000000E+00 0.  1.
        994   -1    0    0    0    0 -0.00000000000E+00 -0.00000000000E+00  0.11368683772E-12  0.17120000000E+03  0.17120000000E+03 0.  0.
         13    1    1    2    0    0 -0.20618658495E+02 -0.17272636453E+03  0.76527210197E+03  0.78479355712E+03  0.10566000000E+00 0.  1.
        994    1    1    2    0    0  0.11419756550E+03  0.18951208744E+03  0.20150620972E+03  0.34477544548E+03  0.17120000000E+03 0.  0.
        998    1    1    2    0    0 -0.93578907003E+02 -0.16785722911E+02  0.53322168458E+03  0.54163099740E+03  0.10000000000E-01 0.  1.
</event>
<event>
 5    1  0.3934322E-009  0.3883010E+03  0.7957747E-01  0.3415792E+00
         13   -1    0    0    0    0  0.00000000000E+00  0.00000000000E+00  0.14999999963E+04  0.15000000000E+04  0.10566000000E+00 0.  1.
        994   -1    0    0    0    0 -0.00000000000E+00 -0.00000000000E+00  0.11368683772E-12  0.17120000000E+03  0.17120000000E+03 0.  0.
         13    1    1    2    0    0  0.10473773224E+03 -0.17679821558E+03  0.11837478148E+04  0.12014518308E+04  0.10566000000E+00 0.  1.
        994    1    1    2    0    0 -0.11581753367E+03  0.19549616423E+03  0.19110744478E+03  0.34273013697E+03  0.17120000000E+03 0.  0.
        998    1    1    2    0    0  0.11079801430E+02 -0.18697948646E+02  0.12514473672E+03  0.12701803223E+03  0.10000000000E-01 0.  0.
</event>
<event>
 5    1  0.3934322E-009  0.3882922E+03  0.7957747E-01  0.3415828E+00
         13   -1    0    0    0    0  0.00000000000E+00  0.00000000000E+00  0.14999999963E+04  0.15000000000E+04  0.10566000000E+00 0.  1.
        994   -1    0    0    0    0 -0.00000000000E+00 -0.00000000000E+00  0.11368683772E-12  0.17120000000E+03  0.17120000000E+03 0.  0.
         13    1    1    2    0    0 -0.18481080338E+03  0.12679568215E+03  0.13022752105E+04  0.13214207933E+04  0.10566000000E+00 0.  1.
        994    1    1    2    0    0  0.18605083757E+03 -0.12799675818E+03  0.18840254772E+03  0.34029846349E+03  0.17120000000E+03 0.  0.
        998    1    1    2    0    0 -0.12400341915E+01  0.12010760278E+01  0.93222380803E+01  0.94807431801E+01  0.10000000000E-01 0. -1.
</event>
<event>
 5    1  0.3934322E-009  0.3882948E+03  0.7957747E-01  0.3415818E+00
         13   -1    0    0    0    0  0.00000000000E+00  0.00000000000E+00  0.14999999963E+04  0.15000000000E+04  0.10566000000E+00 0.  1.
        994   -1    0    0    0    0 -0.00000000000E+00 -0.00000000000E+00  0.11368683772E-12  0.17120000000E+03  0.17120000000E+03 0.  0.
         13    1    1    2    0    0 -0.40433085157E+02  0.24523441954E+03  0.12634162195E+04  0.12876316670E+04  0.10566000000E+00 0.  1.
        994    1    1    2    0    0  0.40425546077E+02 -0.24528516938E+03  0.23646085924E+03  0.38343476244E+03  0.17120000000E+03 0.  0.
        998    1    1    2    0    0  0.75390799305E-02  0.50749838883E-01  0.12291754217E+00  0.13357060323E+00  0.10000000000E-01 0.  1.
</event>
<event>
 5    1  0.3934322E-009  0.3883009E+03  0.7957747E-01  0.3415792E+00
         13   -1    0    0    0    0  0.00000000000E+00  0.00000000000E+00  0.14999999963E+04  0.15000000000E+04  0.10566000000E+00 0. -1.
        994   -1    0    0    0    0 -0.00000000000E+00 -0.00000000000E+00  0.11368683772E-12  0.17120000000E+03  0.17120000000E+03 0.  0.
         13    1    1    2    0    0 -0.30388648373E+01  0.14709944225E+03  0.35627380873E+03  0.38545884159E+03  0.10566000000E+00 0. -1.
        994    1    1    2    0    0  0.74240281845E+01 -0.34410328510E+03  0.66613609358E+03  0.76909617226E+03  0.17120000000E+03 0.  0.
        998    1    1    2    0    0 -0.43851633472E+01  0.19700384285E+03  0.47759009397E+03  0.51664498615E+03  0.10000000000E-01 0. -1.
</event>
<event>
 5    1  0.3934322E-009  0.3883002E+03  0.7957747E-01  0.3415795E+00
         13   -1    0    0    0    0  0.00000000000E+00  0.00000000000E+00  0.14999999963E+04  0.15000000000E+04  0.10566000000E+00 0. -1.
        994   -1    0    0    0    0 -0.00000000000E+00 -0.00000000000E+00  0.11368683772E-12  0.17120000000E+03  0.17120000000E+03 0.  0.
         13    1    1    2    0    0  0.13654216697E+03  0.39843793335E+02  0.74925090200E+03  0.76263242557E+03  0.10566000000E+00 0. -1.
        994    1    1    2    0    0 -0.23337475625E+03 -0.68147473722E+02  0.22409604796E+03  0.37233900379E+03  0.17120000000E+03 0.  0.
        998    1    1    2    0    0  0.96832589285E+02  0.28303680387E+02  0.52665304632E+03  0.53622857064E+03  0.10000000000E-01 0. -1.
</event>
<event>
 5    1  0.3934322E-009  0.3881456E+03  0.7957747E-01  0.3416440E+00
         13   -1    0    0    0    0  0.00000000000E+00  0.00000000000E+00  0.14999999963E+04  0.15000000000E+04  0.10566000000E+00 0. -1.
        994   -1    0    0    0    0 -0.00000000000E+00 -0.00000000000E+00  0.11368683772E-12  0.17120000000E+03  0.17120000000E+03 0.  0.
         13    1    1    2    0    0  0.10967563928E+03 -0.24505558243E+03  0.11884861492E+04  0.12184335527E+04  0.10566000000E+00 0. -1.
        994    1    1    2    0    0 -0.11042206982E+03  0.24720872963E+03  0.29303497529E+03  0.43414758579E+03  0.17120000000E+03 0.  0.
        998    1    1    2    0    0  0.74643053869E+00 -0.21531471970E+01  0.18478871748E+02  0.18618861471E+02  0.10000000000E-01 0. -1.
</event>
<event>
 5    1  0.3934322E-009  0.3882280E+03  0.7957747E-01  0.3416096E+00
         13   -1    0    0    0    0  0.00000000000E+00  0.00000000000E+00  0.14999999963E+04  0.15000000000E+04  0.10566000000E+00 0. -1.
        994   -1    0    0    0    0 -0.00000000000E+00 -0.00000000000E+00  0.11368683772E-12  0.17120000000E+03  0.17120000000E+03 0.  0.
         13    1    1    2    0    0  0.21235824744E+03  0.36265332221E+02  0.11619225950E+04  0.11817255720E+04  0.10566000000E+00 0. -1.
        994    1    1    2    0    0 -0.23621842083E+03 -0.37045897842E+02  0.21547362755E+03  0.36456805271E+03  0.17120000000E+03 0.  0.
        998    1    1    2    0    0  0.23860173394E+02  0.78056562149E+00  0.12260377369E+03  0.12490637526E+03  0.10000000000E-01 0. -1.
</event>
<event>
 5    1  0.3934322E-009  0.3882826E+03  0.7957747E-01  0.3415868E+00
         13   -1    0    0    0    0  0.00000000000E+00  0.00000000000E+00  0.14999999963E+04  0.15000000000E+04  0.10566000000E+00 0.  1.
        994   -1    0    0    0    0 -0.00000000000E+00 -0.00000000000E+00  0.11368683772E-12  0.17120000000E+03  0.17120000000E+03 0.  0.
         13    1    1    2    0    0 -0.44060701840E+02 -0.23703214025E+03  0.12513776073E+04  0.12743906420E+04  0.10566000000E+00 0.  1.
        994    1    1    2    0    0  0.44743064555E+02  0.24039598784E+03  0.22723888965E+03  0.37515213683E+03  0.17120000000E+03 0.  0.
        998    1    1    2    0    0 -0.68236271470E+00 -0.33638475965E+01  0.21383499280E+02  0.21657221220E+02  0.10000000000E-01 0.  1.
</event>
<event>
 5    1  0.3934322E-009  0.3883007E+03  0.7957747E-01  0.3415793E+00
         13   -1    0    0    0    0  0.00000000000E+00  0.00000000000E+00  0.14999999963E+04  0.15000000000E+04  0.10566000000E+00 0.  1.
        994   -1    0    0    0    0 -0.00000000000E+00 -0.00000000000E+00  0.11368683772E-12  0.17120000000E+03  0.17120000000E+03 0.  0.
         13    1    1    2    0    0  0.55579346514E+02 -0.21483081084E+03  0.99570867314E+03  0.10201358311E+04  0.10566000000E+00 0.  1.
        994    1    1    2    0    0 -0.67262372858E+02  0.26118990495E+03  0.28983861157E+03  0.43134702272E+03  0.17120000000E+03 0.  0.
        998    1    1    2    0    0  0.11683026344E+02 -0.46359094111E+02  0.21445271157E+03  0.21971714614E+03  0.10000000000E-01 0.  1.
</event>
<event>
 5    1  0.3934322E-009  0.3883010E+03  0.7957747E-01  0.3415792E+00
         13   -1    0    0    0    0  0.00000000000E+00  0.00000000000E+00  0.14999999963E+04  0.15000000000E+04  0.10566000000E+00 0.  1.
        994   -1    0    0    0    0 -0.00000000000E+00 -0.00000000000E+00  0.11368683772E-12  0.17120000000E+03  0.17120000000E+03 0.  0.
         13    1    1    2    0    0  0.86858172355E+02 -0.18591162486E+03  0.10859618276E+04  0.11051789794E+04  0.10566000000E+00 0.  1.
        994    1    1    2    0    0 -0.10228102274E+03  0.21894059664E+03  0.22087311036E+03  0.36944656359E+03  0.17120000000E+03 0.  0.
        998    1    1    2    0    0  0.15422850382E+02 -0.33028971771E+02  0.19316505829E+03  0.19657445697E+03  0.10000000000E-01 0.  1.
</event>
<event>
 5    1  0.3934322E-009  0.3833540E+03  0.7957747E-01  0.3436683E+00
         13   -1    0    0    0    0  0.00000000000E+00  0.00000000000E+00  0.14999999963E+04  0.15000000000E+04  0.10566000000E+00 0.  1.
        994   -1    0    0    0    0 -0.00000000000E+00 -0.00000000000E+00  0.11368683772E-12  0.17120000000E+03  0.17120000000E+03 0.  0.
         13    1    1    2    0    0 -0.11984670266E+02 -0.14836361512E+01  0.25335205446E+02  0.28066301798E+02  0.10566000000E+00 0.  1.
        994    1    1    2    0    0  0.32095282397E+02  0.89572987459E+02  0.32981689315E+02  0.19862189976E+03  0.17120000000E+03 0.  0.
        998    1    1    2    0    0 -0.20110612131E+02 -0.88089351308E+02  0.14416831015E+04  0.14445117984E+04  0.10000000000E-01 0.  1.
</event>
<event>
 5    1  0.3934322E-009  0.3883010E+03  0.7957747E-01  0.3415792E+00
         13   -1    0    0    0    0  0.00000000000E+00  0.00000000000E+00  0.14999999963E+04  0.15000000000E+04  0.10566000000E+00 0. -1.
        994   -1    0    0    0    0 -0.00000000000E+00 -0.00000000000E+00  0.11368683772E-12  0.17120000000E+03  0.17120000000E+03 0.  0.
         13    1    1    2    0    0  0.18717320389E+03  0.88238276504E+02  0.10444505592E+04  0.10647519822E+04  0.10566000000E+00 0. -1.
        994    1    1    2    0    0 -0.22593810796E+03 -0.10652863125E+03  0.23923133470E+03  0.38592414981E+03  0.17120000000E+03 0.  0.
        998    1    1    2    0    0  0.38764904070E+02  0.18290354741E+02  0.21631810235E+03  0.22052386803E+03  0.10000000000E-01 0. -1.
</event>
<event>
 5    1  0.3934322E-009  0.3882662E+03  0.7957747E-01  0.3415937E+00
         13   -1    0    0    0    0  0.00000000000E+00  0.00000000000E+00  0.14999999963E+04  0.15000000000E+04  0.10566000000E+00 0. -1.
        994   -1    0    0    0    0 -0.00000000000E+00 -0.00000000000E+00  0.11368683772E-12  0.17120000000E+03  0.17120000000E+03 0.  0.
         13    1    1    2    0    0 -0.94173524631E+02 -0.41543903240E+02  0.54277953065E+03  0.55245287463E+03  0.10566000000E+00 0. -1.
        994    1    1    2    0    0  0.22358026781E+03  0.89778590090E+02  0.21935443065E+03  0.36806811548E+03  0.17120000000E+03 0.  0.
        998    1    1    2    0    0 -0.12940674318E+03 -0.48234686850E+02  0.73786603499E+03  0.75067900988E+03  0.10000000000E-01 0. -1.
</event>
<event>
 5    1  0.3934322E-009  0.3883008E+03  0.7957747E-01  0.3415793E+00
         13   -1    0    0    0    0  0.00000000000E+00  0.00000000000E+00  0.14999999963E+04  0.15000000000E+04  0.10566000000E+00 0.  1.
        994   -1    0    0    0    0 -0.00000000000E+00 -0.00000000000E+00  0.11368683772E-12  0.17120000000E+03  0.17120000000E+03 0.  0.
         13    1    1    2    0    0 -0.31902239500E+02 -0.32096871913E+03  0.82027974774E+03  0.88141791862E+03  0.10566000000E+00 0.  1.
        994    1    1    2    0    0  0.33811061597E+02  0.33976536526E+03  0.63197417414E+03  0.73843380753E+03  0.17120000000E+03 0.  0.
        998    1    1    2    0    0 -0.19088220970E+01 -0.18796646131E+02  0.47746074396E+02  0.51348273855E+02  0.10000000000E-01 0. -1.
</event>
<event>
 5    1  0.3934322E-009  0.3882960E+03  0.7957747E-01  0.3415813E+00
         13   -1    0    0    0    0  0.00000000000E+00  0.00000000000E+00  0.14999999963E+04  0.15000000000E+04  0.10566000000E+00 0.  1.
        994   -1    0    0    0    0 -0.00000000000E+00 -0.00000000000E+00  0.11368683772E-12  0.17120000000E+03  0.17120000000E+03 0.  0.
         13    1    1    2    0    0  0.21294034512E+03 -0.16267334601E+03  0.12147711768E+04  0.12439755750E+04  0.10566000000E+00 0.  1.
        994    1    1    2    0    0 -0.21295175462E+03  0.16270802502E+03  0.28513268225E+03  0.42712110424E+03  0.17120000000E+03 0.  0.
        998    1    1    2    0    0  0.11409502164E-01 -0.34679003367E-01  0.96137268177E-01  0.10332078371E+00  0.10000000000E-01 0.  1.
</event>
<event>
 5    1  0.3934322E-009  0.3882953E+03  0.7957747E-01  0.3415815E+00
         13   -1    0    0    0    0  0.00000000000E+00  0.00000000000E+00  0.14999999963E+04  0.15000000000E+04  0.10566000000E+00 0.  1.
        994   -1    0    0    0    0 -0.00000000000E+00 -0.00000000000E+00  0.11368683772E-12  0.17120000000E+03  0.17120000000E+03 0.  0.
         13    1    1    2    0    0 -0.13727262331E+03 -0.17530797123E+03  0.12062667626E+04  0.12266442726E+04  0.10566000000E+00 0.  1.
        994    1    1    2    0    0  0.14599331853E+03  0.18691187732E+03  0.21127032272E+03  0.36082501050E+03  0.17120000000E+03 0.  0.
        998    1    1    2    0    0 -0.87206952262E+01 -0.11603906095E+02  0.82462910958E+02  0.83730716858E+02  0.10000000000E-01 0. -1.
</event>
<event>
 5    1  0.3934322E-009  0.3882996E+03  0.7957747E-01  0.3415798E+00
         13   -1    0    0    0    0  0.00000000000E+00  0.00000000000E+00  0.14999999963E+04  0.15000000000E+04  0.10566000000E+00 0. -1.
        994   -1    0    0    0    0 -0.00000000000E+00 -0.00000000000E+00  0.11368683772E-12  0.17120000000E+03  0.17120000000E+03 0.  0.
         13    1    1    2    0    0 -0.23635791696E+03 -0.80322001724E+02  0.12605743673E+04  0.12850542539E+04  0.10566000000E+00 0. -1.
        994    1    1    2    0    0  0.23641301917E+03  0.80356225403E+02  0.23900897350E+03  0.38572395312E+03  0.17120000000E+03 0.  0.
        998    1    1    2    0    0 -0.55102206643E-01 -0.34223678814E-01  0.41665550582E+00  0.42179298702E+00  0.10000000000E-01 0. -1.
</event>
<event>
 5    1  0.3934322E-009  0.3861497E+03  0.7957747E-01  0.3424811E+00
         13   -1    0    0    0    0  0.00000000000E+00  0.00000000000E+00  0.14999999963E+04  0.15000000000E+04  0.10566000000E+00 0. -1.
        994   -1    0    0    0    0 -0.00000000000E+00 -0.00000000000E+00  0.11368683772E-12  0.17120000000E+03  0.17120000000E+03 0.  0.
         13    1    1    2    0    0 -0.73599516513E+01  0.35720115189E+02  0.19946510904E+03  0.20277188268E+03  0.10566000000E+00 0. -1.
        994    1    1    2    0    0  0.43739784728E+02 -0.11740667719E+03  0.54297417067E+02  0.21898663456E+03  0.17120000000E+03 0.  0.
        998    1    1    2    0    0 -0.36379833077E+02  0.81686562005E+02  0.12462374702E+04  0.12494414828E+04  0.10000000000E-01 0. -1.
</event>
<event>
 5    1  0.3934322E-009  0.3883003E+03  0.7957747E-01  0.3415795E+00
         13   -1    0    0    0    0  0.00000000000E+00  0.00000000000E+00  0.14999999963E+04  0.15000000000E+04  0.10566000000E+00 0.  1.
        994   -1    0    0    0    0 -0.00000000000E+00 -0.00000000000E+00  0.11368683772E-12  0.17120000000E+03  0.17120000000E+03 0.  0.
         13    1    1    2    0    0 -0.15873857835E+03  0.16660881392E+03  0.12366629536E+04  0.12578917700E+04  0.10566000000E+00 0.  1.
        994    1    1    2    0    0  0.16498269979E+03 -0.17291314412E+03  0.21513140518E+03  0.36429275059E+03  0.17120000000E+03 0.  0.
        998    1    1    2    0    0 -0.62441214474E+01  0.63043301963E+01  0.48205637502E+02  0.49015479380E+02  0.10000000000E-01 0.  1.
</event>
<event>
 5    1  0.3934322E-009  0.3882246E+03  0.7957747E-01  0.3416110E+00
         13   -1    0    0    0    0  0.00000000000E+00  0.00000000000E+00  0.14999999963E+04  0.15000000000E+04  0.10566000000E+00 0.  1.
        994   -1    0    0    0    0 -0.00000000000E+00 -0.00000000000E+00  0.11368683772E-12  0.17120000000E+03  0.17120000000E+03 0.  0.
         13    1    1    2    0    0  0.22860455546E+03 -0.33275547950E+02  0.12967770425E+04  0.13171932334E+04  0.10566000000E+00 0.  1.
        994    1    1    2    0    0 -0.22950129599E+03  0.33585873714E+02  0.20058065150E+03  0.35119922200E+03  0.17120000000E+03 0.  0.
        998    1    1    2    0    0  0.89674052435E+00 -0.31032576373E+00  0.26423022297E+01  0.28075446071E+01  0.10000000000E-01 0.  1.
</event>
<event>
 5    1  0.3934322E-009  0.3883009E+03  0.7957747E-01  0.3415792E+00
         13   -1    0    0    0    0  0.00000000000E+00  0.00000000000E+00  0.14999999963E+04  0.15000000000E+04  0.10566000000E+00 0. -1.
        994   -1    0    0    0    0 -0.00000000000E+00 -0.00000000000E+00  0.11368683772E-12  0.17120000000E+03  0.17120000000E+03 0.  0.
         13    1    1    2    0    0 -0.18205136884E+03  0.20924819191E+03  0.11431722609E+04  0.11763376794E+04  0.10566000000E+00 0. -1.
        994    1    1    2    0    0  0.18611425723E+03 -0.21396947874E+03  0.33096989244E+03  0.46826484417E+03  0.17120000000E+03 0.  0.
        998    1    1    2    0    0 -0.40628883900E+01  0.47212868288E+01  0.25857842902E+02  0.26597476402E+02  0.10000000000E-01 0. -1.
</event>
<event>
 5    1  0.3934322E-009  0.3882997E+03  0.7957747E-01  0.3415797E+00
         13   -1    0    0    0    0  0.00000000000E+00  0.00000000000E+00  0.14999999963E+04  0.15000000000E+04  0.10566000000E+00 0.  1.
        994   -1    0    0    0    0 -0.00000000000E+00 -0.00000000000E+00  0.11368683772E-12  0.17120000000E+03  0.17120000000E+03 0.  0.
         13    1    1    2    0    0 -0.15194352995E+03 -0.21092604619E+03  0.12248401298E+04  0.12521221937E+04  0.10566000000E+00 0.  1.
        994    1    1    2    0    0  0.15281935465E+03  0.21225709471E+03  0.26803043622E+03  0.41177249076E+03  0.17120000000E+03 0.  0.
        998    1    1    2    0    0 -0.87582469480E+00 -0.13310485173E+01  0.71294302579E+01  0.73053155205E+01  0.10000000000E-01 0.  1.
</event>
<event>
 5    1  0.3934322E-009  0.3882906E+03  0.7957747E-01  0.3415835E+00
         13   -1    0    0    0    0  0.00000000000E+00  0.00000000000E+00  0.14999999963E+04  0.15000000000E+04  0.10566000000E+00 0.  1.
        994   -1    0    0    0    0 -0.00000000000E+00 -0.00000000000E+00  0.11368683772E-12  0.17120000000E+03  0.17120000000E+03 0.  0.
         13    1    1    2    0    0 -0.17016098643E+02 -0.16644523955E+03  0.97416895446E+03  0.98843246020E+03  0.10566000000E+00 0.  1.
        994    1    1    2    0    0  0.23101157571E+02  0.22246613213E+03  0.18426087176E+03  0.33658038013E+03  0.17120000000E+03 0.  0.
        998    1    1    2    0    0 -0.60850589273E+01 -0.56020892578E+02  0.34157017006E+03  0.34618715967E+03  0.10000000000E-01 0.  1.
</event>
<event>
 5    1  0.3934322E-009  0.3883009E+03  0.7957747E-01  0.3415792E+00
         13   -1    0    0    0    0  0.00000000000E+00  0.00000000000E+00  0.14999999963E+04  0.15000000000E+04  0.10566000000E+00 0. -1.
        994   -1    0    0    0    0 -0.00000000000E+00 -0.00000000000E+00  0.11368683772E-12  0.17120000000E+03  0.17120000000E+03 0.  0.
         13    1    1    2    0    0 -0.14656676541E+03  0.21652511527E+03  0.11958856415E+04  0.12241353769E+04  0.10566000000E+00 0. -1.
        994    1    1    2    0    0  0.14941141331E+03 -0.22065100076E+03  0.28100870584E+03  0.42342173695E+03  0.17120000000E+03 0.  0.
        998    1    1    2    0    0 -0.28446479014E+01  0.41258854883E+01  0.23105648916E+02  0.23642886130E+02  0.10000000000E-01 0. -1.
</event>
<event>
 5    1  0.3934322E-009  0.3882778E+03  0.7957747E-01  0.3415889E+00
         13   -1    0    0    0    0  0.00000000000E+00  0.00000000000E+00  0.14999999963E+04  0.15000000000E+04  0.10566000000E+00 0. -1.
        994   -1    0    0    0    0 -0.00000000000E+00 -0.00000000000E+00  0.11368683772E-12  0.17120000000E+03  0.17120000000E+03 0.  0.
         13    1    1    2    0    0  0.20690541742E+03  0.84966536857E+02  0.12928710163E+04  0.13120764612E+04  0.10566000000E+00 0. -1.
        994    1    1    2    0    0 -0.20941274241E+03 -0.85557043028E+02  0.18917186986E+03  0.34098261046E+03  0.17120000000E+03 0.  0.
        998    1    1    2    0    0  0.25073249815E+01  0.59050617070E+00  0.17957110118E+02  0.18140928308E+02  0.10000000000E-01 0.  1.
</event>
<event>
 5    1  0.3934322E-009  0.3883000E+03  0.7957747E-01  0.3415796E+00
         13   -1    0    0    0    0  0.00000000000E+00  0.00000000000E+00  0.14999999963E+04  0.15000000000E+04  0.10566000000E+00 0.  1.
        994   -1    0    0    0    0 -0.00000000000E+00 -0.00000000000E+00  0.11368683772E-12  0.17120000000E+03  0.17120000000E+03 0.  0.
         13    1    1    2    0    0  0.19470630734E+03 -0.13049841667E+03  0.12899951682E+04  0.13111170535E+04  0.10566000000E+00 0.  1.
        994    1    1    2    0    0 -0.19523973179E+03  0.13078395334E+03  0.20672046918E+03  0.35674330786E+03  0.17120000000E+03 0.  0.
        998    1    1    2    0    0  0.53342444734E+00 -0.28553666871E+00  0.32843588933E+01  0.33396386287E+01  0.10000000000E-01 0.  1.
</event>
<event>
 5    1  0.3934322E-009  0.3882990E+03  0.7957747E-01  0.3415800E+00
         13   -1    0    0    0    0  0.00000000000E+00  0.00000000000E+00  0.14999999963E+04  0.15000000000E+04  0.10566000000E+00 0. -1.
        994   -1    0    0    0    0 -0.00000000000E+00 -0.00000000000E+00  0.11368683772E-12  0.17120000000E+03  0.17120000000E+03 0.  0.
         13    1    1    2    0    0 -0.19753345572E+03 -0.13952914098E+03  0.12782672320E+04  0.13009438785E+04  0.10566000000E+00 0. -1.
        994    1    1    2    0    0  0.19756089525E+03  0.13957515215E+03  0.22139624211E+03  0.36991521522E+03  0.17120000000E+03 0.  0.
        998    1    1    2    0    0 -0.27439532942E-01 -0.46011170327E-01  0.33652213053E+00  0.34090629225E+00  0.10000000000E-01 0.  1.
</event>
<event>
 5    1  0.3934322E-009  0.3882869E+03  0.7957747E-01  0.3415851E+00
         13   -1    0    0    0    0  0.00000000000E+00  0.00000000000E+00  0.14999999963E+04  0.15000000000E+04  0.10566000000E+00 0.  1.
        994   -1    0    0    0    0 -0.00000000000E+00 -0.00000000000E+00  0.11368683772E-12  0.17120000000E+03  0.17120000000E+03 0.  0.
         13    1    1    2    0    0  0.96605957756E+02  0.23389795300E+03  0.12338374378E+04  0.12595220512E+04  0.10566000000E+00 0.  1.
        994    1    1    2    0    0 -0.97210059447E+02 -0.23624903325E+03  0.25279894407E+03  0.39809565118E+03  0.17120000000E+03 0.  0.
        998    1    1    2    0    0  0.60410169013E+00  0.23510802486E+01  0.13363614450E+02  0.13582297609E+02  0.10000000000E-01 0. -1.
</event>
<event>
 5    1  0.3934322E-009  0.3882973E+03  0.7957747E-01  0.3415807E+00
         13   -1    0    0    0    0  0.00000000000E+00  0.00000000000E+00  0.14999999963E+04  0.15000000000E+04  0.10566000000E+00 0.  1.
        994   -1    0    0    0    0 -0.00000000000E+00 -0.00000000000E+00  0.11368683772E-12  0.17120000000E+03  0.17120000000E+03 0.  0.
         13    1    1    2    0    0  0.25322698612E+03  0.12347343306E+03  0.10460502834E+04  0.10833239597E+04  0.10566000000E+00 0.  1.
        994    1    1    2    0    0 -0.26903413271E+03 -0.13169643055E+03  0.38638821877E+03  0.51800444978E+03  0.17120000000E+03 0.  0.
        998    1    1    2    0    0  0.15807146590E+02  0.82229974934E+01  0.67561494124E+02  0.69871590503E+02  0.10000000000E-01 0. -1.
</event>
<event>
 5    1  0.3934322E-009  0.3878946E+03  0.7957747E-01  0.3417488E+00
         13   -1    0    0    0    0  0.00000000000E+00  0.00000000000E+00  0.14999999963E+04  0.15000000000E+04  0.10566000000E+00 0.  1.
        994   -1    0    0    0    0 -0.00000000000E+00 -0.00000000000E+00  0.11368683772E-12  0.17120000000E+03  0.17120000000E+03 0.  0.
         13    1    1    2    0    0 -0.22401984562E+03  0.12713525953E+03  0.10291884587E+04  0.10609322128E+04  0.10566000000E+00 0.  1.
        994    1    1    2    0    0  0.24960611260E+03 -0.13599861758E+03  0.33403691813E+03  0.47083854781E+03  0.17120000000E+03 0.  0.
        998    1    1    2    0    0 -0.25586266980E+02  0.88633580471E+01  0.13677461943E+03  0.13942923938E+03  0.10000000000E-01 0.  1.
</event>
<event>
 5    1  0.3934322E-009  0.3883001E+03  0.7957747E-01  0.3415795E+00
         13   -1    0    0    0    0  0.00000000000E+00  0.00000000000E+00  0.14999999963E+04  0.15000000000E+04  0.10566000000E+00 0. -1.
        994   -1    0    0    0    0 -0.00000000000E+00 -0.00000000000E+00  0.11368683772E-12  0.17120000000E+03  0.17120000000E+03 0.  0.
         13    1    1    2    0    0 -0.32128776344E+03 -0.69728170505E+02  0.97050757544E+03  0.10246818091E+04  0.10566000000E+00 0. -1.
        994    1    1    2    0    0  0.32142875961E+03  0.69740179483E+02  0.52903992004E+03  0.64604397461E+03  0.17120000000E+03 0.  0.
        998    1    1    2    0    0 -0.14099617105E+00 -0.12008977996E-01  0.45250080347E+00  0.47421631451E+00  0.10000000000E-01 0.  1.
</event>
<event>
 5    1  0.3934322E-009  0.3881147E+03  0.7957747E-01  0.3416569E+00
         13   -1    0    0    0    0  0.00000000000E+00  0.00000000000E+00  0.14999999963E+04  0.15000000000E+04  0.10566000000E+00 0. -1.
        994   -1    0    0    0    0 -0.00000000000E+00 -0.00000000000E+00  0.11368683772E-12  0.17120000000E+03  0.17120000000E+03 0.  0.
         13    1    1    2    0    0  0.11465479572E+03 -0.17961878819E+03  0.11876920604E+04  0.12066569822E+04  0.10566000000E+00 0. -1.
        994    1    1    2    0    0 -0.12989221436E+03  0.19505336891E+03  0.20563286320E+03  0.35568542071E+03  0.17120000000E+03 0.  0.
        998    1    1    2    0    0  0.15237418637E+02 -0.15434580718E+02  0.10667507270E+03  0.10885759709E+03  0.10000000000E-01 0. -1.
</event>
<event>
 5    1  0.3934322E-009  0.3882841E+03  0.7957747E-01  0.3415862E+00
         13   -1    0    0    0    0  0.00000000000E+00  0.00000000000E+00  0.14999999963E+04  0.15000000000E+04  0.10566000000E+00 0.  1.
        994   -1    0    0    0    0 -0.00000000000E+00 -0.00000000000E+00  0.11368683772E-12  0.17120000000E+03  0.17120000000E+03 0.  0.
         13    1    1    2    0    0 -0.21869957922E+03 -0.19549767226E+03  0.86839378421E+03  0.91660057900E+03  0.10566000000E+00 0.  1.
        994    1    1    2    0    0  0.24459666263E+03  0.21856365566E+03  0.52345757101E+03  0.64102641723E+03  0.17120000000E+03 0.  0.
        998    1    1    2    0    0 -0.25897083415E+02 -0.23065983400E+02  0.10814864106E+03  0.11357300376E+03  0.10000000000E-01 0.  1.
</event>
<event>
 5    1  0.3934322E-009  0.3875412E+03  0.7957747E-01  0.3418966E+00
         13   -1    0    0    0    0  0.00000000000E+00  0.00000000000E+00  0.14999999963E+04  0.15000000000E+04  0.10566000000E+00 0.  1.
        994   -1    0    0    0    0 -0.00000000000E+00 -0.00000000000E+00  0.11368683772E-12  0.17120000000E+03  0.17120000000E+03 0.  0.
         13    1    1    2    0    0 -0.22943713631E+03 -0.12456500111E+03  0.10582480050E+04  0.10899755457E+04  0.10566000000E+00 0.  1.
        994    1    1    2    0    0  0.24822059930E+03  0.14570747981E+03  0.34660482909E+03  0.48196315538E+03  0.17120000000E+03 0.  0.
        998    1    1    2    0    0 -0.18783462993E+02 -0.21142478699E+02  0.95147162219E+02  0.99261298933E+02  0.10000000000E-01 0. -1.
</event>
<event>
 5    1  0.3934322E-009  0.3883001E+03  0.7957747E-01  0.3415796E+00
         13   -1    0    0    0    0  0.00000000000E+00  0.00000000000E+00  0.14999999963E+04  0.15000000000E+04  0.10566000000E+00 0. -1.
        994   -1    0    0    0    0 -0.00000000000E+00 -0.00000000000E+00  0.11368683772E-12  0.17120000000E+03  0.17120000000E+03 0.  0.
         13    1    1    2    0    0  0.24313061727E+03 -0.14638217622E+02  0.12153018660E+04  0.12394698105E+04  0.10566000000E+00 0. -1.
        994    1    1    2    0    0 -0.25138884551E+03  0.14957915092E+02  0.24403027796E+03  0.39023109491E+03  0.17120000000E+03 0.  0.
        998    1    1    2    0    0  0.82582282340E+01 -0.31969746930E+00  0.40667852361E+02  0.41499094637E+02  0.10000000000E-01 0. -1.
</event>
<event>
 5    1  0.3934322E-009  0.3882982E+03  0.7957747E-01  0.3415803E+00
         13   -1    0    0    0    0  0.00000000000E+00  0.00000000000E+00  0.14999999963E+04  0.15000000000E+04  0.10566000000E+00 0.  1.
        994   -1    0    0    0    0 -0.00000000000E+00 -0.00000000000E+00  0.11368683772E-12  0.17120000000E+03  0.17120000000E+03 0.  0.
         13    1    1    2    0    0  0.12916544363E+02 -0.22637317448E+03  0.13070366527E+04  0.13265581306E+04  0.10566000000E+00 0.  1.
        994    1    1    2    0    0 -0.12921438496E+02  0.22679410193E+03  0.19098262297E+03  0.34261688592E+03  0.17120000000E+03 0.  0.
        998    1    1    2    0    0  0.48941336636E-02 -0.42092745014E+00  0.19807206239E+01  0.20249834717E+01  0.10000000000E-01 0.  1.
</event>
<event>
 5    1  0.3934322E-009  0.3873325E+03  0.7957747E-01  0.3419840E+00
         13   -1    0    0    0    0  0.00000000000E+00  0.00000000000E+00  0.14999999963E+04  0.15000000000E+04  0.10566000000E+00 0.  1.
        994   -1    0    0    0    0 -0.00000000000E+00 -0.00000000000E+00  0.11368683772E-12  0.17120000000E+03  0.17120000000E+03 0.  0.
         13    1    1    2    0    0 -0.21058773999E+03 -0.20086252334E+03  0.10292506602E+04  0.10696026750E+04  0.10566000000E+00 0.  1.
        994    1    1    2    0    0  0.22794827937E+03  0.20662861536E+03  0.42236520147E+03  0.54987053582E+03  0.17120000000E+03 0.  0.
        998    1    1    2    0    0 -0.17360539379E+02 -0.57660920120E+01  0.48384134583E+02  0.51726789229E+02  0.10000000000E-01 0.  1.
</event>
<event>
 5    1  0.3934322E-009  0.3882940E+03  0.7957747E-01  0.3415821E+00
         13   -1    0    0    0    0  0.00000000000E+00  0.00000000000E+00  0.14999999963E+04  0.15000000000E+04  0.10566000000E+00 0.  1.
        994   -1    0    0    0    0 -0.00000000000E+00 -0.00000000000E+00  0.11368683772E-12  0.17120000000E+03  0.17120000000E+03 0.  0.
         13    1    1    2    0    0  0.26007763051E+03 -0.88010461272E+02  0.11840516154E+04  0.12154688208E+04  0.10566000000E+00 0.  1.
        994    1    1    2    0    0 -0.26184500649E+03  0.88563608055E+02  0.30903385162E+03  0.44857293893E+03  0.17120000000E+03 0.  0.
        998    1    1    2    0    0  0.17673759744E+01 -0.55314678277E+00  0.69145292432E+01  0.71582402763E+01  0.10000000000E-01 0. -1.
</event>
<event>
 5    1  0.3934322E-009  0.3883007E+03  0.7957747E-01  0.3415793E+00
         13   -1    0    0    0    0  0.00000000000E+00  0.00000000000E+00  0.14999999963E+04  0.15000000000E+04  0.10566000000E+00 0. -1.
        994   -1    0    0    0    0 -0.00000000000E+00 -0.00000000000E+00  0.11368683772E-12  0.17120000000E+03  0.17120000000E+03 0.  0.
         13    1    1    2    0    0  0.25487168379E+03 -0.67228357921E+02  0.12174847573E+04  0.12456919253E+04  0.10566000000E+00 0. -1.
        994    1    1    2    0    0 -0.25612187258E+03  0.67546142092E+02  0.27673682659E+03  0.41958742369E+03  0.17120000000E+03 0.  0.
        998    1    1    2    0    0  0.12501887919E+01 -0.31778417174E+00  0.57784124208E+01  0.59206510537E+01  0.10000000000E-01 0. -1.
</event>
<event>
 5    1  0.3934322E-009  0.3883010E+03  0.7957747E-01  0.3415792E+00
         13   -1    0    0    0    0  0.00000000000E+00  0.00000000000E+00  0.14999999963E+04  0.15000000000E+04  0.10566000000E+00 0. -1.
        994   -1    0    0    0    0 -0.00000000000E+00 -0.00000000000E+00  0.11368683772E-12  0.17120000000E+03  0.17120000000E+03 0.  0.
         13    1    1    2    0    0 -0.18198918225E+03 -0.16205688727E+03  0.12597402628E+04  0.12830931526E+04  0.10566000000E+00 0. -1.
        994    1    1    2    0    0  0.18348947379E+03  0.16340954714E+03  0.22986091690E+03  0.37751363976E+03  0.17120000000E+03 0.  0.
        998    1    1    2    0    0 -0.15002915409E+01 -0.13526598609E+01  0.10398816545E+02  0.10593207680E+02  0.10000000000E-01 0.  1.
</event>
<event>
 5    1  0.3934322E-009  0.3882987E+03  0.7957747E-01  0.3415802E+00
         13   -1    0    0    0    0  0.00000000000E+00  0.00000000000E+00  0.14999999963E+04  0.15000000000E+04  0.10566000000E+00 0.  1.
        994   -1    0    0    0    0 -0.00000000000E+00 -0.00000000000E+00  0.11368683772E-12  0.17120000000E+03  0.17120000000E+03 0.  0.
         13    1    1    2    0    0 -0.41171743745E+02 -0.15859177615E+03  0.84691157935E+03  0.86261561448E+03  0.10566000000E+00 0.  1.
        994    1    1    2    0    0  0.61133110849E+02  0.23873858274E+03  0.23152915553E+03  0.37900997084E+03  0.17120000000E+03 0.  0.
        998    1    1    2    0    0 -0.19961367104E+02 -0.80146806585E+02  0.42155926140E+03  0.42957441469E+03  0.10000000000E-01 0.  1.
</event>
<event>
 5    1  0.3934322E-009  0.3880386E+03  0.7957747E-01  0.3416887E+00
         13   -1    0    0    0    0  0.00000000000E+00  0.00000000000E+00  0.14999999963E+04  0.15000000000E+04  0.10566000000E+00 0.  1.
        994   -1    0    0    0    0 -0.00000000000E+00 -0.00000000000E+00  0.11368683772E-12  0.17120000000E+03  0.17120000000E+03 0.  0.
         13    1    1    2    0    0 -0.27171118242E+03  0.12075080677E+03  0.10682655478E+04  0.11088728582E+04  0.10566000000E+00 0.  1.
        994    1    1    2    0    0  0.27936023654E+03 -0.12082147644E+03  0.40621802068E+03  0.53568880076E+03  0.17120000000E+03 0.  0.
        998    1    1    2    0    0 -0.76490541203E+01  0.70669672203E-01  0.25516427829E+02  0.26638341020E+02  0.10000000000E-01 0. -1.
</event>
<event>
 5    1  0.3934322E-009  0.3882992E+03  0.7957747E-01  0.3415799E+00
         13   -1    0    0    0    0  0.00000000000E+00  0.00000000000E+00  0.14999999963E+04  0.15000000000E+04  0.10566000000E+00 0. -1.
        994   -1    0    0    0    0 -0.00000000000E+00 -0.00000000000E+00  0.11368683772E-12  0.17120000000E+03  0.17120000000E+03 0.  0.
         13    1    1    2    0    0 -0.76814367528E+02 -0.20885833497E+03  0.13173904731E+04  0.13360538615E+04  0.10566000000E+00 0. -1.
        994    1    1    2    0    0  0.76832847024E+02  0.20889701973E+03  0.18220169031E+03  0.33473593650E+03  0.17120000000E+03 0.  0.
        998    1    1    2    0    0 -0.18479495948E-01 -0.38684757765E-01  0.40783287191E+00  0.41020196692E+00  0.10000000000E-01 0. -1.
</event>
<event>
 5    1  0.3934322E-009  0.3882986E+03  0.7957747E-01  0.3415802E+00
         13   -1    0    0    0    0  0.00000000000E+00  0.00000000000E+00  0.14999999963E+04  0.15000000000E+04  0.10566000000E+00 0. -1.
        994   -1    0    0    0    0 -0.00000000000E+00 -0.00000000000E+00  0.11368683772E-12  0.17120000000E+03  0.17120000000E+03 0.  0.
         13    1    1    2    0    0 -0.32020232885E+03  0.10724816555E+03  0.89377406165E+03  0.95543905345E+03  0.10566000000E+00 0. -1.
        994    1    1    2    0    0  0.32108404894E+03 -0.10764881650E+03  0.60368350917E+03  0.71304028878E+03  0.17120000000E+03 0.  0.
        998    1    1    2    0    0 -0.88172008852E+00  0.40065094879E+00  0.25424254619E+01  0.27206577746E+01  0.10000000000E-01 0.  1.
</event>
<event>
 5    1  0.3934322E-009  0.3883009E+03  0.7957747E-01  0.3415792E+00
         13   -1    0    0    0    0  0.00000000000E+00  0.00000000000E+00  0.14999999963E+04  0.15000000000E+04  0.10566000000E+00 0.  1.
        994   -1    0    0    0    0 -0.00000000000E+00 -0.00000000000E+00  0.11368683772E-12  0.17120000000E+03  0.17120000000E+03 0.  0.
         13    1    1    2    0    0 -0.16628882154E+03  0.12224445840E+03  0.11715506876E+04  0.11895909821E+04  0.10566000000E+00 0.  1.
        994    1    1    2    0    0  0.18517803885E+03 -0.13605119333E+03  0.19614264410E+03  0.34724949261E+03  0.17120000000E+03 0.  0.
        998    1    1    2    0    0 -0.18889217317E+02  0.13806734935E+02  0.13230666454E+03  0.13435952531E+03  0.10000000000E-01 0.  1.
</event>
<event>
 5    1  0.3934322E-009  0.3882724E+03  0.7957747E-01  0.3415911E+00
         13   -1    0    0    0    0  0.00000000000E+00  0.00000000000E+00  0.14999999963E+04  0.15000000000E+04  0.10566000000E+00 0.  1.
        994   -1    0    0    0    0 -0.00000000000E+00 -0.00000000000E+00  0.11368683772E-12  0.17120000000E+03  0.17120000000E+03 0.  0.
         13    1    1    2    0    0 -0.25382254713E+03  0.84491406875E+02  0.10634069186E+04  0.10965395428E+04  0.10566000000E+00 0.  1.
        994    1    1    2    0    0  0.27336796659E+03 -0.91831122490E+02  0.34665119096E+03  0.48232715910E+03  0.17120000000E+03 0.  0.
        998    1    1    2    0    0 -0.19545419463E+02  0.73397156150E+01  0.89941886724E+02  0.92333298082E+02  0.10000000000E-01 0.  1.
</event>
<event>
 5    1  0.3934322E-009  0.3882881E+03  0.7957747E-01  0.3415845E+00
         13   -1    0    0    0    0  0.00000000000E+00  0.00000000000E+00  0.14999999963E+04  0.15000000000E+04  0.10566000000E+00 0. -1.
        994   -1    0    0    0    0 -0.00000000000E+00 -0.00000000000E+00  0.11368683772E-12  0.17120000000E+03  0.17120000000E+03 0.  0.
         13    1    1    2    0    0  0.19455203486E+03  0.67612866680E+02  0.11825882022E+04  0.12003902953E+04  0.10566000000E+00 0. -1.
        994    1    1    2    0    0 -0.21487149580E+03 -0.76148813165E+02  0.19256764699E+03  0.34403508560E+03  0.17120000000E+03 0.  0.
        998    1    1    2    0    0  0.20319460942E+02  0.85359464850E+01  0.12484414713E+03  0.12677461910E+03  0.10000000000E-01 0. -1.
</event>
<event>
 5    1  0.3934322E-009  0.3883010E+03  0.7957747E-01  0.3415792E+00
         13   -1    0    0    0    0  0.00000000000E+00  0.00000000000E+00  0.14999999963E+04  0.15000000000E+04  0.10566000000E+00 0. -1.
        994   -1    0    0    0    0 -0.00000000000E+00 -0.00000000000E+00  0.11368683772E-12  0.17120000000E+03  0.17120000000E+03 0.  0.
         13    1    1    2    0    0  0.22402354557E+03 -0.51738739164E+02  0.12659817288E+04  0.12866907923E+04  0.10566000000E+00 0. -1.
        994    1    1    2    0    0 -0.22889395961E+03  0.52840398056E+02  0.20654976950E+03  0.35659052104E+03  0.17120000000E+03 0.  0.
        998    1    1    2    0    0  0.48704140382E+01 -0.11016588926E+01  0.27468497989E+02  0.27918686699E+02  0.10000000000E-01 0. -1.
</event>
<event>
 5    1  0.9647812E-009  0.3882937E+03  0.7957747E-01  0.3415822E+00
         13   -1    0    0    0    0  0.00000000000E+00  0.00000000000E+00  0.14999999963E+04  0.15000000000E+04  0.10566000000E+00 0.  1.
        994   -1    0    0    0    0 -0.00000000000E+00 -0.00000000000E+00  0.11368683772E-12  0.17120000000E+03  0.17120000000E+03 0.  0.
         13    1    1    2    0    0  0.29319738814E+03 -0.14325753201E+03  0.98660837814E+03  0.10391744473E+04  0.10566000000E+00 0.  1.
        994    1    1    2    0    0 -0.29321859439E+03  0.14330336083E+03  0.51315609157E+03  0.63178446612E+03  0.17120000000E+03 0.  0.
        998    1    1    2    0    0  0.21206242811E-01 -0.45828814054E-01  0.23552656314E+00  0.24108659622E+00  0.10000000000E-01 0.  1.
</event>
<event>
 5    1  0.3934322E-009  0.3872879E+03  0.7957747E-01  0.3420026E+00
         13   -1    0    0    0    0  0.00000000000E+00  0.00000000000E+00  0.14999999963E+04  0.15000000000E+04  0.10566000000E+00 0.  1.
        994   -1    0    0    0    0 -0.00000000000E+00 -0.00000000000E+00  0.11368683772E-12  0.17120000000E+03  0.17120000000E+03 0.  0.
         13    1    1    2    0    0  0.13756899732E+03  0.94093576429E+02  0.27554990768E+03  0.32203508029E+03  0.10566000000E+00 0.  1.
        994    1    1    2    0    0 -0.29803961989E+03 -0.17580948458E+03  0.85818473444E+03  0.94102447807E+03  0.17120000000E+03 0.  0.
        998    1    1    2    0    0  0.16047062256E+03  0.81715908150E+02  0.36626535416E+03  0.40814044165E+03  0.10000000000E-01 0.  1.
</event>
<event>
 5    1  0.3934322E-009  0.3882747E+03  0.7957747E-01  0.3415902E+00
         13   -1    0    0    0    0  0.00000000000E+00  0.00000000000E+00  0.14999999963E+04  0.15000000000E+04  0.10566000000E+00 0.  1.
        994   -1    0    0    0    0 -0.00000000000E+00 -0.00000000000E+00  0.11368683772E-12  0.17120000000E+03  0.17120000000E+03 0.  0.
         13    1    1    2    0    0  0.27736219440E+03  0.96041746779E+02  0.11316249842E+04  0.11690718199E+04  0.10566000000E+00 0.  1.
        994    1    1    2    0    0 -0.27773154743E+03 -0.96436644924E+02  0.36603225685E+03  0.49972381570E+03  0.17120000000E+03 0.  0.
        998    1    1    2    0    0  0.36935303102E+00  0.39489814436E+00  0.23427552395E+01  0.24043644312E+01  0.10000000000E-01 0. -1.
</event>
<event>
 5    1  0.3934322E-009  0.3873657E+03  0.7957747E-01  0.3419700E+00
         13   -1    0    0    0    0  0.00000000000E+00  0.00000000000E+00  0.14999999963E+04  0.15000000000E+04  0.10566000000E+00 0. -1.
        994   -1    0    0    0    0 -0.00000000000E+00 -0.00000000000E+00  0.11368683772E-12  0.17120000000E+03  0.17120000000E+03 0.  0.
         13    1    1    2    0    0  0.67701580978E+02 -0.18732781278E+03  0.11742004748E+04  0.11909752222E+04  0.10566000000E+00 0. -1.
        994    1    1    2    0    0 -0.73562725667E+02  0.19952494931E+03  0.16528295424E+03  0.31913880204E+03  0.17120000000E+03 0.  0.
        998    1    1    2    0    0  0.58611446892E+01 -0.12197136531E+02  0.16051656720E+03  0.16108597581E+03  0.10000000000E-01 0.  1.
</event>
<event>
 5    1  0.3934322E-009  0.3879820E+03  0.7957747E-01  0.3417123E+00
         13   -1    0    0    0    0  0.00000000000E+00  0.00000000000E+00  0.14999999963E+04  0.15000000000E+04  0.10566000000E+00 0.  1.
        994   -1    0    0    0    0 -0.00000000000E+00 -0.00000000000E+00  0.11368683772E-12  0.17120000000E+03  0.17120000000E+03 0.  0.
         13    1    1    2    0    0 -0.12423785331E+03 -0.36462666167E+02  0.48552956963E+03  0.50249730782E+03  0.10566000000E+00 0.  1.
        994    1    1    2    0    0  0.27380278124E+03  0.77346419268E+02  0.33468797654E+03  0.47146146526E+03  0.17120000000E+03 0.  0.
        998    1    1    2    0    0 -0.14956492793E+03 -0.40883753101E+02  0.67978245011E+03  0.69724122692E+03  0.10000000000E-01 0.  1.
</event>
<event>
 5    1  0.3934322E-009  0.3883010E+03  0.7957747E-01  0.3415792E+00
         13   -1    0    0    0    0  0.00000000000E+00  0.00000000000E+00  0.14999999963E+04  0.15000000000E+04  0.10566000000E+00 0. -1.
        994   -1    0    0    0    0 -0.00000000000E+00 -0.00000000000E+00  0.11368683772E-12  0.17120000000E+03  0.17120000000E+03 0.  0.
         13    1    1    2    0    0 -0.25990910332E+03 -0.15959098342E+02  0.11717415306E+04  0.12003273139E+04  0.10566000000E+00 0. -1.
        994    1    1    2    0    0  0.26872692410E+03  0.16475746320E+02  0.28851030190E+03  0.43015490728E+03  0.17120000000E+03 0.  0.
        998    1    1    2    0    0 -0.88178207800E+01 -0.51664797731E+00  0.39748163798E+02  0.40717778841E+02  0.10000000000E-01 0.  1.
</event>
<event>
 5    1  0.3934322E-009  0.3883007E+03  0.7957747E-01  0.3415793E+00
         13   -1    0    0    0    0  0.00000000000E+00  0.00000000000E+00  0.14999999963E+04  0.15000000000E+04  0.10566000000E+00 0. -1.
        994   -1    0    0    0    0 -0.00000000000E+00 -0.00000000000E+00  0.11368683772E-12  0.17120000000E+03  0.17120000000E+03 0.  0.
         13    1    1    2    0    0  0.54087367040E+02 -0.31436301211E+03  0.89581491073E+03  0.95091214742E+03  0.10566000000E+00 0. -1.
        994    1    1    2    0    0 -0.56518755841E+02  0.32888431307E+03  0.56244797145E+03  0.67602989707E+03  0.17120000000E+03 0.  0.
        998    1    1    2    0    0  0.24313888008E+01 -0.14521300954E+02  0.41737114099E+02  0.44257955514E+02  0.10000000000E-01 0.  0.
</event>
<event>
 5    1  0.3934322E-009  0.3882989E+03  0.7957747E-01  0.3415801E+00
         13   -1    0    0    0    0  0.00000000000E+00  0.00000000000E+00  0.14999999963E+04  0.15000000000E+04  0.10566000000E+00 0.  1.
        994   -1    0    0    0    0 -0.00000000000E+00 -0.00000000000E+00  0.11368683772E-12  0.17120000000E+03  0.17120000000E+03 0.  0.
         13    1    1    2    0    0 -0.21831889907E+03  0.86123749650E+02  0.12917878184E+04  0.13129342028E+04  0.10566000000E+00 0.  1.
        994    1    1    2    0    0  0.21860317941E+03 -0.86171235791E+02  0.20667726946E+03  0.35670403087E+03  0.17120000000E+03 0.  0.
        998    1    1    2    0    0 -0.28428033571E+00  0.47486141451E-01  0.15349083872E+01  0.15617663078E+01  0.10000000000E-01 0.  1.
</event>
<event>
 5    1  0.3934322E-009  0.3879623E+03  0.7957747E-01  0.3417205E+00
         13   -1    0    0    0    0  0.00000000000E+00  0.00000000000E+00  0.14999999963E+04  0.15000000000E+04  0.10566000000E+00 0.  1.
        994   -1    0    0    0    0 -0.00000000000E+00 -0.00000000000E+00  0.11368683772E-12  0.17120000000E+03  0.17120000000E+03 0.  0.
         13    1    1    2    0    0 -0.79979895151E+01  0.18217202617E+03  0.10902821630E+04  0.11054256289E+04  0.10566000000E+00 0.  1.
        994    1    1    2    0    0  0.13401828576E+02 -0.22770719393E+03  0.19325971169E+03  0.34451259968E+03  0.17120000000E+03 0.  0.
        998    1    1    2    0    0 -0.54038390610E+01  0.45535167757E+02  0.21645812163E+03  0.22126177144E+03  0.10000000000E-01 0.  1.
</event>
<event>
 5    1  0.3934322E-009  0.3882965E+03  0.7957747E-01  0.3415811E+00
         13   -1    0    0    0    0  0.00000000000E+00  0.00000000000E+00  0.14999999963E+04  0.15000000000E+04  0.10566000000E+00 0. -1.
        994   -1    0    0    0    0 -0.00000000000E+00 -0.00000000000E+00  0.11368683772E-12  0.17120000000E+03  0.17120000000E+03 0.  0.
         13    1    1    2    0    0  0.20001748541E+03  0.17114157927E+03  0.12273057555E+04  0.12552194482E+04  0.10566000000E+00 0. -1.
        994    1    1    2    0    0 -0.20006282542E+03 -0.17116621621E+03  0.27256661791E+03  0.41584252895E+03  0.17120000000E+03 0.  0.
        998    1    1    2    0    0  0.45340010684E-01  0.24636944638E-01  0.12762289397E+00  0.13802281940E+00  0.10000000000E-01 0. -1.
</event>
<event>
 5    1  0.3934322E-009  0.3883008E+03  0.7957747E-01  0.3415793E+00
         13   -1    0    0    0    0  0.00000000000E+00  0.00000000000E+00  0.14999999963E+04  0.15000000000E+04  0.10566000000E+00 0. -1.
        994   -1    0    0    0    0 -0.00000000000E+00 -0.00000000000E+00  0.11368683772E-12  0.17120000000E+03  0.17120000000E+03 0.  0.
         13    1    1    2    0    0 -0.25100331521E+03  0.15529240568E+02  0.96882742042E+03  0.10009347648E+04  0.10566000000E+00 0. -1.
        994    1    1    2    0    0  0.29358996404E+03 -0.17954507793E+02  0.36646330063E+03  0.50012220711E+03  0.17120000000E+03 0.  0.
        998    1    1    2    0    0 -0.42586648834E+02  0.24252672251E+01  0.16470927522E+03  0.17014302814E+03  0.10000000000E-01 0. -1.
</event>
<event>
 5    1  0.3934322E-009  0.3883007E+03  0.7957747E-01  0.3415793E+00
         13   -1    0    0    0    0  0.00000000000E+00  0.00000000000E+00  0.14999999963E+04  0.15000000000E+04  0.10566000000E+00 0. -1.
        994   -1    0    0    0    0 -0.00000000000E+00 -0.00000000000E+00  0.11368683772E-12  0.17120000000E+03  0.17120000000E+03 0.  0.
         13    1    1    2    0    0 -0.86068808054E+02 -0.30415286153E+03  0.95248226336E+03  0.10035632895E+04  0.10566000000E+00 0. -1.
        994    1    1    2    0    0  0.89015264244E+02  0.31442424250E+03  0.51566616188E+03  0.63404049717E+03  0.17120000000E+03 0.  0.
        998    1    1    2    0    0 -0.29464561908E+01 -0.10271380975E+02  0.31851571038E+02  0.33596213310E+02  0.10000000000E-01 0.  1.
</event>
<event>
 5    1  0.3934322E-009  0.3883010E+03  0.7957747E-01  0.3415792E+00
         13   -1    0    0    0    0  0.00000000000E+00  0.00000000000E+00  0.14999999963E+04  0.15000000000E+04  0.10566000000E+00 0. -1.
        994   -1    0    0    0    0 -0.00000000000E+00 -0.00000000000E+00  0.11368683772E-12  0.17120000000E+03  0.17120000000E+03 0.  0.
         13    1    1    2    0    0  0.17900081970E+03  0.58330844908E+02  0.10870269445E+04  0.11032095767E+04  0.10566000000E+00 0. -1.
        994    1    1    2    0    0 -0.21568869503E+03 -0.70266488104E+02  0.19036353487E+03  0.34206243278E+03  0.17120000000E+03 0.  0.
        998    1    1    2    0    0  0.36687875332E+02  0.11935643196E+02  0.22260951690E+03  0.22592799049E+03  0.10000000000E-01 0.  1.
</event>
<event>
 5    1  0.3934322E-009  0.3883006E+03  0.7957747E-01  0.3415793E+00
         13   -1    0    0    0    0  0.00000000000E+00  0.00000000000E+00  0.14999999963E+04  0.15000000000E+04  0.10566000000E+00 0.  1.
        994   -1    0    0    0    0 -0.00000000000E+00 -0.00000000000E+00  0.11368683772E-12  0.17120000000E+03  0.17120000000E+03 0.  0.
         13    1    1    2    0    0  0.22319277832E+03  0.88405733785E+02  0.10773888894E+04  0.11038104095E+04  0.10566000000E+00 0.  1.
        994    1    1    2    0    0 -0.25054650852E+03 -0.99305653813E+02  0.28927794386E+03  0.43084374733E+03  0.17120000000E+03 0.  0.
        998    1    1    2    0    0  0.27353730201E+02  0.10899920028E+02  0.13333316306E+03  0.13654584316E+03  0.10000000000E-01 0. -1.
</event>
<event>
 5    1  0.3934322E-009  0.3883008E+03  0.7957747E-01  0.3415792E+00
         13   -1    0    0    0    0  0.00000000000E+00  0.00000000000E+00  0.14999999963E+04  0.15000000000E+04  0.10566000000E+00 0.  1.
        994   -1    0    0    0    0 -0.00000000000E+00 -0.00000000000E+00  0.11368683772E-12  0.17120000000E+03  0.17120000000E+03 0.  0.
         13    1    1    2    0    0  0.11809068961E+03  0.18660566440E+03  0.12888829275E+04  0.13076644436E+04  0.10566000000E+00 0.  1.
        994    1    1    2    0    0 -0.12036375793E+03 -0.19008748647E+03  0.18678137007E+03  0.33884717343E+03  0.17120000000E+03 0.  0.
        998    1    1    2    0    0  0.22730683187E+01  0.34818220720E+01  0.24335698695E+02  0.24688383007E+02  0.10000000000E-01 0. -1.
</event>
<event>
 5    1  0.3934322E-009  0.3883008E+03  0.7957747E-01  0.3415793E+00
         13   -1    0    0    0    0  0.00000000000E+00  0.00000000000E+00  0.14999999963E+04  0.15000000000E+04  0.10566000000E+00 0. -1.
        994   -1    0    0    0    0 -0.00000000000E+00 -0.00000000000E+00  0.11368683772E-12  0.17120000000E+03  0.17120000000E+03 0.  0.
         13    1    1    2    0    0 -0.28304024274E+02 -0.26420007293E+03  0.68275038985E+03  0.73263285644E+03  0.10566000000E+00 0. -1.
        994    1    1    2    0    0  0.36580997316E+02  0.33876736948E+03  0.62433437549E+03  0.73157662101E+03  0.17120000000E+03 0.  0.
        998    1    1    2    0    0 -0.82769730419E+01 -0.74567296558E+02  0.19291523094E+03  0.20699052256E+03  0.10000000000E-01 0.  1.
</event>
<event>
 5    1  0.3934322E-009  0.4018117E+03  0.7957747E-01  0.3361358E+00
         13   -1    0    0    0    0  0.00000000000E+00  0.00000000000E+00  0.14999999963E+04  0.15000000000E+04  0.10566000000E+00 0.  1.
        994   -1    0    0    0    0 -0.00000000000E+00 -0.00000000000E+00  0.11368683772E-12  0.17120000000E+03  0.17120000000E+03 0.  0.
         13    1    1    2    0    0 -0.79184022143E+02  0.86881681440E+02  0.48548274019E+03  0.49951179978E+03  0.10566000000E+00 0.  1.
        994    1    1    2    0    0 -0.12483216782E+02  0.46924706673E+02  0.38221433448E+02  0.18201119958E+03  0.17120000000E+03 0.  0.
        998    1    1    2    0    0  0.91667238924E+02 -0.13380638811E+03  0.97629582264E+03  0.98967700064E+03  0.10000000000E-01 0.  1.
</event>
<event>
 5    1  0.3934322E-009  0.3881952E+03  0.7957747E-01  0.3416233E+00
         13   -1    0    0    0    0  0.00000000000E+00  0.00000000000E+00  0.14999999963E+04  0.15000000000E+04  0.10566000000E+00 0. -1.
        994   -1    0    0    0    0 -0.00000000000E+00 -0.00000000000E+00  0.11368683772E-12  0.17120000000E+03  0.17120000000E+03 0.  0.
         13    1    1    2    0    0  0.22901943359E+03  0.12460289855E+03  0.12049915532E+04  0.12328748670E+04  0.10566000000E+00 0. -1.
        994    1    1    2    0    0 -0.23348115527E+03 -0.12671328941E+03  0.27898498624E+03  0.42155873864E+03  0.17120000000E+03 0.  0.
        998    1    1    2    0    0  0.44617216804E+01  0.21103908612E+01  0.16023456831E+02  0.16766394328E+02  0.10000000000E-01 0. -1.
</event>
<event>
 5    1  0.3934322E-009  0.3883005E+03  0.7957747E-01  0.3415794E+00
         13   -1    0    0    0    0  0.00000000000E+00  0.00000000000E+00  0.14999999963E+04  0.15000000000E+04  0.10566000000E+00 0. -1.
        994   -1    0    0    0    0 -0.00000000000E+00 -0.00000000000E+00  0.11368683772E-12  0.17120000000E+03  0.17120000000E+03 0.  0.
         13    1    1    2    0    0 -0.23328196377E+03  0.13693544314E+02  0.89762369752E+03  0.92754315333E+03  0.10566000000E+00 0. -1.
        994    1    1    2    0    0  0.29434487269E+03 -0.17097928331E+02  0.36898168253E+03  0.50238248902E+03  0.17120000000E+03 0.  0.
        998    1    1    2    0    0 -0.61062908912E+02  0.34043840165E+01  0.23339461622E+03  0.24127435764E+03  0.10000000000E-01 0.  1.
</event>
<event>
 5    1  0.3934322E-009  0.3883009E+03  0.7957747E-01  0.3415792E+00
         13   -1    0    0    0    0  0.00000000000E+00  0.00000000000E+00  0.14999999963E+04  0.15000000000E+04  0.10566000000E+00 0.  1.
        994   -1    0    0    0    0 -0.00000000000E+00 -0.00000000000E+00  0.11368683772E-12  0.17120000000E+03  0.17120000000E+03 0.  0.
         13    1    1    2    0    0 -0.91535410551E+02 -0.18011493395E+03  0.73495788572E+03  0.76222255658E+03  0.10566000000E+00 0.  1.
        994    1    1    2    0    0  0.13738749203E+03  0.26985017570E+03  0.39912503557E+03  0.52943807410E+03  0.17120000000E+03 0.  0.
        998    1    1    2    0    0 -0.45852081479E+02 -0.89735241755E+02  0.36591707499E+03  0.37953936931E+03  0.10000000000E-01 0. -1.
</event>
<event>
 5    1  0.3934322E-009  0.3883010E+03  0.7957747E-01  0.3415792E+00
         13   -1    0    0    0    0  0.00000000000E+00  0.00000000000E+00  0.14999999963E+04  0.15000000000E+04  0.10566000000E+00 0. -1.
        994   -1    0    0    0    0 -0.00000000000E+00 -0.00000000000E+00  0.11368683772E-12  0.17120000000E+03  0.17120000000E+03 0.  0.
         13    1    1    2    0    0 -0.73065541763E+02  0.21657114372E+03  0.12961728214E+04  0.13161708201E+04  0.10566000000E+00 0. -1.
        994    1    1    2    0    0  0.73491969137E+02 -0.21782049773E+03  0.19634169959E+03  0.34742818216E+03  0.17120000000E+03 0.  0.
        998    1    1    2    0    0 -0.42642737471E+00  0.12493540155E+01  0.74854753253E+01  0.76009977376E+01  0.10000000000E-01 0.  1.
</event>
<event>
 5    1  0.3934322E-009  0.3882968E+03  0.7957747E-01  0.3415809E+00
         13   -1    0    0    0    0  0.00000000000E+00  0.00000000000E+00  0.14999999963E+04  0.15000000000E+04  0.10566000000E+00 0. -1.
        994   -1    0    0    0    0 -0.00000000000E+00 -0.00000000000E+00  0.11368683772E-12  0.17120000000E+03  0.17120000000E+03 0.  0.
         13    1    1    2    0    0  0.17135839411E+03 -0.13614441135E+03  0.13078125133E+04  0.13259987108E+04  0.10566000000E+00 0. -1.
        994    1    1    2    0    0 -0.17284272770E+03  0.13760128773E+03  0.17911497838E+03  0.33196436312E+03  0.17120000000E+03 0.  0.
        998    1    1    2    0    0  0.14843335851E+01 -0.14568763889E+01  0.13072504640E+02  0.13236926100E+02  0.10000000000E-01 0. -1.
</event>
<event>
 5    1  0.4504342E-009  0.3882971E+03  0.7957747E-01  0.3415808E+00
         13   -1    0    0    0    0  0.00000000000E+00  0.00000000000E+00  0.14999999963E+04  0.15000000000E+04  0.10566000000E+00 0. -1.
        994   -1    0    0    0    0 -0.00000000000E+00 -0.00000000000E+00  0.11368683772E-12  0.17120000000E+03  0.17120000000E+03 0.  0.
         13    1    1    2    0    0  0.24362229629E+03  0.23975082459E+02  0.12716491430E+04  0.12949973675E+04  0.10566000000E+00 0. -1.
        994    1    1    2    0    0 -0.24366301522E+03 -0.23971391157E+02  0.22792126803E+03  0.37577099010E+03  0.17120000000E+03 0.  0.
        998    1    1    2    0    0  0.40718928731E-01 -0.36913018275E-02  0.42958529551E+00  0.43164242492E+00  0.10000000000E-01 0.  1.
</event>
<event>
 5    1  0.3934322E-009  0.3728697E+03  0.7957747E-01  0.3482805E+00
         13   -1    0    0    0    0  0.00000000000E+00  0.00000000000E+00  0.14999999963E+04  0.15000000000E+04  0.10566000000E+00 0.  1.
        994   -1    0    0    0    0 -0.00000000000E+00 -0.00000000000E+00  0.11368683772E-12  0.17120000000E+03  0.17120000000E+03 0.  0.
         13    1    1    2    0    0 -0.50899918319E+02  0.13838139792E+03  0.47896931067E+03  0.50115050105E+03  0.10566000000E+00 0.  1.
        994    1    1    2    0    0  0.15900603066E+03 -0.17266802174E+03  0.22897067919E+03  0.36991103720E+03  0.17120000000E+03 0.  0.
        998    1    1    2    0    0 -0.10810611234E+03  0.34286623826E+02  0.79206000642E+03  0.80013846174E+03  0.10000000000E-01 0.  1.
</event>
<event>
 5    1  0.3934322E-009  0.3882911E+03  0.7957747E-01  0.3415833E+00
         13   -1    0    0    0    0  0.00000000000E+00  0.00000000000E+00  0.14999999963E+04  0.15000000000E+04  0.10566000000E+00 0.  1.
        994   -1    0    0    0    0 -0.00000000000E+00 -0.00000000000E+00  0.11368683772E-12  0.17120000000E+03  0.17120000000E+03 0.  0.
         13    1    1    2    0    0 -0.14566699317E+03 -0.21512238832E+03  0.12291905926E+04  0.12563463054E+04  0.10566000000E+00 0.  1.
        994    1    1    2    0    0  0.14633185291E+03  0.21575734344E+03  0.26587131232E+03  0.40983074207E+03  0.17120000000E+03 0.  0.
        998    1    1    2    0    0 -0.66485973824E+00 -0.63495512081E+00  0.49380913405E+01  0.50229525743E+01  0.10000000000E-01 0. -1.
</event>
<event>
 5    1  0.3934322E-009  0.3882987E+03  0.7957747E-01  0.3415801E+00
         13   -1    0    0    0    0  0.00000000000E+00  0.00000000000E+00  0.14999999963E+04  0.15000000000E+04  0.10566000000E+00 0. -1.
        994   -1    0    0    0    0 -0.00000000000E+00 -0.00000000000E+00  0.11368683772E-12  0.17120000000E+03  0.17120000000E+03 0.  0.
         13    1    1    2    0    0  0.16004822303E+03  0.25153192167E+03  0.11093433916E+04  0.11487064520E+04  0.10566000000E+00 0. -1.
        994    1    1    2    0    0 -0.16068139983E+03 -0.25269075514E+03  0.38605195536E+03  0.51770327623E+03  0.17120000000E+03 0.  0.
        998    1    1    2    0    0  0.63317679943E+00  0.11588334651E+01  0.46046493424E+01  0.47902717487E+01  0.10000000000E-01 0. -1.
</event>
<event>
 5    1  0.3934322E-009  0.3857568E+03  0.7957747E-01  0.3426469E+00
         13   -1    0    0    0    0  0.00000000000E+00  0.00000000000E+00  0.14999999963E+04  0.15000000000E+04  0.10566000000E+00 0. -1.
        994   -1    0    0    0    0 -0.00000000000E+00 -0.00000000000E+00  0.11368683772E-12  0.17120000000E+03  0.17120000000E+03 0.  0.
         13    1    1    2    0    0 -0.51863107713E+01  0.11778411330E+02  0.67042786267E+02  0.68266940369E+02  0.10566000000E+00 0. -1.
        994    1    1    2    0    0  0.76667705455E+02  0.19696925834E+02  0.22087531765E+02  0.18990314638E+03  0.17120000000E+03 0.  0.
        998    1    1    2    0    0 -0.71481394684E+02 -0.31475337164E+02  0.14108696782E+04  0.14130299132E+04  0.10000000000E-01 0. -1.
</event>
<event>
 5    1  0.3934322E-009  0.3883002E+03  0.7957747E-01  0.3415795E+00
         13   -1    0    0    0    0  0.00000000000E+00  0.00000000000E+00  0.14999999963E+04  0.15000000000E+04  0.10566000000E+00 0. -1.
        994   -1    0    0    0    0 -0.00000000000E+00 -0.00000000000E+00  0.11368683772E-12  0.17120000000E+03  0.17120000000E+03 0.  0.
         13    1    1    2    0    0  0.13003617891E+02  0.25524327220E+03  0.12449496374E+04  0.12709122050E+04  0.10566000000E+00 0. -1.
        994    1    1    2    0    0 -0.12992157580E+02 -0.25550391751E+03  0.25367484736E+03  0.39888772381E+03  0.17120000000E+03 0.  0.
        998    1    1    2    0    0 -0.11460311066E-01  0.26064530860E+00  0.13755115551E+01  0.14000711960E+01  0.10000000000E-01 0.  1.
</event>
<event>
 5    1  0.3934322E-009  0.3883007E+03  0.7957747E-01  0.3415793E+00
         13   -1    0    0    0    0  0.00000000000E+00  0.00000000000E+00  0.14999999963E+04  0.15000000000E+04  0.10566000000E+00 0. -1.
        994   -1    0    0    0    0 -0.00000000000E+00 -0.00000000000E+00  0.11368683772E-12  0.17120000000E+03  0.17120000000E+03 0.  0.
         13    1    1    2    0    0  0.17284456512E+03 -0.91529785395E+02  0.71080978987E+03  0.73722690798E+03  0.10566000000E+00 0. -1.
        994    1    1    2    0    0 -0.26784923103E+03  0.14187259567E+03  0.40028805314E+03  0.53048186534E+03  0.17120000000E+03 0.  0.
        998    1    1    2    0    0  0.95004665920E+02 -0.50342810279E+02  0.38890215326E+03  0.40349122668E+03  0.10000000000E-01 0. -1.
</event>
<event>
 5    1  0.3934322E-009  0.3883002E+03  0.7957747E-01  0.3415795E+00
         13   -1    0    0    0    0  0.00000000000E+00  0.00000000000E+00  0.14999999963E+04  0.15000000000E+04  0.10566000000E+00 0. -1.
        994   -1    0    0    0    0 -0.00000000000E+00 -0.00000000000E+00  0.11368683772E-12  0.17120000000E+03  0.17120000000E+03 0.  0.
         13    1    1    2    0    0 -0.37263968190E+02  0.28937500884E+03  0.11318130331E+04  0.11688144644E+04  0.10566000000E+00 0. -1.
        994    1    1    2    0    0  0.37422002505E+02 -0.29069206907E+03  0.36274956463E+03  0.49678865922E+03  0.17120000000E+03 0.  0.
        998    1    1    2    0    0 -0.15803431418E+00  0.13170602337E+01  0.54373985478E+01  0.55968764031E+01  0.10000000000E-01 0. -1.
</event>
<event>
 5    1  0.3934322E-009  0.3883007E+03  0.7957747E-01  0.3415793E+00
         13   -1    0    0    0    0  0.00000000000E+00  0.00000000000E+00  0.14999999963E+04  0.15000000000E+04  0.10566000000E+00 0.  1.
        994   -1    0    0    0    0 -0.00000000000E+00 -0.00000000000E+00  0.11368683772E-12  0.17120000000E+03  0.17120000000E+03 0.  0.
         13    1    1    2    0    0 -0.36546921140E+02  0.23111373377E+03  0.12897576813E+04  0.13108104832E+04  0.10566000000E+00 0.  1.
        994    1    1    2    0    0  0.36669919723E+02 -0.23182075949E+03  0.20611414746E+03  0.35619942353E+03  0.17120000000E+03 0.  0.
        998    1    1    2    0    0 -0.12299858319E+00  0.70702572214E+00  0.41281675638E+01  0.41900932517E+01  0.10000000000E-01 0.  1.
</event>
<event>
 5    1  0.3934322E-009  0.3883009E+03  0.7957747E-01  0.3415792E+00
         13   -1    0    0    0    0  0.00000000000E+00  0.00000000000E+00  0.14999999963E+04  0.15000000000E+04  0.10566000000E+00 0.  1.
        994   -1    0    0    0    0 -0.00000000000E+00 -0.00000000000E+00  0.11368683772E-12  0.17120000000E+03  0.17120000000E+03 0.  0.
         13    1    1    2    0    0 -0.47849354042E+02  0.25809700197E+01  0.25217243268E+03  0.25668496071E+03  0.10566000000E+00 0. -1.
        994    1    1    2    0    0  0.24200181716E+03 -0.13187480164E+02  0.22242142155E+03  0.37083624136E+03  0.17120000000E+03 0.  0.
        998    1    1    2    0    0 -0.19415246312E+03  0.10606510144E+02  0.10254061421E+04  0.10436787979E+04  0.10000000000E-01 0.  1.
</event>
<event>
 5    1  0.3934322E-009  0.3879874E+03  0.7957747E-01  0.3417100E+00
         13   -1    0    0    0    0  0.00000000000E+00  0.00000000000E+00  0.14999999963E+04  0.15000000000E+04  0.10566000000E+00 0.  1.
        994   -1    0    0    0    0 -0.00000000000E+00 -0.00000000000E+00  0.11368683772E-12  0.17120000000E+03  0.17120000000E+03 0.  0.
         13    1    1    2    0    0 -0.81507644028E+02  0.18906412833E+03  0.11684579468E+04  0.11864580588E+04  0.10566000000E+00 0.  1.
        994    1    1    2    0    0  0.83785883465E+02 -0.21200434331E+03  0.19294990409E+03  0.34424558289E+03  0.17120000000E+03 0.  0.
        998    1    1    2    0    0 -0.22782394369E+01  0.22940214985E+02  0.13859214535E+03  0.14049635828E+03  0.10000000000E-01 0. -1.
</event>
<event>
 5    1  0.3934322E-009  0.3882790E+03  0.7957747E-01  0.3415883E+00
         13   -1    0    0    0    0  0.00000000000E+00  0.00000000000E+00  0.14999999963E+04  0.15000000000E+04  0.10566000000E+00 0.  1.
        994   -1    0    0    0    0 -0.00000000000E+00 -0.00000000000E+00  0.11368683772E-12  0.17120000000E+03  0.17120000000E+03 0.  0.
         13    1    1    2    0    0  0.43895371349E+02 -0.31029062816E+03  0.10210988314E+04  0.10681057589E+04  0.10566000000E+00 0.  1.
        994    1    1    2    0    0 -0.44174185993E+02  0.31474661225E+03  0.46622058284E+03  0.58965062579E+03  0.17120000000E+03 0.  0.
        998    1    1    2    0    0  0.27881464400E+00 -0.44559840880E+01  0.12680582032E+02  0.13443615305E+02  0.10000000000E-01 0. -1.
</event>
<event>
 5    1  0.3934322E-009  0.3832069E+03  0.7957747E-01  0.3437313E+00
         13   -1    0    0    0    0  0.00000000000E+00  0.00000000000E+00  0.14999999963E+04  0.15000000000E+04  0.10566000000E+00 0. -1.
        994   -1    0    0    0    0 -0.00000000000E+00 -0.00000000000E+00  0.11368683772E-12  0.17120000000E+03  0.17120000000E+03 0.  0.
         13    1    1    2    0    0  0.49366560478E+02 -0.85301856267E+01  0.28109641279E+03  0.28552587590E+03  0.10566000000E+00 0. -1.
        994    1    1    2    0    0 -0.12798713501E+03 -0.82996499814E+02  0.83734579422E+02  0.24411072386E+03  0.17120000000E+03 0.  0.
        998    1    1    2    0    0  0.78620574535E+02  0.91526685440E+02  0.11351690041E+04  0.11415634002E+04  0.10000000000E-01 0. -1.
</event>
<event>
 5    1  0.3934322E-009  0.3881654E+03  0.7957747E-01  0.3416357E+00
         13   -1    0    0    0    0  0.00000000000E+00  0.00000000000E+00  0.14999999963E+04  0.15000000000E+04  0.10566000000E+00 0.  1.
        994   -1    0    0    0    0 -0.00000000000E+00 -0.00000000000E+00  0.11368683772E-12  0.17120000000E+03  0.17120000000E+03 0.  0.
         13    1    1    2    0    0  0.17325329126E+03  0.15005917389E+03  0.12872295692E+04  0.13074763606E+04  0.10566000000E+00 0.  1.
        994    1    1    2    0    0 -0.17387358740E+03 -0.15244802109E+03  0.19923818611E+03  0.34996816759E+03  0.17120000000E+03 0.  0.
        998    1    1    2    0    0  0.62029613881E+00  0.23888471949E+01  0.13532241004E+02  0.13755471813E+02  0.10000000000E-01 0.  1.
</event>
<event>
 5    1  0.3934322E-009  0.3883007E+03  0.7957747E-01  0.3415793E+00
         13   -1    0    0    0    0  0.00000000000E+00  0.00000000000E+00  0.14999999963E+04  0.15000000000E+04  0.10566000000E+00 0. -1.
        994   -1    0    0    0    0 -0.00000000000E+00 -0.00000000000E+00  0.11368683772E-12  0.17120000000E+03  0.17120000000E+03 0.  0.
         13    1    1    2    0    0  0.20565890705E+02 -0.21983462152E+03  0.11393499684E+04  0.11605466722E+04  0.10566000000E+00 0. -1.
        994    1    1    2    0    0 -0.22968007770E+02  0.24479948234E+03  0.23024331533E+03  0.37785677205E+03  0.17120000000E+03 0.  0.
        998    1    1    2    0    0  0.24021170647E+01 -0.24964860822E+02  0.13040671256E+03  0.13279655577E+03  0.10000000000E-01 0. -1.
</event>
<event>
 5    1  0.3934322E-009  0.3883010E+03  0.7957747E-01  0.3415792E+00
         13   -1    0    0    0    0  0.00000000000E+00  0.00000000000E+00  0.14999999963E+04  0.15000000000E+04  0.10566000000E+00 0. -1.
        994   -1    0    0    0    0 -0.00000000000E+00 -0.00000000000E+00  0.11368683772E-12  0.17120000000E+03  0.17120000000E+03 0.  0.
         13    1    1    2    0    0  0.18185335464E+03  0.15624595568E+03  0.12684175859E+04  0.12908782377E+04  0.10566000000E+00 0. -1.
        994    1    1    2    0    0 -0.18335843724E+03 -0.15753955121E+03  0.22106566099E+03  0.36961938961E+03  0.17120000000E+03 0.  0.
        998    1    1    2    0    0  0.15050826008E+01  0.12935955279E+01  0.10516749381E+02  0.10702372661E+02  0.10000000000E-01 0.  0.
</event>
<event>
 5    1  0.3934322E-009  0.3882995E+03  0.7957747E-01  0.3415798E+00
         13   -1    0    0    0    0  0.00000000000E+00  0.00000000000E+00  0.14999999963E+04  0.15000000000E+04  0.10566000000E+00 0.  1.
        994   -1    0    0    0    0 -0.00000000000E+00 -0.00000000000E+00  0.11368683772E-12  0.17120000000E+03  0.17120000000E+03 0.  0.
         13    1    1    2    0    0 -0.94120769684E+02 -0.88550475473E+02  0.54857548795E+03  0.56359114892E+03  0.10566000000E+00 0.  1.
        994    1    1    2    0    0  0.20286919722E+03  0.19003534479E+03  0.31365514095E+03  0.45272323874E+03  0.17120000000E+03 0.  0.
        998    1    1    2    0    0 -0.10874842754E+03 -0.10148486932E+03  0.63776936737E+03  0.65488561234E+03  0.10000000000E-01 0.  1.
</event>
<event>
 5    1  0.3934322E-009  0.3883008E+03  0.7957747E-01  0.3415793E+00
         13   -1    0    0    0    0  0.00000000000E+00  0.00000000000E+00  0.14999999963E+04  0.15000000000E+04  0.10566000000E+00 0. -1.
        994   -1    0    0    0    0 -0.00000000000E+00 -0.00000000000E+00  0.11368683772E-12  0.17120000000E+03  0.17120000000E+03 0.  0.
         13    1    1    2    0    0 -0.24775999041E+03  0.11795986285E+03  0.11746914065E+04  0.12063164816E+04  0.10566000000E+00 0. -1.
        994    1    1    2    0    0  0.25049815588E+03 -0.11930624278E+03  0.31211186790E+03  0.45133863534E+03  0.17120000000E+03 0.  0.
        998    1    1    2    0    0 -0.27381654691E+01  0.13463799218E+01  0.13196721848E+02  0.13544883039E+02  0.10000000000E-01 0. -1.
</event>
<event>
 5    1  0.3934322E-009  0.3882868E+03  0.7957747E-01  0.3415851E+00
         13   -1    0    0    0    0  0.00000000000E+00  0.00000000000E+00  0.14999999963E+04  0.15000000000E+04  0.10566000000E+00 0.  1.
        994   -1    0    0    0    0 -0.00000000000E+00 -0.00000000000E+00  0.11368683772E-12  0.17120000000E+03  0.17120000000E+03 0.  0.
         13    1    1    2    0    0 -0.49625827346E+02  0.24968992261E+03  0.12479560807E+04  0.12736570067E+04  0.10566000000E+00 0.  1.
        994    1    1    2    0    0  0.49776432925E+02 -0.24982400544E+03  0.25101442939E+03  0.39649389747E+03  0.17120000000E+03 0.  0.
        998    1    1    2    0    0 -0.15060557912E+00  0.13408283465E+00  0.10294861507E+01  0.10490957923E+01  0.10000000000E-01 0.  1.
</event>
<event>
 5    1  0.3934322E-009  0.3882484E+03  0.7957747E-01  0.3416011E+00
         13   -1    0    0    0    0  0.00000000000E+00  0.00000000000E+00  0.14999999963E+04  0.15000000000E+04  0.10566000000E+00 0.  1.
        994   -1    0    0    0    0 -0.00000000000E+00 -0.00000000000E+00  0.11368683772E-12  0.17120000000E+03  0.17120000000E+03 0.  0.
         13    1    1    2    0    0 -0.40583162877E+02 -0.25850735300E+03  0.12247380593E+04  0.12523802816E+04  0.10566000000E+00 0.  1.
        994    1    1    2    0    0  0.40652100407E+02  0.25975574720E+03  0.27167445433E+03  0.41502059058E+03  0.17120000000E+03 0.  0.
        998    1    1    2    0    0 -0.68937529980E-01 -0.12483942035E+01  0.35874826574E+01  0.37991278324E+01  0.10000000000E-01 0.  1.
</event>
<event>
 5    1  0.3934322E-009  0.3882950E+03  0.7957747E-01  0.3415817E+00
         13   -1    0    0    0    0  0.00000000000E+00  0.00000000000E+00  0.14999999963E+04  0.15000000000E+04  0.10566000000E+00 0.  1.
        994   -1    0    0    0    0 -0.00000000000E+00 -0.00000000000E+00  0.11368683772E-12  0.17120000000E+03  0.17120000000E+03 0.  0.
         13    1    1    2    0    0 -0.13955485347E+03  0.20395674985E+03  0.12662074824E+04  0.12900989545E+04  0.10566000000E+00 0.  1.
        994    1    1    2    0    0  0.13956127269E+03 -0.20401911055E+03  0.23322987197E+03  0.38053483347E+03  0.17120000000E+03 0.  0.
        998    1    1    2    0    0 -0.64192190922E-02  0.62360701957E-01  0.56264195021E+00  0.56621199887E+00  0.10000000000E-01 0. -1.
</event>
<event>
 5    1  0.3934322E-009  0.3880859E+03  0.7957747E-01  0.3416689E+00
         13   -1    0    0    0    0  0.00000000000E+00  0.00000000000E+00  0.14999999963E+04  0.15000000000E+04  0.10566000000E+00 0. -1.
        994   -1    0    0    0    0 -0.00000000000E+00 -0.00000000000E+00  0.11368683772E-12  0.17120000000E+03  0.17120000000E+03 0.  0.
         13    1    1    2    0    0  0.13577867444E+03 -0.16646139869E+03  0.12124105280E+04  0.12312938501E+04  0.10566000000E+00 0. -1.
        994    1    1    2    0    0 -0.14538805637E+03  0.17472647965E+03  0.19153522385E+03  0.34301925835E+03  0.17120000000E+03 0.  0.
        998    1    1    2    0    0  0.96093819307E+01 -0.82650809591E+01  0.96054244452E+02  0.96886891588E+02  0.10000000000E-01 0.  1.
</event>
<event>
 5    1  0.3934322E-009  0.3882907E+03  0.7957747E-01  0.3415835E+00
         13   -1    0    0    0    0  0.00000000000E+00  0.00000000000E+00  0.14999999963E+04  0.15000000000E+04  0.10566000000E+00 0.  1.
        994   -1    0    0    0    0 -0.00000000000E+00 -0.00000000000E+00  0.11368683772E-12  0.17120000000E+03  0.17120000000E+03 0.  0.
         13    1    1    2    0    0 -0.22659786922E+03 -0.32825727637E+02  0.12966809227E+04  0.13167405019E+04  0.10566000000E+00 0.  1.
        994    1    1    2    0    0  0.22766459205E+03  0.33255958846E+02  0.19674626583E+03  0.34778680019E+03  0.17120000000E+03 0.  0.
        998    1    1    2    0    0 -0.10667228225E+01 -0.43023120943E+00  0.65728077182E+01  0.66726979382E+01  0.10000000000E-01 0. -1.
</event>
<event>
 5    1  0.3934322E-009  0.3883010E+03  0.7957747E-01  0.3415792E+00
         13   -1    0    0    0    0  0.00000000000E+00  0.00000000000E+00  0.14999999963E+04  0.15000000000E+04  0.10566000000E+00 0. -1.
        994   -1    0    0    0    0 -0.00000000000E+00 -0.00000000000E+00  0.11368683772E-12  0.17120000000E+03  0.17120000000E+03 0.  0.
         13    1    1    2    0    0 -0.20665246760E+03 -0.68141547825E+02  0.10287623409E+04  0.10515229327E+04  0.10566000000E+00 0. -1.
        994    1    1    2    0    0  0.24777187092E+03  0.81685033079E+02  0.26633994494E+03  0.41025571406E+03  0.17120000000E+03 0.  0.
        998    1    1    2    0    0 -0.41119403319E+02 -0.13543485254E+02  0.20489771047E+03  0.20942135321E+03  0.10000000000E-01 0.  1.
</event>
<event>
 5    1  0.3934322E-009  0.3883009E+03  0.7957747E-01  0.3415792E+00
         13   -1    0    0    0    0  0.00000000000E+00  0.00000000000E+00  0.14999999963E+04  0.15000000000E+04  0.10566000000E+00 0.  1.
        994   -1    0    0    0    0 -0.00000000000E+00 -0.00000000000E+00  0.11368683772E-12  0.17120000000E+03  0.17120000000E+03 0.  0.
         13    1    1    2    0    0 -0.17049166328E+03  0.13152376792E+03  0.12616156044E+04  0.12798593099E+04  0.10566000000E+00 0.  1.
        994    1    1    2    0    0  0.17767141452E+03 -0.13706214347E+03  0.18564254658E+03  0.33782504024E+03  0.17120000000E+03 0.  0.
        998    1    1    2    0    0 -0.71797512469E+01  0.55383755497E+01  0.52741845293E+02  0.53515649828E+02  0.10000000000E-01 0. -1.
</event>
<event>
 5    1  0.3934322E-009  0.3752642E+03  0.7957747E-01  0.3472042E+00
         13   -1    0    0    0    0  0.00000000000E+00  0.00000000000E+00  0.14999999963E+04  0.15000000000E+04  0.10566000000E+00 0. -1.
        994   -1    0    0    0    0 -0.00000000000E+00 -0.00000000000E+00  0.11368683772E-12  0.17120000000E+03  0.17120000000E+03 0.  0.
         13    1    1    2    0    0 -0.70531329376E+02  0.19554129348E+02  0.36293003117E+03  0.37023675005E+03  0.10566000000E+00 0. -1.
        994    1    1    2    0    0 -0.40288428756E+02  0.39270486822E+02  0.25111282380E+02  0.18194874314E+03  0.17120000000E+03 0.  0.
        998    1    1    2    0    0  0.11081975813E+03 -0.58824616170E+02  0.11119586827E+04  0.11190145068E+04  0.10000000000E-01 0. -1.
</event>
<event>
 5    1  0.3934322E-009  0.3882939E+03  0.7957747E-01  0.3415821E+00
         13   -1    0    0    0    0  0.00000000000E+00  0.00000000000E+00  0.14999999963E+04  0.15000000000E+04  0.10566000000E+00 0. -1.
        994   -1    0    0    0    0 -0.00000000000E+00 -0.00000000000E+00  0.11368683772E-12  0.17120000000E+03  0.17120000000E+03 0.  0.
         13    1    1    2    0    0 -0.12280698743E+02  0.22999470243E+03  0.12953483293E+04  0.13156654909E+04  0.10566000000E+00 0. -1.
        994    1    1    2    0    0  0.12498431136E+02 -0.23086305081E+03  0.19898534232E+03  0.34979789232E+03  0.17120000000E+03 0.  0.
        998    1    1    2    0    0 -0.21773239373E+00  0.86834838338E+00  0.56663246782E+01  0.57366167442E+01  0.10000000000E-01 0.  1.
</event>
<event>
 5    1  0.3934322E-009  0.3883010E+03  0.7957747E-01  0.3415792E+00
         13   -1    0    0    0    0  0.00000000000E+00  0.00000000000E+00  0.14999999963E+04  0.15000000000E+04  0.10566000000E+00 0.  1.
        994   -1    0    0    0    0 -0.00000000000E+00 -0.00000000000E+00  0.11368683772E-12  0.17120000000E+03  0.17120000000E+03 0.  0.
         13    1    1    2    0    0  0.17341594093E+03  0.19490307416E+03  0.10954764264E+04  0.11261122985E+04  0.10566000000E+00 0.  1.
        994    1    1    2    0    0 -0.18651170869E+03 -0.20966584558E+03  0.32168721780E+03  0.45993313686E+03  0.17120000000E+03 0.  0.
        998    1    1    2    0    0  0.13095767760E+02  0.14762771422E+02  0.82836352072E+02  0.85154564633E+02  0.10000000000E-01 0.  1.
</event>
<event>
 5    1  0.3934322E-009  0.3882994E+03  0.7957747E-01  0.3415799E+00
         13   -1    0    0    0    0  0.00000000000E+00  0.00000000000E+00  0.14999999963E+04  0.15000000000E+04  0.10566000000E+00 0.  1.
        994   -1    0    0    0    0 -0.00000000000E+00 -0.00000000000E+00  0.11368683772E-12  0.17120000000E+03  0.17120000000E+03 0.  0.
         13    1    1    2    0    0  0.22002949346E+03  0.10456068730E+03  0.12486912220E+04  0.12722325630E+04  0.10566000000E+00 0.  1.
        994    1    1    2    0    0 -0.22308657493E+03 -0.10614848936E+03  0.23291840630E+03  0.38025720993E+03  0.17120000000E+03 0.  0.
        998    1    1    2    0    0  0.30570814690E+01  0.15878020596E+01  0.18390367966E+02  0.18710227054E+02  0.10000000000E-01 0. -1.
</event>
<event>
 5    1  0.3934322E-009  0.3882877E+03  0.7957747E-01  0.3415847E+00
         13   -1    0    0    0    0  0.00000000000E+00  0.00000000000E+00  0.14999999963E+04  0.15000000000E+04  0.10566000000E+00 0.  1.
        994   -1    0    0    0    0 -0.00000000000E+00 -0.00000000000E+00  0.11368683772E-12  0.17120000000E+03  0.17120000000E+03 0.  0.
         13    1    1    2    0    0  0.13439339055E+03  0.21759207974E+03  0.12382624746E+04  0.12643978265E+04  0.10566000000E+00 0.  1.
        994    1    1    2    0    0 -0.13473748487E+03 -0.21852365157E+03  0.25588432412E+03  0.40086531835E+03  0.17120000000E+03 0.  0.
        998    1    1    2    0    0  0.34409431771E+00  0.93157182740E+00  0.58531975472E+01  0.59368551015E+01  0.10000000000E-01 0. -1.
</event>
<event>
 5    1  0.3934322E-009  0.3881664E+03  0.7957747E-01  0.3416353E+00
         13   -1    0    0    0    0  0.00000000000E+00  0.00000000000E+00  0.14999999963E+04  0.15000000000E+04  0.10566000000E+00 0. -1.
        994   -1    0    0    0    0 -0.00000000000E+00 -0.00000000000E+00  0.11368683772E-12  0.17120000000E+03  0.17120000000E+03 0.  0.
         13    1    1    2    0    0  0.44682305192E+01 -0.20919762322E+03  0.89662445078E+03  0.92071658373E+03  0.10566000000E+00 0. -1.
        994    1    1    2    0    0  0.19274229966E+01  0.27819610940E+03  0.31463072514E+03  0.45354021150E+03  0.17120000000E+03 0.  0.
        998    1    1    2    0    0 -0.63956535159E+01 -0.68998486181E+02  0.28874482036E+03  0.29694320478E+03  0.10000000000E-01 0. -1.
</event>
<event>
 5    1  0.3934322E-009  0.3883002E+03  0.7957747E-01  0.3415795E+00
         13   -1    0    0    0    0  0.00000000000E+00  0.00000000000E+00  0.14999999963E+04  0.15000000000E+04  0.10566000000E+00 0.  1.
        994   -1    0    0    0    0 -0.00000000000E+00 -0.00000000000E+00  0.11368683772E-12  0.17120000000E+03  0.17120000000E+03 0.  0.
         13    1    1    2    0    0  0.20944486029E+03  0.41934399923E+02  0.12869107201E+04  0.13045170968E+04  0.10566000000E+00 0.  1.
        994    1    1    2    0    0 -0.21535727986E+03 -0.43293193868E+02  0.17677745081E+03  0.32986780040E+03  0.17120000000E+03 0.  0.
        998    1    1    2    0    0  0.59124195670E+01  0.13587939449E+01  0.36311825416E+02  0.36815102759E+02  0.10000000000E-01 0.  1.
</event>
<event>
 5    1  0.3934322E-009  0.3880756E+03  0.7957747E-01  0.3416732E+00
         13   -1    0    0    0    0  0.00000000000E+00  0.00000000000E+00  0.14999999963E+04  0.15000000000E+04  0.10566000000E+00 0.  1.
        994   -1    0    0    0    0 -0.00000000000E+00 -0.00000000000E+00  0.11368683772E-12  0.17120000000E+03  0.17120000000E+03 0.  0.
         13    1    1    2    0    0 -0.27667049855E+03 -0.10398619525E+02  0.11496290791E+04  0.11824980874E+04  0.10566000000E+00 0.  1.
        994    1    1    2    0    0  0.28049961731E+03  0.10702577228E+02  0.32245442426E+03  0.46052239489E+03  0.17120000000E+03 0.  0.
        998    1    1    2    0    0 -0.38291187645E+01 -0.30395770336E+00  0.27916492896E+02  0.28179517676E+02  0.10000000000E-01 0. -1.
</event>
<event>
 5    1  0.3934322E-009  0.3882735E+03  0.7957747E-01  0.3415906E+00
         13   -1    0    0    0    0  0.00000000000E+00  0.00000000000E+00  0.14999999963E+04  0.15000000000E+04  0.10566000000E+00 0. -1.
        994   -1    0    0    0    0 -0.00000000000E+00 -0.00000000000E+00  0.11368683772E-12  0.17120000000E+03  0.17120000000E+03 0.  0.
         13    1    1    2    0    0  0.26047354274E+01  0.25156794088E+03  0.12563988643E+04  0.12813396626E+04  0.10566000000E+00 0. -1.
        994    1    1    2    0    0 -0.26376325373E+01 -0.25160198236E+03  0.24355564372E+03  0.38979392789E+03  0.17120000000E+03 0.  0.
        998    1    1    2    0    0  0.32897109929E-01  0.34041478087E-01  0.45488213845E-01  0.66409484795E-01  0.10000000000E-01 0.  1.
</event>
<event>
 5    1  0.3934322E-009  0.3881957E+03  0.7957747E-01  0.3416231E+00
         13   -1    0    0    0    0  0.00000000000E+00  0.00000000000E+00  0.14999999963E+04  0.15000000000E+04  0.10566000000E+00 0.  1.
        994   -1    0    0    0    0 -0.00000000000E+00 -0.00000000000E+00  0.11368683772E-12  0.17120000000E+03  0.17120000000E+03 0.  0.
         13    1    1    2    0    0  0.29190868602E+03  0.18383865502E+03  0.65971212585E+03  0.74446452717E+03  0.10566000000E+00 0.  1.
        994    1    1    2    0    0 -0.29388149775E+03 -0.18619624976E+03  0.83277531658E+03  0.91861828093E+03  0.17120000000E+03 0.  0.
        998    1    1    2    0    0  0.19728117325E+01  0.23575947455E+01  0.75125538462E+01  0.81171919041E+01  0.10000000000E-01 0. -1.
</event>
<event>
 5    1  0.3934322E-009  0.3882997E+03  0.7957747E-01  0.3415797E+00
         13   -1    0    0    0    0  0.00000000000E+00  0.00000000000E+00  0.14999999963E+04  0.15000000000E+04  0.10566000000E+00 0.  1.
        994   -1    0    0    0    0 -0.00000000000E+00 -0.00000000000E+00  0.11368683772E-12  0.17120000000E+03  0.17120000000E+03 0.  0.
         13    1    1    2    0    0  0.26898649990E+03  0.27534642633E+02  0.12033013353E+04  0.12333069401E+04  0.10566000000E+00 0.  1.
        994    1    1    2    0    0 -0.26964607172E+03 -0.27547605411E+02  0.29357153546E+03  0.43469709108E+03  0.17120000000E+03 0.  0.
        998    1    1    2    0    0  0.65957182634E+00  0.12962777484E-01  0.31271255132E+01  0.31959688676E+01  0.10000000000E-01 0. -1.
</event>
<event>
 5    1  0.3934322E-009  0.3883005E+03  0.7957747E-01  0.3415794E+00
         13   -1    0    0    0    0  0.00000000000E+00  0.00000000000E+00  0.14999999963E+04  0.15000000000E+04  0.10566000000E+00 0. -1.
        994   -1    0    0    0    0 -0.00000000000E+00 -0.00000000000E+00  0.11368683772E-12  0.17120000000E+03  0.17120000000E+03 0.  0.
         13    1    1    2    0    0  0.20426115039E+03 -0.13668603913E+03  0.12693596289E+04  0.12929344800E+04  0.10566000000E+00 0. -1.
        994    1    1    2    0    0 -0.20433364300E+03  0.13674028413E+03  0.23022447868E+03  0.37783977232E+03  0.17120000000E+03 0.  0.
        998    1    1    2    0    0  0.72492611796E-01 -0.54244997678E-01  0.41588870403E+00  0.42574771012E+00  0.10000000000E-01 0.  0.
</event>
<event>
 5    1  0.3934322E-009  0.3882969E+03  0.7957747E-01  0.3415809E+00
         13   -1    0    0    0    0  0.00000000000E+00  0.00000000000E+00  0.14999999963E+04  0.15000000000E+04  0.10566000000E+00 0. -1.
        994   -1    0    0    0    0 -0.00000000000E+00 -0.00000000000E+00  0.11368683772E-12  0.17120000000E+03  0.17120000000E+03 0.  0.
         13    1    1    2    0    0 -0.34133095146E+02  0.23617241623E+03  0.12728073305E+04  0.12949830077E+04  0.10566000000E+00 0. -1.
        994    1    1    2    0    0  0.34216875211E+02 -0.23797592201E+03  0.21820732709E+03  0.36705205571E+03  0.17120000000E+03 0.  0.
        998    1    1    2    0    0 -0.83780065727E-01  0.18035057781E+01  0.89853386440E+01  0.91649365921E+01  0.10000000000E-01 0.  1.
</event>
<event>
 5    1  0.3934322E-009  0.3882906E+03  0.7957747E-01  0.3415835E+00
         13   -1    0    0    0    0  0.00000000000E+00  0.00000000000E+00  0.14999999963E+04  0.15000000000E+04  0.10566000000E+00 0. -1.
        994   -1    0    0    0    0 -0.00000000000E+00 -0.00000000000E+00  0.11368683772E-12  0.17120000000E+03  0.17120000000E+03 0.  0.
         13    1    1    2    0    0  0.30724370325E+03 -0.11326254384E+03  0.96572560103E+03  0.10197318494E+04  0.10566000000E+00 0. -1.
        994    1    1    2    0    0 -0.30866581345E+03  0.11401748577E+03  0.53002446664E+03  0.64692344732E+03  0.17120000000E+03 0.  0.
        998    1    1    2    0    0  0.14221102039E+01 -0.75494193496E+00  0.42499286028E+01  0.45447032781E+01  0.10000000000E-01 0. -1.
</event>
<event>
 5    1  0.3934322E-009  0.3868127E+03  0.7957747E-01  0.3422020E+00
         13   -1    0    0    0    0  0.00000000000E+00  0.00000000000E+00  0.14999999963E+04  0.15000000000E+04  0.10566000000E+00 0.  1.
        994   -1    0    0    0    0 -0.00000000000E+00 -0.00000000000E+00  0.11368683772E-12  0.17120000000E+03  0.17120000000E+03 0.  0.
         13    1    1    2    0    0 -0.21363269493E+03 -0.74098959598E+01  0.11316447087E+04  0.11516568902E+04  0.10566000000E+00 0.  1.
        994    1    1    2    0    0  0.23284580990E+03 -0.50001589163E+01  0.20445097479E+03  0.35405058095E+03  0.17120000000E+03 0.  0.
        998    1    1    2    0    0 -0.19213114965E+02  0.12410054876E+02  0.16390431281E+03  0.16549252885E+03  0.10000000000E-01 0. -1.
</event>
<event>
 5    1  0.3934322E-009  0.3842021E+03  0.7957747E-01  0.3433063E+00
         13   -1    0    0    0    0  0.00000000000E+00  0.00000000000E+00  0.14999999963E+04  0.15000000000E+04  0.10566000000E+00 0.  1.
        994   -1    0    0    0    0 -0.00000000000E+00 -0.00000000000E+00  0.11368683772E-12  0.17120000000E+03  0.17120000000E+03 0.  0.
         13    1    1    2    0    0 -0.12027481346E+03 -0.21560764164E+03  0.12347809109E+04  0.12592206300E+04  0.10566000000E+00 0.  1.
        994    1    1    2    0    0  0.11515536914E+03  0.21625328588E+03  0.23200685161E+03  0.37836868513E+03  0.17120000000E+03 0.  0.
        998    1    1    2    0    0  0.51194443188E+01 -0.64564423712E+00  0.33212233792E+02  0.33610684909E+02  0.10000000000E-01 0. -1.
</event>
<event>
 5    1  0.3934322E-009  0.3883010E+03  0.7957747E-01  0.3415792E+00
         13   -1    0    0    0    0  0.00000000000E+00  0.00000000000E+00  0.14999999963E+04  0.15000000000E+04  0.10566000000E+00 0.  1.
        994   -1    0    0    0    0 -0.00000000000E+00 -0.00000000000E+00  0.11368683772E-12  0.17120000000E+03  0.17120000000E+03 0.  0.
         13    1    1    2    0    0 -0.11860836022E+03 -0.18560023308E+03  0.10962247308E+04  0.11181341875E+04  0.10566000000E+00 0.  1.
        994    1    1    2    0    0  0.13573204385E+03  0.21252686450E+03  0.24483327035E+03  0.39095220441E+03  0.17120000000E+03 0.  0.
        998    1    1    2    0    0 -0.17123683631E+02 -0.26926631418E+02  0.15894199510E+03  0.16211360808E+03  0.10000000000E-01 0.  1.
</event>
<event>
 5    1  0.3934322E-009  0.3858962E+03  0.7957747E-01  0.3425880E+00
         13   -1    0    0    0    0  0.00000000000E+00  0.00000000000E+00  0.14999999963E+04  0.15000000000E+04  0.10566000000E+00 0.  1.
        994   -1    0    0    0    0 -0.00000000000E+00 -0.00000000000E+00  0.11368683772E-12  0.17120000000E+03  0.17120000000E+03 0.  0.
         13    1    1    2    0    0 -0.43167746867E+02 -0.12688839440E+03  0.67694455104E+03  0.69008554205E+03  0.10566000000E+00 0.  1.
        994    1    1    2    0    0  0.89868647889E+02  0.19124153033E+03  0.16462464970E+03  0.31790000328E+03  0.17120000000E+03 0.  0.
        998    1    1    2    0    0 -0.46700901023E+02 -0.64353135931E+02  0.65843079555E+03  0.66321445467E+03  0.10000000000E-01 0.  1.
</event>
<event>
 5    1  0.3934322E-009  0.3882410E+03  0.7957747E-01  0.3416042E+00
         13   -1    0    0    0    0  0.00000000000E+00  0.00000000000E+00  0.14999999963E+04  0.15000000000E+04  0.10566000000E+00 0.  1.
        994   -1    0    0    0    0 -0.00000000000E+00 -0.00000000000E+00  0.11368683772E-12  0.17120000000E+03  0.17120000000E+03 0.  0.
         13    1    1    2    0    0  0.19992496758E+03  0.17115407417E+02  0.93238939358E+03  0.95373629597E+03  0.10566000000E+00 0.  1.
        994    1    1    2    0    0 -0.26615636411E+03 -0.20811758952E+02  0.28244523424E+03  0.42468469458E+03  0.17120000000E+03 0.  0.
        998    1    1    2    0    0  0.66231396530E+02  0.36963515353E+01  0.28516536847E+03  0.29277900945E+03  0.10000000000E-01 0. -1.
</event>
<event>
 5    1  0.3934322E-009  0.3883010E+03  0.7957747E-01  0.3415792E+00
         13   -1    0    0    0    0  0.00000000000E+00  0.00000000000E+00  0.14999999963E+04  0.15000000000E+04  0.10566000000E+00 0. -1.
        994   -1    0    0    0    0 -0.00000000000E+00 -0.00000000000E+00  0.11368683772E-12  0.17120000000E+03  0.17120000000E+03 0.  0.
         13    1    1    2    0    0 -0.27787528639E+03 -0.31690576797E+02  0.11050056980E+04  0.11398493634E+04  0.10566000000E+00 0. -1.
        994    1    1    2    0    0  0.28842486904E+03  0.32890507710E+02  0.35304614147E+03  0.48807961296E+03  0.17120000000E+03 0.  0.
        998    1    1    2    0    0 -0.10549582645E+02 -0.11999309129E+01  0.41948156837E+02  0.43271023679E+02  0.10000000000E-01 0.  0.
</event>
<event>
 5    1  0.3934322E-009  0.3883010E+03  0.7957747E-01  0.3415792E+00
         13   -1    0    0    0    0  0.00000000000E+00  0.00000000000E+00  0.14999999963E+04  0.15000000000E+04  0.10566000000E+00 0. -1.
        994   -1    0    0    0    0 -0.00000000000E+00 -0.00000000000E+00  0.11368683772E-12  0.17120000000E+03  0.17120000000E+03 0.  0.
         13    1    1    2    0    0 -0.32127020943E+03  0.10530376494E+03  0.84906712444E+03  0.91390285225E+03  0.10566000000E+00 0. -1.
        994    1    1    2    0    0  0.32517282658E+03 -0.10660206706E+03  0.64060799414E+03  0.74618322817E+03  0.17120000000E+03 0.  0.
        998    1    1    2    0    0 -0.39026171495E+01  0.12983021180E+01  0.10324877691E+02  0.11113919576E+02  0.10000000000E-01 0. -1.
</event>
<event>
 5    1  0.3934322E-009  0.3882971E+03  0.7957747E-01  0.3415808E+00
         13   -1    0    0    0    0  0.00000000000E+00  0.00000000000E+00  0.14999999963E+04  0.15000000000E+04  0.10566000000E+00 0. -1.
        994   -1    0    0    0    0 -0.00000000000E+00 -0.00000000000E+00  0.11368683772E-12  0.17120000000E+03  0.17120000000E+03 0.  0.
         13    1    1    2    0    0 -0.21801462670E+03  0.66023841961E+02  0.13075624023E+04  0.13272561819E+04  0.10566000000E+00 0. -1.
        994    1    1    2    0    0  0.21802175781E+03 -0.66043801811E+02  0.19224138759E+03  0.34374621705E+03  0.17120000000E+03 0.  0.
        998    1    1    2    0    0 -0.71311180628E-02  0.19959850656E-01  0.19620635333E+00  0.19760106672E+00  0.10000000000E-01 0.  1.
</event>
<event>
 5    1  0.3934322E-009  0.3883007E+03  0.7957747E-01  0.3415793E+00
         13   -1    0    0    0    0  0.00000000000E+00  0.00000000000E+00  0.14999999963E+04  0.15000000000E+04  0.10566000000E+00 0.  1.
        994   -1    0    0    0    0 -0.00000000000E+00 -0.00000000000E+00  0.11368683772E-12  0.17120000000E+03  0.17120000000E+03 0.  0.
         13    1    1    2    0    0  0.24987437579E+03  0.57194921938E+02  0.12441387138E+04  0.12702714722E+04  0.10566000000E+00 0.  1.
        994    1    1    2    0    0 -0.25000827179E+03 -0.57221941763E+02  0.25524529655E+03  0.40029749936E+03  0.17120000000E+03 0.  0.
        998    1    1    2    0    0  0.13389600292E+00  0.27019824902E-01  0.61598589435E+00  0.63102839284E+00  0.10000000000E-01 0.  0.
</event>
<event>
 5    1  0.3934322E-009  0.3881801E+03  0.7957747E-01  0.3416296E+00
         13   -1    0    0    0    0  0.00000000000E+00  0.00000000000E+00  0.14999999963E+04  0.15000000000E+04  0.10566000000E+00 0.  1.
        994   -1    0    0    0    0 -0.00000000000E+00 -0.00000000000E+00  0.11368683772E-12  0.17120000000E+03  0.17120000000E+03 0.  0.
         13    1    1    2    0    0  0.10106641293E+03 -0.56364656397E+02  0.60522749226E+03  0.61619130379E+03  0.10566000000E+00 0.  1.
        994    1    1    2    0    0 -0.20837880503E+03  0.10824004587E+03  0.20651042390E+03  0.35650193421E+03  0.17120000000E+03 0.  0.
        998    1    1    2    0    0  0.10731239211E+03 -0.51875389471E+02  0.68826208012E+03  0.69850676200E+03  0.10000000000E-01 0.  1.
</event>
<event>
 5    1  0.3934322E-009  0.3883005E+03  0.7957747E-01  0.3415794E+00
         13   -1    0    0    0    0  0.00000000000E+00  0.00000000000E+00  0.14999999963E+04  0.15000000000E+04  0.10566000000E+00 0.  1.
        994   -1    0    0    0    0 -0.00000000000E+00 -0.00000000000E+00  0.11368683772E-12  0.17120000000E+03  0.17120000000E+03 0.  0.
         13    1    1    2    0    0 -0.13173352091E+03  0.22974435808E+03  0.12211852058E+04  0.12495717301E+04  0.10566000000E+00 0.  1.
        994    1    1    2    0    0  0.13190551188E+03 -0.23000838758E+03  0.27744878762E+03  0.42022635826E+03  0.17120000000E+03 0.  0.
        998    1    1    2    0    0 -0.17199097727E+00  0.26402950759E+00  0.13660028581E+01  0.14019116540E+01  0.10000000000E-01 0.  1.
</event>
<event>
 5    1  0.3934322E-009  0.3882794E+03  0.7957747E-01  0.3415882E+00
         13   -1    0    0    0    0  0.00000000000E+00  0.00000000000E+00  0.14999999963E+04  0.15000000000E+04  0.10566000000E+00 0.  1.
        994   -1    0    0    0    0 -0.00000000000E+00 -0.00000000000E+00  0.11368683772E-12  0.17120000000E+03  0.17120000000E+03 0.  0.
         13    1    1    2    0    0 -0.16871927446E+03  0.28020307660E+03  0.87156577624E+03  0.93091722037E+03  0.10566000000E+00 0.  1.
        994    1    1    2    0    0  0.17506495489E+03 -0.28949377137E+03  0.60072132808E+03  0.71037309641E+03  0.17120000000E+03 0.  0.
        998    1    1    2    0    0 -0.63456804274E+01  0.92906947756E+01  0.27712891954E+02  0.29909683214E+02  0.10000000000E-01 0. -1.
</event>
<event>
 5    1  0.3934322E-009  0.3880975E+03  0.7957747E-01  0.3416641E+00
         13   -1    0    0    0    0  0.00000000000E+00  0.00000000000E+00  0.14999999963E+04  0.15000000000E+04  0.10566000000E+00 0. -1.
        994   -1    0    0    0    0 -0.00000000000E+00 -0.00000000000E+00  0.11368683772E-12  0.17120000000E+03  0.17120000000E+03 0.  0.
         13    1    1    2    0    0 -0.10691606340E+03 -0.15141907475E+03  0.10063485524E+04  0.10232771867E+04  0.10566000000E+00 0. -1.
        994    1    1    2    0    0  0.13525158337E+03  0.18687457368E+03  0.19820996893E+03  0.34901537054E+03  0.17120000000E+03 0.  0.
        998    1    1    2    0    0 -0.28335519966E+02 -0.35455498929E+02  0.29544147498E+03  0.29890744276E+03  0.10000000000E-01 0. -1.
</event>
<event>
 5    1  0.3934322E-009  0.3882570E+03  0.7957747E-01  0.3415975E+00
         13   -1    0    0    0    0  0.00000000000E+00  0.00000000000E+00  0.14999999963E+04  0.15000000000E+04  0.10566000000E+00 0. -1.
        994   -1    0    0    0    0 -0.00000000000E+00 -0.00000000000E+00  0.11368683772E-12  0.17120000000E+03  0.17120000000E+03 0.  0.
         13    1    1    2    0    0  0.72105624838E+02  0.20449421247E+03  0.11363512783E+04  0.11568540716E+04  0.10566000000E+00 0. -1.
        994    1    1    2    0    0 -0.80239172802E+02 -0.23159020498E+03  0.22855886008E+03  0.37632557768E+03  0.17120000000E+03 0.  0.
        998    1    1    2    0    0  0.81335479633E+01  0.27095992508E+02  0.13508985790E+03  0.13802035075E+03  0.10000000000E-01 0. -1.
</event>
<event>
 5    1  0.3934323E-009  0.3882935E+03  0.7957747E-01  0.3415823E+00
         13   -1    0    0    0    0  0.00000000000E+00  0.00000000000E+00  0.14999999963E+04  0.15000000000E+04  0.10566000000E+00 0.  1.
        994   -1    0    0    0    0 -0.00000000000E+00 -0.00000000000E+00  0.11368683772E-12  0.17120000000E+03  0.17120000000E+03 0.  0.
         13    1    1    2    0    0 -0.15858342117E+03 -0.25158975115E+03  0.11210387006E+04  0.11598163147E+04  0.10566000000E+00 0.  1.
        994    1    1    2    0    0  0.15857623268E+03  0.25167184857E+03  0.37859281586E+03  0.51100596978E+03  0.17120000000E+03 0.  0.
        998    1    1    2    0    0  0.71884887145E-02 -0.82097417742E-01  0.36847982125E+00  0.37771555308E+00  0.10000000000E-01 0. -1.
</event>
<event>
 5    1  0.3934322E-009  0.3882989E+03  0.7957747E-01  0.3415801E+00
         13   -1    0    0    0    0  0.00000000000E+00  0.00000000000E+00  0.14999999963E+04  0.15000000000E+04  0.10566000000E+00 0. -1.
        994   -1    0    0    0    0 -0.00000000000E+00 -0.00000000000E+00  0.11368683772E-12  0.17120000000E+03  0.17120000000E+03 0.  0.
         13    1    1    2    0    0  0.19596911409E+03  0.18130347374E+03  0.76444880896E+03  0.80972639574E+03  0.10566000000E+00 0. -1.
        994    1    1    2    0    0 -0.24353917332E+03 -0.22588237028E+03  0.55117600296E+03  0.66591185632E+03  0.17120000000E+03 0.  0.
        998    1    1    2    0    0  0.47570059235E+02  0.44578896548E+02  0.18437518435E+03  0.19556174794E+03  0.10000000000E-01 0. -1.
</event>
<event>
 5    1  0.3934322E-009  0.3882946E+03  0.7957747E-01  0.3415818E+00
         13   -1    0    0    0    0  0.00000000000E+00  0.00000000000E+00  0.14999999963E+04  0.15000000000E+04  0.10566000000E+00 0.  1.
        994   -1    0    0    0    0 -0.00000000000E+00 -0.00000000000E+00  0.11368683772E-12  0.17120000000E+03  0.17120000000E+03 0.  0.
         13    1    1    2    0    0 -0.13797084167E+03 -0.20508295881E+03  0.11251403879E+04  0.11519704323E+04  0.10566000000E+00 0.  1.
        994    1    1    2    0    0  0.14989143922E+03  0.22124553617E+03  0.28307644533E+03  0.42527490489E+03  0.17120000000E+03 0.  0.
        998    1    1    2    0    0 -0.11920597546E+02 -0.16162577358E+02  0.91783163031E+02  0.93954662836E+02  0.10000000000E-01 0.  1.
</event>
<event>
 5    1  0.3934322E-009  0.3881370E+03  0.7957747E-01  0.3416476E+00
         13   -1    0    0    0    0  0.00000000000E+00  0.00000000000E+00  0.14999999963E+04  0.15000000000E+04  0.10566000000E+00 0. -1.
        994   -1    0    0    0    0 -0.00000000000E+00 -0.00000000000E+00  0.11368683772E-12  0.17120000000E+03  0.17120000000E+03 0.  0.
         13    1    1    2    0    0  0.13990455386E+03 -0.17491477971E+03  0.12244690834E+04  0.12447863317E+04  0.10566000000E+00 0. -1.
        994    1    1    2    0    0 -0.14988718520E+03  0.18554919105E+03  0.21436650588E+03  0.36353419293E+03  0.17120000000E+03 0.  0.
        998    1    1    2    0    0  0.99826313389E+01 -0.10634411338E+02  0.61164407047E+02  0.62879475366E+02  0.10000000000E-01 0. -1.
</event>
<event>
 5    1  0.3934322E-009  0.3882951E+03  0.7957747E-01  0.3415816E+00
         13   -1    0    0    0    0  0.00000000000E+00  0.00000000000E+00  0.14999999963E+04  0.15000000000E+04  0.10566000000E+00 0.  1.
        994   -1    0    0    0    0 -0.00000000000E+00 -0.00000000000E+00  0.11368683772E-12  0.17120000000E+03  0.17120000000E+03 0.  0.
         13    1    1    2    0    0 -0.18390768946E+03 -0.15420840176E+03  0.12779043753E+04  0.13002468508E+04  0.10566000000E+00 0.  1.
        994    1    1    2    0    0  0.18451976283E+03  0.15454413204E+03  0.21878590875E+03  0.36757059933E+03  0.17120000000E+03 0.  0.
        998    1    1    2    0    0 -0.61207337132E+00 -0.33573028504E+00  0.33097122183E+01  0.33825498672E+01  0.10000000000E-01 0. -1.
</event>
<event>
 5    1  0.3934322E-009  0.3845347E+03  0.7957747E-01  0.3431648E+00
         13   -1    0    0    0    0  0.00000000000E+00  0.00000000000E+00  0.14999999963E+04  0.15000000000E+04  0.10566000000E+00 0. -1.
        994   -1    0    0    0    0 -0.00000000000E+00 -0.00000000000E+00  0.11368683772E-12  0.17120000000E+03  0.17120000000E+03 0.  0.
         13    1    1    2    0    0 -0.64858769988E+02  0.20334263457E+02  0.28815702554E+03  0.29606523749E+03  0.10566000000E+00 0. -1.
        994    1    1    2    0    0  0.16966088943E+03 -0.57865956755E+02  0.11604231331E+03  0.27369425429E+03  0.17120000000E+03 0.  0.
        998    1    1    2    0    0 -0.10480211944E+03  0.37531693298E+02  0.10958006574E+04  0.11014405082E+04  0.10000000000E-01 0. -1.
</event>
<event>
 5    1  0.3934322E-009  0.3883009E+03  0.7957747E-01  0.3415792E+00
         13   -1    0    0    0    0  0.00000000000E+00  0.00000000000E+00  0.14999999963E+04  0.15000000000E+04  0.10566000000E+00 0. -1.
        994   -1    0    0    0    0 -0.00000000000E+00 -0.00000000000E+00  0.11368683772E-12  0.17120000000E+03  0.17120000000E+03 0.  0.
         13    1    1    2    0    0  0.98880895145E+02 -0.12947017771E+02  0.56515764856E+03  0.57388869616E+03  0.10566000000E+00 0. -1.
        994    1    1    2    0    0 -0.22777160222E+03  0.30169924549E+02  0.19609637926E+03  0.34720794502E+03  0.17120000000E+03 0.  0.
        998    1    1    2    0    0  0.12889070708E+03 -0.17222906778E+02  0.73874596847E+03  0.75010335882E+03  0.10000000000E-01 0. -1.
</event>
<event>
 5    1  0.3934322E-009  0.3880199E+03  0.7957747E-01  0.3416965E+00
         13   -1    0    0    0    0  0.00000000000E+00  0.00000000000E+00  0.14999999963E+04  0.15000000000E+04  0.10566000000E+00 0.  1.
        994   -1    0    0    0    0 -0.00000000000E+00 -0.00000000000E+00  0.11368683772E-12  0.17120000000E+03  0.17120000000E+03 0.  0.
         13    1    1    2    0    0 -0.22594931032E+03  0.86792128030E+02  0.11476728863E+04  0.11729190208E+04  0.10566000000E+00 0.  1.
        994    1    1    2    0    0  0.24615232665E+03 -0.95065829215E+02  0.27459344175E+03  0.41753979218E+03  0.17120000000E+03 0.  0.
        998    1    1    2    0    0 -0.20203016330E+02  0.82737011846E+01  0.77733668262E+02  0.80741187021E+02  0.10000000000E-01 0.  1.
</event>
<event>
 5    1  0.3934322E-009  0.3847289E+03  0.7957747E-01  0.3430823E+00
         13   -1    0    0    0    0  0.00000000000E+00  0.00000000000E+00  0.14999999963E+04  0.15000000000E+04  0.10566000000E+00 0. -1.
        994   -1    0    0    0    0 -0.00000000000E+00 -0.00000000000E+00  0.11368683772E-12  0.17120000000E+03  0.17120000000E+03 0.  0.
         13    1    1    2    0    0  0.56478164043E+02 -0.58798967862E+02  0.46187696399E+03  0.46901752916E+03  0.10566000000E+00 0. -1.
        994    1    1    2    0    0 -0.97928069815E+02  0.10842633368E+03  0.75505411963E+02  0.23739562744E+03  0.17120000000E+03 0.  0.
        998    1    1    2    0    0  0.41449905772E+02 -0.49627365814E+02  0.96261762033E+03  0.96478684340E+03  0.10000000000E-01 0. -1.
</event>
<event>
 5    1  0.3934322E-009  0.3883009E+03  0.7957747E-01  0.3415792E+00
         13   -1    0    0    0    0  0.00000000000E+00  0.00000000000E+00  0.14999999963E+04  0.15000000000E+04  0.10566000000E+00 0. -1.
        994   -1    0    0    0    0 -0.00000000000E+00 -0.00000000000E+00  0.11368683772E-12  0.17120000000E+03  0.17120000000E+03 0.  0.
         13    1    1    2    0    0  0.24837712124E+03  0.12650965310E+03  0.11714515135E+04  0.12041571934E+04  0.10566000000E+00 0. -1.
        994    1    1    2    0    0 -0.24991878784E+03 -0.12729160000E+03  0.32122752724E+03  0.45952052860E+03  0.17120000000E+03 0.  0.
        998    1    1    2    0    0  0.15416666001E+01  0.78194690060E+00  0.73209555064E+01  0.75222780052E+01  0.10000000000E-01 0. -1.
</event>
<event>
 5    1  0.3934322E-009  0.3883009E+03  0.7957747E-01  0.3415792E+00
         13   -1    0    0    0    0  0.00000000000E+00  0.00000000000E+00  0.14999999963E+04  0.15000000000E+04  0.10566000000E+00 0.  1.
        994   -1    0    0    0    0 -0.00000000000E+00 -0.00000000000E+00  0.11368683772E-12  0.17120000000E+03  0.17120000000E+03 0.  0.
         13    1    1    2    0    0 -0.18711114691E+03  0.11116352729E+03  0.12939919163E+04  0.13121672919E+04  0.10566000000E+00 0.  1.
        994    1    1    2    0    0  0.19075708490E+03 -0.11337159862E+03  0.18093299837E+03  0.33359792372E+03  0.17120000000E+03 0.  0.
        998    1    1    2    0    0 -0.36459379934E+01  0.22080713292E+01  0.25075081563E+02  0.25434784415E+02  0.10000000000E-01 0.  1.
</event>
<event>
 5    1  0.3934322E-009  0.3813194E+03  0.7957747E-01  0.3445433E+00
         13   -1    0    0    0    0  0.00000000000E+00  0.00000000000E+00  0.14999999963E+04  0.15000000000E+04  0.10566000000E+00 0.  1.
        994   -1    0    0    0    0 -0.00000000000E+00 -0.00000000000E+00  0.11368683772E-12  0.17120000000E+03  0.17120000000E+03 0.  0.
         13    1    1    2    0    0 -0.19972461738E+02  0.76201289094E+01  0.10113934404E+03  0.10337380553E+03  0.10566000000E+00 0.  1.
        994    1    1    2    0    0 -0.33829675890E+02  0.75590964934E+02  0.26643297248E+02  0.19203579416E+03  0.17120000000E+03 0.  0.
        998    1    1    2    0    0  0.53802137628E+02 -0.83211093843E+02  0.13722173550E+04  0.13757904003E+04  0.10000000000E-01 0.  1.
</event>
<event>
 5    1  0.3934322E-009  0.3882935E+03  0.7957747E-01  0.3415823E+00
         13   -1    0    0    0    0  0.00000000000E+00  0.00000000000E+00  0.14999999963E+04  0.15000000000E+04  0.10566000000E+00 0.  1.
        994   -1    0    0    0    0 -0.00000000000E+00 -0.00000000000E+00  0.11368683772E-12  0.17120000000E+03  0.17120000000E+03 0.  0.
         13    1    1    2    0    0 -0.26185309570E+02 -0.39328352210E+02  0.24835805733E+03  0.25281243152E+03  0.10566000000E+00 0.  1.
        994    1    1    2    0    0  0.13820801881E+03  0.19689663970E+03  0.21851077575E+03  0.36732294008E+03  0.17120000000E+03 0.  0.
        998    1    1    2    0    0 -0.11202270924E+03 -0.15756828749E+03  0.10331311632E+04  0.10510646284E+04  0.10000000000E-01 0.  1.
</event>
<event>
 5    1  0.3934322E-009  0.3882105E+03  0.7957747E-01  0.3416169E+00
         13   -1    0    0    0    0  0.00000000000E+00  0.00000000000E+00  0.14999999963E+04  0.15000000000E+04  0.10566000000E+00 0. -1.
        994   -1    0    0    0    0 -0.00000000000E+00 -0.00000000000E+00  0.11368683772E-12  0.17120000000E+03  0.17120000000E+03 0.  0.
         13    1    1    2    0    0  0.28375458189E+03  0.16956085724E+03  0.93891665784E+03  0.99540546944E+03  0.10566000000E+00 0. -1.
        994    1    1    2    0    0 -0.28530311247E+03 -0.17041745492E+03  0.55287820846E+03  0.66740072544E+03  0.17120000000E+03 0.  0.
        998    1    1    2    0    0  0.15485305733E+01  0.85659767522E+00  0.82051299765E+01  0.83938051231E+01  0.10000000000E-01 0. -1.
</event>
<event>
 5    1  0.3934322E-009  0.3883010E+03  0.7957747E-01  0.3415792E+00
         13   -1    0    0    0    0  0.00000000000E+00  0.00000000000E+00  0.14999999963E+04  0.15000000000E+04  0.10566000000E+00 0. -1.
        994   -1    0    0    0    0 -0.00000000000E+00 -0.00000000000E+00  0.11368683772E-12  0.17120000000E+03  0.17120000000E+03 0.  0.
         13    1    1    2    0    0 -0.22802739529E+03  0.97665233206E+02  0.90030735913E+03  0.93385670359E+03  0.10566000000E+00 0. -1.
        994    1    1    2    0    0  0.27855996640E+03 -0.11934026179E+03  0.40006774041E+03  0.53028425385E+03  0.17120000000E+03 0.  0.
        998    1    1    2    0    0 -0.50532571103E+02  0.21675028584E+02  0.19962489674E+03  0.20705904256E+03  0.10000000000E-01 0. -1.
</event>
<event>
 5    1  0.3934322E-009  0.3825648E+03  0.7957747E-01  0.3440066E+00
         13   -1    0    0    0    0  0.00000000000E+00  0.00000000000E+00  0.14999999963E+04  0.15000000000E+04  0.10566000000E+00 0. -1.
        994   -1    0    0    0    0 -0.00000000000E+00 -0.00000000000E+00  0.11368683772E-12  0.17120000000E+03  0.17120000000E+03 0.  0.
         13    1    1    2    0    0 -0.11784118482E+02  0.30507561185E+01  0.27540520675E+02  0.30110861900E+02  0.10566000000E+00 0. -1.
        994    1    1    2    0    0 -0.41963380464E+02 -0.69661106879E+02  0.25085419846E+02  0.19118659315E+03  0.17120000000E+03 0.  0.
        998    1    1    2    0    0  0.53747498946E+02  0.66610350761E+02  0.14473740558E+04  0.14499025449E+04  0.10000000000E-01 0. -1.
</event>
<event>
 5    1  0.3934322E-009  0.3883008E+03  0.7957747E-01  0.3415792E+00
         13   -1    0    0    0    0  0.00000000000E+00  0.00000000000E+00  0.14999999963E+04  0.15000000000E+04  0.10566000000E+00 0.  1.
        994   -1    0    0    0    0 -0.00000000000E+00 -0.00000000000E+00  0.11368683772E-12  0.17120000000E+03  0.17120000000E+03 0.  0.
         13    1    1    2    0    0  0.27385947240E+03  0.12470732075E+03  0.11068372608E+04  0.11470133650E+04  0.10566000000E+00 0.  1.
        994    1    1    2    0    0 -0.27403475946E+03 -0.12478863204E+03  0.39243134321E+03  0.52343008245E+03  0.17120000000E+03 0.  0.
        998    1    1    2    0    0  0.17528706605E+00  0.81311294650E-01  0.73139230962E+00  0.75655257103E+00  0.10000000000E-01 0.  1.
</event>
<event>
 5    1  0.3934322E-009  0.3883009E+03  0.7957747E-01  0.3415792E+00
         13   -1    0    0    0    0  0.00000000000E+00  0.00000000000E+00  0.14999999963E+04  0.15000000000E+04  0.10566000000E+00 0.  1.
        994   -1    0    0    0    0 -0.00000000000E+00 -0.00000000000E+00  0.11368683772E-12  0.17120000000E+03  0.17120000000E+03 0.  0.
         13    1    1    2    0    0  0.20852785384E+02  0.32277116702E+03  0.85559851296E+03  0.91469387855E+03  0.10566000000E+00 0.  1.
        994    1    1    2    0    0 -0.21827900295E+02 -0.33797323413E+03  0.60392678253E+03  0.71325967422E+03  0.17120000000E+03 0.  0.
        998    1    1    2    0    0  0.97511491129E+00  0.15202067107E+02  0.40474700792E+02  0.43246447225E+02  0.10000000000E-01 0. -1.
</event>
<event>
 5    1  0.3934322E-009  0.3883008E+03  0.7957747E-01  0.3415793E+00
         13   -1    0    0    0    0  0.00000000000E+00  0.00000000000E+00  0.14999999963E+04  0.15000000000E+04  0.10566000000E+00 0.  1.
        994   -1    0    0    0    0 -0.00000000000E+00 -0.00000000000E+00  0.11368683772E-12  0.17120000000E+03  0.17120000000E+03 0.  0.
         13    1    1    2    0    0 -0.21194040816E+02 -0.27350127800E+03  0.11948501096E+04  0.12259359412E+04  0.10566000000E+00 0.  1.
        994    1    1    2    0    0  0.21212181347E+02  0.27380206318E+03  0.30376584339E+03  0.44384755722E+03  0.17120000000E+03 0.  0.
        998    1    1    2    0    0 -0.18140531792E-01 -0.30078518569E+00  0.13840432874E+01  0.14165015454E+01  0.10000000000E-01 0. -1.
</event>
<event>
 5    1  0.3934322E-009  0.3881654E+03  0.7957747E-01  0.3416358E+00
         13   -1    0    0    0    0  0.00000000000E+00  0.00000000000E+00  0.14999999963E+04  0.15000000000E+04  0.10566000000E+00 0. -1.
        994   -1    0    0    0    0 -0.00000000000E+00 -0.00000000000E+00  0.11368683772E-12  0.17120000000E+03  0.17120000000E+03 0.  0.
         13    1    1    2    0    0  0.24344293798E+03 -0.82507106188E+02  0.11899586707E+04  0.12174044257E+04  0.10566000000E+00 0. -1.
        994    1    1    2    0    0 -0.25198598439E+03  0.84791765516E+02  0.27962920087E+03  0.42212380862E+03  0.17120000000E+03 0.  0.
        998    1    1    2    0    0  0.85430464166E+01 -0.22846593279E+01  0.30412124683E+02  0.31671765629E+02  0.10000000000E-01 0. -1.
</event>
<event>
 5    1  0.3934322E-009  0.3883010E+03  0.7957747E-01  0.3415792E+00
         13   -1    0    0    0    0  0.00000000000E+00  0.00000000000E+00  0.14999999963E+04  0.15000000000E+04  0.10566000000E+00 0. -1.
        994   -1    0    0    0    0 -0.00000000000E+00 -0.00000000000E+00  0.11368683772E-12  0.17120000000E+03  0.17120000000E+03 0.  0.
         13    1    1    2    0    0 -0.90663550508E+02 -0.22081212755E+03  0.12714811396E+04  0.12936932305E+04  0.10566000000E+00 0. -1.
        994    1    1    2    0    0  0.91385729915E+02  0.22254498663E+03  0.21853535322E+03  0.36734828612E+03  0.17120000000E+03 0.  0.
        998    1    1    2    0    0 -0.72217940710E+00 -0.17328590847E+01  0.99835034725E+01  0.10158483415E+02  0.10000000000E-01 0.  1.
</event>
<event>
 5    1  0.3934322E-009  0.3883009E+03  0.7957747E-01  0.3415792E+00
         13   -1    0    0    0    0  0.00000000000E+00  0.00000000000E+00  0.14999999963E+04  0.15000000000E+04  0.10566000000E+00 0. -1.
        994   -1    0    0    0    0 -0.00000000000E+00 -0.00000000000E+00  0.11368683772E-12  0.17120000000E+03  0.17120000000E+03 0.  0.
         13    1    1    2    0    0  0.13627379861E+03 -0.16004479579E+03  0.12226278652E+04  0.12405659164E+04  0.10566000000E+00 0. -1.
        994    1    1    2    0    0 -0.14613911309E+03  0.17176945906E+03  0.18780776985E+03  0.33976842975E+03  0.17120000000E+03 0.  0.
        998    1    1    2    0    0  0.98653144718E+01 -0.11724663266E+02  0.89564361210E+02  0.90865653892E+02  0.10000000000E-01 0. -1.
</event>
<event>
 5    1  0.3934322E-009  0.3882917E+03  0.7957747E-01  0.3415831E+00
         13   -1    0    0    0    0  0.00000000000E+00  0.00000000000E+00  0.14999999963E+04  0.15000000000E+04  0.10566000000E+00 0. -1.
        994   -1    0    0    0    0 -0.00000000000E+00 -0.00000000000E+00  0.11368683772E-12  0.17120000000E+03  0.17120000000E+03 0.  0.
         13    1    1    2    0    0 -0.18818165647E+03  0.28140607742E+03  0.88863675270E+03  0.95093480620E+03  0.10566000000E+00 0. -1.
        994    1    1    2    0    0  0.18869104744E+03 -0.28196803445E+03  0.60972173900E+03  0.71845690396E+03  0.17120000000E+03 0.  0.
        998    1    1    2    0    0 -0.50939096734E+00  0.56195703130E+00  0.16415045801E+01  0.18082898410E+01  0.10000000000E-01 0.  1.
</event>
<event>
 5    1  0.3934322E-009  0.3883009E+03  0.7957747E-01  0.3415792E+00
         13   -1    0    0    0    0  0.00000000000E+00  0.00000000000E+00  0.14999999963E+04  0.15000000000E+04  0.10566000000E+00 0. -1.
        994   -1    0    0    0    0 -0.00000000000E+00 -0.00000000000E+00  0.11368683772E-12  0.17120000000E+03  0.17120000000E+03 0.  0.
         13    1    1    2    0    0  0.30519373016E+03  0.82318217146E+02  0.10379460632E+04  0.10850122317E+04  0.10566000000E+00 0. -1.
        994    1    1    2    0    0 -0.30572731990E+03 -0.82467399805E+02  0.46026186786E+03  0.58431198274E+03  0.17120000000E+03 0.  0.
        998    1    1    2    0    0  0.53358974739E+00  0.14918265896E+00  0.17920652392E+01  0.18757855170E+01  0.10000000000E-01 0. -1.
</event>
<event>
 5    1  0.3934322E-009  0.3811810E+03  0.7957747E-01  0.3446032E+00
         13   -1    0    0    0    0  0.00000000000E+00  0.00000000000E+00  0.14999999963E+04  0.15000000000E+04  0.10566000000E+00 0. -1.
        994   -1    0    0    0    0 -0.00000000000E+00 -0.00000000000E+00  0.11368683772E-12  0.17120000000E+03  0.17120000000E+03 0.  0.
         13    1    1    2    0    0 -0.65770924479E+02  0.48584618655E+02  0.33970498044E+03  0.34940773399E+03  0.10566000000E+00 0. -1.
        994    1    1    2    0    0  0.12375956896E+02  0.85080279932E+02  0.44401091649E+02  0.19665379549E+03  0.17120000000E+03 0.  0.
        998    1    1    2    0    0  0.53394967583E+02 -0.13366489859E+03  0.11158939242E+04  0.11251384705E+04  0.10000000000E-01 0. -1.
</event>
<event>
 5    1  0.3934322E-009  0.3882857E+03  0.7957747E-01  0.3415856E+00
         13   -1    0    0    0    0  0.00000000000E+00  0.00000000000E+00  0.14999999963E+04  0.15000000000E+04  0.10566000000E+00 0.  1.
        994   -1    0    0    0    0 -0.00000000000E+00 -0.00000000000E+00  0.11368683772E-12  0.17120000000E+03  0.17120000000E+03 0.  0.
         13    1    1    2    0    0 -0.22059548031E+03 -0.41042714287E+02  0.10960389582E+04  0.11187708789E+04  0.10566000000E+00 0.  1.
        994    1    1    2    0    0  0.24984943673E+03  0.47273588646E+02  0.24991976166E+03  0.39551088542E+03  0.17120000000E+03 0.  0.
        998    1    1    2    0    0 -0.29253956416E+02 -0.62308743591E+01  0.15404127639E+03  0.15691823569E+03  0.10000000000E-01 0. -1.
</event>
<event>
 5    1  0.3934322E-009  0.3855785E+03  0.7957747E-01  0.3427222E+00
         13   -1    0    0    0    0  0.00000000000E+00  0.00000000000E+00  0.14999999963E+04  0.15000000000E+04  0.10566000000E+00 0. -1.
        994   -1    0    0    0    0 -0.00000000000E+00 -0.00000000000E+00  0.11368683772E-12  0.17120000000E+03  0.17120000000E+03 0.  0.
         13    1    1    2    0    0  0.77538828024E+02 -0.17657643777E+03  0.99650704251E+03  0.10149964557E+04  0.10566000000E+00 0. -1.
        994    1    1    2    0    0 -0.12895172083E+03  0.21321949869E+03  0.24216032757E+03  0.38735276581E+03  0.17120000000E+03 0.  0.
        998    1    1    2    0    0  0.51412892809E+02 -0.36643060920E+02  0.26133262620E+03  0.26885077846E+03  0.10000000000E-01 0.  1.
</event>
<event>
 5    1  0.3934322E-009  0.3883009E+03  0.7957747E-01  0.3415792E+00
         13   -1    0    0    0    0  0.00000000000E+00  0.00000000000E+00  0.14999999963E+04  0.15000000000E+04  0.10566000000E+00 0. -1.
        994   -1    0    0    0    0 -0.00000000000E+00 -0.00000000000E+00  0.11368683772E-12  0.17120000000E+03  0.17120000000E+03 0.  0.
         13    1    1    2    0    0 -0.93368953913E+02  0.17260122499E+03  0.10483394006E+04  0.10665479148E+04  0.10566000000E+00 0. -1.
        994    1    1    2    0    0  0.11420815973E+03 -0.21104138345E+03  0.21720738875E+03  0.36615633137E+03  0.17120000000E+03 0.  0.
        998    1    1    2    0    0 -0.20839205814E+02  0.38440158463E+02  0.23445320690E+03  0.23849575385E+03  0.10000000000E-01 0.  1.
</event>
<event>
 5    1  0.3934322E-009  0.3882879E+03  0.7957747E-01  0.3415847E+00
         13   -1    0    0    0    0  0.00000000000E+00  0.00000000000E+00  0.14999999963E+04  0.15000000000E+04  0.10566000000E+00 0.  1.
        994   -1    0    0    0    0 -0.00000000000E+00 -0.00000000000E+00  0.11368683772E-12  0.17120000000E+03  0.17120000000E+03 0.  0.
         13    1    1    2    0    0 -0.16928455915E+03  0.29476581539E+02  0.92539927009E+03  0.94121727092E+03  0.10566000000E+00 0.  1.
        994    1    1    2    0    0  0.23702037567E+03 -0.39660738467E+02  0.21798808710E+03  0.36685130336E+03  0.17120000000E+03 0.  0.
        998    1    1    2    0    0 -0.67735816522E+02  0.10184156928E+02  0.35661263908E+03  0.36313142572E+03  0.10000000000E-01 0.  1.
</event>
<event>
 5    1  0.3934322E-009  0.3882985E+03  0.7957747E-01  0.3415802E+00
         13   -1    0    0    0    0  0.00000000000E+00  0.00000000000E+00  0.14999999963E+04  0.15000000000E+04  0.10566000000E+00 0.  1.
        994   -1    0    0    0    0 -0.00000000000E+00 -0.00000000000E+00  0.11368683772E-12  0.17120000000E+03  0.17120000000E+03 0.  0.
         13    1    1    2    0    0  0.10205299072E+03 -0.19773221809E+03  0.13106003806E+04  0.13293555626E+04  0.10566000000E+00 0.  1.
        994    1    1    2    0    0 -0.10260229701E+03  0.19855024098E+03  0.18393110328E+03  0.33628785333E+03  0.17120000000E+03 0.  0.
        998    1    1    2    0    0  0.54930628155E+00 -0.81802288856E+00  0.54685123613E+01  0.55565840481E+01  0.10000000000E-01 0.  1.
</event>
<event>
 5    1  0.3934322E-009  0.3883009E+03  0.7957747E-01  0.3415792E+00
         13   -1    0    0    0    0  0.00000000000E+00  0.00000000000E+00  0.14999999963E+04  0.15000000000E+04  0.10566000000E+00 0.  1.
        994   -1    0    0    0    0 -0.00000000000E+00 -0.00000000000E+00  0.11368683772E-12  0.17120000000E+03  0.17120000000E+03 0.  0.
         13    1    1    2    0    0 -0.13146164419E+03  0.17335094823E+03  0.12940389260E+04  0.13122002394E+04  0.10566000000E+00 0.  1.
        994    1    1    2    0    0  0.13400460175E+03 -0.17677646003E+03  0.18078854321E+03  0.33346827055E+03  0.17120000000E+03 0.  0.
        998    1    1    2    0    0 -0.25429575578E+01  0.34255117932E+01  0.25172527037E+02  0.25531490000E+02  0.10000000000E-01 0.  1.
</event>
<event>
 5    1  0.3934322E-009  0.3883009E+03  0.7957747E-01  0.3415792E+00
         13   -1    0    0    0    0  0.00000000000E+00  0.00000000000E+00  0.14999999963E+04  0.15000000000E+04  0.10566000000E+00 0. -1.
        994   -1    0    0    0    0 -0.00000000000E+00 -0.00000000000E+00  0.11368683772E-12  0.17120000000E+03  0.17120000000E+03 0.  0.
         13    1    1    2    0    0  0.14610891486E+03 -0.21975544458E+03  0.11284275687E+04  0.11588740481E+04  0.10566000000E+00 0. -1.
        994    1    1    2    0    0 -0.15380206138E+03  0.23118929842E+03  0.31275878121E+03  0.45191930808E+03  0.17120000000E+03 0.  0.
        998    1    1    2    0    0  0.76931465208E+01 -0.11433853844E+02  0.58813646413E+02  0.60406643852E+02  0.10000000000E-01 0. -1.
</event>
<event>
 5    1  0.3934322E-009  0.3827124E+03  0.7957747E-01  0.3439432E+00
         13   -1    0    0    0    0  0.00000000000E+00  0.00000000000E+00  0.14999999963E+04  0.15000000000E+04  0.10566000000E+00 0. -1.
        994   -1    0    0    0    0 -0.00000000000E+00 -0.00000000000E+00  0.11368683772E-12  0.17120000000E+03  0.17120000000E+03 0.  0.
         13    1    1    2    0    0 -0.34626056618E+01 -0.53120405575E+02  0.29138173826E+03  0.29620448289E+03  0.10566000000E+00 0. -1.
        994    1    1    2    0    0  0.58739875008E+02  0.88245092443E+02  0.40940715109E+02  0.20548272777E+03  0.17120000000E+03 0.  0.
        998    1    1    2    0    0 -0.55277269346E+02 -0.35124686868E+02  0.11676775429E+04  0.11695127893E+04  0.10000000000E-01 0. -1.
</event>
<event>
 5    1  0.3934322E-009  0.3734900E+03  0.7957747E-01  0.3480004E+00
         13   -1    0    0    0    0  0.00000000000E+00  0.00000000000E+00  0.14999999963E+04  0.15000000000E+04  0.10566000000E+00 0. -1.
        994   -1    0    0    0    0 -0.00000000000E+00 -0.00000000000E+00  0.11368683772E-12  0.17120000000E+03  0.17120000000E+03 0.  0.
         13    1    1    2    0    0 -0.32516387765E+02 -0.66475512503E+00  0.52226841581E+02  0.61525698031E+02  0.10566000000E+00 0. -1.
        994    1    1    2    0    0 -0.12510738816E+03 -0.11678090310E+03  0.12512310670E+03  0.27249746738E+03  0.17120000000E+03 0.  0.
        998    1    1    2    0    0  0.15762377592E+03  0.11744565823E+03  0.13226500480E+04  0.13371768346E+04  0.10000000000E-01 0. -1.
</event>
<event>
 5    1  0.3934322E-009  0.3699033E+03  0.7957747E-01  0.3496335E+00
         13   -1    0    0    0    0  0.00000000000E+00  0.00000000000E+00  0.14999999963E+04  0.15000000000E+04  0.10566000000E+00 0.  1.
        994   -1    0    0    0    0 -0.00000000000E+00 -0.00000000000E+00  0.11368683772E-12  0.17120000000E+03  0.17120000000E+03 0.  0.
         13    1    1    2    0    0  0.26055648358E+02  0.44501196251E+02  0.25729465200E+03  0.26241151345E+03  0.10566000000E+00 0.  1.
        994    1    1    2    0    0  0.28611693703E+02  0.88701364851E+02  0.41895424802E+02  0.19937709939E+03  0.17120000000E+03 0.  0.
        998    1    1    2    0    0 -0.54667342062E+02 -0.13320256110E+03  0.12008099195E+04  0.12094113872E+04  0.10000000000E-01 0.  1.
</event>
<event>
 5    1  0.3934322E-009  0.3883005E+03  0.7957747E-01  0.3415794E+00
         13   -1    0    0    0    0  0.00000000000E+00  0.00000000000E+00  0.14999999963E+04  0.15000000000E+04  0.10566000000E+00 0.  1.
        994   -1    0    0    0    0 -0.00000000000E+00 -0.00000000000E+00  0.11368683772E-12  0.17120000000E+03  0.17120000000E+03 0.  0.
         13    1    1    2    0    0  0.70229023402E+02  0.16985705377E+03  0.10465668729E+04  0.10625844743E+04  0.10566000000E+00 0.  1.
        994    1    1    2    0    0 -0.87644813826E+02 -0.21147961364E+03  0.19443359808E+03  0.34571535175E+03  0.17120000000E+03 0.  0.
        998    1    1    2    0    0  0.17415790424E+02  0.41622559869E+02  0.25899952533E+03  0.26290017396E+03  0.10000000000E-01 0. -1.
</event>
<event>
 5    1  0.5378368E-009  0.3882954E+03  0.7957747E-01  0.3415815E+00
         13   -1    0    0    0    0  0.00000000000E+00  0.00000000000E+00  0.14999999963E+04  0.15000000000E+04  0.10566000000E+00 0.  1.
        994   -1    0    0    0    0 -0.00000000000E+00 -0.00000000000E+00  0.11368683772E-12  0.17120000000E+03  0.17120000000E+03 0.  0.
         13    1    1    2    0    0 -0.34180696973E+03  0.11892526883E+02  0.85902652455E+03  0.92460803469E+03  0.10566000000E+00 0.  1.
        994    1    1    2    0    0  0.34197079114E+03 -0.11866402256E+02  0.64038726598E+03  0.74598265659E+03  0.17120000000E+03 0.  0.
        998    1    1    2    0    0 -0.16382141134E+00 -0.26124627087E-01  0.58620574516E+00  0.60930872848E+00  0.10000000000E-01 0.  1.
</event>
<event>
 5    1  0.3934322E-009  0.3877541E+03  0.7957747E-01  0.3418075E+00
         13   -1    0    0    0    0  0.00000000000E+00  0.00000000000E+00  0.14999999963E+04  0.15000000000E+04  0.10566000000E+00 0. -1.
        994   -1    0    0    0    0 -0.00000000000E+00 -0.00000000000E+00  0.11368683772E-12  0.17120000000E+03  0.17120000000E+03 0.  0.
         13    1    1    2    0    0  0.21172181500E+03  0.95385038057E+02  0.12838735548E+04  0.13047052343E+04  0.10566000000E+00 0. -1.
        994    1    1    2    0    0 -0.21521629575E+03 -0.95732055546E+02  0.20862778635E+03  0.35821456371E+03  0.17120000000E+03 0.  0.
        998    1    1    2    0    0  0.34944807476E+01  0.34701748856E+00  0.74986550914E+01  0.82802019910E+01  0.10000000000E-01 0.  1.
</event>
<event>
 5    1  0.3934322E-009  0.3877468E+03  0.7957747E-01  0.3418105E+00
         13   -1    0    0    0    0  0.00000000000E+00  0.00000000000E+00  0.14999999963E+04  0.15000000000E+04  0.10566000000E+00 0. -1.
        994   -1    0    0    0    0 -0.00000000000E+00 -0.00000000000E+00  0.11368683772E-12  0.17120000000E+03  0.17120000000E+03 0.  0.
         13    1    1    2    0    0 -0.11191850894E+03 -0.10198316396E+03  0.89032328328E+03  0.90310679230E+03  0.10566000000E+00 0. -1.
        994    1    1    2    0    0  0.14891488433E+03  0.14751428538E+03  0.15956842714E+03  0.31417770466E+03  0.17120000000E+03 0.  0.
        998    1    1    2    0    0 -0.36996375382E+02 -0.45531121411E+02  0.45010828585E+03  0.45391550304E+03  0.10000000000E-01 0. -1.
</event>
<event>
 5    1  0.3934322E-009  0.3881358E+03  0.7957747E-01  0.3416481E+00
         13   -1    0    0    0    0  0.00000000000E+00  0.00000000000E+00  0.14999999963E+04  0.15000000000E+04  0.10566000000E+00 0. -1.
        994   -1    0    0    0    0 -0.00000000000E+00 -0.00000000000E+00  0.11368683772E-12  0.17120000000E+03  0.17120000000E+03 0.  0.
         13    1    1    2    0    0  0.11170738002E+03 -0.18871451281E+03  0.12930710745E+04  0.13115351771E+04  0.10566000000E+00 0. -1.
        994    1    1    2    0    0 -0.11172284416E+03  0.19274742855E+03  0.18279665540E+03  0.33519788535E+03  0.17120000000E+03 0.  0.
        998    1    1    2    0    0  0.15464141942E-01 -0.40329157420E+01  0.24132266410E+02  0.24466937500E+02  0.10000000000E-01 0.  1.
</event>
<event>
 5    1  0.3934322E-009  0.3874542E+03  0.7957747E-01  0.3419330E+00
         13   -1    0    0    0    0  0.00000000000E+00  0.00000000000E+00  0.14999999963E+04  0.15000000000E+04  0.10566000000E+00 0.  1.
        994   -1    0    0    0    0 -0.00000000000E+00 -0.00000000000E+00  0.11368683772E-12  0.17120000000E+03  0.17120000000E+03 0.  0.
         13    1    1    2    0    0 -0.16539912673E+03  0.19828226029E+03  0.11638955427E+04  0.11921935964E+04  0.10566000000E+00 0.  1.
        994    1    1    2    0    0  0.16568228635E+03 -0.20713010320E+03  0.27928333634E+03  0.42149984771E+03  0.17120000000E+03 0.  0.
        998    1    1    2    0    0 -0.28315961301E+00  0.88478429077E+01  0.56821117275E+02  0.57506555903E+02  0.10000000000E-01 0.  1.
</event>
<event>
 5    1  0.3934322E-009  0.3868386E+03  0.7957747E-01  0.3421912E+00
         13   -1    0    0    0    0  0.00000000000E+00  0.00000000000E+00  0.14999999963E+04  0.15000000000E+04  0.10566000000E+00 0.  1.
        994   -1    0    0    0    0 -0.00000000000E+00 -0.00000000000E+00  0.11368683772E-12  0.17120000000E+03  0.17120000000E+03 0.  0.
         13    1    1    2    0    0  0.33166442536E+02 -0.13244581434E+03  0.53354491559E+03  0.55073777314E+03  0.10566000000E+00 0.  1.
        994    1    1    2    0    0 -0.30047029857E+02  0.27043187722E+03  0.29948079486E+03  0.43935681480E+03  0.17120000000E+03 0.  0.
        998    1    1    2    0    0 -0.31194126794E+01 -0.13798606288E+03  0.66697428583E+03  0.68110541206E+03  0.10000000000E-01 0. -1.
</event>
<event>
 5    1  0.3934322E-009  0.3883010E+03  0.7957747E-01  0.3415792E+00
         13   -1    0    0    0    0  0.00000000000E+00  0.00000000000E+00  0.14999999963E+04  0.15000000000E+04  0.10566000000E+00 0. -1.
        994   -1    0    0    0    0 -0.00000000000E+00 -0.00000000000E+00  0.11368683772E-12  0.17120000000E+03  0.17120000000E+03 0.  0.
         13    1    1    2    0    0 -0.92723031852E+02  0.20402803280E+03  0.97876709095E+03  0.10040966230E+04  0.10566000000E+00 0. -1.
        994    1    1    2    0    0  0.11343954901E+03 -0.24964070714E+03  0.30255927043E+03  0.44276468475E+03  0.17120000000E+03 0.  0.
        998    1    1    2    0    0 -0.20716517154E+02  0.45612674349E+02  0.21867363490E+03  0.22433869226E+03  0.10000000000E-01 0.  1.
</event>
<event>
 5    1  0.3934322E-009  0.3879988E+03  0.7957747E-01  0.3417053E+00
         13   -1    0    0    0    0  0.00000000000E+00  0.00000000000E+00  0.14999999963E+04  0.15000000000E+04  0.10566000000E+00 0. -1.
        994   -1    0    0    0    0 -0.00000000000E+00 -0.00000000000E+00  0.11368683772E-12  0.17120000000E+03  0.17120000000E+03 0.  0.
         13    1    1    2    0    0  0.85031260767E+02 -0.16423383176E+03  0.11104306629E+04  0.11257261368E+04  0.10566000000E+00 0. -1.
        994    1    1    2    0    0 -0.10992522916E+03  0.19388330157E+03  0.18314081309E+03  0.33544640116E+03  0.17120000000E+03 0.  0.
        998    1    1    2    0    0  0.24893968390E+02 -0.29649469812E+02  0.20642852033E+03  0.21002746208E+03  0.10000000000E-01 0. -1.
</event>
<event>
 5    1  0.3934322E-009  0.3882489E+03  0.7957747E-01  0.3416009E+00
         13   -1    0    0    0    0  0.00000000000E+00  0.00000000000E+00  0.14999999963E+04  0.15000000000E+04  0.10566000000E+00 0.  1.
        994   -1    0    0    0    0 -0.00000000000E+00 -0.00000000000E+00  0.11368683772E-12  0.17120000000E+03  0.17120000000E+03 0.  0.
         13    1    1    2    0    0  0.12543332844E+03  0.30871326685E+03  0.93052598054E+03  0.98839061743E+03  0.10566000000E+00 0.  1.
        994    1    1    2    0    0 -0.12561341580E+03 -0.30954880880E+03  0.56552460370E+03  0.67876852656E+03  0.17120000000E+03 0.  0.
        998    1    1    2    0    0  0.18008736162E+00  0.83554194784E+00  0.39494120438E+01  0.40408560104E+01  0.10000000000E-01 0. -1.
</event>
<event>
 5    1  0.3934322E-009  0.3882813E+03  0.7957747E-01  0.3415874E+00
         13   -1    0    0    0    0  0.00000000000E+00  0.00000000000E+00  0.14999999963E+04  0.15000000000E+04  0.10566000000E+00 0. -1.
        994   -1    0    0    0    0 -0.00000000000E+00 -0.00000000000E+00  0.11368683772E-12  0.17120000000E+03  0.17120000000E+03 0.  0.
         13    1    1    2    0    0  0.20769756655E+03 -0.31398332068E+02  0.12363302563E+04  0.12540481044E+04  0.10566000000E+00 0. -1.
        994    1    1    2    0    0 -0.22100243828E+03  0.32067741465E+02  0.18361772709E+03  0.33599899921E+03  0.17120000000E+03 0.  0.
        998    1    1    2    0    0  0.13304871727E+02 -0.66940939663E+00  0.80052012890E+02  0.81152896364E+02  0.10000000000E-01 0.  1.
</event>
<event>
 5    1  0.3934322E-009  0.3882964E+03  0.7957747E-01  0.3415811E+00
         13   -1    0    0    0    0  0.00000000000E+00  0.00000000000E+00  0.14999999963E+04  0.15000000000E+04  0.10566000000E+00 0. -1.
        994   -1    0    0    0    0 -0.00000000000E+00 -0.00000000000E+00  0.11368683772E-12  0.17120000000E+03  0.17120000000E+03 0.  0.
         13    1    1    2    0    0  0.28522641183E+03 -0.15316137529E+02  0.11580396191E+04  0.11927466037E+04  0.10566000000E+00 0. -1.
        994    1    1    2    0    0 -0.28577566453E+03  0.15272196074E+02  0.33933815598E+03  0.47577389011E+03  0.17120000000E+03 0.  0.
        998    1    1    2    0    0  0.54925269710E+00  0.43941455327E-01  0.26222211818E+01  0.26795061678E+01  0.10000000000E-01 0. -1.
</event>
<event>
 5    1  0.3934322E-009  0.3787060E+03  0.7957747E-01  0.3456812E+00
         13   -1    0    0    0    0  0.00000000000E+00  0.00000000000E+00  0.14999999963E+04  0.15000000000E+04  0.10566000000E+00 0.  1.
        994   -1    0    0    0    0 -0.00000000000E+00 -0.00000000000E+00  0.11368683772E-12  0.17120000000E+03  0.17120000000E+03 0.  0.
         13    1    1    2    0    0  0.82123921642E+02 -0.55740295112E+02  0.17985192551E+03  0.20542162807E+03  0.10566000000E+00 0.  1.
        994    1    1    2    0    0 -0.25952714418E+03  0.15888848025E+03  0.43831689232E+03  0.56038471233E+03  0.17120000000E+03 0.  0.
        998    1    1    2    0    0  0.17740322254E+03 -0.10314818513E+03  0.88183117844E+03  0.90539365959E+03  0.10000000000E-01 0.  1.
</event>
<event>
 5    1  0.3934322E-009  0.3882900E+03  0.7957747E-01  0.3415838E+00
         13   -1    0    0    0    0  0.00000000000E+00  0.00000000000E+00  0.14999999963E+04  0.15000000000E+04  0.10566000000E+00 0. -1.
        994   -1    0    0    0    0 -0.00000000000E+00 -0.00000000000E+00  0.11368683772E-12  0.17120000000E+03  0.17120000000E+03 0.  0.
         13    1    1    2    0    0 -0.21862795247E+03 -0.15125966068E+03  0.12206343601E+04  0.12492501426E+04  0.10566000000E+00 0. -1.
        994    1    1    2    0    0  0.21863335676E+03  0.15124845590E+03  0.27935669798E+03  0.42193156413E+03  0.17120000000E+03 0.  0.
        998    1    1    2    0    0 -0.54042934799E-02  0.11204775586E-01  0.89382394202E-02  0.18293318668E-01  0.10000000000E-01 0.  1.
</event>
<event>
 5    1  0.3934322E-009  0.3882767E+03  0.7957747E-01  0.3415893E+00
         13   -1    0    0    0    0  0.00000000000E+00  0.00000000000E+00  0.14999999963E+04  0.15000000000E+04  0.10566000000E+00 0.  1.
        994   -1    0    0    0    0 -0.00000000000E+00 -0.00000000000E+00  0.11368683772E-12  0.17120000000E+03  0.17120000000E+03 0.  0.
         13    1    1    2    0    0  0.26856805638E+03 -0.35905979446E+02  0.12010681279E+04  0.12312524921E+04  0.10566000000E+00 0.  1.
        994    1    1    2    0    0 -0.26921276101E+03  0.35754482037E+02  0.29510018985E+03  0.43605900487E+03  0.17120000000E+03 0.  0.
        998    1    1    2    0    0  0.64470463446E+00  0.15149740880E+00  0.38316785478E+01  0.38885030570E+01  0.10000000000E-01 0.  1.
</event>
<event>
 5    1  0.3934322E-009  0.3883010E+03  0.7957747E-01  0.3415792E+00
         13   -1    0    0    0    0  0.00000000000E+00  0.00000000000E+00  0.14999999963E+04  0.15000000000E+04  0.10566000000E+00 0.  1.
        994   -1    0    0    0    0 -0.00000000000E+00 -0.00000000000E+00  0.11368683772E-12  0.17120000000E+03  0.17120000000E+03 0.  0.
         13    1    1    2    0    0  0.25698557015E+03 -0.28745609132E+02  0.10620196506E+04  0.10930478685E+04  0.10566000000E+00 0.  1.
        994    1    1    2    0    0 -0.28243325760E+03  0.31586689440E+02  0.33290383019E+03  0.47000070649E+03  0.17120000000E+03 0.  0.
        998    1    1    2    0    0  0.25447687452E+02 -0.28410803084E+01  0.10507651546E+03  0.10815142503E+03  0.10000000000E-01 0.  1.
</event>
<event>
 5    1  0.3934322E-009  0.3883009E+03  0.7957747E-01  0.3415792E+00
         13   -1    0    0    0    0  0.00000000000E+00  0.00000000000E+00  0.14999999963E+04  0.15000000000E+04  0.10566000000E+00 0.  1.
        994   -1    0    0    0    0 -0.00000000000E+00 -0.00000000000E+00  0.11368683772E-12  0.17120000000E+03  0.17120000000E+03 0.  0.
         13    1    1    2    0    0 -0.64097631251E+01  0.16599177382E+03  0.83121256322E+03  0.84764891934E+03  0.10566000000E+00 0.  1.
        994    1    1    2    0    0  0.97259512411E+01 -0.25097362975E+03  0.24244151360E+03  0.38880545839E+03  0.17120000000E+03 0.  0.
        998    1    1    2    0    0 -0.33161881160E+01  0.84981855934E+02  0.42634591946E+03  0.43474562227E+03  0.10000000000E-01 0. -1.
</event>
<event>
 5    1  0.3934322E-009  0.3883010E+03  0.7957747E-01  0.3415792E+00
         13   -1    0    0    0    0  0.00000000000E+00  0.00000000000E+00  0.14999999963E+04  0.15000000000E+04  0.10566000000E+00 0. -1.
        994   -1    0    0    0    0 -0.00000000000E+00 -0.00000000000E+00  0.11368683772E-12  0.17120000000E+03  0.17120000000E+03 0.  0.
         13    1    1    2    0    0  0.20088532881E+02  0.18332025067E+03  0.62763854842E+03  0.65417124829E+03  0.10566000000E+00 0. -1.
        994    1    1    2    0    0 -0.34015441781E+02 -0.31012260372E+03  0.43812701281E+03  0.56444468194E+03  0.17120000000E+03 0.  0.
        998    1    1    2    0    0  0.13926908900E+02  0.12680235305E+03  0.43423443504E+03  0.45258406977E+03  0.10000000000E-01 0. -1.
</event>
<event>
 5    1  0.3934322E-009  0.3882858E+03  0.7957747E-01  0.3415855E+00
         13   -1    0    0    0    0  0.00000000000E+00  0.00000000000E+00  0.14999999963E+04  0.15000000000E+04  0.10566000000E+00 0.  1.
        994   -1    0    0    0    0 -0.00000000000E+00 -0.00000000000E+00  0.11368683772E-12  0.17120000000E+03  0.17120000000E+03 0.  0.
         13    1    1    2    0    0  0.57076467088E+02 -0.10441298750E+02  0.21672833389E+03  0.22436115014E+03  0.10566000000E+00 0.  1.
        994    1    1    2    0    0 -0.28928988813E+03  0.60159767293E+02  0.37132616263E+03  0.50448032273E+03  0.17120000000E+03 0.  0.
        998    1    1    2    0    0  0.23221342104E+03 -0.49718468544E+02  0.91194549976E+03  0.94235852713E+03  0.10000000000E-01 0.  1.
</event>
<event>
 5    1  0.3934322E-009  0.3883009E+03  0.7957747E-01  0.3415792E+00
         13   -1    0    0    0    0  0.00000000000E+00  0.00000000000E+00  0.14999999963E+04  0.15000000000E+04  0.10566000000E+00 0. -1.
        994   -1    0    0    0    0 -0.00000000000E+00 -0.00000000000E+00  0.11368683772E-12  0.17120000000E+03  0.17120000000E+03 0.  0.
         13    1    1    2    0    0 -0.21258114870E+03  0.50885506133E+02  0.12724168819E+04  0.12910556967E+04  0.10566000000E+00 0. -1.
        994    1    1    2    0    0  0.21922246389E+03 -0.52451097654E+02  0.18758673062E+03  0.33957006320E+03  0.17120000000E+03 0.  0.
        998    1    1    2    0    0 -0.66413151859E+01  0.15655915204E+01  0.39996383783E+02  0.40574240103E+02  0.10000000000E-01 0.  1.
</event>
<event>
 5    1  0.3934322E-009  0.3882995E+03  0.7957747E-01  0.3415798E+00
         13   -1    0    0    0    0  0.00000000000E+00  0.00000000000E+00  0.14999999963E+04  0.15000000000E+04  0.10566000000E+00 0.  1.
        994   -1    0    0    0    0 -0.00000000000E+00 -0.00000000000E+00  0.11368683772E-12  0.17120000000E+03  0.17120000000E+03 0.  0.
         13    1    1    2    0    0 -0.70507370404E+02 -0.22820712192E+03  0.11711542960E+04  0.11952623879E+04  0.10566000000E+00 0.  1.
        994    1    1    2    0    0  0.74823731493E+02  0.24341952114E+03  0.25081169235E+03  0.39631754830E+03  0.17120000000E+03 0.  0.
        998    1    1    2    0    0 -0.43163610888E+01 -0.15212399225E+02  0.78034007907E+02  0.79620063761E+02  0.10000000000E-01 0.  1.
</event>
<event>
 5    1  0.3934322E-009  0.3881672E+03  0.7957747E-01  0.3416350E+00
         13   -1    0    0    0    0  0.00000000000E+00  0.00000000000E+00  0.14999999963E+04  0.15000000000E+04  0.10566000000E+00 0. -1.
        994   -1    0    0    0    0 -0.00000000000E+00 -0.00000000000E+00  0.11368683772E-12  0.17120000000E+03  0.17120000000E+03 0.  0.
         13    1    1    2    0    0 -0.20644342795E+03 -0.45451862883E+02  0.10594501793E+04  0.10803330294E+04  0.10566000000E+00 0. -1.
        994    1    1    2    0    0  0.24450746970E+03  0.59932275361E+02  0.24403690761E+03  0.39017846256E+03  0.17120000000E+03 0.  0.
        998    1    1    2    0    0 -0.38064041745E+02 -0.14480412478E+02  0.19651290936E+03  0.20068850806E+03  0.10000000000E-01 0. -1.
</event>
<event>
 5    1  0.3934322E-009  0.3882737E+03  0.7957747E-01  0.3415906E+00
         13   -1    0    0    0    0  0.00000000000E+00  0.00000000000E+00  0.14999999963E+04  0.15000000000E+04  0.10566000000E+00 0. -1.
        994   -1    0    0    0    0 -0.00000000000E+00 -0.00000000000E+00  0.11368683772E-12  0.17120000000E+03  0.17120000000E+03 0.  0.
         13    1    1    2    0    0  0.15976404151E+03 -0.10420542673E+03  0.98414041137E+03  0.10024548271E+04  0.10566000000E+00 0. -1.
        994    1    1    2    0    0 -0.20563931635E+03  0.13156660196E+03  0.22636311848E+03  0.37436212494E+03  0.17120000000E+03 0.  0.
        998    1    1    2    0    0  0.45875274842E+02 -0.27361175230E+02  0.28949646643E+03  0.29438304796E+03  0.10000000000E-01 0.  1.
</event>
<event>
 5    1  0.3934322E-009  0.3866691E+03  0.7957747E-01  0.3422624E+00
         13   -1    0    0    0    0  0.00000000000E+00  0.00000000000E+00  0.14999999963E+04  0.15000000000E+04  0.10566000000E+00 0. -1.
        994   -1    0    0    0    0 -0.00000000000E+00 -0.00000000000E+00  0.11368683772E-12  0.17120000000E+03  0.17120000000E+03 0.  0.
         13    1    1    2    0    0  0.25398476573E+03  0.92827626481E+02  0.10199952858E+04  0.10552324974E+04  0.10566000000E+00 0. -1.
        994    1    1    2    0    0 -0.26878368669E+03 -0.10319024258E+03  0.34905937833E+03  0.48378175450E+03  0.17120000000E+03 0.  0.
        998    1    1    2    0    0  0.14798920957E+02  0.10362616095E+02  0.13094533220E+03  0.13218574809E+03  0.10000000000E-01 0. -1.
</event>
<event>
 5    1  0.3934322E-009  0.3851419E+03  0.7957747E-01  0.3429071E+00
         13   -1    0    0    0    0  0.00000000000E+00  0.00000000000E+00  0.14999999963E+04  0.15000000000E+04  0.10566000000E+00 0. -1.
        994   -1    0    0    0    0 -0.00000000000E+00 -0.00000000000E+00  0.11368683772E-12  0.17120000000E+03  0.17120000000E+03 0.  0.
         13    1    1    2    0    0 -0.10459441369E+02 -0.43936061092E+02  0.82227922033E+02  0.93814816015E+02  0.10566000000E+00 0. -1.
        994    1    1    2    0    0 -0.36395177355E+02  0.32892197439E+03  0.56286709817E+03  0.67501339570E+03  0.17120000000E+03 0.  0.
        998    1    1    2    0    0  0.46854618724E+02 -0.28498591330E+03  0.85490497607E+03  0.90237178828E+03  0.10000000000E-01 0. -1.
</event>
<event>
 5    1  0.3934322E-009  0.3883010E+03  0.7957747E-01  0.3415792E+00
         13   -1    0    0    0    0  0.00000000000E+00  0.00000000000E+00  0.14999999963E+04  0.15000000000E+04  0.10566000000E+00 0.  1.
        994   -1    0    0    0    0 -0.00000000000E+00 -0.00000000000E+00  0.11368683772E-12  0.17120000000E+03  0.17120000000E+03 0.  0.
         13    1    1    2    0    0 -0.28860085585E+03  0.41979788853E+02  0.64678023315E+03  0.70949097093E+03  0.10566000000E+00 0.  1.
        994    1    1    2    0    0  0.34386607961E+03 -0.49994675371E+02  0.72942452596E+03  0.82590128184E+03  0.17120000000E+03 0.  0.
        998    1    1    2    0    0 -0.55265223758E+02  0.80148865183E+01  0.12379523717E+03  0.13580774723E+03  0.10000000000E-01 0.  1.
</event>
<event>
 5    1  0.3934322E-009  0.3883008E+03  0.7957747E-01  0.3415793E+00
         13   -1    0    0    0    0  0.00000000000E+00  0.00000000000E+00  0.14999999963E+04  0.15000000000E+04  0.10566000000E+00 0.  1.
        994   -1    0    0    0    0 -0.00000000000E+00 -0.00000000000E+00  0.11368683772E-12  0.17120000000E+03  0.17120000000E+03 0.  0.
         13    1    1    2    0    0 -0.18675338110E+03 -0.67290220380E+02  0.10789329435E+04  0.10970419804E+04  0.10566000000E+00 0.  1.
        994    1    1    2    0    0  0.22309042873E+03  0.80167218230E+02  0.21102293800E+03  0.36060538353E+03  0.17120000000E+03 0.  0.
        998    1    1    2    0    0 -0.36337047631E+02 -0.12876997850E+02  0.21004411479E+03  0.21355263605E+03  0.10000000000E-01 0. -1.
</event>
<event>
 5    1  0.3934322E-009  0.3883009E+03  0.7957747E-01  0.3415792E+00
         13   -1    0    0    0    0  0.00000000000E+00  0.00000000000E+00  0.14999999963E+04  0.15000000000E+04  0.10566000000E+00 0.  1.
        994   -1    0    0    0    0 -0.00000000000E+00 -0.00000000000E+00  0.11368683772E-12  0.17120000000E+03  0.17120000000E+03 0.  0.
         13    1    1    2    0    0  0.12846904528E+02  0.21775834234E+03  0.11386504402E+04  0.11593569661E+04  0.10566000000E+00 0.  1.
        994    1    1    2    0    0 -0.14291074559E+02 -0.24361117355E+03  0.22610935589E+03  0.37414638781E+03  0.17120000000E+03 0.  0.
        998    1    1    2    0    0  0.14441700302E+01  0.25852831212E+02  0.13524020018E+03  0.13769664612E+03  0.10000000000E-01 0. -1.
</event>
<event>
 5    1  0.3934322E-009  0.3853466E+03  0.7957747E-01  0.3428204E+00
         13   -1    0    0    0    0  0.00000000000E+00  0.00000000000E+00  0.14999999963E+04  0.15000000000E+04  0.10566000000E+00 0.  1.
        994   -1    0    0    0    0 -0.00000000000E+00 -0.00000000000E+00  0.11368683772E-12  0.17120000000E+03  0.17120000000E+03 0.  0.
         13    1    1    2    0    0 -0.13439221993E+02  0.71165224402E+01  0.66363964708E+02  0.68084099137E+02  0.10566000000E+00 0.  1.
        994    1    1    2    0    0  0.11407764029E+03  0.91019402799E+02  0.74862411475E+02  0.23709082722E+03  0.17120000000E+03 0.  0.
        998    1    1    2    0    0 -0.10063841829E+03 -0.98135925240E+02  0.13587736201E+04  0.13660250736E+04  0.10000000000E-01 0.  1.
</event>
<event>
 5    1  0.3934322E-009  0.3881999E+03  0.7957747E-01  0.3416213E+00
         13   -1    0    0    0    0  0.00000000000E+00  0.00000000000E+00  0.14999999963E+04  0.15000000000E+04  0.10566000000E+00 0. -1.
        994   -1    0    0    0    0 -0.00000000000E+00 -0.00000000000E+00  0.11368683772E-12  0.17120000000E+03  0.17120000000E+03 0.  0.
         13    1    1    2    0    0  0.83099394452E+02  0.24107115443E+03  0.11352876322E+04  0.11635715834E+04  0.10566000000E+00 0. -1.
        994    1    1    2    0    0 -0.90304066239E+02 -0.25426044356E+03  0.29033810379E+03  0.43175091436E+03  0.17120000000E+03 0.  0.
        998    1    1    2    0    0  0.72046717870E+01  0.13189289125E+02  0.74374260312E+02  0.75877502200E+02  0.10000000000E-01 0. -1.
</event>
<event>
 5    1  0.3934322E-009  0.3882997E+03  0.7957747E-01  0.3415797E+00
         13   -1    0    0    0    0  0.00000000000E+00  0.00000000000E+00  0.14999999963E+04  0.15000000000E+04  0.10566000000E+00 0. -1.
        994   -1    0    0    0    0 -0.00000000000E+00 -0.00000000000E+00  0.11368683772E-12  0.17120000000E+03  0.17120000000E+03 0.  0.
         13    1    1    2    0    0 -0.22630344127E+03 -0.12884089036E+03  0.12262537366E+04  0.12535994018E+04  0.10566000000E+00 0. -1.
        994    1    1    2    0    0  0.22727346473E+03  0.12941431502E+03  0.26800323906E+03  0.41174806478E+03  0.17120000000E+03 0.  0.
        998    1    1    2    0    0 -0.97002346323E+00 -0.57342466331E+00  0.57430206093E+01  0.58525333901E+01  0.10000000000E-01 0.  1.
</event>
<event>
 5    1  0.3934322E-009  0.3883007E+03  0.7957747E-01  0.3415793E+00
         13   -1    0    0    0    0  0.00000000000E+00  0.00000000000E+00  0.14999999963E+04  0.15000000000E+04  0.10566000000E+00 0. -1.
        994   -1    0    0    0    0 -0.00000000000E+00 -0.00000000000E+00  0.11368683772E-12  0.17120000000E+03  0.17120000000E+03 0.  0.
         13    1    1    2    0    0 -0.11126611000E+03  0.21866881062E+03  0.12700701787E+04  0.12935511068E+04  0.10566000000E+00 0. -1.
        994    1    1    2    0    0  0.11132349138E+03 -0.21876616348E+03  0.22931321691E+03  0.37702194295E+03  0.17120000000E+03 0.  0.
        998    1    1    2    0    0 -0.57381376938E-01  0.97352861174E-01  0.61660066837E+00  0.62695022628E+00  0.10000000000E-01 0.  1.
</event>
<event>
 5    1  0.3934322E-009  0.3882904E+03  0.7957747E-01  0.3415836E+00
         13   -1    0    0    0    0  0.00000000000E+00  0.00000000000E+00  0.14999999963E+04  0.15000000000E+04  0.10566000000E+00 0. -1.
        994   -1    0    0    0    0 -0.00000000000E+00 -0.00000000000E+00  0.11368683772E-12  0.17120000000E+03  0.17120000000E+03 0.  0.
         13    1    1    2    0    0  0.22385301337E+03  0.13467356992E+01  0.13136373915E+04  0.13325746481E+04  0.10566000000E+00 0. -1.
        994    1    1    2    0    0 -0.22407233213E+03 -0.14726091017E+01  0.18504979202E+03  0.33728836940E+03  0.17120000000E+03 0.  0.
        998    1    1    2    0    0  0.21931876479E+00  0.12587340248E+00  0.13128128046E+01  0.13369825332E+01  0.10000000000E-01 0. -1.
</event>
<event>
 5    1  0.3934322E-009  0.3883006E+03  0.7957747E-01  0.3415793E+00
         13   -1    0    0    0    0  0.00000000000E+00  0.00000000000E+00  0.14999999963E+04  0.15000000000E+04  0.10566000000E+00 0. -1.
        994   -1    0    0    0    0 -0.00000000000E+00 -0.00000000000E+00  0.11368683772E-12  0.17120000000E+03  0.17120000000E+03 0.  0.
         13    1    1    2    0    0 -0.78254722763E+02 -0.25185389808E+03  0.12150163774E+04  0.12433096944E+04  0.10566000000E+00 0. -1.
        994    1    1    2    0    0  0.78668152479E+02  0.25333451784E+03  0.27777020977E+03  0.42051490530E+03  0.17120000000E+03 0.  0.
        998    1    1    2    0    0 -0.41342971545E+00 -0.14806197554E+01  0.72134090876E+01  0.73754003047E+01  0.10000000000E-01 0.  1.
</event>
<event>
 5    1  0.3934322E-009  0.3883010E+03  0.7957747E-01  0.3415792E+00
         13   -1    0    0    0    0  0.00000000000E+00  0.00000000000E+00  0.14999999963E+04  0.15000000000E+04  0.10566000000E+00 0. -1.
        994   -1    0    0    0    0 -0.00000000000E+00 -0.00000000000E+00  0.11368683772E-12  0.17120000000E+03  0.17120000000E+03 0.  0.
         13    1    1    2    0    0 -0.18721887216E+03 -0.15175470164E+03  0.11470405169E+04  0.11720846190E+04  0.10566000000E+00 0. -1.
        994    1    1    2    0    0  0.20179175065E+03  0.16360763398E+03  0.26352102787E+03  0.40772557027E+03  0.17120000000E+03 0.  0.
        998    1    1    2    0    0 -0.14572878499E+02 -0.11852932333E+02  0.89438451485E+02  0.91389810683E+02  0.10000000000E-01 0.  0.
</event>
<event>
 5    1  0.3934322E-009  0.3882756E+03  0.7957747E-01  0.3415898E+00
         13   -1    0    0    0    0  0.00000000000E+00  0.00000000000E+00  0.14999999963E+04  0.15000000000E+04  0.10566000000E+00 0. -1.
        994   -1    0    0    0    0 -0.00000000000E+00 -0.00000000000E+00  0.11368683772E-12  0.17120000000E+03  0.17120000000E+03 0.  0.
         13    1    1    2    0    0  0.54168468719E+02 -0.22879672548E+03  0.12651767820E+04  0.12868389431E+04  0.10566000000E+00 0. -1.
        994    1    1    2    0    0 -0.54807022298E+02  0.23296432433E+03  0.21587343561E+03  0.36494789533E+03  0.17120000000E+03 0.  0.
        998    1    1    2    0    0  0.63855357828E+00 -0.41675988507E+01  0.18949778690E+02  0.19413161598E+02  0.10000000000E-01 0.  1.
</event>
<event>
 5    1  0.3934322E-009  0.3882967E+03  0.7957747E-01  0.3415810E+00
         13   -1    0    0    0    0  0.00000000000E+00  0.00000000000E+00  0.14999999963E+04  0.15000000000E+04  0.10566000000E+00 0. -1.
        994   -1    0    0    0    0 -0.00000000000E+00 -0.00000000000E+00  0.11368683772E-12  0.17120000000E+03  0.17120000000E+03 0.  0.
         13    1    1    2    0    0  0.20860149728E+03 -0.19857469243E+03  0.11526210391E+04  0.11880579801E+04  0.10566000000E+00 0. -1.
        994    1    1    2    0    0 -0.20884541038E+03  0.19870264613E+03  0.34622146573E+03  0.48195216604E+03  0.17120000000E+03 0.  0.
        998    1    1    2    0    0  0.24391309895E+00 -0.12795370030E+00  0.11574915010E+01  0.11898539087E+01  0.10000000000E-01 0. -1.
</event>
<event>
 5    1  0.3934322E-009  0.3882940E+03  0.7957747E-01  0.3415821E+00
         13   -1    0    0    0    0  0.00000000000E+00  0.00000000000E+00  0.14999999963E+04  0.15000000000E+04  0.10566000000E+00 0.  1.
        994   -1    0    0    0    0 -0.00000000000E+00 -0.00000000000E+00  0.11368683772E-12  0.17120000000E+03  0.17120000000E+03 0.  0.
         13    1    1    2    0    0  0.30303586447E+03 -0.11658504584E+03  0.99188843657E+03  0.10436788250E+04  0.10566000000E+00 0.  1.
        994    1    1    2    0    0 -0.30348598246E+03  0.11689270201E+03  0.50632557145E+03  0.62565379375E+03  0.17120000000E+03 0.  0.
        998    1    1    2    0    0  0.45011798714E+00 -0.30765617040E+00  0.17859882602E+01  0.18673812110E+01  0.10000000000E-01 0.  1.
</event>
<event>
 5    1  0.3934322E-009  0.3840096E+03  0.7957747E-01  0.3433883E+00
         13   -1    0    0    0    0  0.00000000000E+00  0.00000000000E+00  0.14999999963E+04  0.15000000000E+04  0.10566000000E+00 0.  1.
        994   -1    0    0    0    0 -0.00000000000E+00 -0.00000000000E+00  0.11368683772E-12  0.17120000000E+03  0.17120000000E+03 0.  0.
         13    1    1    2    0    0  0.22072317327E+03 -0.62143925076E+02  0.81816399305E+03  0.84968989480E+03  0.10566000000E+00 0.  1.
        994    1    1    2    0    0 -0.26810008200E+03  0.69784224561E+02  0.32022448867E+03  0.45672820705E+03  0.17120000000E+03 0.  0.
        998    1    1    2    0    0  0.47376908730E+02 -0.76402994858E+01  0.36161151456E+03  0.36478189815E+03  0.10000000000E-01 0.  1.
</event>
<event>
 5    1  0.3934322E-009  0.3883009E+03  0.7957747E-01  0.3415792E+00
         13   -1    0    0    0    0  0.00000000000E+00  0.00000000000E+00  0.14999999963E+04  0.15000000000E+04  0.10566000000E+00 0.  1.
        994   -1    0    0    0    0 -0.00000000000E+00 -0.00000000000E+00  0.11368683772E-12  0.17120000000E+03  0.17120000000E+03 0.  0.
         13    1    1    2    0    0 -0.11441811515E+03  0.18073666314E+03  0.12668388315E+04  0.12847715293E+04  0.10566000000E+00 0.  1.
        994    1    1    2    0    0  0.11907615017E+03 -0.18800909841E+03  0.18213742250E+03  0.33467899740E+03  0.17120000000E+03 0.  0.
        998    1    1    2    0    0 -0.46580350215E+01  0.72724352694E+01  0.51023742286E+02  0.51749473252E+02  0.10000000000E-01 0.  1.
</event>
<event>
 5    1  0.3934322E-009  0.3882974E+03  0.7957747E-01  0.3415807E+00
         13   -1    0    0    0    0  0.00000000000E+00  0.00000000000E+00  0.14999999963E+04  0.15000000000E+04  0.10566000000E+00 0. -1.
        994   -1    0    0    0    0 -0.00000000000E+00 -0.00000000000E+00  0.11368683772E-12  0.17120000000E+03  0.17120000000E+03 0.  0.
         13    1    1    2    0    0 -0.22428446712E+03 -0.83929952646E+01  0.13141845217E+04  0.13332122610E+04  0.10566000000E+00 0. -1.
        994    1    1    2    0    0  0.22430187353E+03  0.83894727098E+01  0.18576845420E+03  0.33793649152E+03  0.17120000000E+03 0.  0.
        998    1    1    2    0    0 -0.17406408743E-01  0.35225548390E-02  0.47020331178E-01  0.51247468250E-01  0.10000000000E-01 0. -1.
</event>
<event>
 5    1  0.3934322E-009  0.3883000E+03  0.7957747E-01  0.3415796E+00
         13   -1    0    0    0    0  0.00000000000E+00  0.00000000000E+00  0.14999999963E+04  0.15000000000E+04  0.10566000000E+00 0. -1.
        994   -1    0    0    0    0 -0.00000000000E+00 -0.00000000000E+00  0.11368683772E-12  0.17120000000E+03  0.17120000000E+03 0.  0.
         13    1    1    2    0    0 -0.95552470695E+02 -0.23133610206E+03  0.11123672340E+04  0.11401787321E+04  0.10566000000E+00 0. -1.
        994    1    1    2    0    0  0.10389767938E+03  0.25062746149E+03  0.29430116952E+03  0.43535212256E+03  0.17120000000E+03 0.  0.
        998    1    1    2    0    0 -0.83452086871E+01 -0.19291359429E+02  0.93331592793E+02  0.95669145339E+02  0.10000000000E-01 0. -1.
</event>
<event>
 5    1  0.3934322E-009  0.3879571E+03  0.7957747E-01  0.3417227E+00
         13   -1    0    0    0    0  0.00000000000E+00  0.00000000000E+00  0.14999999963E+04  0.15000000000E+04  0.10566000000E+00 0. -1.
        994   -1    0    0    0    0 -0.00000000000E+00 -0.00000000000E+00  0.11368683772E-12  0.17120000000E+03  0.17120000000E+03 0.  0.
         13    1    1    2    0    0  0.31600037197E+03  0.11792694757E+03  0.86157346203E+03  0.92524150452E+03  0.10566000000E+00 0. -1.
        994    1    1    2    0    0 -0.31988501477E+03 -0.11696225981E+03  0.62631728695E+03  0.73320486689E+03  0.17120000000E+03 0.  0.
        998    1    1    2    0    0  0.38846428015E+01 -0.96468776182E+00  0.12109247294E+02  0.12753628589E+02  0.10000000000E-01 0.  1.
</event>
<event>
 5    1  0.3934322E-009  0.3883010E+03  0.7957747E-01  0.3415792E+00
         13   -1    0    0    0    0  0.00000000000E+00  0.00000000000E+00  0.14999999963E+04  0.15000000000E+04  0.10566000000E+00 0.  1.
        994   -1    0    0    0    0 -0.00000000000E+00 -0.00000000000E+00  0.11368683772E-12  0.17120000000E+03  0.17120000000E+03 0.  0.
         13    1    1    2    0    0 -0.25991855050E+02  0.20498956457E+03  0.11738687733E+04  0.11919161909E+04  0.10566000000E+00 0.  1.
        994    1    1    2    0    0  0.28887198195E+02 -0.22775370634E+03  0.19573323606E+03  0.34688205585E+03  0.17120000000E+03 0.  0.
        998    1    1    2    0    0 -0.28953431444E+01  0.22764141775E+02  0.13039798696E+03  0.13240175326E+03  0.10000000000E-01 0.  0.
</event>
<event>
 5    1  0.3934322E-009  0.3883002E+03  0.7957747E-01  0.3415795E+00
         13   -1    0    0    0    0  0.00000000000E+00  0.00000000000E+00  0.14999999963E+04  0.15000000000E+04  0.10566000000E+00 0. -1.
        994   -1    0    0    0    0 -0.00000000000E+00 -0.00000000000E+00  0.11368683772E-12  0.17120000000E+03  0.17120000000E+03 0.  0.
         13    1    1    2    0    0  0.15700486162E+02  0.24407993865E+03  0.12449912362E+04  0.12687886787E+04  0.10566000000E+00 0. -1.
        994    1    1    2    0    0 -0.15958556562E+02 -0.24773860999E+03  0.23566394032E+03  0.38272186660E+03  0.17120000000E+03 0.  0.
        998    1    1    2    0    0  0.25807040015E+00  0.36586713434E+01  0.19344819719E+02  0.19689454698E+02  0.10000000000E-01 0.  1.
</event>
<event>
 5    1  0.3934322E-009  0.3883010E+03  0.7957747E-01  0.3415792E+00
         13   -1    0    0    0    0  0.00000000000E+00  0.00000000000E+00  0.14999999963E+04  0.15000000000E+04  0.10566000000E+00 0. -1.
        994   -1    0    0    0    0 -0.00000000000E+00 -0.00000000000E+00  0.11368683772E-12  0.17120000000E+03  0.17120000000E+03 0.  0.
         13    1    1    2    0    0  0.62309278380E+02  0.32781194562E+03  0.91132167627E+03  0.97048973548E+03  0.10566000000E+00 0. -1.
        994    1    1    2    0    0 -0.62774935136E+02 -0.33025483180E+03  0.58188142708E+03  0.69347269708E+03  0.17120000000E+03 0.  0.
        998    1    1    2    0    0  0.46565675641E+00  0.24428861794E+01  0.67968929214E+01  0.72375674426E+01  0.10000000000E-01 0. -1.
</event>
<event>
 5    1  0.3934322E-009  0.3882223E+03  0.7957747E-01  0.3416120E+00
         13   -1    0    0    0    0  0.00000000000E+00  0.00000000000E+00  0.14999999963E+04  0.15000000000E+04  0.10566000000E+00 0. -1.
        994   -1    0    0    0    0 -0.00000000000E+00 -0.00000000000E+00  0.11368683772E-12  0.17120000000E+03  0.17120000000E+03 0.  0.
         13    1    1    2    0    0  0.23153936119E+03  0.84223238295E+02  0.11904771187E+04  0.12157054787E+04  0.10566000000E+00 0. -1.
        994    1    1    2    0    0 -0.24220113272E+03 -0.85729147726E+02  0.25649683824E+03  0.40138627716E+03  0.17120000000E+03 0.  0.
        998    1    1    2    0    0  0.10661771537E+02  0.15059094313E+01  0.53026039385E+02  0.54108244181E+02  0.10000000000E-01 0. -1.
</event>
<event>
 5    1  0.3934322E-009  0.3882760E+03  0.7957747E-01  0.3415896E+00
         13   -1    0    0    0    0  0.00000000000E+00  0.00000000000E+00  0.14999999963E+04  0.15000000000E+04  0.10566000000E+00 0. -1.
        994   -1    0    0    0    0 -0.00000000000E+00 -0.00000000000E+00  0.11368683772E-12  0.17120000000E+03  0.17120000000E+03 0.  0.
         13    1    1    2    0    0 -0.15142721057E+03  0.94879099046E+02  0.95885980965E+03  0.97536884780E+03  0.10566000000E+00 0. -1.
        994    1    1    2    0    0  0.20291521013E+03 -0.13016259299E+03  0.21964891557E+03  0.36833676063E+03  0.17120000000E+03 0.  0.
        998    1    1    2    0    0 -0.51487999560E+02  0.35283493947E+02  0.32149127106E+03  0.32749439157E+03  0.10000000000E-01 0.  1.
</event>
<event>
 5    1  0.3934322E-009  0.3881794E+03  0.7957747E-01  0.3416299E+00
         13   -1    0    0    0    0  0.00000000000E+00  0.00000000000E+00  0.14999999963E+04  0.15000000000E+04  0.10566000000E+00 0.  1.
        994   -1    0    0    0    0 -0.00000000000E+00 -0.00000000000E+00  0.11368683772E-12  0.17120000000E+03  0.17120000000E+03 0.  0.
         13    1    1    2    0    0  0.20529727404E+03 -0.23300431311E+03  0.10616726419E+04  0.11061585738E+04  0.10566000000E+00 0.  1.
        994    1    1    2    0    0 -0.20532403305E+03  0.23359165757E+03  0.43413504240E+03  0.56080807419E+03  0.17120000000E+03 0.  0.
        998    1    1    2    0    0  0.26759008126E-01 -0.58734446474E+00  0.41923120140E+01  0.42333520510E+01  0.10000000000E-01 0. -1.
</event>
<event>
 5    1  0.3934322E-009  0.3881616E+03  0.7957747E-01  0.3416373E+00
         13   -1    0    0    0    0  0.00000000000E+00  0.00000000000E+00  0.14999999963E+04  0.15000000000E+04  0.10566000000E+00 0.  1.
        994   -1    0    0    0    0 -0.00000000000E+00 -0.00000000000E+00  0.11368683772E-12  0.17120000000E+03  0.17120000000E+03 0.  0.
         13    1    1    2    0    0  0.20037242417E+03  0.11072628770E+03  0.69453475778E+03  0.73129198005E+03  0.10566000000E+00 0.  1.
        994    1    1    2    0    0 -0.28221903114E+03 -0.16563297472E+03  0.51918602908E+03  0.63713847526E+03  0.17120000000E+03 0.  0.
        998    1    1    2    0    0  0.81846606968E+02  0.54906687017E+02  0.28627920942E+03  0.30276954470E+03  0.10000000000E-01 0. -1.
</event>
<event>
 5    1  0.3934322E-009  0.3872064E+03  0.7957747E-01  0.3420368E+00
         13   -1    0    0    0    0  0.00000000000E+00  0.00000000000E+00  0.14999999963E+04  0.15000000000E+04  0.10566000000E+00 0. -1.
        994   -1    0    0    0    0 -0.00000000000E+00 -0.00000000000E+00  0.11368683772E-12  0.17120000000E+03  0.17120000000E+03 0.  0.
         13    1    1    2    0    0 -0.23911760294E+01 -0.12931526843E+02  0.64958577664E+02  0.66276467056E+02  0.10566000000E+00 0. -1.
        994    1    1    2    0    0  0.64559574207E+02  0.10206025579E+03  0.49694627877E+02  0.21532122625E+03  0.17120000000E+03 0.  0.
        998    1    1    2    0    0 -0.62168398178E+02 -0.89128728952E+02  0.13853467907E+04  0.13896023067E+04  0.10000000000E-01 0. -1.
</event>
<event>
 5    1  0.3934322E-009  0.3882896E+03  0.7957747E-01  0.3415839E+00
         13   -1    0    0    0    0  0.00000000000E+00  0.00000000000E+00  0.14999999963E+04  0.15000000000E+04  0.10566000000E+00 0. -1.
        994   -1    0    0    0    0 -0.00000000000E+00 -0.00000000000E+00  0.11368683772E-12  0.17120000000E+03  0.17120000000E+03 0.  0.
         13    1    1    2    0    0  0.76843752239E+02 -0.21581855351E+03  0.12999559413E+04  0.13199879055E+04  0.10566000000E+00 0. -1.
        994    1    1    2    0    0 -0.76917085845E+02  0.21660448185E+03  0.19630009828E+03  0.34738582043E+03  0.17120000000E+03 0.  0.
        998    1    1    2    0    0  0.73333606463E-01 -0.78592833397E+00  0.37439567119E+01  0.38262740394E+01  0.10000000000E-01 0.  1.
</event>
<event>
 5    1  0.3934322E-009  0.3882845E+03  0.7957747E-01  0.3415860E+00
         13   -1    0    0    0    0  0.00000000000E+00  0.00000000000E+00  0.14999999963E+04  0.15000000000E+04  0.10566000000E+00 0. -1.
        994   -1    0    0    0    0 -0.00000000000E+00 -0.00000000000E+00  0.11368683772E-12  0.17120000000E+03  0.17120000000E+03 0.  0.
         13    1    1    2    0    0 -0.26639531021E+03 -0.12820401558E+02  0.12147281129E+04  0.12436620214E+04  0.10566000000E+00 0. -1.
        994    1    1    2    0    0  0.26696873859E+03  0.12669793383E+02  0.28317573355E+03  0.42535957392E+03  0.17120000000E+03 0.  0.
        998    1    1    2    0    0 -0.57342838882E+00  0.15060817499E+00  0.20961497940E+01  0.21784046682E+01  0.10000000000E-01 0.  1.
</event>
<event>
 5    1  0.3934322E-009  0.3882995E+03  0.7957747E-01  0.3415798E+00
         13   -1    0    0    0    0  0.00000000000E+00  0.00000000000E+00  0.14999999963E+04  0.15000000000E+04  0.10566000000E+00 0. -1.
        994   -1    0    0    0    0 -0.00000000000E+00 -0.00000000000E+00  0.11368683772E-12  0.17120000000E+03  0.17120000000E+03 0.  0.
         13    1    1    2    0    0 -0.46448003799E+01  0.28590621055E+03  0.11586770392E+04  0.11934389082E+04  0.10566000000E+00 0. -1.
        994    1    1    2    0    0  0.46893895957E+01 -0.28630426585E+03  0.33985074926E+03  0.47623533552E+03  0.17120000000E+03 0.  0.
        998    1    1    2    0    0 -0.44589215872E-01  0.39805530401E+00  0.14722078503E+01  0.15257562642E+01  0.10000000000E-01 0. -1.
</event>
<event>
 5    1  0.3934322E-009  0.3881570E+03  0.7957747E-01  0.3416392E+00
         13   -1    0    0    0    0  0.00000000000E+00  0.00000000000E+00  0.14999999963E+04  0.15000000000E+04  0.10566000000E+00 0. -1.
        994   -1    0    0    0    0 -0.00000000000E+00 -0.00000000000E+00  0.11368683772E-12  0.17120000000E+03  0.17120000000E+03 0.  0.
         13    1    1    2    0    0 -0.16829348979E+03 -0.14809061538E+03  0.81506430998E+03  0.84533033167E+03  0.10566000000E+00 0. -1.
        994    1    1    2    0    0  0.22195667735E+03  0.20668388095E+03  0.40147169900E+03  0.53148091063E+03  0.17120000000E+03 0.  0.
        998    1    1    2    0    0 -0.53663187557E+02 -0.58593265564E+02  0.28346398730E+03  0.29438875770E+03  0.10000000000E-01 0. -1.
</event>
<event>
 5    1  0.3934322E-009  0.3877975E+03  0.7957747E-01  0.3417894E+00
         13   -1    0    0    0    0  0.00000000000E+00  0.00000000000E+00  0.14999999963E+04  0.15000000000E+04  0.10566000000E+00 0. -1.
        994   -1    0    0    0    0 -0.00000000000E+00 -0.00000000000E+00  0.11368683772E-12  0.17120000000E+03  0.17120000000E+03 0.  0.
         13    1    1    2    0    0 -0.13477957243E+03 -0.63995743404E+02  0.86054431259E+03  0.87338279890E+03  0.10566000000E+00 0. -1.
        994    1    1    2    0    0  0.18853507641E+03  0.10042406620E+03  0.16646778406E+03  0.32039262045E+03  0.17120000000E+03 0.  0.
        998    1    1    2    0    0 -0.53755503978E+02 -0.36428322799E+02  0.47298789963E+03  0.47742458065E+03  0.10000000000E-01 0. -1.
</event>
<event>
 5    1  0.3934322E-009  0.3879912E+03  0.7957747E-01  0.3417084E+00
         13   -1    0    0    0    0  0.00000000000E+00  0.00000000000E+00  0.14999999963E+04  0.15000000000E+04  0.10566000000E+00 0. -1.
        994   -1    0    0    0    0 -0.00000000000E+00 -0.00000000000E+00  0.11368683772E-12  0.17120000000E+03  0.17120000000E+03 0.  0.
         13    1    1    2    0    0  0.26629994098E+02 -0.34684102068E+03  0.73495232741E+03  0.81311917019E+03  0.10566000000E+00 0. -1.
        994    1    1    2    0    0 -0.27108707919E+02  0.34704821888E+03  0.76281775956E+03  0.85579070022E+03  0.17120000000E+03 0.  0.
        998    1    1    2    0    0  0.47871382116E+00 -0.20719819522E+00  0.22299093084E+01  0.22901295899E+01  0.10000000000E-01 0. -1.
</event>
<event>
 5    1  0.3934322E-009  0.3882841E+03  0.7957747E-01  0.3415862E+00
         13   -1    0    0    0    0  0.00000000000E+00  0.00000000000E+00  0.14999999963E+04  0.15000000000E+04  0.10566000000E+00 0.  1.
        994   -1    0    0    0    0 -0.00000000000E+00 -0.00000000000E+00  0.11368683772E-12  0.17120000000E+03  0.17120000000E+03 0.  0.
         13    1    1    2    0    0  0.22864462678E+03 -0.11620908657E+03  0.12361441903E+04  0.12624719353E+04  0.10566000000E+00 0.  1.
        994    1    1    2    0    0 -0.22945293965E+03  0.11669268657E+03  0.25762094888E+03  0.40242244957E+03  0.17120000000E+03 0.  0.
        998    1    1    2    0    0  0.80831287019E+00 -0.48359999674E+00  0.62348571207E+01  0.63056151142E+01  0.10000000000E-01 0. -1.
</event>
<event>
 5    1  0.3934322E-009  0.3863876E+03  0.7957747E-01  0.3423808E+00
         13   -1    0    0    0    0  0.00000000000E+00  0.00000000000E+00  0.14999999963E+04  0.15000000000E+04  0.10566000000E+00 0.  1.
        994   -1    0    0    0    0 -0.00000000000E+00 -0.00000000000E+00  0.11368683772E-12  0.17120000000E+03  0.17120000000E+03 0.  0.
         13    1    1    2    0    0  0.52027520540E+02  0.16682762689E+02  0.32141261946E+03  0.32602340495E+03  0.10566000000E+00 0.  1.
        994    1    1    2    0    0 -0.14575730509E+03 -0.22687811558E+02  0.75744153557E+02  0.23834123768E+03  0.17120000000E+03 0.  0.
        998    1    1    2    0    0  0.93729784553E+02  0.60050488688E+01  0.11028432233E+04  0.11068353574E+04  0.10000000000E-01 0.  1.
</event>
<event>
 5    1  0.3934322E-009  0.3883008E+03  0.7957747E-01  0.3415793E+00
         13   -1    0    0    0    0  0.00000000000E+00  0.00000000000E+00  0.14999999963E+04  0.15000000000E+04  0.10566000000E+00 0. -1.
        994   -1    0    0    0    0 -0.00000000000E+00 -0.00000000000E+00  0.11368683772E-12  0.17120000000E+03  0.17120000000E+03 0.  0.
         13    1    1    2    0    0 -0.21235608446E+03 -0.11844918447E+03  0.12678420642E+04  0.12909488087E+04  0.10566000000E+00 0. -1.
        994    1    1    2    0    0  0.21327384698E+03  0.11899244363E+03  0.22653944273E+03  0.37453236784E+03  0.17120000000E+03 0.  0.
        998    1    1    2    0    0 -0.91776251651E+00 -0.54325916319E+00  0.56184893911E+01  0.57188234449E+01  0.10000000000E-01 0. -1.
</event>
<event>
 5    1  0.3934322E-009  0.3878392E+03  0.7957747E-01  0.3417719E+00
         13   -1    0    0    0    0  0.00000000000E+00  0.00000000000E+00  0.14999999963E+04  0.15000000000E+04  0.10566000000E+00 0. -1.
        994   -1    0    0    0    0 -0.00000000000E+00 -0.00000000000E+00  0.11368683772E-12  0.17120000000E+03  0.17120000000E+03 0.  0.
         13    1    1    2    0    0 -0.13969931342E+03 -0.76052334179E+02  0.89527690077E+03  0.90929675899E+03  0.10566000000E+00 0. -1.
        994    1    1    2    0    0  0.20147988606E+03  0.12661384627E+03  0.21358882282E+03  0.36270488801E+03  0.17120000000E+03 0.  0.
        998    1    1    2    0    0 -0.61780572642E+02 -0.50561512095E+02  0.39113427269E+03  0.39919835299E+03  0.10000000000E-01 0. -1.
</event>
<event>
 5    1  0.3934322E-009  0.3882967E+03  0.7957747E-01  0.3415810E+00
         13   -1    0    0    0    0  0.00000000000E+00  0.00000000000E+00  0.14999999963E+04  0.15000000000E+04  0.10566000000E+00 0. -1.
        994   -1    0    0    0    0 -0.00000000000E+00 -0.00000000000E+00  0.11368683772E-12  0.17120000000E+03  0.17120000000E+03 0.  0.
         13    1    1    2    0    0  0.20604059726E+03 -0.18961826298E+03  0.11799878230E+04  0.12127568128E+04  0.10566000000E+00 0. -1.
        994    1    1    2    0    0 -0.20604066095E+03  0.18963270366E+03  0.31987275974E+03  0.45830267148E+03  0.17120000000E+03 0.  0.
        998    1    1    2    0    0  0.63685427163E-04 -0.14440675947E-01  0.13941348673E+00  0.14051568404E+00  0.10000000000E-01 0. -1.
</event>
<event>
 5    1  0.3934322E-009  0.3883009E+03  0.7957747E-01  0.3415792E+00
         13   -1    0    0    0    0  0.00000000000E+00  0.00000000000E+00  0.14999999963E+04  0.15000000000E+04  0.10566000000E+00 0. -1.
        994   -1    0    0    0    0 -0.00000000000E+00 -0.00000000000E+00  0.11368683772E-12  0.17120000000E+03  0.17120000000E+03 0.  0.
         13    1    1    2    0    0  0.21701224147E+03 -0.66874036488E+02  0.12993904257E+04  0.13190837499E+04  0.10566000000E+00 0. -1.
        994    1    1    2    0    0 -0.21822189607E+03  0.67259561134E+02  0.19330954199E+03  0.34470663398E+03  0.17120000000E+03 0.  0.
        998    1    1    2    0    0  0.12096545968E+01 -0.38552464650E+00  0.73000285667E+01  0.74096160880E+01  0.10000000000E-01 0. -1.
</event>
<event>
 5    1  0.3934322E-009  0.3882770E+03  0.7957747E-01  0.3415892E+00
         13   -1    0    0    0    0  0.00000000000E+00  0.00000000000E+00  0.14999999963E+04  0.15000000000E+04  0.10566000000E+00 0. -1.
        994   -1    0    0    0    0 -0.00000000000E+00 -0.00000000000E+00  0.11368683772E-12  0.17120000000E+03  0.17120000000E+03 0.  0.
         13    1    1    2    0    0  0.11578237942E+03 -0.40487144214E+01  0.60981997414E+03  0.62072728593E+03  0.10566000000E+00 0. -1.
        994    1    1    2    0    0 -0.24586427752E+03  0.12280764799E+02  0.23094919771E+03  0.37847989652E+03  0.17120000000E+03 0.  0.
        998    1    1    2    0    0  0.13008189811E+03 -0.82320503773E+01  0.65923082442E+03  0.67199281755E+03  0.10000000000E-01 0. -1.
</event>
<event>
 5    1  0.3934322E-009  0.3882986E+03  0.7957747E-01  0.3415802E+00
         13   -1    0    0    0    0  0.00000000000E+00  0.00000000000E+00  0.14999999963E+04  0.15000000000E+04  0.10566000000E+00 0. -1.
        994   -1    0    0    0    0 -0.00000000000E+00 -0.00000000000E+00  0.11368683772E-12  0.17120000000E+03  0.17120000000E+03 0.  0.
         13    1    1    2    0    0 -0.15195806243E+02  0.21342593421E+03  0.12766912954E+04  0.12944968972E+04  0.10566000000E+00 0. -1.
        994    1    1    2    0    0  0.15462802260E+02 -0.22053315234E+03  0.17938732203E+03  0.33220960378E+03  0.17120000000E+03 0.  0.
        998    1    1    2    0    0 -0.26699601681E+00  0.71072181274E+01  0.43921378865E+02  0.44493499051E+02  0.10000000000E-01 0.  1.
</event>
<event>
 5    1  0.3934322E-009  0.3882994E+03  0.7957747E-01  0.3415798E+00
         13   -1    0    0    0    0  0.00000000000E+00  0.00000000000E+00  0.14999999963E+04  0.15000000000E+04  0.10566000000E+00 0. -1.
        994   -1    0    0    0    0 -0.00000000000E+00 -0.00000000000E+00  0.11368683772E-12  0.17120000000E+03  0.17120000000E+03 0.  0.
         13    1    1    2    0    0  0.11426056265E+03 -0.24608512257E+03  0.12050675599E+04  0.12352332569E+04  0.10566000000E+00 0. -1.
        994    1    1    2    0    0 -0.11429113809E+03  0.24617745888E+03  0.29459767094E+03  0.43561799002E+03  0.17120000000E+03 0.  0.
        998    1    1    2    0    0  0.30575444681E-01 -0.92336304881E-01  0.33476541254E+00  0.34875311102E+00  0.10000000000E-01 0.  1.
</event>
<event>
 5    1  0.3934322E-009  0.3873045E+03  0.7957747E-01  0.3419957E+00
         13   -1    0    0    0    0  0.00000000000E+00  0.00000000000E+00  0.14999999963E+04  0.15000000000E+04  0.10566000000E+00 0. -1.
        994   -1    0    0    0    0 -0.00000000000E+00 -0.00000000000E+00  0.11368683772E-12  0.17120000000E+03  0.17120000000E+03 0.  0.
         13    1    1    2    0    0 -0.16730897013E+03 -0.18726210513E+03  0.10098546776E+04  0.10406084127E+04  0.10566000000E+00 0. -1.
        994    1    1    2    0    0  0.19966456640E+03  0.20250933596E+03  0.33586353202E+03  0.47221787595E+03  0.17120000000E+03 0.  0.
        998    1    1    2    0    0 -0.32355596273E+02 -0.15247230830E+02  0.15428178661E+03  0.15837371132E+03  0.10000000000E-01 0. -1.
</event>
<event>
 5    1  0.3934322E-009  0.3883008E+03  0.7957747E-01  0.3415793E+00
         13   -1    0    0    0    0  0.00000000000E+00  0.00000000000E+00  0.14999999963E+04  0.15000000000E+04  0.10566000000E+00 0.  1.
        994   -1    0    0    0    0 -0.00000000000E+00 -0.00000000000E+00  0.11368683772E-12  0.17120000000E+03  0.17120000000E+03 0.  0.
         13    1    1    2    0    0  0.22231179740E+03 -0.60632282010E+01  0.13157079722E+04  0.13343713042E+04  0.10566000000E+00 0.  1.
        994    1    1    2    0    0 -0.22261558924E+03  0.60826616469E+01  0.18242578238E+03  0.33493776351E+03  0.17120000000E+03 0.  0.
        998    1    1    2    0    0  0.30379184593E+00 -0.19433445820E-01  0.18662416633E+01  0.18909323336E+01  0.10000000000E-01 0.  1.
</event>
<event>
 5    1  0.3934322E-009  0.3882958E+03  0.7957747E-01  0.3415814E+00
         13   -1    0    0    0    0  0.00000000000E+00  0.00000000000E+00  0.14999999963E+04  0.15000000000E+04  0.10566000000E+00 0. -1.
        994   -1    0    0    0    0 -0.00000000000E+00 -0.00000000000E+00  0.11368683772E-12  0.17120000000E+03  0.17120000000E+03 0.  0.
         13    1    1    2    0    0  0.23654193959E+03 -0.72641225974E+02  0.12280593411E+04  0.12527404334E+04  0.10566000000E+00 0. -1.
        994    1    1    2    0    0 -0.24156314318E+03  0.73782154615E+02  0.24581225448E+03  0.39182861424E+03  0.17120000000E+03 0.  0.
        998    1    1    2    0    0  0.50212035946E+01 -0.11409286407E+01  0.26128400665E+02  0.26630952386E+02  0.10000000000E-01 0. -1.
</event>
<event>
 5    1  0.3934322E-009  0.3883009E+03  0.7957747E-01  0.3415792E+00
         13   -1    0    0    0    0  0.00000000000E+00  0.00000000000E+00  0.14999999963E+04  0.15000000000E+04  0.10566000000E+00 0. -1.
        994   -1    0    0    0    0 -0.00000000000E+00 -0.00000000000E+00  0.11368683772E-12  0.17120000000E+03  0.17120000000E+03 0.  0.
         13    1    1    2    0    0  0.10991215135E+03 -0.13716350321E+03  0.10106623829E+04  0.10258328183E+04  0.10566000000E+00 0. -1.
        994    1    1    2    0    0 -0.14225899188E+03  0.17744698131E+03  0.19150502090E+03  0.34308696416E+03  0.17120000000E+03 0.  0.
        998    1    1    2    0    0  0.32346840530E+02 -0.40283478098E+02  0.29783259244E+03  0.30228021755E+03  0.10000000000E-01 0. -1.
</event>
<event>
 5    1  0.3934322E-009  0.3882884E+03  0.7957747E-01  0.3415844E+00
         13   -1    0    0    0    0  0.00000000000E+00  0.00000000000E+00  0.14999999963E+04  0.15000000000E+04  0.10566000000E+00 0. -1.
        994   -1    0    0    0    0 -0.00000000000E+00 -0.00000000000E+00  0.11368683772E-12  0.17120000000E+03  0.17120000000E+03 0.  0.
         13    1    1    2    0    0 -0.20030970596E+02  0.22296402988E+03  0.11137239831E+04  0.11359997008E+04  0.10566000000E+00 0. -1.
        994    1    1    2    0    0  0.21363543160E+02 -0.25193631913E+03  0.24644682580E+03  0.39239493857E+03  0.17120000000E+03 0.  0.
        998    1    1    2    0    0 -0.13325725637E+01  0.28972289255E+02  0.13982918735E+03  0.14280536064E+03  0.10000000000E-01 0. -1.
</event>
<event>
 5    1  0.3934322E-009  0.3882993E+03  0.7957747E-01  0.3415799E+00
         13   -1    0    0    0    0  0.00000000000E+00  0.00000000000E+00  0.14999999963E+04  0.15000000000E+04  0.10566000000E+00 0. -1.
        994   -1    0    0    0    0 -0.00000000000E+00 -0.00000000000E+00  0.11368683772E-12  0.17120000000E+03  0.17120000000E+03 0.  0.
         13    1    1    2    0    0 -0.10770018963E+02 -0.22186987162E+03  0.13175625264E+04  0.13361561493E+04  0.10566000000E+00 0. -1.
        994    1    1    2    0    0  0.10814090477E+02  0.22201252908E+03  0.18163216749E+03  0.33422476253E+03  0.17120000000E+03 0.  0.
        998    1    1    2    0    0 -0.44071514002E-01 -0.14265746464E+00  0.80530236730E+00  0.81908812306E+00  0.10000000000E-01 0.  1.
</event>
<event>
 5    1  0.3934322E-009  0.3883001E+03  0.7957747E-01  0.3415796E+00
         13   -1    0    0    0    0  0.00000000000E+00  0.00000000000E+00  0.14999999963E+04  0.15000000000E+04  0.10566000000E+00 0.  1.
        994   -1    0    0    0    0 -0.00000000000E+00 -0.00000000000E+00  0.11368683772E-12  0.17120000000E+03  0.17120000000E+03 0.  0.
         13    1    1    2    0    0 -0.16017965791E+02 -0.22189327312E+03  0.13051867072E+04  0.13240111599E+04  0.10566000000E+00 0.  1.
        994    1    1    2    0    0  0.16143216687E+02  0.22346521300E+03  0.18498113320E+03  0.33723102542E+03  0.17120000000E+03 0.  0.
        998    1    1    2    0    0 -0.12525089537E+00 -0.15719398822E+01  0.98321559004E+01  0.99578146413E+01  0.10000000000E-01 0. -1.
</event>
<event>
 5    1  0.3934322E-009  0.3869029E+03  0.7957747E-01  0.3421642E+00
         13   -1    0    0    0    0  0.00000000000E+00  0.00000000000E+00  0.14999999963E+04  0.15000000000E+04  0.10566000000E+00 0. -1.
        994   -1    0    0    0    0 -0.00000000000E+00 -0.00000000000E+00  0.11368683772E-12  0.17120000000E+03  0.17120000000E+03 0.  0.
         13    1    1    2    0    0 -0.12851715982E+03 -0.31388118022E+03  0.76742066899E+03  0.83903072055E+03  0.10566000000E+00 0. -1.
        994    1    1    2    0    0  0.12532327618E+03  0.32145984832E+03  0.70455336031E+03  0.80296154028E+03  0.17120000000E+03 0.  0.
        998    1    1    2    0    0  0.31938836330E+01 -0.75786681019E+01  0.28025966974E+02  0.29207739174E+02  0.10000000000E-01 0. -1.
</event>
<event>
 5    1  0.3934322E-009  0.3882494E+03  0.7957747E-01  0.3416007E+00
         13   -1    0    0    0    0  0.00000000000E+00  0.00000000000E+00  0.14999999963E+04  0.15000000000E+04  0.10566000000E+00 0. -1.
        994   -1    0    0    0    0 -0.00000000000E+00 -0.00000000000E+00  0.11368683772E-12  0.17120000000E+03  0.17120000000E+03 0.  0.
         13    1    1    2    0    0 -0.19863705585E+03 -0.33270181728E+02  0.12117480154E+04  0.12283716249E+04  0.10566000000E+00 0. -1.
        994    1    1    2    0    0  0.21838498633E+03  0.37834910385E+02  0.18049940884E+03  0.33318607307E+03  0.17120000000E+03 0.  0.
        998    1    1    2    0    0 -0.19747930479E+02 -0.45647286574E+01  0.10775257207E+03  0.10964230203E+03  0.10000000000E-01 0. -1.
</event>
<event>
 5    1  0.3934322E-009  0.3883001E+03  0.7957747E-01  0.3415795E+00
         13   -1    0    0    0    0  0.00000000000E+00  0.00000000000E+00  0.14999999963E+04  0.15000000000E+04  0.10566000000E+00 0. -1.
        994   -1    0    0    0    0 -0.00000000000E+00 -0.00000000000E+00  0.11368683772E-12  0.17120000000E+03  0.17120000000E+03 0.  0.
         13    1    1    2    0    0 -0.25481724185E+03  0.24967058027E+02  0.12208632005E+04  0.12474222004E+04  0.10566000000E+00 0. -1.
        994    1    1    2    0    0  0.25816826849E+03 -0.25387857932E+02  0.26258632644E+03  0.40688624580E+03  0.17120000000E+03 0.  0.
        998    1    1    2    0    0 -0.33510266354E+01  0.42079990571E+00  0.16550469384E+02  0.16891553774E+02  0.10000000000E-01 0.  1.
</event>
<event>
 5    1  0.3934322E-009  0.3883002E+03  0.7957747E-01  0.3415795E+00
         13   -1    0    0    0    0  0.00000000000E+00  0.00000000000E+00  0.14999999963E+04  0.15000000000E+04  0.10566000000E+00 0. -1.
        994   -1    0    0    0    0 -0.00000000000E+00 -0.00000000000E+00  0.11368683772E-12  0.17120000000E+03  0.17120000000E+03 0.  0.
         13    1    1    2    0    0  0.20361628274E+03 -0.13940879137E+03  0.12672807672E+04  0.12910828617E+04  0.10566000000E+00 0. -1.
        994    1    1    2    0    0 -0.20365850446E+03  0.13945369663E+03  0.23240521873E+03  0.37979697950E+03  0.17120000000E+03 0.  0.
        998    1    1    2    0    0  0.42221717561E-01 -0.44905263806E-01  0.31401034731E+00  0.32015879555E+00  0.10000000000E-01 0.  0.
</event>
<event>
 5    1  0.3934322E-009  0.3882981E+03  0.7957747E-01  0.3415804E+00
         13   -1    0    0    0    0  0.00000000000E+00  0.00000000000E+00  0.14999999963E+04  0.15000000000E+04  0.10566000000E+00 0.  1.
        994   -1    0    0    0    0 -0.00000000000E+00 -0.00000000000E+00  0.11368683772E-12  0.17120000000E+03  0.17120000000E+03 0.  0.
         13    1    1    2    0    0  0.16540712336E+03 -0.21086832131E+03  0.12066185077E+04  0.12360231388E+04  0.10566000000E+00 0.  1.
        994    1    1    2    0    0 -0.16599111853E+03  0.21179746411E+03  0.28813477870E+03  0.42981659802E+03  0.17120000000E+03 0.  0.
        998    1    1    2    0    0  0.58399517006E+00 -0.92914279654E+00  0.52467098763E+01  0.53602631671E+01  0.10000000000E-01 0.  1.
</event>
<event>
 5    1  0.3934322E-009  0.3882947E+03  0.7957747E-01  0.3415818E+00
         13   -1    0    0    0    0  0.00000000000E+00  0.00000000000E+00  0.14999999963E+04  0.15000000000E+04  0.10566000000E+00 0. -1.
        994   -1    0    0    0    0 -0.00000000000E+00 -0.00000000000E+00  0.11368683772E-12  0.17120000000E+03  0.17120000000E+03 0.  0.
         13    1    1    2    0    0  0.32246946517E+03 -0.10693528982E+03  0.87702761512E+03  0.94053131847E+03  0.10566000000E+00 0. -1.
        994    1    1    2    0    0 -0.32312587273E+03  0.10722733148E+03  0.62142500316E+03  0.72896262236E+03  0.17120000000E+03 0.  0.
        998    1    1    2    0    0  0.65640756638E+00 -0.29204166127E+00  0.15473779987E+01  0.17060591713E+01  0.10000000000E-01 0.  1.
</event>
<event>
 5    1  0.3934322E-009  0.3883010E+03  0.7957747E-01  0.3415792E+00
         13   -1    0    0    0    0  0.00000000000E+00  0.00000000000E+00  0.14999999963E+04  0.15000000000E+04  0.10566000000E+00 0.  1.
        994   -1    0    0    0    0 -0.00000000000E+00 -0.00000000000E+00  0.11368683772E-12  0.17120000000E+03  0.17120000000E+03 0.  0.
         13    1    1    2    0    0 -0.13511045802E+03 -0.19375853880E+03  0.12795103796E+04  0.13011318265E+04  0.10566000000E+00 0.  1.
        994    1    1    2    0    0  0.13596523797E+03  0.19497677255E+03  0.21238423003E+03  0.36182729158E+03  0.17120000000E+03 0.  0.
        998    1    1    2    0    0 -0.85477995650E+00 -0.12182337485E+01  0.81053866406E+01  0.82408819208E+01  0.10000000000E-01 0.  1.
</event>
<event>
 5    1  0.3934322E-009  0.3883008E+03  0.7957747E-01  0.3415793E+00
         13   -1    0    0    0    0  0.00000000000E+00  0.00000000000E+00  0.14999999963E+04  0.15000000000E+04  0.10566000000E+00 0.  1.
        994   -1    0    0    0    0 -0.00000000000E+00 -0.00000000000E+00  0.11368683772E-12  0.17120000000E+03  0.17120000000E+03 0.  0.
         13    1    1    2    0    0 -0.61697189495E+02 -0.19758567805E+03  0.10059766453E+04  0.10270519292E+04  0.10566000000E+00 0.  1.
        994    1    1    2    0    0  0.76320648110E+02  0.24477275624E+03  0.25505321589E+03  0.40012513851E+03  0.17120000000E+03 0.  0.
        998    1    1    2    0    0 -0.14623458616E+02 -0.47187078186E+02  0.23897013512E+03  0.24402293226E+03  0.10000000000E-01 0.  1.
</event>
<event>
 5    1  0.3934322E-009  0.3883010E+03  0.7957747E-01  0.3415792E+00
         13   -1    0    0    0    0  0.00000000000E+00  0.00000000000E+00  0.14999999963E+04  0.15000000000E+04  0.10566000000E+00 0.  1.
        994   -1    0    0    0    0 -0.00000000000E+00 -0.00000000000E+00  0.11368683772E-12  0.17120000000E+03  0.17120000000E+03 0.  0.
         13    1    1    2    0    0 -0.25899523228E+03 -0.11660058873E+03  0.11531489169E+04  0.11876138528E+04  0.10566000000E+00 0.  1.
        994    1    1    2    0    0  0.26079733041E+03  0.11742348726E+03  0.33877212873E+03  0.47526783829E+03  0.17120000000E+03 0.  0.
        998    1    1    2    0    0 -0.18020981317E+01 -0.82289852918E+00  0.80789505960E+01  0.83183088665E+01  0.10000000000E-01 0.  0.
</event>
<event>
 5    1  0.3934322E-009  0.3879572E+03  0.7957747E-01  0.3417227E+00
         13   -1    0    0    0    0  0.00000000000E+00  0.00000000000E+00  0.14999999963E+04  0.15000000000E+04  0.10566000000E+00 0.  1.
        994   -1    0    0    0    0 -0.00000000000E+00 -0.00000000000E+00  0.11368683772E-12  0.17120000000E+03  0.17120000000E+03 0.  0.
         13    1    1    2    0    0  0.20007411517E+03  0.23134291700E+03  0.10720745002E+04  0.11148510851E+04  0.10566000000E+00 0.  1.
        994    1    1    2    0    0 -0.20218633522E+03 -0.23130240654E+03  0.41833649036E+03  0.54652994116E+03  0.17120000000E+03 0.  0.
        998    1    1    2    0    0  0.21122200407E+01 -0.40510454834E-01  0.95890057311E+01  0.98189737502E+01  0.10000000000E-01 0.  1.
</event>
<event>
 5    1  0.3934322E-009  0.3882934E+03  0.7957747E-01  0.3415824E+00
         13   -1    0    0    0    0  0.00000000000E+00  0.00000000000E+00  0.14999999963E+04  0.15000000000E+04  0.10566000000E+00 0.  1.
        994   -1    0    0    0    0 -0.00000000000E+00 -0.00000000000E+00  0.11368683772E-12  0.17120000000E+03  0.17120000000E+03 0.  0.
         13    1    1    2    0    0  0.65024293237E+02  0.23423111398E+03  0.12759386778E+04  0.12988887150E+04  0.10566000000E+00 0.  1.
        994    1    1    2    0    0 -0.65013085657E+02 -0.23423464345E+03  0.22403895740E+03  0.37228411722E+03  0.17120000000E+03 0.  0.
        998    1    1    2    0    0 -0.11207580108E-01  0.35294753987E-02  0.22361107658E-01  0.27167741609E-01  0.10000000000E-01 0. -1.
</event>
<event>
 5    1  0.3934322E-009  0.3881795E+03  0.7957747E-01  0.3416298E+00
         13   -1    0    0    0    0  0.00000000000E+00  0.00000000000E+00  0.14999999963E+04  0.15000000000E+04  0.10566000000E+00 0.  1.
        994   -1    0    0    0    0 -0.00000000000E+00 -0.00000000000E+00  0.11368683772E-12  0.17120000000E+03  0.17120000000E+03 0.  0.
         13    1    1    2    0    0 -0.21277507046E+03  0.53117306745E+02  0.12533249793E+04  0.12723671616E+04  0.10566000000E+00 0.  1.
        994    1    1    2    0    0  0.22014690500E+03 -0.53724979286E+02  0.19005775257E+03  0.34173443270E+03  0.17120000000E+03 0.  0.
        998    1    1    2    0    0 -0.73718345450E+01  0.60767254133E+00  0.56617264384E+02  0.57098405729E+02  0.10000000000E-01 0.  1.
</event>
<event>
 5    1  0.3934322E-009  0.3876435E+03  0.7957747E-01  0.3418538E+00
         13   -1    0    0    0    0  0.00000000000E+00  0.00000000000E+00  0.14999999963E+04  0.15000000000E+04  0.10566000000E+00 0.  1.
        994   -1    0    0    0    0 -0.00000000000E+00 -0.00000000000E+00  0.11368683772E-12  0.17120000000E+03  0.17120000000E+03 0.  0.
         13    1    1    2    0    0  0.19771743883E+03 -0.11407158888E+03  0.12505562529E+04  0.12712181031E+04  0.10566000000E+00 0.  1.
        994    1    1    2    0    0 -0.20602247935E+03  0.11243396497E+03  0.20703009702E+03  0.35673177535E+03  0.17120000000E+03 0.  0.
        998    1    1    2    0    0  0.83050405171E+01  0.16376239071E+01  0.42413646400E+02  0.43250121515E+02  0.10000000000E-01 0. -1.
</event>
<event>
 5    1  0.3934322E-009  0.3882973E+03  0.7957747E-01  0.3415807E+00
         13   -1    0    0    0    0  0.00000000000E+00  0.00000000000E+00  0.14999999963E+04  0.15000000000E+04  0.10566000000E+00 0.  1.
        994   -1    0    0    0    0 -0.00000000000E+00 -0.00000000000E+00  0.11368683772E-12  0.17120000000E+03  0.17120000000E+03 0.  0.
         13    1    1    2    0    0  0.19761683483E+03  0.11540317304E+03  0.13000534225E+04  0.13200413699E+04  0.10566000000E+00 0.  1.
        994    1    1    2    0    0 -0.19818635158E+03 -0.11569901177E+03  0.19555586030E+03  0.34672125083E+03  0.17120000000E+03 0.  0.
        998    1    1    2    0    0  0.56951675239E+00  0.29583873284E+00  0.43907134737E+01  0.44373792598E+01  0.10000000000E-01 0. -1.
</event>
<event>
 5    1  0.3934322E-009  0.3883010E+03  0.7957747E-01  0.3415792E+00
         13   -1    0    0    0    0  0.00000000000E+00  0.00000000000E+00  0.14999999963E+04  0.15000000000E+04  0.10566000000E+00 0. -1.
        994   -1    0    0    0    0 -0.00000000000E+00 -0.00000000000E+00  0.11368683772E-12  0.17120000000E+03  0.17120000000E+03 0.  0.
         13    1    1    2    0    0 -0.13482124963E+03  0.19311384643E+03  0.12192450187E+04  0.12417842622E+04  0.10566000000E+00 0. -1.
        994    1    1    2    0    0  0.14050648394E+03 -0.20125097063E+03  0.22927831975E+03  0.37699073346E+03  0.17120000000E+03 0.  0.
        998    1    1    2    0    0 -0.56852343120E+01  0.81371241996E+01  0.51476657797E+02  0.52425004314E+02  0.10000000000E-01 0. -1.
</event>
<event>
 5    1  0.3934322E-009  0.3869602E+03  0.7957747E-01  0.3421401E+00
         13   -1    0    0    0    0  0.00000000000E+00  0.00000000000E+00  0.14999999963E+04  0.15000000000E+04  0.10566000000E+00 0.  1.
        994   -1    0    0    0    0 -0.00000000000E+00 -0.00000000000E+00  0.11368683772E-12  0.17120000000E+03  0.17120000000E+03 0.  0.
         13    1    1    2    0    0  0.22805067893E+03  0.27812679206E+02  0.11063828294E+04  0.11299839086E+04  0.10566000000E+00 0.  1.
        994    1    1    2    0    0 -0.24965245181E+03 -0.45323058278E+02  0.25079521495E+03  0.39571227697E+03  0.17120000000E+03 0.  0.
        998    1    1    2    0    0  0.21601772884E+02  0.17510379073E+02  0.14282195192E+03  0.14550381444E+03  0.10000000000E-01 0.  1.
</event>
<event>
 5    1  0.3934322E-009  0.3881660E+03  0.7957747E-01  0.3416355E+00
         13   -1    0    0    0    0  0.00000000000E+00  0.00000000000E+00  0.14999999963E+04  0.15000000000E+04  0.10566000000E+00 0. -1.
        994   -1    0    0    0    0 -0.00000000000E+00 -0.00000000000E+00  0.11368683772E-12  0.17120000000E+03  0.17120000000E+03 0.  0.
         13    1    1    2    0    0 -0.18218089980E+03 -0.75581986652E+02  0.11223337713E+04  0.11395330721E+04  0.10566000000E+00 0. -1.
        994    1    1    2    0    0  0.20723230439E+03  0.87981096195E+02  0.18723128023E+03  0.33919152932E+03  0.17120000000E+03 0.  0.
        998    1    1    2    0    0 -0.25051404589E+02 -0.12399109543E+02  0.19043494476E+03  0.19247539862E+03  0.10000000000E-01 0. -1.
</event>
<event>
 5    1  0.3934322E-009  0.3880760E+03  0.7957747E-01  0.3416730E+00
         13   -1    0    0    0    0  0.00000000000E+00  0.00000000000E+00  0.14999999963E+04  0.15000000000E+04  0.10566000000E+00 0. -1.
        994   -1    0    0    0    0 -0.00000000000E+00 -0.00000000000E+00  0.11368683772E-12  0.17120000000E+03  0.17120000000E+03 0.  0.
         13    1    1    2    0    0 -0.19279806855E+03 -0.12288724083E+03  0.12223889742E+04  0.12435864202E+04  0.10566000000E+00 0. -1.
        994    1    1    2    0    0  0.20361978305E+03  0.13163351011E+03  0.22297975016E+03  0.37123820657E+03  0.17120000000E+03 0.  0.
        998    1    1    2    0    0 -0.10821714505E+02 -0.87462692799E+01  0.54631271925E+02  0.56375373199E+02  0.10000000000E-01 0. -1.
</event>
<event>
 5    1  0.3934322E-009  0.3882403E+03  0.7957747E-01  0.3416045E+00
         13   -1    0    0    0    0  0.00000000000E+00  0.00000000000E+00  0.14999999963E+04  0.15000000000E+04  0.10566000000E+00 0. -1.
        994   -1    0    0    0    0 -0.00000000000E+00 -0.00000000000E+00  0.11368683772E-12  0.17120000000E+03  0.17120000000E+03 0.  0.
         13    1    1    2    0    0  0.17519517090E+02 -0.20257421077E+03  0.11863567419E+04  0.12036550895E+04  0.10566000000E+00 0. -1.
        994    1    1    2    0    0 -0.21250079087E+02  0.22221378038E+03  0.18350009763E+03  0.33587535766E+03  0.17120000000E+03 0.  0.
        998    1    1    2    0    0  0.37305619974E+01 -0.19639569618E+02  0.13014315674E+03  0.13166955280E+03  0.10000000000E-01 0. -1.
</event>
<event>
 5    1  0.3934322E-009  0.3883010E+03  0.7957747E-01  0.3415792E+00
         13   -1    0    0    0    0  0.00000000000E+00  0.00000000000E+00  0.14999999963E+04  0.15000000000E+04  0.10566000000E+00 0. -1.
        994   -1    0    0    0    0 -0.00000000000E+00 -0.00000000000E+00  0.11368683772E-12  0.17120000000E+03  0.17120000000E+03 0.  0.
         13    1    1    2    0    0  0.15382851161E+00  0.22759998729E+03  0.12852666953E+04  0.13052632941E+04  0.10566000000E+00 0. -1.
        994    1    1    2    0    0 -0.14135858526E+00 -0.23059703785E+03  0.19776413585E+03  0.34870489999E+03  0.17120000000E+03 0.  0.
        998    1    1    2    0    0 -0.12469926355E-01  0.29970505628E+01  0.16969165161E+02  0.17231805878E+02  0.10000000000E-01 0.  0.
</event>
<event>
 5    1  0.3934322E-009  0.3882981E+03  0.7957747E-01  0.3415804E+00
         13   -1    0    0    0    0  0.00000000000E+00  0.00000000000E+00  0.14999999963E+04  0.15000000000E+04  0.10566000000E+00 0. -1.
        994   -1    0    0    0    0 -0.00000000000E+00 -0.00000000000E+00  0.11368683772E-12  0.17120000000E+03  0.17120000000E+03 0.  0.
         13    1    1    2    0    0 -0.83040904879E+01  0.20679497105E+03  0.12504612354E+04  0.12674724574E+04  0.10566000000E+00 0. -1.
        994    1    1    2    0    0  0.90118914089E+01 -0.21863018829E+03  0.17521997610E+03  0.32846895354E+03  0.17120000000E+03 0.  0.
        998    1    1    2    0    0 -0.70780092098E+00  0.11835217239E+02  0.74318784798E+02  0.75258589032E+02  0.10000000000E-01 0.  1.
</event>
<event>
 5    1  0.3934322E-009  0.3883010E+03  0.7957747E-01  0.3415792E+00
         13   -1    0    0    0    0  0.00000000000E+00  0.00000000000E+00  0.14999999963E+04  0.15000000000E+04  0.10566000000E+00 0. -1.
        994   -1    0    0    0    0 -0.00000000000E+00 -0.00000000000E+00  0.11368683772E-12  0.17120000000E+03  0.17120000000E+03 0.  0.
         13    1    1    2    0    0  0.31357921485E+00 -0.25540866536E+03  0.12379765283E+04  0.12640488837E+04  0.10566000000E+00 0. -1.
        994    1    1    2    0    0 -0.32456289526E+00  0.25669238855E+03  0.25578626388E+03  0.40078315892E+03  0.17120000000E+03 0.  0.
        998    1    1    2    0    0  0.10983680408E-01 -0.12837231983E+01  0.62372041014E+01  0.63679573565E+01  0.10000000000E-01 0.  1.
</event>
<event>
 5    1  0.3934322E-009  0.3882909E+03  0.7957747E-01  0.3415834E+00
         13   -1    0    0    0    0  0.00000000000E+00  0.00000000000E+00  0.14999999963E+04  0.15000000000E+04  0.10566000000E+00 0.  1.
        994   -1    0    0    0    0 -0.00000000000E+00 -0.00000000000E+00  0.11368683772E-12  0.17120000000E+03  0.17120000000E+03 0.  0.
         13    1    1    2    0    0  0.33163113020E+02  0.19102954278E+03  0.91437361726E+03  0.93470380409E+03  0.10566000000E+00 0.  1.
        994    1    1    2    0    0 -0.42957455235E+02 -0.25861250536E+03  0.26961900690E+03  0.41319440917E+03  0.17120000000E+03 0.  0.
        998    1    1    2    0    0  0.97943422147E+01  0.67582962588E+02  0.31600737212E+03  0.32330178674E+03  0.10000000000E-01 0.  1.
</event>
<event>
 5    1  0.3934322E-009  0.3882966E+03  0.7957747E-01  0.3415810E+00
         13   -1    0    0    0    0  0.00000000000E+00  0.00000000000E+00  0.14999999963E+04  0.15000000000E+04  0.10566000000E+00 0. -1.
        994   -1    0    0    0    0 -0.00000000000E+00 -0.00000000000E+00  0.11368683772E-12  0.17120000000E+03  0.17120000000E+03 0.  0.
         13    1    1    2    0    0  0.31805979482E+03 -0.82835596349E+02  0.87305782851E+03  0.93287392084E+03  0.10566000000E+00 0. -1.
        994    1    1    2    0    0 -0.32730274765E+03  0.85508530501E+02  0.60036461292E+03  0.71006049450E+03  0.17120000000E+03 0.  0.
        998    1    1    2    0    0  0.92429528330E+01 -0.26729341520E+01  0.26577554848E+02  0.28265584653E+02  0.10000000000E-01 0. -1.
</event>
<event>
 5    1  0.3934322E-009  0.3882995E+03  0.7957747E-01  0.3415798E+00
         13   -1    0    0    0    0  0.00000000000E+00  0.00000000000E+00  0.14999999963E+04  0.15000000000E+04  0.10566000000E+00 0.  1.
        994   -1    0    0    0    0 -0.00000000000E+00 -0.00000000000E+00  0.11368683772E-12  0.17120000000E+03  0.17120000000E+03 0.  0.
         13    1    1    2    0    0  0.19250151706E+03 -0.14373456889E+03  0.12718216877E+04  0.12943132839E+04  0.10566000000E+00 0.  1.
        994    1    1    2    0    0 -0.19356489922E+03  0.14449758336E+03  0.22065195775E+03  0.36924740794E+03  0.17120000000E+03 0.  0.
        998    1    1    2    0    0  0.10633821697E+01 -0.76301446903E+00  0.75263507817E+01  0.76393081367E+01  0.10000000000E-01 0. -1.
</event>
<event>
 5    1  0.3934322E-009  0.3883009E+03  0.7957747E-01  0.3415792E+00
         13   -1    0    0    0    0  0.00000000000E+00  0.00000000000E+00  0.14999999963E+04  0.15000000000E+04  0.10566000000E+00 0.  1.
        994   -1    0    0    0    0 -0.00000000000E+00 -0.00000000000E+00  0.11368683772E-12  0.17120000000E+03  0.17120000000E+03 0.  0.
         13    1    1    2    0    0 -0.74956869076E+02 -0.22983479442E+03  0.12769379663E+04  0.12996203853E+04  0.10566000000E+00 0.  1.
        994    1    1    2    0    0  0.75031353449E+02  0.23009206667E+03  0.22166708634E+03  0.37015915538E+03  0.17120000000E+03 0.  0.
        998    1    1    2    0    0 -0.74484373315E-01 -0.25727224086E+00  0.13949435983E+01  0.14204592814E+01  0.10000000000E-01 0.  0.
</event>
<event>
 5    1  0.3934322E-009  0.3882980E+03  0.7957747E-01  0.3415804E+00
         13   -1    0    0    0    0  0.00000000000E+00  0.00000000000E+00  0.14999999963E+04  0.15000000000E+04  0.10566000000E+00 0.  1.
        994   -1    0    0    0    0 -0.00000000000E+00 -0.00000000000E+00  0.11368683772E-12  0.17120000000E+03  0.17120000000E+03 0.  0.
         13    1    1    2    0    0  0.63952386911E+02  0.22463593007E+03  0.12837897800E+04  0.13048629887E+04  0.10566000000E+00 0.  1.
        994    1    1    2    0    0 -0.64229655693E+02 -0.22624278524E+03  0.20711223390E+03  0.35709405480E+03  0.17120000000E+03 0.  0.
        998    1    1    2    0    0  0.27726878171E+00  0.16068551695E+01  0.90979823544E+01  0.92429564769E+01  0.10000000000E-01 0.  1.
</event>
<event>
 5    1  0.3934322E-009  0.3855102E+03  0.7957747E-01  0.3427511E+00
         13   -1    0    0    0    0  0.00000000000E+00  0.00000000000E+00  0.14999999963E+04  0.15000000000E+04  0.10566000000E+00 0.  1.
        994   -1    0    0    0    0 -0.00000000000E+00 -0.00000000000E+00  0.11368683772E-12  0.17120000000E+03  0.17120000000E+03 0.  0.
         13    1    1    2    0    0 -0.27081006748E+03 -0.99516202881E+02  0.10856081877E+04  0.11232928005E+04  0.10566000000E+00 0.  1.
        994    1    1    2    0    0  0.28325801128E+03  0.94346637572E+02  0.39083273732E+03  0.52076487740E+03  0.17120000000E+03 0.  0.
        998    1    1    2    0    0 -0.12447943804E+02  0.51695653092E+01  0.23559071295E+02  0.27142322133E+02  0.10000000000E-01 0.  1.
</event>
<event>
 5    1  0.3934322E-009  0.3827506E+03  0.7957747E-01  0.3439268E+00
         13   -1    0    0    0    0  0.00000000000E+00  0.00000000000E+00  0.14999999963E+04  0.15000000000E+04  0.10566000000E+00 0.  1.
        994   -1    0    0    0    0 -0.00000000000E+00 -0.00000000000E+00  0.11368683772E-12  0.17120000000E+03  0.17120000000E+03 0.  0.
         13    1    1    2    0    0  0.14895608275E+02  0.29815767959E+02  0.63628702040E+02  0.71829534679E+02  0.10566000000E+00 0.  1.
        994    1    1    2    0    0  0.32277137012E+02 -0.28717549769E+03  0.36296194485E+03  0.49453249990E+03  0.17120000000E+03 0.  0.
        998    1    1    2    0    0 -0.47172745287E+02  0.25735972973E+03  0.10734093494E+04  0.11048379654E+04  0.10000000000E-01 0.  1.
</event>
<event>
 5    1  0.3934322E-009  0.3883010E+03  0.7957747E-01  0.3415792E+00
         13   -1    0    0    0    0  0.00000000000E+00  0.00000000000E+00  0.14999999963E+04  0.15000000000E+04  0.10566000000E+00 0.  1.
        994   -1    0    0    0    0 -0.00000000000E+00 -0.00000000000E+00  0.11368683772E-12  0.17120000000E+03  0.17120000000E+03 0.  0.
         13    1    1    2    0    0 -0.10761701008E+03  0.16164417319E+03  0.11451332230E+04  0.11614819711E+04  0.10566000000E+00 0.  1.
        994    1    1    2    0    0  0.12377122778E+03 -0.18580786802E+03  0.18348057057E+03  0.33588456413E+03  0.17120000000E+03 0.  0.
        998    1    1    2    0    0 -0.16154217701E+02  0.24163694829E+02  0.17138620268E+03  0.17383346474E+03  0.10000000000E-01 0.  1.
</event>
<event>
 5    1  0.3934322E-009  0.3882911E+03  0.7957747E-01  0.3415833E+00
         13   -1    0    0    0    0  0.00000000000E+00  0.00000000000E+00  0.14999999963E+04  0.15000000000E+04  0.10566000000E+00 0. -1.
        994   -1    0    0    0    0 -0.00000000000E+00 -0.00000000000E+00  0.11368683772E-12  0.17120000000E+03  0.17120000000E+03 0.  0.
         13    1    1    2    0    0 -0.62810199898E+02  0.21395260365E+03  0.13086594023E+04  0.13275203502E+04  0.10566000000E+00 0. -1.
        994    1    1    2    0    0  0.63008366425E+02 -0.21480453631E+03  0.18462609387E+03  0.33690841129E+03  0.17120000000E+03 0.  0.
        998    1    1    2    0    0 -0.19816652746E+00  0.85193265456E+00  0.67145000770E+01  0.67712384764E+01  0.10000000000E-01 0.  1.
</event>
<event>
 5    1  0.3934322E-009  0.3883002E+03  0.7957747E-01  0.3415795E+00
         13   -1    0    0    0    0  0.00000000000E+00  0.00000000000E+00  0.14999999963E+04  0.15000000000E+04  0.10566000000E+00 0.  1.
        994   -1    0    0    0    0 -0.00000000000E+00 -0.00000000000E+00  0.11368683772E-12  0.17120000000E+03  0.17120000000E+03 0.  0.
         13    1    1    2    0    0 -0.33217569144E+02 -0.17409953956E+03  0.10714241813E+04  0.10859851951E+04  0.10566000000E+00 0.  1.
        994    1    1    2    0    0  0.41567738998E+02  0.21518186690E+03  0.17584796613E+03  0.32903352407E+03  0.17120000000E+03 0.  0.
        998    1    1    2    0    0 -0.83501698539E+01 -0.41082327344E+02  0.25272784889E+03  0.25618128085E+03  0.10000000000E-01 0.  1.
</event>
<event>
 5    1  0.3934322E-009  0.3883009E+03  0.7957747E-01  0.3415792E+00
         13   -1    0    0    0    0  0.00000000000E+00  0.00000000000E+00  0.14999999963E+04  0.15000000000E+04  0.10566000000E+00 0. -1.
        994   -1    0    0    0    0 -0.00000000000E+00 -0.00000000000E+00  0.11368683772E-12  0.17120000000E+03  0.17120000000E+03 0.  0.
         13    1    1    2    0    0  0.39839908684E+02 -0.24572374126E+03  0.11857036056E+04  0.12115528989E+04  0.10566000000E+00 0. -1.
        994    1    1    2    0    0 -0.41506425456E+02  0.25629314826E+03  0.26313854297E+03  0.40738224556E+03  0.17120000000E+03 0.  0.
        998    1    1    2    0    0  0.16665167724E+01 -0.10569406996E+02  0.51157847678E+02  0.52264855510E+02  0.10000000000E-01 0. -1.
</event>
<event>
 5    1  0.3934322E-009  0.3883002E+03  0.7957747E-01  0.3415795E+00
         13   -1    0    0    0    0  0.00000000000E+00  0.00000000000E+00  0.14999999963E+04  0.15000000000E+04  0.10566000000E+00 0. -1.
        994   -1    0    0    0    0 -0.00000000000E+00 -0.00000000000E+00  0.11368683772E-12  0.17120000000E+03  0.17120000000E+03 0.  0.
         13    1    1    2    0    0  0.93932071852E+02  0.22335171774E+03  0.12728667490E+04  0.12957233485E+04  0.10566000000E+00 0. -1.
        994    1    1    2    0    0 -0.94219851242E+02 -0.22397511216E+03  0.22379819105E+03  0.37207163498E+03  0.17120000000E+03 0.  0.
        998    1    1    2    0    0  0.28777938936E+00  0.62339442218E+00  0.33350562245E+01  0.34050165350E+01  0.10000000000E-01 0.  1.
</event>
<event>
 5    1  0.3934322E-009  0.3883009E+03  0.7957747E-01  0.3415792E+00
         13   -1    0    0    0    0  0.00000000000E+00  0.00000000000E+00  0.14999999963E+04  0.15000000000E+04  0.10566000000E+00 0. -1.
        994   -1    0    0    0    0 -0.00000000000E+00 -0.00000000000E+00  0.11368683772E-12  0.17120000000E+03  0.17120000000E+03 0.  0.
         13    1    1    2    0    0 -0.32350655983E+03 -0.60008921160E+02  0.77374094674E+03  0.84079285719E+03  0.10566000000E+00 0. -1.
        994    1    1    2    0    0  0.33976254945E+03  0.62990285123E+02  0.68750064949E+03  0.78827212882E+03  0.17120000000E+03 0.  0.
        998    1    1    2    0    0 -0.16255989621E+02 -0.29813639625E+01  0.38758400050E+02  0.42135013991E+02  0.10000000000E-01 0.  1.
</event>
<event>
 5    1  0.3934322E-009  0.3882718E+03  0.7957747E-01  0.3415914E+00
         13   -1    0    0    0    0  0.00000000000E+00  0.00000000000E+00  0.14999999963E+04  0.15000000000E+04  0.10566000000E+00 0. -1.
        994   -1    0    0    0    0 -0.00000000000E+00 -0.00000000000E+00  0.11368683772E-12  0.17120000000E+03  0.17120000000E+03 0.  0.
         13    1    1    2    0    0  0.25116393201E+03  0.19141155428E+03  0.10035723663E+04  0.10520832711E+04  0.10566000000E+00 0. -1.
        994    1    1    2    0    0 -0.25514655085E+03 -0.19471356209E+03  0.48249722426E+03  0.60425668808E+03  0.17120000000E+03 0.  0.
        998    1    1    2    0    0  0.39826188386E+01  0.33020078126E+01  0.13930405757E+02  0.14860040813E+02  0.10000000000E-01 0. -1.
</event>
<event>
 5    1  0.3934322E-009  0.3882884E+03  0.7957747E-01  0.3415844E+00
         13   -1    0    0    0    0  0.00000000000E+00  0.00000000000E+00  0.14999999963E+04  0.15000000000E+04  0.10566000000E+00 0.  1.
        994   -1    0    0    0    0 -0.00000000000E+00 -0.00000000000E+00  0.11368683772E-12  0.17120000000E+03  0.17120000000E+03 0.  0.
         13    1    1    2    0    0  0.26751327918E+03  0.48552769988E+02  0.11776396266E+04  0.12086173205E+04  0.10566000000E+00 0.  1.
        994    1    1    2    0    0 -0.27116268487E+03 -0.49671343284E+02  0.30686072877E+03  0.44661996246E+03  0.17120000000E+03 0.  0.
        998    1    1    2    0    0  0.36494056931E+01  0.11185732960E+01  0.15499640874E+02  0.15962717042E+02  0.10000000000E-01 0. -1.
</event>
<event>
 5    1  0.3934322E-009  0.3883004E+03  0.7957747E-01  0.3415794E+00
         13   -1    0    0    0    0  0.00000000000E+00  0.00000000000E+00  0.14999999963E+04  0.15000000000E+04  0.10566000000E+00 0. -1.
        994   -1    0    0    0    0 -0.00000000000E+00 -0.00000000000E+00  0.11368683772E-12  0.17120000000E+03  0.17120000000E+03 0.  0.
         13    1    1    2    0    0  0.23378257079E+03 -0.27062343189E+02  0.12826135530E+04  0.13040261494E+04  0.10566000000E+00 0. -1.
        994    1    1    2    0    0 -0.23513033165E+03  0.27164279821E+02  0.21026074615E+03  0.35992109181E+03  0.17120000000E+03 0.  0.
        998    1    1    2    0    0  0.13477608544E+01 -0.10193663219E+00  0.71256970884E+01  0.72527587436E+01  0.10000000000E-01 0.  1.
</event>
<event>
 5    1  0.3934322E-009  0.3883010E+03  0.7957747E-01  0.3415792E+00
         13   -1    0    0    0    0  0.00000000000E+00  0.00000000000E+00  0.14999999963E+04  0.15000000000E+04  0.10566000000E+00 0. -1.
        994   -1    0    0    0    0 -0.00000000000E+00 -0.00000000000E+00  0.11368683772E-12  0.17120000000E+03  0.17120000000E+03 0.  0.
         13    1    1    2    0    0 -0.90289148564E+02  0.11519838650E+03  0.80846765015E+03  0.82160985334E+03  0.10566000000E+00 0. -1.
        994    1    1    2    0    0  0.14461509673E+03 -0.18445325812E+03  0.20545827147E+03  0.35561084340E+03  0.17120000000E+03 0.  0.
        998    1    1    2    0    0 -0.54325948169E+02  0.69254871617E+02  0.48607407466E+03  0.49397930325E+03  0.10000000000E-01 0. -1.
</event>
<event>
 5    1  0.3934322E-009  0.3883009E+03  0.7957747E-01  0.3415792E+00
         13   -1    0    0    0    0  0.00000000000E+00  0.00000000000E+00  0.14999999963E+04  0.15000000000E+04  0.10566000000E+00 0.  1.
        994   -1    0    0    0    0 -0.00000000000E+00 -0.00000000000E+00  0.11368683772E-12  0.17120000000E+03  0.17120000000E+03 0.  0.
         13    1    1    2    0    0 -0.60098467814E+02  0.23782091450E+03  0.12681766654E+04  0.12916821122E+04  0.10566000000E+00 0.  1.
        994    1    1    2    0    0  0.60200862701E+02 -0.23820239505E+03  0.22983100761E+03  0.37748676392E+03  0.17120000000E+03 0.  0.
        998    1    1    2    0    0 -0.10239488644E+00  0.38148054926E+00  0.19923232402E+01  0.20311238307E+01  0.10000000000E-01 0.  1.
</event>
<event>
 5    1  0.3934322E-009  0.3881996E+03  0.7957747E-01  0.3416215E+00
         13   -1    0    0    0    0  0.00000000000E+00  0.00000000000E+00  0.14999999963E+04  0.15000000000E+04  0.10566000000E+00 0. -1.
        994   -1    0    0    0    0 -0.00000000000E+00 -0.00000000000E+00  0.11368683772E-12  0.17120000000E+03  0.17120000000E+03 0.  0.
         13    1    1    2    0    0  0.11040641153E+03 -0.23489539778E+03  0.12316193463E+04  0.12586705879E+04  0.10566000000E+00 0. -1.
        994    1    1    2    0    0 -0.11108956348E+03  0.23505022369E+03  0.26419807983E+03  0.40828857951E+03  0.17120000000E+03 0.  0.
        998    1    1    2    0    0  0.68315194625E+00 -0.15482591033E+00  0.41825701735E+01  0.42408325716E+01  0.10000000000E-01 0. -1.
</event>
<event>
 5    1  0.3934322E-009  0.3883007E+03  0.7957747E-01  0.3415793E+00
         13   -1    0    0    0    0  0.00000000000E+00  0.00000000000E+00  0.14999999963E+04  0.15000000000E+04  0.10566000000E+00 0.  1.
        994   -1    0    0    0    0 -0.00000000000E+00 -0.00000000000E+00  0.11368683772E-12  0.17120000000E+03  0.17120000000E+03 0.  0.
         13    1    1    2    0    0 -0.19706501186E+03  0.92396093882E+02  0.12215978460E+04  0.12408355917E+04  0.10566000000E+00 0.  1.
        994    1    1    2    0    0  0.20970292154E+03 -0.98200477360E+02  0.19969278983E+03  0.35043587055E+03  0.17120000000E+03 0.  0.
        998    1    1    2    0    0 -0.12637909680E+02  0.58043834776E+01  0.78709360401E+02  0.79928537728E+02  0.10000000000E-01 0.  1.
</event>
<event>
 5    1  0.3934322E-009  0.3866228E+03  0.7957747E-01  0.3422819E+00
         13   -1    0    0    0    0  0.00000000000E+00  0.00000000000E+00  0.14999999963E+04  0.15000000000E+04  0.10566000000E+00 0.  1.
        994   -1    0    0    0    0 -0.00000000000E+00 -0.00000000000E+00  0.11368683772E-12  0.17120000000E+03  0.17120000000E+03 0.  0.
         13    1    1    2    0    0 -0.44502370696E+02  0.76950016930E+01  0.25257606012E+03  0.25658205580E+03  0.10566000000E+00 0.  1.
        994    1    1    2    0    0  0.16654825307E+03  0.27691579052E+02  0.10038283542E+03  0.26055958589E+03  0.17120000000E+03 0.  0.
        998    1    1    2    0    0 -0.12204588238E+03 -0.35386580745E+02  0.11470411007E+04  0.11540583583E+04  0.10000000000E-01 0.  1.
</event>
<event>
 5    1  0.3934322E-009  0.3883002E+03  0.7957747E-01  0.3415795E+00
         13   -1    0    0    0    0  0.00000000000E+00  0.00000000000E+00  0.14999999963E+04  0.15000000000E+04  0.10566000000E+00 0. -1.
        994   -1    0    0    0    0 -0.00000000000E+00 -0.00000000000E+00  0.11368683772E-12  0.17120000000E+03  0.17120000000E+03 0.  0.
         13    1    1    2    0    0  0.12321322426E+03 -0.17998441612E+03  0.13102888729E+04  0.13283195512E+04  0.10566000000E+00 0. -1.
        994    1    1    2    0    0 -0.12428294794E+03  0.18159464168E+03  0.17748961030E+03  0.33050698450E+03  0.17120000000E+03 0.  0.
        998    1    1    2    0    0  0.10697236847E+01 -0.16102255628E+01  0.12221513115E+02  0.12373464266E+02  0.10000000000E-01 0. -1.
</event>
<event>
 5    1  0.3934322E-009  0.3882925E+03  0.7957747E-01  0.3415827E+00
         13   -1    0    0    0    0  0.00000000000E+00  0.00000000000E+00  0.14999999963E+04  0.15000000000E+04  0.10566000000E+00 0.  1.
        994   -1    0    0    0    0 -0.00000000000E+00 -0.00000000000E+00  0.11368683772E-12  0.17120000000E+03  0.17120000000E+03 0.  0.
         13    1    1    2    0    0  0.15549150665E+03  0.17063974814E+03  0.12769450335E+04  0.12976456227E+04  0.10566000000E+00 0.  1.
        994    1    1    2    0    0 -0.15794490841E+03 -0.17324501951E+03  0.20557511193E+03  0.35571195864E+03  0.17120000000E+03 0.  0.
        998    1    1    2    0    0  0.24534017601E+01  0.26052713694E+01  0.17479850855E+02  0.17842418699E+02  0.10000000000E-01 0.  1.
</event>
<event>
 5    1  0.3934322E-009  0.3882260E+03  0.7957747E-01  0.3416104E+00
         13   -1    0    0    0    0  0.00000000000E+00  0.00000000000E+00  0.14999999963E+04  0.15000000000E+04  0.10566000000E+00 0.  1.
        994   -1    0    0    0    0 -0.00000000000E+00 -0.00000000000E+00  0.11368683772E-12  0.17120000000E+03  0.17120000000E+03 0.  0.
         13    1    1    2    0    0 -0.76349910172E+02  0.20192580069E+03  0.11087941274E+04  0.11296139898E+04  0.10566000000E+00 0.  1.
        994    1    1    2    0    0  0.83429741552E+02 -0.23175051061E+03  0.23134383352E+03  0.37881160259E+03  0.17120000000E+03 0.  0.
        998    1    1    2    0    0 -0.70798313802E+01  0.29824709922E+02  0.15986203534E+03  0.16277440762E+03  0.10000000000E-01 0. -1.
</event>
<event>
 5    1  0.3934322E-009  0.3882836E+03  0.7957747E-01  0.3415864E+00
         13   -1    0    0    0    0  0.00000000000E+00  0.00000000000E+00  0.14999999963E+04  0.15000000000E+04  0.10566000000E+00 0. -1.
        994   -1    0    0    0    0 -0.00000000000E+00 -0.00000000000E+00  0.11368683772E-12  0.17120000000E+03  0.17120000000E+03 0.  0.
         13    1    1    2    0    0 -0.22226439517E+03 -0.98879780691E+02  0.12590577543E+04  0.12823436015E+04  0.10566000000E+00 0. -1.
        994    1    1    2    0    0  0.22433450478E+03  0.99320978893E+02  0.22906009178E+03  0.37678719794E+03  0.17120000000E+03 0.  0.
        998    1    1    2    0    0 -0.20701096089E+01 -0.44119820128E+00  0.11882150193E+02  0.12069200589E+02  0.10000000000E-01 0.  1.
</event>
<event>
 5    1  0.3934322E-009  0.3882285E+03  0.7957747E-01  0.3416094E+00
         13   -1    0    0    0    0  0.00000000000E+00  0.00000000000E+00  0.14999999963E+04  0.15000000000E+04  0.10566000000E+00 0.  1.
        994   -1    0    0    0    0 -0.00000000000E+00 -0.00000000000E+00  0.11368683772E-12  0.17120000000E+03  0.17120000000E+03 0.  0.
         13    1    1    2    0    0  0.12728134884E+03 -0.22089027745E+03  0.12198108072E+04  0.12461667115E+04  0.10566000000E+00 0.  1.
        994    1    1    2    0    0 -0.12867041000E+03  0.22359530035E+03  0.25909466692E+03  0.40372071928E+03  0.17120000000E+03 0.  0.
        998    1    1    2    0    0  0.13890611532E+01 -0.27050228998E+01  0.21094522201E+02  0.21312569218E+02  0.10000000000E-01 0. -1.
</event>
<event>
 5    1  0.1028754E-008  0.3882970E+03  0.7957747E-01  0.3415809E+00
         13   -1    0    0    0    0  0.00000000000E+00  0.00000000000E+00  0.14999999963E+04  0.15000000000E+04  0.10566000000E+00 0.  1.
        994   -1    0    0    0    0 -0.00000000000E+00 -0.00000000000E+00  0.11368683772E-12  0.17120000000E+03  0.17120000000E+03 0.  0.
         13    1    1    2    0    0  0.12976030146E+03  0.30344380249E+03  0.96348200343E+03  0.10184367723E+04  0.10566000000E+00 0.  1.
        994    1    1    2    0    0 -0.12976801689E+03 -0.30345630493E+03  0.53649680082E+03  0.65273557012E+03  0.17120000000E+03 0.  0.
        998    1    1    2    0    0  0.77154295853E-02  0.12502438559E-01  0.21192033034E-01  0.27657568363E-01  0.10000000000E-01 0. -1.
</event>
<event>
 5    1  0.3934322E-009  0.3882653E+03  0.7957747E-01  0.3415940E+00
         13   -1    0    0    0    0  0.00000000000E+00  0.00000000000E+00  0.14999999963E+04  0.15000000000E+04  0.10566000000E+00 0. -1.
        994   -1    0    0    0    0 -0.00000000000E+00 -0.00000000000E+00  0.11368683772E-12  0.17120000000E+03  0.17120000000E+03 0.  0.
         13    1    1    2    0    0 -0.76042240397E+02  0.20615647639E+03  0.13201000094E+04  0.13382626652E+04  0.10566000000E+00 0. -1.
        994    1    1    2    0    0  0.76039332422E+02 -0.20672452178E+03  0.17792745494E+03  0.33088461313E+03  0.17120000000E+03 0.  0.
        998    1    1    2    0    0  0.29079753019E-02  0.56804539922E+00  0.19725319100E+01  0.20527216489E+01  0.10000000000E-01 0. -1.
</event>
<event>
 5    1  0.3934322E-009  0.3882964E+03  0.7957747E-01  0.3415811E+00
         13   -1    0    0    0    0  0.00000000000E+00  0.00000000000E+00  0.14999999963E+04  0.15000000000E+04  0.10566000000E+00 0.  1.
        994   -1    0    0    0    0 -0.00000000000E+00 -0.00000000000E+00  0.11368683772E-12  0.17120000000E+03  0.17120000000E+03 0.  0.
         13    1    1    2    0    0 -0.16573426712E+03 -0.15459569590E+03  0.13062511605E+04  0.13257676198E+04  0.10566000000E+00 0.  1.
        994    1    1    2    0    0  0.16619549890E+03  0.15488803754E+03  0.19102241606E+03  0.34265179332E+03  0.17120000000E+03 0.  0.
        998    1    1    2    0    0 -0.46123177814E+00 -0.29234164486E+00  0.27264197646E+01  0.27805868308E+01  0.10000000000E-01 0. -1.
</event>
<event>
 5    1  0.3934322E-009  0.3883009E+03  0.7957747E-01  0.3415792E+00
         13   -1    0    0    0    0  0.00000000000E+00  0.00000000000E+00  0.14999999963E+04  0.15000000000E+04  0.10566000000E+00 0.  1.
        994   -1    0    0    0    0 -0.00000000000E+00 -0.00000000000E+00  0.11368683772E-12  0.17120000000E+03  0.17120000000E+03 0.  0.
         13    1    1    2    0    0 -0.33544586263E+02 -0.11456761819E+03  0.55407463828E+03  0.56678893281E+03  0.10566000000E+00 0.  1.
        994    1    1    2    0    0  0.73827150570E+02  0.25346101947E+03  0.27439897017E+03  0.41748912727E+03  0.17120000000E+03 0.  0.
        998    1    1    2    0    0 -0.40282564307E+02 -0.13889340128E+03  0.67152638783E+03  0.68692193993E+03  0.10000000000E-01 0. -1.
</event>
<event>
 5    1  0.3934322E-009  0.3873765E+03  0.7957747E-01  0.3419655E+00
         13   -1    0    0    0    0  0.00000000000E+00  0.00000000000E+00  0.14999999963E+04  0.15000000000E+04  0.10566000000E+00 0. -1.
        994   -1    0    0    0    0 -0.00000000000E+00 -0.00000000000E+00  0.11368683772E-12  0.17120000000E+03  0.17120000000E+03 0.  0.
         13    1    1    2    0    0 -0.10912442445E+03 -0.73847101294E+00  0.31642505827E+03  0.33471407801E+03  0.10566000000E+00 0. -1.
        994    1    1    2    0    0  0.31015050743E+03  0.18368283677E+02  0.43562309094E+03  0.56178968348E+03  0.17120000000E+03 0.  0.
        998    1    1    2    0    0 -0.20102608298E+03 -0.17629812664E+02  0.74795184707E+03  0.77469623851E+03  0.10000000000E-01 0. -1.
</event>
<event>
 5    1  0.3934322E-009  0.3883009E+03  0.7957747E-01  0.3415792E+00
         13   -1    0    0    0    0  0.00000000000E+00  0.00000000000E+00  0.14999999963E+04  0.15000000000E+04  0.10566000000E+00 0. -1.
        994   -1    0    0    0    0 -0.00000000000E+00 -0.00000000000E+00  0.11368683772E-12  0.17120000000E+03  0.17120000000E+03 0.  0.
         13    1    1    2    0    0 -0.22864172665E+01 -0.29767107964E+03  0.11179143489E+04  0.11568689649E+04  0.10566000000E+00 0. -1.
        994    1    1    2    0    0  0.22895413478E+01  0.29803065353E+03  0.38071553937E+03  0.51291449030E+03  0.17120000000E+03 0.  0.
        998    1    1    2    0    0 -0.31240812439E-02 -0.35957389166E+00  0.13701080302E+01  0.14165447956E+01  0.10000000000E-01 0.  0.
</event>
<event>
 5    1  0.3934322E-009  0.3891119E+03  0.7957747E-01  0.3412418E+00
         13   -1    0    0    0    0  0.00000000000E+00  0.00000000000E+00  0.14999999963E+04  0.15000000000E+04  0.10566000000E+00 0.  1.
        994   -1    0    0    0    0 -0.00000000000E+00 -0.00000000000E+00  0.11368683772E-12  0.17120000000E+03  0.17120000000E+03 0.  0.
         13    1    1    2    0    0  0.59466689583E+02  0.52437653034E+02  0.33091870120E+03  0.34028398815E+03  0.10566000000E+00 0.  1.
        994    1    1    2    0    0  0.67242294328E+02  0.79316928066E+02  0.63214701233E+02  0.21004342331E+03  0.17120000000E+03 0.  0.
        998    1    1    2    0    0 -0.12670898391E+03 -0.13175458110E+03  0.11058665938E+04  0.11208725885E+04  0.10000000000E-01 0.  1.
</event>
<event>
 5    1  0.3934322E-009  0.3846909E+03  0.7957747E-01  0.3430984E+00
         13   -1    0    0    0    0  0.00000000000E+00  0.00000000000E+00  0.14999999963E+04  0.15000000000E+04  0.10566000000E+00 0.  1.
        994   -1    0    0    0    0 -0.00000000000E+00 -0.00000000000E+00  0.11368683772E-12  0.17120000000E+03  0.17120000000E+03 0.  0.
         13    1    1    2    0    0  0.20549588854E+03  0.39677857424E+02  0.10898516073E+04  0.11097654841E+04  0.10566000000E+00 0.  1.
        994    1    1    2    0    0 -0.21562884622E+03 -0.56906740154E+02  0.18759967108E+03  0.33799001907E+03  0.17120000000E+03 0.  0.
        998    1    1    2    0    0  0.10132957683E+02  0.17228882729E+02  0.22254871793E+03  0.22344449687E+03  0.10000000000E-01 0.  1.
</event>
<event>
 5    1  0.3934322E-009  0.3868698E+03  0.7957747E-01  0.3421781E+00
         13   -1    0    0    0    0  0.00000000000E+00  0.00000000000E+00  0.14999999963E+04  0.15000000000E+04  0.10566000000E+00 0.  1.
        994   -1    0    0    0    0 -0.00000000000E+00 -0.00000000000E+00  0.11368683772E-12  0.17120000000E+03  0.17120000000E+03 0.  0.
         13    1    1    2    0    0  0.12483286065E+03  0.74119322528E+02  0.64206855958E+03  0.65827726942E+03  0.10566000000E+00 0.  1.
        994    1    1    2    0    0 -0.23737123649E+03 -0.16953174991E+03  0.36160100334E+03  0.49512709858E+03  0.17120000000E+03 0.  0.
        998    1    1    2    0    0  0.11253837584E+03  0.95412427378E+02  0.49633043336E+03  0.51779563200E+03  0.10000000000E-01 0.  1.
</event>
<event>
 5    1  0.3934322E-009  0.3882965E+03  0.7957747E-01  0.3415811E+00
         13   -1    0    0    0    0  0.00000000000E+00  0.00000000000E+00  0.14999999963E+04  0.15000000000E+04  0.10566000000E+00 0.  1.
        994   -1    0    0    0    0 -0.00000000000E+00 -0.00000000000E+00  0.11368683772E-12  0.17120000000E+03  0.17120000000E+03 0.  0.
         13    1    1    2    0    0 -0.43527488417E+02  0.24711975884E+03  0.11991946112E+04  0.12251655170E+04  0.10566000000E+00 0.  1.
        994    1    1    2    0    0  0.45211506380E+02 -0.25487871105E+03  0.26119048028E+03  0.40563178456E+03  0.17120000000E+03 0.  0.
        998    1    1    2    0    0 -0.16840179629E+01  0.77589522098E+01  0.39614904829E+02  0.40402698431E+02  0.10000000000E-01 0. -1.
</event>
<event>
 5    1  0.3934322E-009  0.3882955E+03  0.7957747E-01  0.3415815E+00
         13   -1    0    0    0    0  0.00000000000E+00  0.00000000000E+00  0.14999999963E+04  0.15000000000E+04  0.10566000000E+00 0. -1.
        994   -1    0    0    0    0 -0.00000000000E+00 -0.00000000000E+00  0.11368683772E-12  0.17120000000E+03  0.17120000000E+03 0.  0.
         13    1    1    2    0    0 -0.26612853498E+03 -0.11918872120E+03  0.11407692860E+04  0.11774484802E+04  0.10566000000E+00 0. -1.
        994    1    1    2    0    0  0.26628315100E+03  0.11930037791E+03  0.35819789653E+03  0.49270119723E+03  0.17120000000E+03 0.  0.
        998    1    1    2    0    0 -0.15461601621E+00 -0.11165671283E+00  0.10328137561E+01  0.10503226117E+01  0.10000000000E-01 0. -1.
</event>
<event>
 5    1  0.3934322E-009  0.3860312E+03  0.7957747E-01  0.3425311E+00
         13   -1    0    0    0    0  0.00000000000E+00  0.00000000000E+00  0.14999999963E+04  0.15000000000E+04  0.10566000000E+00 0.  1.
        994   -1    0    0    0    0 -0.00000000000E+00 -0.00000000000E+00  0.11368683772E-12  0.17120000000E+03  0.17120000000E+03 0.  0.
         13    1    1    2    0    0  0.99924703033E+02 -0.10539480851E+03  0.59026275565E+03  0.60786770256E+03  0.10566000000E+00 0.  1.
        994    1    1    2    0    0 -0.16365666347E+03  0.18675399778E+03  0.23939886781E+03  0.38507378136E+03  0.17120000000E+03 0.  0.
        998    1    1    2    0    0  0.63731960439E+02 -0.81359189274E+02  0.67033837282E+03  0.67825851608E+03  0.10000000000E-01 0.  1.
</event>
<event>
 5    1  0.3934322E-009  0.3883010E+03  0.7957747E-01  0.3415792E+00
         13   -1    0    0    0    0  0.00000000000E+00  0.00000000000E+00  0.14999999963E+04  0.15000000000E+04  0.10566000000E+00 0.  1.
        994   -1    0    0    0    0 -0.00000000000E+00 -0.00000000000E+00  0.11368683772E-12  0.17120000000E+03  0.17120000000E+03 0.  0.
         13    1    1    2    0    0 -0.21792412495E+03 -0.58590092777E+02  0.12865999659E+04  0.13062401029E+04  0.10566000000E+00 0.  1.
        994    1    1    2    0    0  0.22112599228E+03  0.59447369159E+02  0.19454285130E+03  0.34581361331E+03  0.17120000000E+03 0.  0.
        998    1    1    2    0    0 -0.32018673293E+01 -0.85727638279E+00  0.18857179117E+02  0.19146283750E+02  0.10000000000E-01 0.  0.
</event>
<event>
 5    1  0.3934322E-009  0.3883010E+03  0.7957747E-01  0.3415792E+00
         13   -1    0    0    0    0  0.00000000000E+00  0.00000000000E+00  0.14999999963E+04  0.15000000000E+04  0.10566000000E+00 0.  1.
        994   -1    0    0    0    0 -0.00000000000E+00 -0.00000000000E+00  0.11368683772E-12  0.17120000000E+03  0.17120000000E+03 0.  0.
         13    1    1    2    0    0 -0.18872500899E+03 -0.20712174450E+02  0.96580798344E+03  0.98429223060E+03  0.10566000000E+00 0.  1.
        994    1    1    2    0    0  0.24700071318E+03  0.27111194298E+02  0.23619741931E+03  0.38320103087E+03  0.17120000000E+03 0.  0.
        998    1    1    2    0    0 -0.58275704189E+02 -0.63990198478E+01  0.29799459353E+03  0.30370673853E+03  0.10000000000E-01 0. -1.
</event>
<event>
 5    1  0.3934322E-009  0.3882832E+03  0.7957747E-01  0.3415866E+00
         13   -1    0    0    0    0  0.00000000000E+00  0.00000000000E+00  0.14999999963E+04  0.15000000000E+04  0.10566000000E+00 0.  1.
        994   -1    0    0    0    0 -0.00000000000E+00 -0.00000000000E+00  0.11368683772E-12  0.17120000000E+03  0.17120000000E+03 0.  0.
         13    1    1    2    0    0 -0.13966380754E+03  0.17818636446E+03  0.12980125839E+04  0.13176088338E+04  0.10566000000E+00 0.  1.
        994    1    1    2    0    0  0.14042247716E+03 -0.17980247971E+03  0.19291407799E+03  0.34434384747E+03  0.17120000000E+03 0.  0.
        998    1    1    2    0    0 -0.75866961979E+00  0.16161152455E+01  0.90733343511E+01  0.92473187641E+01  0.10000000000E-01 0.  1.
</event>
<event>
 5    1  0.3934322E-009  0.3883005E+03  0.7957747E-01  0.3415794E+00
         13   -1    0    0    0    0  0.00000000000E+00  0.00000000000E+00  0.14999999963E+04  0.15000000000E+04  0.10566000000E+00 0. -1.
        994   -1    0    0    0    0 -0.00000000000E+00 -0.00000000000E+00  0.11368683772E-12  0.17120000000E+03  0.17120000000E+03 0.  0.
         13    1    1    2    0    0  0.17565882828E+03  0.37758699454E+02  0.61247362462E+03  0.63828339737E+03  0.10566000000E+00 0. -1.
        994    1    1    2    0    0 -0.30513306155E+03 -0.65121602288E+02  0.43823027576E+03  0.56453717586E+03  0.17120000000E+03 0.  0.
        998    1    1    2    0    0  0.12947423327E+03  0.27362902834E+02  0.44929609590E+03  0.46837942677E+03  0.10000000000E-01 0. -1.
</event>
<event>
 5    1  0.3934322E-009  0.3882976E+03  0.7957747E-01  0.3415806E+00
         13   -1    0    0    0    0  0.00000000000E+00  0.00000000000E+00  0.14999999963E+04  0.15000000000E+04  0.10566000000E+00 0.  1.
        994   -1    0    0    0    0 -0.00000000000E+00 -0.00000000000E+00  0.11368683772E-12  0.17120000000E+03  0.17120000000E+03 0.  0.
         13    1    1    2    0    0 -0.17460024270E+03  0.11425446349E+03  0.10581590201E+04  0.10785359754E+04  0.10566000000E+00 0.  1.
        994    1    1    2    0    0  0.20759122186E+03 -0.13635424054E+03  0.23593460299E+03  0.38296366824E+03  0.17120000000E+03 0.  0.
        998    1    1    2    0    0 -0.32990979152E+02  0.22099777051E+02  0.20590637319E+03  0.20970035639E+03  0.10000000000E-01 0.  1.
</event>
<event>
 5    1  0.3934322E-009  0.3883010E+03  0.7957747E-01  0.3415792E+00
         13   -1    0    0    0    0  0.00000000000E+00  0.00000000000E+00  0.14999999963E+04  0.15000000000E+04  0.10566000000E+00 0.  1.
        994   -1    0    0    0    0 -0.00000000000E+00 -0.00000000000E+00  0.11368683772E-12  0.17120000000E+03  0.17120000000E+03 0.  0.
         13    1    1    2    0    0  0.14464719121E+03 -0.24004247432E+03  0.11645523695E+04  0.11978002471E+04  0.10566000000E+00 0.  1.
        994    1    1    2    0    0 -0.14571709102E+03  0.24179641385E+03  0.32694329059E+03  0.46465076308E+03  0.17120000000E+03 0.  0.
        998    1    1    2    0    0  0.10698998033E+01 -0.17539395310E+01  0.85043361490E+01  0.87489898162E+01  0.10000000000E-01 0.  1.
</event>
<event>
 5    1  0.3934322E-009  0.3882997E+03  0.7957747E-01  0.3415797E+00
         13   -1    0    0    0    0  0.00000000000E+00  0.00000000000E+00  0.14999999963E+04  0.15000000000E+04  0.10566000000E+00 0.  1.
        994   -1    0    0    0    0 -0.00000000000E+00 -0.00000000000E+00  0.11368683772E-12  0.17120000000E+03  0.17120000000E+03 0.  0.
         13    1    1    2    0    0 -0.60990702893E+02 -0.21681308567E+03  0.13126013780E+04  0.13317845804E+04  0.10566000000E+00 0.  1.
        994    1    1    2    0    0  0.60989560134E+02  0.21683686390E+03  0.18728262354E+03  0.33929658571E+03  0.17120000000E+03 0.  0.
        998    1    1    2    0    0  0.11427591046E-02 -0.23778232870E-01  0.11599471292E+00  0.11883384906E+00  0.10000000000E-01 0.  0.
</event>
<event>
 5    1  0.3934322E-009  0.3882843E+03  0.7957747E-01  0.3415861E+00
         13   -1    0    0    0    0  0.00000000000E+00  0.00000000000E+00  0.14999999963E+04  0.15000000000E+04  0.10566000000E+00 0.  1.
        994   -1    0    0    0    0 -0.00000000000E+00 -0.00000000000E+00  0.11368683772E-12  0.17120000000E+03  0.17120000000E+03 0.  0.
         13    1    1    2    0    0 -0.20354852767E+03  0.48444255877E+02  0.11248839440E+04  0.11441777605E+04  0.10566000000E+00 0.  1.
        994    1    1    2    0    0  0.23284967947E+03 -0.57023452792E+02  0.21673214546E+03  0.36572244978E+03  0.17120000000E+03 0.  0.
        998    1    1    2    0    0 -0.29301151804E+02  0.85791969145E+01  0.15838390686E+03  0.16129978973E+03  0.10000000000E-01 0. -1.
</event>
<event>
 5    1  0.3934322E-009  0.3883009E+03  0.7957747E-01  0.3415792E+00
         13   -1    0    0    0    0  0.00000000000E+00  0.00000000000E+00  0.14999999963E+04  0.15000000000E+04  0.10566000000E+00 0. -1.
        994   -1    0    0    0    0 -0.00000000000E+00 -0.00000000000E+00  0.11368683772E-12  0.17120000000E+03  0.17120000000E+03 0.  0.
         13    1    1    2    0    0 -0.20223423372E+03 -0.19116631188E+03  0.10552585859E+04  0.10913358504E+04  0.10566000000E+00 0. -1.
        994    1    1    2    0    0  0.21558073064E+03  0.20376990531E+03  0.37553663789E+03  0.50826610366E+03  0.17120000000E+03 0.  0.
        998    1    1    2    0    0 -0.13346496913E+02 -0.12603593435E+02  0.69204772462E+02  0.71598045915E+02  0.10000000000E-01 0.  1.
</event>
<event>
 5    1  0.3934322E-009  0.3883010E+03  0.7957747E-01  0.3415792E+00
         13   -1    0    0    0    0  0.00000000000E+00  0.00000000000E+00  0.14999999963E+04  0.15000000000E+04  0.10566000000E+00 0.  1.
        994   -1    0    0    0    0 -0.00000000000E+00 -0.00000000000E+00  0.11368683772E-12  0.17120000000E+03  0.17120000000E+03 0.  0.
         13    1    1    2    0    0  0.20901875911E+03  0.95205579218E+02  0.12600474245E+04  0.12808093016E+04  0.10566000000E+00 0.  1.
        994    1    1    2    0    0 -0.21435212917E+03 -0.97633614963E+02  0.20784888828E+03  0.35775656305E+03  0.17120000000E+03 0.  0.
        998    1    1    2    0    0  0.53333700607E+01  0.24280357448E+01  0.32103683551E+02  0.32634135369E+02  0.10000000000E-01 0.  0.
</event>
<event>
 5    1  0.3934322E-009  0.3882989E+03  0.7957747E-01  0.3415801E+00
         13   -1    0    0    0    0  0.00000000000E+00  0.00000000000E+00  0.14999999963E+04  0.15000000000E+04  0.10566000000E+00 0.  1.
        994   -1    0    0    0    0 -0.00000000000E+00 -0.00000000000E+00  0.11368683772E-12  0.17120000000E+03  0.17120000000E+03 0.  0.
         13    1    1    2    0    0  0.21994559555E+03  0.16847394837E+03  0.11824045988E+04  0.12144299826E+04  0.10566000000E+00 0.  1.
        994    1    1    2    0    0 -0.22060452396E+03 -0.16903780298E+03  0.31349898584E+03  0.45258279789E+03  0.17120000000E+03 0.  0.
        998    1    1    2    0    0  0.65892841035E+00  0.56385460283E+00  0.40964116232E+01  0.41872194652E+01  0.10000000000E-01 0. -1.
</event>
<event>
 5    1  0.3934322E-009  0.3875105E+03  0.7957747E-01  0.3419094E+00
         13   -1    0    0    0    0  0.00000000000E+00  0.00000000000E+00  0.14999999963E+04  0.15000000000E+04  0.10566000000E+00 0. -1.
        994   -1    0    0    0    0 -0.00000000000E+00 -0.00000000000E+00  0.11368683772E-12  0.17120000000E+03  0.17120000000E+03 0.  0.
         13    1    1    2    0    0  0.69317077450E+02 -0.31201659468E+03  0.57761945475E+03  0.66015411705E+03  0.10566000000E+00 0. -1.
        994    1    1    2    0    0 -0.78891972434E+02  0.33745437429E+03  0.85122366517E+03  0.93487462592E+03  0.17120000000E+03 0.  0.
        998    1    1    2    0    0  0.95748949832E+01 -0.25437779610E+02  0.71156876353E+02  0.76171257031E+02  0.10000000000E-01 0.  1.
</event>
<event>
 5    1  0.3934322E-009  0.3882975E+03  0.7957747E-01  0.3415806E+00
         13   -1    0    0    0    0  0.00000000000E+00  0.00000000000E+00  0.14999999963E+04  0.15000000000E+04  0.10566000000E+00 0. -1.
        994   -1    0    0    0    0 -0.00000000000E+00 -0.00000000000E+00  0.11368683772E-12  0.17120000000E+03  0.17120000000E+03 0.  0.
         13    1    1    2    0    0  0.24049018785E+03  0.55355758475E+02  0.12649986037E+04  0.12888449359E+04  0.10566000000E+00 0. -1.
        994    1    1    2    0    0 -0.24090591338E+03 -0.55438126885E+02  0.23326240774E+03  0.38056515326E+03  0.17120000000E+03 0.  0.
        998    1    1    2    0    0  0.41572552920E+00  0.82368409678E-01  0.17389848727E+01  0.17899107961E+01  0.10000000000E-01 0. -1.
</event>
<event>
 5    1  0.3934322E-009  0.3835636E+03  0.7957747E-01  0.3435787E+00
         13   -1    0    0    0    0  0.00000000000E+00  0.00000000000E+00  0.14999999963E+04  0.15000000000E+04  0.10566000000E+00 0.  1.
        994   -1    0    0    0    0 -0.00000000000E+00 -0.00000000000E+00  0.11368683772E-12  0.17120000000E+03  0.17120000000E+03 0.  0.
         13    1    1    2    0    0 -0.27029794303E+03 -0.12494226111E+03  0.10962180630E+04  0.11359426039E+04  0.10566000000E+00 0.  1.
        994    1    1    2    0    0  0.27235541700E+03  0.12473306461E+03  0.40560241630E+03  0.53250217905E+03  0.17120000000E+03 0.  0.
        998    1    1    2    0    0 -0.20574739698E+01  0.20919649641E+00 -0.18204830319E+01  0.27552170114E+01  0.10000000000E-01 0. -1.
</event>
<event>
 5    1  0.3934322E-009  0.3879478E+03  0.7957747E-01  0.3417266E+00
         13   -1    0    0    0    0  0.00000000000E+00  0.00000000000E+00  0.14999999963E+04  0.15000000000E+04  0.10566000000E+00 0. -1.
        994   -1    0    0    0    0 -0.00000000000E+00 -0.00000000000E+00  0.11368683772E-12  0.17120000000E+03  0.17120000000E+03 0.  0.
         13    1    1    2    0    0  0.56641909372E+02  0.26449396255E+03  0.11365018118E+04  0.11682472946E+04  0.10566000000E+00 0. -1.
        994    1    1    2    0    0 -0.57701260485E+02 -0.27152464677E+03  0.31325606036E+03  0.45220998288E+03  0.17120000000E+03 0.  0.
        998    1    1    2    0    0  0.10593511126E+01  0.70306842149E+01  0.50242124159E+02  0.50742722486E+02  0.10000000000E-01 0. -1.
</event>
<event>
 5    1  0.3934322E-009  0.3882940E+03  0.7957747E-01  0.3415821E+00
         13   -1    0    0    0    0  0.00000000000E+00  0.00000000000E+00  0.14999999963E+04  0.15000000000E+04  0.10566000000E+00 0.  1.
        994   -1    0    0    0    0 -0.00000000000E+00 -0.00000000000E+00  0.11368683772E-12  0.17120000000E+03  0.17120000000E+03 0.  0.
         13    1    1    2    0    0 -0.11218227075E+03  0.19700611882E+03  0.95038687920E+03  0.97705245716E+03  0.10566000000E+00 0.  1.
        994    1    1    2    0    0  0.13994498340E+03 -0.24451269972E+03  0.32514300859E+03  0.46303182907E+03  0.17120000000E+03 0.  0.
        998    1    1    2    0    0 -0.27762712646E+02  0.47506580904E+02  0.22447010849E+03  0.23111571377E+03  0.10000000000E-01 0.  1.
</event>
<event>
 5    1  0.3934322E-009  0.3848401E+03  0.7957747E-01  0.3430350E+00
         13   -1    0    0    0    0  0.00000000000E+00  0.00000000000E+00  0.14999999963E+04  0.15000000000E+04  0.10566000000E+00 0. -1.
        994   -1    0    0    0    0 -0.00000000000E+00 -0.00000000000E+00  0.11368683772E-12  0.17120000000E+03  0.17120000000E+03 0.  0.
         13    1    1    2    0    0 -0.95600897293E+02 -0.22649636669E+01  0.46373248923E+03  0.47348969825E+03  0.10566000000E+00 0. -1.
        994    1    1    2    0    0  0.18302715236E+03  0.14714824340E+02  0.12188141874E+03  0.27906985647E+03  0.17120000000E+03 0.  0.
        998    1    1    2    0    0 -0.87426255065E+02 -0.12449860673E+02  0.91438608831E+03  0.91864044528E+03  0.10000000000E-01 0. -1.
</event>
<event>
 5    1  0.3934322E-009  0.3881830E+03  0.7957747E-01  0.3416284E+00
         13   -1    0    0    0    0  0.00000000000E+00  0.00000000000E+00  0.14999999963E+04  0.15000000000E+04  0.10566000000E+00 0. -1.
        994   -1    0    0    0    0 -0.00000000000E+00 -0.00000000000E+00  0.11368683772E-12  0.17120000000E+03  0.17120000000E+03 0.  0.
         13    1    1    2    0    0  0.15795249346E+03 -0.21003658468E+03  0.12051379561E+04  0.12334593068E+04  0.10566000000E+00 0. -1.
        994    1    1    2    0    0 -0.16058852583E+03  0.21142100542E+03  0.27859435125E+03  0.42120276437E+03  0.17120000000E+03 0.  0.
        998    1    1    2    0    0  0.26360323722E+01 -0.13844207428E+01  0.16267688913E+02  0.16537928832E+02  0.10000000000E-01 0. -1.
</event>
<event>
 5    1  0.3934322E-009  0.3883009E+03  0.7957747E-01  0.3415792E+00
         13   -1    0    0    0    0  0.00000000000E+00  0.00000000000E+00  0.14999999963E+04  0.15000000000E+04  0.10566000000E+00 0.  1.
        994   -1    0    0    0    0 -0.00000000000E+00 -0.00000000000E+00  0.11368683772E-12  0.17120000000E+03  0.17120000000E+03 0.  0.
         13    1    1    2    0    0  0.17931621292E+03  0.11365320817E+03  0.12494806671E+04  0.12673883796E+04  0.10566000000E+00 0.  1.
        994    1    1    2    0    0 -0.18886791798E+03 -0.11972634132E+03  0.18416577487E+03  0.33649956891E+03  0.17120000000E+03 0.  0.
        998    1    1    2    0    0  0.95517050581E+01  0.60731331458E+01  0.66353554268E+02  0.67312051519E+02  0.10000000000E-01 0.  1.
</event>
<event>
 5    1  0.3934322E-009  0.3882842E+03  0.7957747E-01  0.3415862E+00
         13   -1    0    0    0    0  0.00000000000E+00  0.00000000000E+00  0.14999999963E+04  0.15000000000E+04  0.10566000000E+00 0.  1.
        994   -1    0    0    0    0 -0.00000000000E+00 -0.00000000000E+00  0.11368683772E-12  0.17120000000E+03  0.17120000000E+03 0.  0.
         13    1    1    2    0    0 -0.66964727048E+02 -0.23479242006E+03  0.12703436518E+04  0.12935937384E+04  0.10566000000E+00 0.  1.
        994    1    1    2    0    0  0.67215431465E+02  0.23506791574E+03  0.22715736957E+03  0.37507965792E+03  0.17120000000E+03 0.  0.
        998    1    1    2    0    0 -0.25070441683E+00 -0.27549567514E+00  0.24989749172E+01  0.25266036904E+01  0.10000000000E-01 0.  1.
</event>
<event>
 5    1  0.3934322E-009  0.3883010E+03  0.7957747E-01  0.3415792E+00
         13   -1    0    0    0    0  0.00000000000E+00  0.00000000000E+00  0.14999999963E+04  0.15000000000E+04  0.10566000000E+00 0. -1.
        994   -1    0    0    0    0 -0.00000000000E+00 -0.00000000000E+00  0.11368683772E-12  0.17120000000E+03  0.17120000000E+03 0.  0.
         13    1    1    2    0    0 -0.19903800057E+03  0.11611456973E+02  0.11927427728E+04  0.12092916459E+04  0.10566000000E+00 0. -1.
        994    1    1    2    0    0  0.22041939101E+03 -0.12887849274E+02  0.17886625739E+03  0.33174294661E+03  0.17120000000E+03 0.  0.
        998    1    1    2    0    0 -0.21381390440E+02  0.12763923014E+01  0.12839096609E+03  0.13016540749E+03  0.10000000000E-01 0.  1.
</event>
<event>
 5    1  0.3934322E-009  0.3883009E+03  0.7957747E-01  0.3415792E+00
         13   -1    0    0    0    0  0.00000000000E+00  0.00000000000E+00  0.14999999963E+04  0.15000000000E+04  0.10566000000E+00 0. -1.
        994   -1    0    0    0    0 -0.00000000000E+00 -0.00000000000E+00  0.11368683772E-12  0.17120000000E+03  0.17120000000E+03 0.  0.
         13    1    1    2    0    0 -0.12724116142E+02  0.33975436514E+03  0.83469961204E+03  0.90128707151E+03  0.10566000000E+00 0. -1.
        994    1    1    2    0    0  0.12876452892E+02 -0.34325427138E+03  0.65671131560E+03  0.76063689754E+03  0.17120000000E+03 0.  0.
        998    1    1    2    0    0 -0.15233674967E+00  0.34999062384E+01  0.85890686409E+01  0.92760309552E+01  0.10000000000E-01 0. -1.
</event>
<event>
 5    1  0.3934322E-009  0.3882938E+03  0.7957747E-01  0.3415822E+00
         13   -1    0    0    0    0  0.00000000000E+00  0.00000000000E+00  0.14999999963E+04  0.15000000000E+04  0.10566000000E+00 0. -1.
        994   -1    0    0    0    0 -0.00000000000E+00 -0.00000000000E+00  0.11368683772E-12  0.17120000000E+03  0.17120000000E+03 0.  0.
         13    1    1    2    0    0  0.17276295519E+03  0.13679224733E+03  0.13209773717E+04  0.13392312665E+04  0.10566000000E+00 0. -1.
        994    1    1    2    0    0 -0.17278942705E+03 -0.13688708810E+03  0.17821702286E+03  0.33115707486E+03  0.17120000000E+03 0.  0.
        998    1    1    2    0    0  0.26471857772E-01  0.94840776801E-01  0.80560173724E+00  0.81165860510E+00  0.10000000000E-01 0.  1.
</event>
<event>
 5    1  0.3934322E-009  0.3883009E+03  0.7957747E-01  0.3415792E+00
         13   -1    0    0    0    0  0.00000000000E+00  0.00000000000E+00  0.14999999963E+04  0.15000000000E+04  0.10566000000E+00 0.  1.
        994   -1    0    0    0    0 -0.00000000000E+00 -0.00000000000E+00  0.11368683772E-12  0.17120000000E+03  0.17120000000E+03 0.  0.
         13    1    1    2    0    0 -0.17516271907E+03  0.21631796844E+03  0.11752089268E+04  0.12077216046E+04  0.10566000000E+00 0.  1.
        994    1    1    2    0    0  0.17601779368E+03 -0.21738486506E+03  0.31890875444E+03  0.45743926035E+03  0.17120000000E+03 0.  0.
        998    1    1    2    0    0 -0.85507460571E+00  0.10668966201E+01  0.58823150768E+01  0.60391350077E+01  0.10000000000E-01 0. -1.
</event>
<event>
 5    1  0.3934322E-009  0.3830236E+03  0.7957747E-01  0.3438098E+00
         13   -1    0    0    0    0  0.00000000000E+00  0.00000000000E+00  0.14999999963E+04  0.15000000000E+04  0.10566000000E+00 0. -1.
        994   -1    0    0    0    0 -0.00000000000E+00 -0.00000000000E+00  0.11368683772E-12  0.17120000000E+03  0.17120000000E+03 0.  0.
         13    1    1    2    0    0 -0.43893441941E+02 -0.18876855724E+03  0.70557362325E+03  0.73170646535E+03  0.10566000000E+00 0. -1.
        994    1    1    2    0    0  0.31798516684E+02  0.26261398915E+03  0.28583643678E+03  0.42542820963E+03  0.17120000000E+03 0.  0.
        998    1    1    2    0    0  0.12094925257E+02 -0.73845431908E+02  0.50858993625E+03  0.51406532501E+03  0.10000000000E-01 0. -1.
</event>
<event>
 5    1  0.3934322E-009  0.3854555E+03  0.7957747E-01  0.3427743E+00
         13   -1    0    0    0    0  0.00000000000E+00  0.00000000000E+00  0.14999999963E+04  0.15000000000E+04  0.10566000000E+00 0.  1.
        994   -1    0    0    0    0 -0.00000000000E+00 -0.00000000000E+00  0.11368683772E-12  0.17120000000E+03  0.17120000000E+03 0.  0.
         13    1    1    2    0    0 -0.22629987613E+03 -0.91245504299E+02  0.16953287921E+03  0.29711745874E+03  0.10566000000E+00 0.  1.
        994    1    1    2    0    0  0.24417581909E+03  0.81550660623E+02  0.13068268958E+04  0.13428992206E+04  0.17120000000E+03 0.  0.
        998    1    1    2    0    0 -0.17875942960E+02  0.96948436759E+01  0.23640221219E+02  0.31183320700E+02  0.10000000000E-01 0. -1.
</event>
<event>
 5    1  0.3934322E-009  0.3879736E+03  0.7957747E-01  0.3417158E+00
         13   -1    0    0    0    0  0.00000000000E+00  0.00000000000E+00  0.14999999963E+04  0.15000000000E+04  0.10566000000E+00 0.  1.
        994   -1    0    0    0    0 -0.00000000000E+00 -0.00000000000E+00  0.11368683772E-12  0.17120000000E+03  0.17120000000E+03 0.  0.
         13    1    1    2    0    0  0.83590272710E+02 -0.25760201598E+03  0.11954255450E+04  0.12257195344E+04  0.10566000000E+00 0.  1.
        994    1    1    2    0    0 -0.85566079053E+02  0.25886260946E+03  0.29872187588E+03  0.43917605079E+03  0.17120000000E+03 0.  0.
        998    1    1    2    0    0  0.19758063428E+01 -0.12605934766E+01  0.58525754306E+01  0.63044147855E+01  0.10000000000E-01 0.  1.
</event>
<event>
 5    1  0.3934322E-009  0.3855980E+03  0.7957747E-01  0.3427140E+00
         13   -1    0    0    0    0  0.00000000000E+00  0.00000000000E+00  0.14999999963E+04  0.15000000000E+04  0.10566000000E+00 0.  1.
        994   -1    0    0    0    0 -0.00000000000E+00 -0.00000000000E+00  0.11368683772E-12  0.17120000000E+03  0.17120000000E+03 0.  0.
         13    1    1    2    0    0  0.24202586578E+02  0.20671720933E+01  0.14026102140E+03  0.14234888017E+03  0.10566000000E+00 0.  1.
        994    1    1    2    0    0 -0.60361256893E+02 -0.39757495694E+02  0.18672452365E+02  0.18676787806E+03  0.17120000000E+03 0.  0.
        998    1    1    2    0    0  0.36158670315E+02  0.37690323601E+02  0.13410665225E+04  0.13420832418E+04  0.10000000000E-01 0.  1.
</event>
<event>
 5    1  0.3934322E-009  0.3882927E+03  0.7957747E-01  0.3415827E+00
         13   -1    0    0    0    0  0.00000000000E+00  0.00000000000E+00  0.14999999963E+04  0.15000000000E+04  0.10566000000E+00 0. -1.
        994   -1    0    0    0    0 -0.00000000000E+00 -0.00000000000E+00  0.11368683772E-12  0.17120000000E+03  0.17120000000E+03 0.  0.
         13    1    1    2    0    0 -0.99961798000E+02 -0.27347983541E+03  0.10902038150E+04  0.11284183404E+04  0.10566000000E+00 0. -1.
        994    1    1    2    0    0  0.10198029940E+03  0.28035476098E+03  0.38181545193E+03  0.51389809574E+03  0.17120000000E+03 0.  0.
        998    1    1    2    0    0 -0.20185013995E+01 -0.68749255685E+01  0.27980729343E+02  0.28883563908E+02  0.10000000000E-01 0.  1.
</event>
<event>
 5    1  0.3934322E-009  0.3883009E+03  0.7957747E-01  0.3415792E+00
         13   -1    0    0    0    0  0.00000000000E+00  0.00000000000E+00  0.14999999963E+04  0.15000000000E+04  0.10566000000E+00 0. -1.
        994   -1    0    0    0    0 -0.00000000000E+00 -0.00000000000E+00  0.11368683772E-12  0.17120000000E+03  0.17120000000E+03 0.  0.
         13    1    1    2    0    0  0.19272089988E+03 -0.12199394433E+03  0.12379271362E+04  0.12587642645E+04  0.10566000000E+00 0. -1.
        994    1    1    2    0    0 -0.20061771762E+03  0.12695269479E+03  0.21177048149E+03  0.36127639304E+03  0.17120000000E+03 0.  0.
        998    1    1    2    0    0  0.78968177373E+01 -0.49587504585E+01  0.50302378559E+02  0.51159342502E+02  0.10000000000E-01 0. -1.
</event>
<event>
 5    1  0.3934322E-009  0.3883007E+03  0.7957747E-01  0.3415793E+00
         13   -1    0    0    0    0  0.00000000000E+00  0.00000000000E+00  0.14999999963E+04  0.15000000000E+04  0.10566000000E+00 0. -1.
        994   -1    0    0    0    0 -0.00000000000E+00 -0.00000000000E+00  0.11368683772E-12  0.17120000000E+03  0.17120000000E+03 0.  0.
         13    1    1    2    0    0  0.23968658948E+03  0.28540296647E+02  0.12003584717E+04  0.12243874720E+04  0.10566000000E+00 0. -1.
        994    1    1    2    0    0 -0.25060878356E+03 -0.29936224203E+02  0.24535282564E+03  0.39141843207E+03  0.17120000000E+03 0.  0.
        998    1    1    2    0    0  0.10922194082E+02  0.13959275566E+01  0.54288698894E+02  0.55394095939E+02  0.10000000000E-01 0.  1.
</event>
<event>
 5    1  0.3934322E-009  0.3883010E+03  0.7957747E-01  0.3415792E+00
         13   -1    0    0    0    0  0.00000000000E+00  0.00000000000E+00  0.14999999963E+04  0.15000000000E+04  0.10566000000E+00 0.  1.
        994   -1    0    0    0    0 -0.00000000000E+00 -0.00000000000E+00  0.11368683772E-12  0.17120000000E+03  0.17120000000E+03 0.  0.
         13    1    1    2    0    0  0.19148188877E+03  0.25012200074E+03  0.89189317146E+03  0.94588570633E+03  0.10566000000E+00 0.  1.
        994    1    1    2    0    0 -0.20242011170E+03 -0.26440737205E+03  0.55715962052E+03  0.67128342953E+03  0.17120000000E+03 0.  0.
        998    1    1    2    0    0  0.10938222930E+02  0.14285371311E+02  0.50947204301E+02  0.54030864147E+02  0.10000000000E-01 0.  1.
</event>
<event>
 5    1  0.3934322E-009  0.3882988E+03  0.7957747E-01  0.3415801E+00
         13   -1    0    0    0    0  0.00000000000E+00  0.00000000000E+00  0.14999999963E+04  0.15000000000E+04  0.10566000000E+00 0. -1.
        994   -1    0    0    0    0 -0.00000000000E+00 -0.00000000000E+00  0.11368683772E-12  0.17120000000E+03  0.17120000000E+03 0.  0.
         13    1    1    2    0    0  0.75825790120E+02  0.23862861064E+03  0.12589862480E+04  0.12836430766E+04  0.10566000000E+00 0. -1.
        994    1    1    2    0    0 -0.75854264416E+02 -0.23866143194E+03  0.24071488880E+03  0.38725475622E+03  0.17120000000E+03 0.  0.
        998    1    1    2    0    0  0.28474295866E-01  0.32821301060E-01  0.29885945826E+00  0.30216717082E+00  0.10000000000E-01 0. -1.
</event>
<event>
 5    1  0.3934322E-009  0.3882842E+03  0.7957747E-01  0.3415862E+00
         13   -1    0    0    0    0  0.00000000000E+00  0.00000000000E+00  0.14999999963E+04  0.15000000000E+04  0.10566000000E+00 0. -1.
        994   -1    0    0    0    0 -0.00000000000E+00 -0.00000000000E+00  0.11368683772E-12  0.17120000000E+03  0.17120000000E+03 0.  0.
         13    1    1    2    0    0  0.22362083249E+03 -0.45560814676E+02  0.12975075245E+04  0.13174247045E+04  0.10566000000E+00 0. -1.
        994    1    1    2    0    0 -0.22478354122E+03  0.45452380197E+02  0.19526835685E+03  0.34645740064E+03  0.17120000000E+03 0.  0.
        998    1    1    2    0    0  0.11627087342E+01  0.10843447908E+00  0.72241149018E+01  0.73178948988E+01  0.10000000000E-01 0. -1.
</event>
<event>
 5    1  0.3934322E-009  0.3860458E+03  0.7957747E-01  0.3425249E+00
         13   -1    0    0    0    0  0.00000000000E+00  0.00000000000E+00  0.14999999963E+04  0.15000000000E+04  0.10566000000E+00 0.  1.
        994   -1    0    0    0    0 -0.00000000000E+00 -0.00000000000E+00  0.11368683772E-12  0.17120000000E+03  0.17120000000E+03 0.  0.
         13    1    1    2    0    0  0.12403192719E+03 -0.13678994878E+03  0.77055291312E+03  0.79236810393E+03  0.10566000000E+00 0.  1.
        994    1    1    2    0    0 -0.15641676400E+03  0.23428205216E+03  0.33019579077E+03  0.46657580763E+03  0.17120000000E+03 0.  0.
        998    1    1    2    0    0  0.32384836809E+02 -0.97492103379E+02  0.39925129239E+03  0.41225608844E+03  0.10000000000E-01 0. -1.
</event>
<event>
 5    1  0.3934322E-009  0.3882960E+03  0.7957747E-01  0.3415813E+00
         13   -1    0    0    0    0  0.00000000000E+00  0.00000000000E+00  0.14999999963E+04  0.15000000000E+04  0.10566000000E+00 0.  1.
        994   -1    0    0    0    0 -0.00000000000E+00 -0.00000000000E+00  0.11368683772E-12  0.17120000000E+03  0.17120000000E+03 0.  0.
         13    1    1    2    0    0 -0.15288122682E+02 -0.20255576924E+03  0.83307940872E+03  0.85748695544E+03  0.10566000000E+00 0.  1.
        994    1    1    2    0    0  0.19686831554E+02  0.28367502857E+03  0.33343766262E+03  0.47047763818E+03  0.17120000000E+03 0.  0.
        998    1    1    2    0    0 -0.43987088723E+01 -0.81119259326E+02  0.33348292493E+03  0.34323540638E+03  0.10000000000E-01 0.  1.
</event>
<event>
 5    1  0.3934322E-009  0.3882047E+03  0.7957747E-01  0.3416194E+00
         13   -1    0    0    0    0  0.00000000000E+00  0.00000000000E+00  0.14999999963E+04  0.15000000000E+04  0.10566000000E+00 0.  1.
        994   -1    0    0    0    0 -0.00000000000E+00 -0.00000000000E+00  0.11368683772E-12  0.17120000000E+03  0.17120000000E+03 0.  0.
         13    1    1    2    0    0 -0.96838185024E+02  0.25910793011E+03  0.11825259549E+04  0.12144472811E+04  0.10566000000E+00 0.  1.
        994    1    1    2    0    0  0.97742803648E+02 -0.26021595691E+03  0.31384149791E+03  0.45284867860E+03  0.17120000000E+03 0.  0.
        998    1    1    2    0    0 -0.90461862435E+00  0.11080268013E+01  0.36325434826E+01  0.39040402663E+01  0.10000000000E-01 0.  1.
</event>
<event>
 5    1  0.3934322E-009  0.3883006E+03  0.7957747E-01  0.3415793E+00
         13   -1    0    0    0    0  0.00000000000E+00  0.00000000000E+00  0.14999999963E+04  0.15000000000E+04  0.10566000000E+00 0.  1.
        994   -1    0    0    0    0 -0.00000000000E+00 -0.00000000000E+00  0.11368683772E-12  0.17120000000E+03  0.17120000000E+03 0.  0.
         13    1    1    2    0    0 -0.13821014636E+03 -0.17957977451E+03  0.13081276598E+04  0.13276102310E+04  0.10566000000E+00 0.  1.
        994    1    1    2    0    0  0.13836120221E+03  0.17976464173E+03  0.19036468700E+03  0.34206330226E+03  0.17120000000E+03 0.  0.
        998    1    1    2    0    0 -0.15105585170E+00 -0.18486722688E+00  0.15076494314E+01  0.15264666947E+01  0.10000000000E-01 0. -1.
</event>
<event>
 5    1  0.3934322E-009  0.3883001E+03  0.7957747E-01  0.3415796E+00
         13   -1    0    0    0    0  0.00000000000E+00  0.00000000000E+00  0.14999999963E+04  0.15000000000E+04  0.10566000000E+00 0. -1.
        994   -1    0    0    0    0 -0.00000000000E+00 -0.00000000000E+00  0.11368683772E-12  0.17120000000E+03  0.17120000000E+03 0.  0.
         13    1    1    2    0    0 -0.25730689828E+03 -0.78042763557E+02  0.11928756113E+04  0.12228040514E+04  0.10566000000E+00 0. -1.
        994    1    1    2    0    0  0.25985229621E+03  0.78930244973E+02  0.29504979568E+03  0.43602410638E+03  0.17120000000E+03 0.  0.
        998    1    1    2    0    0 -0.25453979246E+01 -0.88748141603E+00  0.12074589279E+02  0.12371842228E+02  0.10000000000E-01 0.  1.
</event>
<event>
 5    1  0.3934322E-009  0.3882983E+03  0.7957747E-01  0.3415803E+00
         13   -1    0    0    0    0  0.00000000000E+00  0.00000000000E+00  0.14999999963E+04  0.15000000000E+04  0.10566000000E+00 0.  1.
        994   -1    0    0    0    0 -0.00000000000E+00 -0.00000000000E+00  0.11368683772E-12  0.17120000000E+03  0.17120000000E+03 0.  0.
         13    1    1    2    0    0 -0.11165020147E+03 -0.20774141463E+03  0.12880262456E+04  0.13094402940E+04  0.10566000000E+00 0.  1.
        994    1    1    2    0    0  0.11192494206E+03  0.20808516814E+03  0.20938866812E+03  0.35913741686E+03  0.17120000000E+03 0.  0.
        998    1    1    2    0    0 -0.27474058792E+00 -0.34375350680E+00  0.25850825192E+01  0.26222891707E+01  0.10000000000E-01 0.  1.
</event>
<event>
 5    1  0.3934322E-009  0.3876744E+03  0.7957747E-01  0.3418408E+00
         13   -1    0    0    0    0  0.00000000000E+00  0.00000000000E+00  0.14999999963E+04  0.15000000000E+04  0.10566000000E+00 0. -1.
        994   -1    0    0    0    0 -0.00000000000E+00 -0.00000000000E+00  0.11368683772E-12  0.17120000000E+03  0.17120000000E+03 0.  0.
         13    1    1    2    0    0 -0.11435995774E+03 -0.19840907153E+03  0.12910020301E+04  0.13111562121E+04  0.10566000000E+00 0. -1.
        994    1    1    2    0    0  0.11270672227E+03  0.20102406865E+03  0.19833435415E+03  0.34894044972E+03  0.17120000000E+03 0.  0.
        998    1    1    2    0    0  0.16532354714E+01 -0.26149971178E+01  0.10663612054E+02  0.11103338214E+02  0.10000000000E-01 0.  1.
</event>
<event>
 5    1  0.3934322E-009  0.3882999E+03  0.7957747E-01  0.3415797E+00
         13   -1    0    0    0    0  0.00000000000E+00  0.00000000000E+00  0.14999999963E+04  0.15000000000E+04  0.10566000000E+00 0.  1.
        994   -1    0    0    0    0 -0.00000000000E+00 -0.00000000000E+00  0.11368683772E-12  0.17120000000E+03  0.17120000000E+03 0.  0.
         13    1    1    2    0    0  0.21462461248E+03  0.49279863063E+02  0.13218796145E+04  0.13400962486E+04  0.10566000000E+00 0.  1.
        994    1    1    2    0    0 -0.21466908717E+03 -0.49303227260E+02  0.17787096264E+03  0.33084912657E+03  0.17120000000E+03 0.  0.
        998    1    1    2    0    0  0.44474690089E-01  0.23364196635E-01  0.24941917969E+00  0.25462484353E+00  0.10000000000E-01 0.  1.
</event>
<event>
 5    1  0.3934322E-009  0.3881621E+03  0.7957747E-01  0.3416371E+00
         13   -1    0    0    0    0  0.00000000000E+00  0.00000000000E+00  0.14999999963E+04  0.15000000000E+04  0.10566000000E+00 0. -1.
        994   -1    0    0    0    0 -0.00000000000E+00 -0.00000000000E+00  0.11368683772E-12  0.17120000000E+03  0.17120000000E+03 0.  0.
         13    1    1    2    0    0 -0.22468569714E+03 -0.89097331157E+02  0.12395511882E+04  0.12628971282E+04  0.10566000000E+00 0. -1.
        994    1    1    2    0    0  0.22950834417E+03  0.89053621462E+02  0.23114659293E+03  0.37860641168E+03  0.17120000000E+03 0.  0.
        998    1    1    2    0    0 -0.48226470361E+01  0.43709695097E-01  0.29302215111E+02  0.29696460149E+02  0.10000000000E-01 0. -1.
</event>
<event>
 5    1  0.3934322E-009  0.3537380E+03  0.7957747E-01  0.3574138E+00
         13   -1    0    0    0    0  0.00000000000E+00  0.00000000000E+00  0.14999999963E+04  0.15000000000E+04  0.10566000000E+00 0.  1.
        994   -1    0    0    0    0 -0.00000000000E+00 -0.00000000000E+00  0.11368683772E-12  0.17120000000E+03  0.17120000000E+03 0.  0.
         13    1    1    2    0    0 -0.22068593376E+02 -0.29246223429E+03  0.71760680703E+03  0.77522946407E+03  0.10566000000E+00 0.  1.
        994    1    1    2    0    0 -0.22289284906E+02  0.31099747757E+03  0.52517584281E+03  0.63429910069E+03  0.17120000000E+03 0.  0.
        998    1    1    2    0    0  0.44357878282E+02 -0.18535243276E+02  0.25721734644E+03  0.26167143524E+03  0.10000000000E-01 0. -1.
</event>
<event>
 5    1  0.3934322E-009  0.3825322E+03  0.7957747E-01  0.3440206E+00
         13   -1    0    0    0    0  0.00000000000E+00  0.00000000000E+00  0.14999999963E+04  0.15000000000E+04  0.10566000000E+00 0.  1.
        994   -1    0    0    0    0 -0.00000000000E+00 -0.00000000000E+00  0.11368683772E-12  0.17120000000E+03  0.17120000000E+03 0.  0.
         13    1    1    2    0    0  0.19703311686E+02 -0.17577136644E+03  0.92695152940E+03  0.94367523163E+03  0.10566000000E+00 0.  1.
        994    1    1    2    0    0  0.22278042692E+02  0.25634149021E+03  0.26746741784E+03  0.40872427184E+03  0.17120000000E+03 0.  0.
        998    1    1    2    0    0 -0.41981354377E+02 -0.80570123767E+02  0.30558104903E+03  0.31880049653E+03  0.10000000000E-01 0. -1.
</event>
<event>
 5    1  0.3934322E-009  0.3881338E+03  0.7957747E-01  0.3416489E+00
         13   -1    0    0    0    0  0.00000000000E+00  0.00000000000E+00  0.14999999963E+04  0.15000000000E+04  0.10566000000E+00 0.  1.
        994   -1    0    0    0    0 -0.00000000000E+00 -0.00000000000E+00  0.11368683772E-12  0.17120000000E+03  0.17120000000E+03 0.  0.
         13    1    1    2    0    0  0.17654319138E+03 -0.13158061260E+03  0.12408430472E+04  0.12602271363E+04  0.10566000000E+00 0.  1.
        994    1    1    2    0    0 -0.18615754564E+03  0.13476709028E+03  0.19643340239E+03  0.34743678849E+03  0.17120000000E+03 0.  0.
        998    1    1    2    0    0  0.96143542681E+01 -0.31864776761E+01  0.62723546660E+02  0.63536075214E+02  0.10000000000E-01 0. -1.
</event>
<event>
 5    1  0.3934322E-009  0.3883010E+03  0.7957747E-01  0.3415792E+00
         13   -1    0    0    0    0  0.00000000000E+00  0.00000000000E+00  0.14999999963E+04  0.15000000000E+04  0.10566000000E+00 0. -1.
        994   -1    0    0    0    0 -0.00000000000E+00 -0.00000000000E+00  0.11368683772E-12  0.17120000000E+03  0.17120000000E+03 0.  0.
         13    1    1    2    0    0  0.13827603877E+03 -0.17112322060E+03  0.12852387171E+04  0.13039332769E+04  0.10566000000E+00 0. -1.
        994    1    1    2    0    0 -0.14131626285E+03  0.17488006415E+03  0.18649426358E+03  0.33858953518E+03  0.17120000000E+03 0.  0.
        998    1    1    2    0    0  0.30402240851E+01 -0.37568435583E+01  0.28267015603E+02  0.28677187922E+02  0.10000000000E-01 0.  1.
</event>
<event>
 5    1  0.3934322E-009  0.3883008E+03  0.7957747E-01  0.3415793E+00
         13   -1    0    0    0    0  0.00000000000E+00  0.00000000000E+00  0.14999999963E+04  0.15000000000E+04  0.10566000000E+00 0.  1.
        994   -1    0    0    0    0 -0.00000000000E+00 -0.00000000000E+00  0.11368683772E-12  0.17120000000E+03  0.17120000000E+03 0.  0.
         13    1    1    2    0    0  0.17987354937E+03 -0.19568073182E+03  0.12196127938E+04  0.12482390879E+04  0.10566000000E+00 0.  1.
        994    1    1    2    0    0 -0.17997976797E+03  0.19580884506E+03  0.27961321760E+03  0.42216917479E+03  0.17120000000E+03 0.  0.
        998    1    1    2    0    0  0.10621860524E+00 -0.12811324502E+00  0.77398487287E+00  0.79173731697E+00  0.10000000000E-01 0.  0.
</event>
<event>
 5    1  0.3934322E-009  0.3783415E+03  0.7957747E-01  0.3458412E+00
         13   -1    0    0    0    0  0.00000000000E+00  0.00000000000E+00  0.14999999963E+04  0.15000000000E+04  0.10566000000E+00 0.  1.
        994   -1    0    0    0    0 -0.00000000000E+00 -0.00000000000E+00  0.11368683772E-12  0.17120000000E+03  0.17120000000E+03 0.  0.
         13    1    1    2    0    0 -0.35060161012E+02  0.83577813816E+02  0.29711257129E+03  0.31062897005E+03  0.10566000000E+00 0.  1.
        994    1    1    2    0    0  0.12623316498E+03  0.78435294224E+01  0.75546741075E+02  0.22586076016E+03  0.17120000000E+03 0.  0.
        998    1    1    2    0    0 -0.91173003966E+02 -0.91421343238E+02  0.11273406839E+04  0.11347102698E+04  0.10000000000E-01 0.  1.
</event>
<event>
 5    1  0.3934322E-009  0.3883009E+03  0.7957747E-01  0.3415792E+00
         13   -1    0    0    0    0  0.00000000000E+00  0.00000000000E+00  0.14999999963E+04  0.15000000000E+04  0.10566000000E+00 0.  1.
        994   -1    0    0    0    0 -0.00000000000E+00 -0.00000000000E+00  0.11368683772E-12  0.17120000000E+03  0.17120000000E+03 0.  0.
         13    1    1    2    0    0 -0.15502004640E+03 -0.15434892026E+03  0.13099718895E+04  0.13281118802E+04  0.10566000000E+00 0.  1.
        994    1    1    2    0    0  0.15639809006E+03  0.15569109506E+03  0.17865305665E+03  0.33155155603E+03  0.17120000000E+03 0.  0.
        998    1    1    2    0    0 -0.13780436502E+01 -0.13421747991E+01  0.11375050141E+02  0.11536563752E+02  0.10000000000E-01 0. -1.
</event>
<event>
 5    1  0.3934322E-009  0.3883002E+03  0.7957747E-01  0.3415795E+00
         13   -1    0    0    0    0  0.00000000000E+00  0.00000000000E+00  0.14999999963E+04  0.15000000000E+04  0.10566000000E+00 0.  1.
        994   -1    0    0    0    0 -0.00000000000E+00 -0.00000000000E+00  0.11368683772E-12  0.17120000000E+03  0.17120000000E+03 0.  0.
         13    1    1    2    0    0  0.20622209366E+03 -0.13347611728E+03  0.12684550227E+04  0.12920222837E+04  0.10566000000E+00 0.  1.
        994    1    1    2    0    0 -0.20640816972E+03  0.13363592464E+03  0.23028357859E+03  0.37789265598E+03  0.17120000000E+03 0.  0.
        998    1    1    2    0    0  0.18607605978E+00 -0.15980736391E+00  0.12613949619E+01  0.12850602879E+01  0.10000000000E-01 0. -1.
</event>
<event>
 5    1  0.3934322E-009  0.3882899E+03  0.7957747E-01  0.3415838E+00
         13   -1    0    0    0    0  0.00000000000E+00  0.00000000000E+00  0.14999999963E+04  0.15000000000E+04  0.10566000000E+00 0.  1.
        994   -1    0    0    0    0 -0.00000000000E+00 -0.00000000000E+00  0.11368683772E-12  0.17120000000E+03  0.17120000000E+03 0.  0.
         13    1    1    2    0    0  0.23831088112E+03  0.18955463822E+03  0.46769481108E+03  0.55808734478E+03  0.10566000000E+00 0.  1.
        994    1    1    2    0    0 -0.26561283075E+03 -0.20978862662E+03  0.97884596199E+03  0.10497667841E+04  0.17120000000E+03 0.  0.
        998    1    1    2    0    0  0.27301949632E+02  0.20233988401E+02  0.53459223219E+02  0.63345871116E+02  0.10000000000E-01 0. -1.
</event>
<event>
 5    1  0.3934322E-009  0.3880490E+03  0.7957747E-01  0.3416843E+00
         13   -1    0    0    0    0  0.00000000000E+00  0.00000000000E+00  0.14999999963E+04  0.15000000000E+04  0.10566000000E+00 0. -1.
        994   -1    0    0    0    0 -0.00000000000E+00 -0.00000000000E+00  0.11368683772E-12  0.17120000000E+03  0.17120000000E+03 0.  0.
         13    1    1    2    0    0 -0.11129823504E+02  0.72146629172E+02  0.43533402331E+03  0.44141220201E+03  0.10566000000E+00 0. -1.
        994    1    1    2    0    0  0.48713333256E+02 -0.19924959991E+03  0.15167598286E+03  0.30722701001E+03  0.17120000000E+03 0.  0.
        998    1    1    2    0    0 -0.37583509751E+02  0.12710297074E+03  0.91298999011E+03  0.92256078798E+03  0.10000000000E-01 0.  1.
</event>
<event>
 5    1  0.3934322E-009  0.3882932E+03  0.7957747E-01  0.3415825E+00
         13   -1    0    0    0    0  0.00000000000E+00  0.00000000000E+00  0.14999999963E+04  0.15000000000E+04  0.10566000000E+00 0. -1.
        994   -1    0    0    0    0 -0.00000000000E+00 -0.00000000000E+00  0.11368683772E-12  0.17120000000E+03  0.17120000000E+03 0.  0.
         13    1    1    2    0    0 -0.14523606981E+03 -0.29165786143E+03  0.58373291993E+03  0.66850726031E+03  0.10566000000E+00 0. -1.
        994    1    1    2    0    0  0.15416171487E+03  0.30998106033E+03  0.88142567807E+03  0.96232778099E+03  0.17120000000E+03 0.  0.
        998    1    1    2    0    0 -0.89256450550E+01 -0.18323198898E+02  0.34841398278E+02  0.40364958707E+02  0.10000000000E-01 0.  1.
</event>
<event>
 5    1  0.3934322E-009  0.3883008E+03  0.7957747E-01  0.3415792E+00
         13   -1    0    0    0    0  0.00000000000E+00  0.00000000000E+00  0.14999999963E+04  0.15000000000E+04  0.10566000000E+00 0.  1.
        994   -1    0    0    0    0 -0.00000000000E+00 -0.00000000000E+00  0.11368683772E-12  0.17120000000E+03  0.17120000000E+03 0.  0.
         13    1    1    2    0    0 -0.12410619369E+03  0.66860948550E+02  0.64769230180E+03  0.66285598944E+03  0.10566000000E+00 0.  1.
        994    1    1    2    0    0  0.23414102010E+03 -0.12567847483E+03  0.27902576311E+03  0.42164192487E+03  0.17120000000E+03 0.  0.
        998    1    1    2    0    0 -0.11003482642E+03  0.58817526283E+02  0.57328193137E+03  0.58670208569E+03  0.10000000000E-01 0.  1.
</event>
<event>
 5    1  0.3934322E-009  0.3880665E+03  0.7957747E-01  0.3416770E+00
         13   -1    0    0    0    0  0.00000000000E+00  0.00000000000E+00  0.14999999963E+04  0.15000000000E+04  0.10566000000E+00 0.  1.
        994   -1    0    0    0    0 -0.00000000000E+00 -0.00000000000E+00  0.11368683772E-12  0.17120000000E+03  0.17120000000E+03 0.  0.
         13    1    1    2    0    0 -0.82187795343E+02 -0.22715879178E+03  0.12501018346E+04  0.12732283999E+04  0.10566000000E+00 0.  1.
        994    1    1    2    0    0  0.85112716467E+02  0.22920387196E+03  0.22750362695E+03  0.37529445733E+03  0.17120000000E+03 0.  0.
        998    1    1    2    0    0 -0.29249211245E+01 -0.20450801825E+01  0.22394534772E+02  0.22677142769E+02  0.10000000000E-01 0. -1.
</event>
<event>
 5    1  0.3934322E-009  0.3883009E+03  0.7957747E-01  0.3415792E+00
         13   -1    0    0    0    0  0.00000000000E+00  0.00000000000E+00  0.14999999963E+04  0.15000000000E+04  0.10566000000E+00 0. -1.
        994   -1    0    0    0    0 -0.00000000000E+00 -0.00000000000E+00  0.11368683772E-12  0.17120000000E+03  0.17120000000E+03 0.  0.
         13    1    1    2    0    0 -0.24616117815E+02 -0.25040804061E+03  0.12481152294E+04  0.12732249515E+04  0.10566000000E+00 0. -1.
        994    1    1    2    0    0  0.24743416597E+02  0.25154439348E+03  0.24623023799E+03  0.39220605383E+03  0.17120000000E+03 0.  0.
        998    1    1    2    0    0 -0.12729878247E+00 -0.11363528677E+01  0.56545288988E+01  0.57689947033E+01  0.10000000000E-01 0.  1.
</event>
<event>
 5    1  0.3934322E-009  0.3883009E+03  0.7957747E-01  0.3415792E+00
         13   -1    0    0    0    0  0.00000000000E+00  0.00000000000E+00  0.14999999963E+04  0.15000000000E+04  0.10566000000E+00 0. -1.
        994   -1    0    0    0    0 -0.00000000000E+00 -0.00000000000E+00  0.11368683772E-12  0.17120000000E+03  0.17120000000E+03 0.  0.
         13    1    1    2    0    0 -0.18618094400E+03  0.16627070801E+03  0.11341887445E+04  0.11613326016E+04  0.10566000000E+00 0. -1.
        994    1    1    2    0    0  0.19957397560E+03 -0.17819192935E+03  0.28390215196E+03  0.42601878751E+03  0.17120000000E+03 0.  0.
        998    1    1    2    0    0 -0.13393031605E+02  0.11921221337E+02  0.81909099835E+02  0.83848610898E+02  0.10000000000E-01 0.  1.
</event>
<event>
 5    1  0.3934322E-009  0.3846772E+03  0.7957747E-01  0.3431042E+00
         13   -1    0    0    0    0  0.00000000000E+00  0.00000000000E+00  0.14999999963E+04  0.15000000000E+04  0.10566000000E+00 0. -1.
        994   -1    0    0    0    0 -0.00000000000E+00 -0.00000000000E+00  0.11368683772E-12  0.17120000000E+03  0.17120000000E+03 0.  0.
         13    1    1    2    0    0  0.17391260824E+03 -0.12194920842E+03  0.10854048906E+04  0.11059932154E+04  0.10566000000E+00 0. -1.
        994    1    1    2    0    0 -0.17794241934E+03  0.15864206472E+03  0.21910259474E+03  0.36625973888E+03  0.17120000000E+03 0.  0.
        998    1    1    2    0    0  0.40298110975E+01 -0.36692856305E+02  0.19549251092E+03  0.19894704574E+03  0.10000000000E-01 0.  1.
</event>
<event>
 5    1  0.3934322E-009  0.3872610E+03  0.7957747E-01  0.3420139E+00
         13   -1    0    0    0    0  0.00000000000E+00  0.00000000000E+00  0.14999999963E+04  0.15000000000E+04  0.10566000000E+00 0. -1.
        994   -1    0    0    0    0 -0.00000000000E+00 -0.00000000000E+00  0.11368683772E-12  0.17120000000E+03  0.17120000000E+03 0.  0.
         13    1    1    2    0    0 -0.12276337920E+02  0.19558240913E+01  0.70061918766E+02  0.71156288167E+02  0.10566000000E+00 0. -1.
        994    1    1    2    0    0  0.86104116384E+02 -0.33629960996E+01  0.25138107453E+02  0.19330440514E+03  0.17120000000E+03 0.  0.
        998    1    1    2    0    0 -0.73827778464E+02  0.14071720083E+01  0.14047999701E+04  0.14067393067E+04  0.10000000000E-01 0. -1.
</event>
<event>
 5    1  0.3934322E-009  0.3883007E+03  0.7957747E-01  0.3415793E+00
         13   -1    0    0    0    0  0.00000000000E+00  0.00000000000E+00  0.14999999963E+04  0.15000000000E+04  0.10566000000E+00 0. -1.
        994   -1    0    0    0    0 -0.00000000000E+00 -0.00000000000E+00  0.11368683772E-12  0.17120000000E+03  0.17120000000E+03 0.  0.
         13    1    1    2    0    0 -0.24199102666E+03 -0.33163644784E+02  0.12714729837E+04  0.12947212224E+04  0.10566000000E+00 0. -1.
        994    1    1    2    0    0  0.24225032973E+03  0.33178721135E+02  0.22718370220E+03  0.37511054948E+03  0.17120000000E+03 0.  0.
        998    1    1    2    0    0 -0.25930306675E+00 -0.15076351544E-01  0.13433104227E+01  0.13682281493E+01  0.10000000000E-01 0.  0.
</event>
<event>
 5    1  0.3934322E-009  0.3883009E+03  0.7957747E-01  0.3415792E+00
         13   -1    0    0    0    0  0.00000000000E+00  0.00000000000E+00  0.14999999963E+04  0.15000000000E+04  0.10566000000E+00 0.  1.
        994   -1    0    0    0    0 -0.00000000000E+00 -0.00000000000E+00  0.11368683772E-12  0.17120000000E+03  0.17120000000E+03 0.  0.
         13    1    1    2    0    0 -0.86597021409E+02 -0.83438444822E+02  0.61006924439E+03  0.62180826008E+03  0.10566000000E+00 0.  1.
        994    1    1    2    0    0  0.17942181129E+03  0.17266335525E+03  0.23740739598E+03  0.38428704412E+03  0.17120000000E+03 0.  0.
        998    1    1    2    0    0 -0.92824789885E+02 -0.89224910433E+02  0.65252335591E+03  0.66510469579E+03  0.10000000000E-01 0.  1.
</event>
<event>
 5    1  0.3934322E-009  0.3878235E+03  0.7957747E-01  0.3417785E+00
         13   -1    0    0    0    0  0.00000000000E+00  0.00000000000E+00  0.14999999963E+04  0.15000000000E+04  0.10566000000E+00 0. -1.
        994   -1    0    0    0    0 -0.00000000000E+00 -0.00000000000E+00  0.11368683772E-12  0.17120000000E+03  0.17120000000E+03 0.  0.
         13    1    1    2    0    0 -0.21797516185E+03  0.68027777107E+02  0.10634689830E+04  0.10877073314E+04  0.10566000000E+00 0. -1.
        994    1    1    2    0    0  0.24872897860E+03 -0.88427324908E+02  0.27523988768E+03  0.41803341058E+03  0.17120000000E+03 0.  0.
        998    1    1    2    0    0 -0.30753816750E+02  0.20399547801E+02  0.16129112555E+03  0.16545925806E+03  0.10000000000E-01 0. -1.
</event>
<event>
 5    1  0.3934322E-009  0.3837092E+03  0.7957747E-01  0.3435165E+00
         13   -1    0    0    0    0  0.00000000000E+00  0.00000000000E+00  0.14999999963E+04  0.15000000000E+04  0.10566000000E+00 0.  1.
        994   -1    0    0    0    0 -0.00000000000E+00 -0.00000000000E+00  0.11368683772E-12  0.17120000000E+03  0.17120000000E+03 0.  0.
         13    1    1    2    0    0 -0.36739604579E+01  0.14696325045E+02  0.90009429049E+02  0.91275344080E+02  0.10566000000E+00 0.  1.
        994    1    1    2    0    0 -0.11945670177E+02  0.73894689212E+02  0.21001497678E+02  0.18802560207E+03  0.17120000000E+03 0.  0.
        998    1    1    2    0    0  0.15619630635E+02 -0.88591014257E+02  0.13889890696E+04  0.13918990538E+04  0.10000000000E-01 0.  1.
</event>
<event>
 5    1  0.3934322E-009  0.3882997E+03  0.7957747E-01  0.3415797E+00
         13   -1    0    0    0    0  0.00000000000E+00  0.00000000000E+00  0.14999999963E+04  0.15000000000E+04  0.10566000000E+00 0.  1.
        994   -1    0    0    0    0 -0.00000000000E+00 -0.00000000000E+00  0.11368683772E-12  0.17120000000E+03  0.17120000000E+03 0.  0.
         13    1    1    2    0    0  0.57720195922E+02  0.21761814046E+03  0.12382156620E+04  0.12585179032E+04  0.10566000000E+00 0.  1.
        994    1    1    2    0    0 -0.60257878684E+02 -0.22703737735E+03  0.20651819478E+03  0.35656161800E+03  0.17120000000E+03 0.  0.
        998    1    1    2    0    0  0.25376827626E+01  0.94192368911E+01  0.55266139520E+02  0.56120478748E+02  0.10000000000E-01 0.  1.
</event>
<event>
 5    1  0.3934322E-009  0.3883010E+03  0.7957747E-01  0.3415792E+00
         13   -1    0    0    0    0  0.00000000000E+00  0.00000000000E+00  0.14999999963E+04  0.15000000000E+04  0.10566000000E+00 0.  1.
        994   -1    0    0    0    0 -0.00000000000E+00 -0.00000000000E+00  0.11368683772E-12  0.17120000000E+03  0.17120000000E+03 0.  0.
         13    1    1    2    0    0  0.20603658702E+03  0.89589938691E+02  0.12287850570E+04  0.12491557788E+04  0.10566000000E+00 0.  1.
        994    1    1    2    0    0 -0.21646845991E+03 -0.94145812576E+02  0.20892207224E+03  0.35871980769E+03  0.17120000000E+03 0.  0.
        998    1    1    2    0    0  0.10431872887E+02  0.45558738855E+01  0.62292867062E+02  0.63324413504E+02  0.10000000000E-01 0.  1.
</event>
<event>
 5    1  0.3934322E-009  0.3883004E+03  0.7957747E-01  0.3415794E+00
         13   -1    0    0    0    0  0.00000000000E+00  0.00000000000E+00  0.14999999963E+04  0.15000000000E+04  0.10566000000E+00 0.  1.
        994   -1    0    0    0    0 -0.00000000000E+00 -0.00000000000E+00  0.11368683772E-12  0.17120000000E+03  0.17120000000E+03 0.  0.
         13    1    1    2    0    0 -0.14108589433E+03 -0.17735360979E+03  0.13089628374E+04  0.13284363942E+04  0.10566000000E+00 0.  1.
        994    1    1    2    0    0  0.14118796329E+03  0.17744862622E+03  0.19020601704E+03  0.34192078738E+03  0.17120000000E+03 0.  0.
        998    1    1    2    0    0 -0.10206895662E+00 -0.95016425951E-01  0.83114184966E+00  0.84281846644E+00  0.10000000000E-01 0. -1.
</event>
<event>
 5    1  0.3934322E-009  0.3883008E+03  0.7957747E-01  0.3415793E+00
         13   -1    0    0    0    0  0.00000000000E+00  0.00000000000E+00  0.14999999963E+04  0.15000000000E+04  0.10566000000E+00 0. -1.
        994   -1    0    0    0    0 -0.00000000000E+00 -0.00000000000E+00  0.11368683772E-12  0.17120000000E+03  0.17120000000E+03 0.  0.
         13    1    1    2    0    0  0.31906839346E+01 -0.23092621101E+03  0.12885158013E+04  0.13090493027E+04  0.10566000000E+00 0. -1.
        994    1    1    2    0    0 -0.31724918720E+01  0.23264888440E+03  0.20194750963E+03  0.35245964984E+03  0.17120000000E+03 0.  0.
        998    1    1    2    0    0 -0.18192062563E-01 -0.17226733879E+01  0.95366852994E+01  0.96910474693E+01  0.10000000000E-01 0.  1.
</event>
<event>
 5    1  0.3934322E-009  0.3883008E+03  0.7957747E-01  0.3415793E+00
         13   -1    0    0    0    0  0.00000000000E+00  0.00000000000E+00  0.14999999963E+04  0.15000000000E+04  0.10566000000E+00 0. -1.
        994   -1    0    0    0    0 -0.00000000000E+00 -0.00000000000E+00  0.11368683772E-12  0.17120000000E+03  0.17120000000E+03 0.  0.
         13    1    1    2    0    0 -0.22303443384E+03 -0.39817915764E+02  0.12608744517E+04  0.12810676092E+04  0.10566000000E+00 0. -1.
        994    1    1    2    0    0  0.22949152842E+03  0.40887943742E+02  0.20283367929E+03  0.35325504528E+03  0.17120000000E+03 0.  0.
        998    1    1    2    0    0 -0.64570945790E+01 -0.10700279784E+01  0.36291865283E+02  0.36877345566E+02  0.10000000000E-01 0. -1.
</event>
<event>
 5    1  0.3934322E-009  0.3869020E+03  0.7957747E-01  0.3421645E+00
         13   -1    0    0    0    0  0.00000000000E+00  0.00000000000E+00  0.14999999963E+04  0.15000000000E+04  0.10566000000E+00 0.  1.
        994   -1    0    0    0    0 -0.00000000000E+00 -0.00000000000E+00  0.11368683772E-12  0.17120000000E+03  0.17120000000E+03 0.  0.
         13    1    1    2    0    0 -0.32130294333E+02 -0.28979844350E+02  0.26132834288E+03  0.26488620415E+03  0.10566000000E+00 0.  1.
        994    1    1    2    0    0  0.90976934056E+02  0.11173765225E+03  0.71759293961E+02  0.23499136523E+03  0.17120000000E+03 0.  0.
        998    1    1    2    0    0 -0.58846639723E+02 -0.82757807901E+02  0.11669123594E+04  0.11713224306E+04  0.10000000000E-01 0.  1.
</event>
<event>
 5    1  0.3934322E-009  0.3883006E+03  0.7957747E-01  0.3415794E+00
         13   -1    0    0    0    0  0.00000000000E+00  0.00000000000E+00  0.14999999963E+04  0.15000000000E+04  0.10566000000E+00 0.  1.
        994   -1    0    0    0    0 -0.00000000000E+00 -0.00000000000E+00  0.11368683772E-12  0.17120000000E+03  0.17120000000E+03 0.  0.
         13    1    1    2    0    0  0.25395809776E+03 -0.77591193018E+02  0.12211420779E+04  0.12496811971E+04  0.10566000000E+00 0.  1.
        994    1    1    2    0    0 -0.25400378599E+03  0.77601685415E+02  0.27863845131E+03  0.42129416259E+03  0.17120000000E+03 0.  0.
        998    1    1    2    0    0  0.45688230038E-01 -0.10492396413E-01  0.21946704288E+00  0.22464035180E+00  0.10000000000E-01 0.  0.
</event>
<event>
 5    1  0.3934322E-009  0.3883008E+03  0.7957747E-01  0.3415793E+00
         13   -1    0    0    0    0  0.00000000000E+00  0.00000000000E+00  0.14999999963E+04  0.15000000000E+04  0.10566000000E+00 0.  1.
        994   -1    0    0    0    0 -0.00000000000E+00 -0.00000000000E+00  0.11368683772E-12  0.17120000000E+03  0.17120000000E+03 0.  0.
         13    1    1    2    0    0  0.15137902594E+03  0.18430816773E+03  0.12814308360E+04  0.13034378040E+04  0.10566000000E+00 0.  1.
        994    1    1    2    0    0 -0.15176105417E+03 -0.18474766362E+03  0.21533135404E+03  0.36447242531E+03  0.17120000000E+03 0.  0.
        998    1    1    2    0    0  0.38202822811E+00  0.43949589221E+00  0.32378061983E+01  0.32897706887E+01  0.10000000000E-01 0.  1.
</event>
<event>
 5    1  0.3934322E-009  0.3883009E+03  0.7957747E-01  0.3415792E+00
         13   -1    0    0    0    0  0.00000000000E+00  0.00000000000E+00  0.14999999963E+04  0.15000000000E+04  0.10566000000E+00 0.  1.
        994   -1    0    0    0    0 -0.00000000000E+00 -0.00000000000E+00  0.11368683772E-12  0.17120000000E+03  0.17120000000E+03 0.  0.
         13    1    1    2    0    0  0.34150118843E+03  0.23054240907E+02  0.83146136254E+03  0.89915658719E+03  0.10566000000E+00 0.  1.
        994    1    1    2    0    0 -0.34326766558E+03 -0.23158930131E+02  0.66422343390E+03  0.76737946051E+03  0.17120000000E+03 0.  0.
        998    1    1    2    0    0  0.17664771488E+01  0.10468922401E+00  0.43151998424E+01  0.46639522972E+01  0.10000000000E-01 0. -1.
</event>
<event>
 5    1  0.3934322E-009  0.3883009E+03  0.7957747E-01  0.3415792E+00
         13   -1    0    0    0    0  0.00000000000E+00  0.00000000000E+00  0.14999999963E+04  0.15000000000E+04  0.10566000000E+00 0.  1.
        994   -1    0    0    0    0 -0.00000000000E+00 -0.00000000000E+00  0.11368683772E-12  0.17120000000E+03  0.17120000000E+03 0.  0.
         13    1    1    2    0    0 -0.22915343725E+03 -0.35693447046E+02  0.11993784123E+04  0.12215948211E+04  0.10566000000E+00 0.  1.
        994    1    1    2    0    0  0.24266047545E+03  0.37806165080E+02  0.22959648801E+03  0.37727629102E+03  0.17120000000E+03 0.  0.
        998    1    1    2    0    0 -0.13507038203E+02 -0.21127180337E+01  0.71025095997E+02  0.72328887866E+02  0.10000000000E-01 0. -1.
</event>
<event>
 5    1  0.3934322E-009  0.3882997E+03  0.7957747E-01  0.3415797E+00
         13   -1    0    0    0    0  0.00000000000E+00  0.00000000000E+00  0.14999999963E+04  0.15000000000E+04  0.10566000000E+00 0. -1.
        994   -1    0    0    0    0 -0.00000000000E+00 -0.00000000000E+00  0.11368683772E-12  0.17120000000E+03  0.17120000000E+03 0.  0.
         13    1    1    2    0    0 -0.26570099483E+03 -0.16964591736E+03  0.10445188450E+04  0.10910528790E+04  0.10566000000E+00 0. -1.
        994    1    1    2    0    0  0.26589913128E+03  0.16981806927E+03  0.45463237541E+03  0.57925863087E+03  0.17120000000E+03 0.  0.
        998    1    1    2    0    0 -0.19813644368E+00 -0.17215191443E+00  0.84877584709E+00  0.88849016346E+00  0.10000000000E-01 0. -1.
</event>
<event>
 5    1  0.3934322E-009  0.3882999E+03  0.7957747E-01  0.3415796E+00
         13   -1    0    0    0    0  0.00000000000E+00  0.00000000000E+00  0.14999999963E+04  0.15000000000E+04  0.10566000000E+00 0.  1.
        994   -1    0    0    0    0 -0.00000000000E+00 -0.00000000000E+00  0.11368683772E-12  0.17120000000E+03  0.17120000000E+03 0.  0.
         13    1    1    2    0    0  0.21737616255E+03 -0.12517312801E+03  0.11856587769E+04  0.12119024112E+04  0.10566000000E+00 0.  1.
        994    1    1    2    0    0 -0.22595515604E+03  0.13035431847E+03  0.26626648615E+03  0.41018930086E+03  0.17120000000E+03 0.  0.
        998    1    1    2    0    0  0.85789934929E+01 -0.51811904603E+01  0.48074733238E+02  0.49108287893E+02  0.10000000000E-01 0. -1.
</event>
<event>
 5    1  0.3934322E-009  0.3882997E+03  0.7957747E-01  0.3415797E+00
         13   -1    0    0    0    0  0.00000000000E+00  0.00000000000E+00  0.14999999963E+04  0.15000000000E+04  0.10566000000E+00 0. -1.
        994   -1    0    0    0    0 -0.00000000000E+00 -0.00000000000E+00  0.11368683772E-12  0.17120000000E+03  0.17120000000E+03 0.  0.
         13    1    1    2    0    0  0.15303758887E+03 -0.19212822954E+03  0.12688422560E+04  0.12923987163E+04  0.10566000000E+00 0. -1.
        994    1    1    2    0    0 -0.15318930353E+03  0.19225791428E+03  0.23013361851E+03  0.37775784663E+03  0.17120000000E+03 0.  0.
        998    1    1    2    0    0  0.15171465701E+00 -0.12968474564E+00  0.10241217836E+01  0.10434370599E+01  0.10000000000E-01 0. -1.
</event>
<event>
 5    1  0.3934322E-009  0.3882762E+03  0.7957747E-01  0.3415895E+00
         13   -1    0    0    0    0  0.00000000000E+00  0.00000000000E+00  0.14999999963E+04  0.15000000000E+04  0.10566000000E+00 0. -1.
        994   -1    0    0    0    0 -0.00000000000E+00 -0.00000000000E+00  0.11368683772E-12  0.17120000000E+03  0.17120000000E+03 0.  0.
         13    1    1    2    0    0  0.18970476452E+03  0.15313103957E+03  0.12734323893E+04  0.12965597072E+04  0.10566000000E+00 0. -1.
        994    1    1    2    0    0 -0.18967657587E+03 -0.15326032409E+03  0.22576058561E+03  0.37382243430E+03  0.17120000000E+03 0.  0.
        998    1    1    2    0    0 -0.28188647991E-01  0.12928452247E+00  0.80702134130E+00  0.81785850423E+00  0.10000000000E-01 0. -1.
</event>
<event>
 5    1  0.5210992E-009  0.3883000E+03  0.7957747E-01  0.3415796E+00
         13   -1    0    0    0    0  0.00000000000E+00  0.00000000000E+00  0.14999999963E+04  0.15000000000E+04  0.10566000000E+00 0.  1.
        994   -1    0    0    0    0 -0.00000000000E+00 -0.00000000000E+00  0.11368683772E-12  0.17120000000E+03  0.17120000000E+03 0.  0.
         13    1    1    2    0    0 -0.28472350858E+03 -0.65007606236E+02  0.11405686174E+04  0.11773658087E+04  0.10566000000E+00 0.  1.
        994    1    1    2    0    0  0.28476605667E+03  0.65006859773E+02  0.35924846595E+03  0.49364612744E+03  0.17120000000E+03 0.  0.
        998    1    1    2    0    0 -0.42548085981E-01  0.74646315508E-03  0.18291288311E+00  0.18806387116E+00  0.10000000000E-01 0.  0.
</event>
<event>
 5    1  0.3934322E-009  0.3794625E+03  0.7957747E-01  0.3453502E+00
         13   -1    0    0    0    0  0.00000000000E+00  0.00000000000E+00  0.14999999963E+04  0.15000000000E+04  0.10566000000E+00 0.  1.
        994   -1    0    0    0    0 -0.00000000000E+00 -0.00000000000E+00  0.11368683772E-12  0.17120000000E+03  0.17120000000E+03 0.  0.
         13    1    1    2    0    0  0.16750311534E+03  0.91708663255E+02  0.68118853695E+03  0.70745007358E+03  0.10566000000E+00 0.  1.
        994    1    1    2    0    0 -0.20150450149E+03 -0.15098637984E+03  0.25887313989E+03  0.39965696989E+03  0.17120000000E+03 0.  0.
        998    1    1    2    0    0  0.34001386157E+02  0.59277716588E+02  0.55993831943E+03  0.56409295654E+03  0.10000000000E-01 0. -1.
</event>
<event>
 5    1  0.3934322E-009  0.3882870E+03  0.7957747E-01  0.3415850E+00
         13   -1    0    0    0    0  0.00000000000E+00  0.00000000000E+00  0.14999999963E+04  0.15000000000E+04  0.10566000000E+00 0. -1.
        994   -1    0    0    0    0 -0.00000000000E+00 -0.00000000000E+00  0.11368683772E-12  0.17120000000E+03  0.17120000000E+03 0.  0.
         13    1    1    2    0    0 -0.24013710260E+03 -0.11327856701E+03  0.12201821134E+04  0.12487362664E+04  0.10566000000E+00 0. -1.
        994    1    1    2    0    0  0.24031431226E+03  0.11324189595E+03  0.27883851434E+03  0.42146773631E+03  0.17120000000E+03 0.  0.
        998    1    1    2    0    0 -0.17720965731E+00  0.36671057404E-01  0.97936849497E+00  0.99599732832E+00  0.10000000000E-01 0.  1.
</event>
<event>
 5    1  0.3934322E-009  0.3879110E+03  0.7957747E-01  0.3417419E+00
         13   -1    0    0    0    0  0.00000000000E+00  0.00000000000E+00  0.14999999963E+04  0.15000000000E+04  0.10566000000E+00 0. -1.
        994   -1    0    0    0    0 -0.00000000000E+00 -0.00000000000E+00  0.11368683772E-12  0.17120000000E+03  0.17120000000E+03 0.  0.
         13    1    1    2    0    0 -0.44157303941E+02  0.20925895121E+03  0.11358448335E+04  0.11558039077E+04  0.10566000000E+00 0. -1.
        994    1    1    2    0    0  0.52494404784E+02 -0.22936241168E+03  0.20787806437E+03  0.35761083327E+03  0.17120000000E+03 0.  0.
        998    1    1    2    0    0 -0.83371008435E+01  0.20103460471E+02  0.15627709844E+03  0.15778525903E+03  0.10000000000E-01 0.  1.
</event>
<event>
 5    1  0.3934322E-009  0.3883008E+03  0.7957747E-01  0.3415793E+00
         13   -1    0    0    0    0  0.00000000000E+00  0.00000000000E+00  0.14999999963E+04  0.15000000000E+04  0.10566000000E+00 0. -1.
        994   -1    0    0    0    0 -0.00000000000E+00 -0.00000000000E+00  0.11368683772E-12  0.17120000000E+03  0.17120000000E+03 0.  0.
         13    1    1    2    0    0 -0.12797086561E+03 -0.18601059411E+03  0.12458883757E+04  0.12661810058E+04  0.10566000000E+00 0. -1.
        994    1    1    2    0    0  0.13285167415E+03  0.19329811351E+03  0.20579806694E+03  0.35591573773E+03  0.17120000000E+03 0.  0.
        998    1    1    2    0    0 -0.48808085408E+01 -0.72875194044E+01  0.48313553652E+02  0.49103256486E+02  0.10000000000E-01 0. -1.
</event>
<event>
 5    1  0.3934322E-009  0.3883001E+03  0.7957747E-01  0.3415795E+00
         13   -1    0    0    0    0  0.00000000000E+00  0.00000000000E+00  0.14999999963E+04  0.15000000000E+04  0.10566000000E+00 0. -1.
        994   -1    0    0    0    0 -0.00000000000E+00 -0.00000000000E+00  0.11368683772E-12  0.17120000000E+03  0.17120000000E+03 0.  0.
         13    1    1    2    0    0  0.12924981666E+03  0.71112104802E+02  0.80465072806E+03  0.81806188757E+03  0.10566000000E+00 0. -1.
        994    1    1    2    0    0 -0.20663521008E+03 -0.11462074510E+03  0.20942767630E+03  0.35917324072E+03  0.17120000000E+03 0.  0.
        998    1    1    2    0    0  0.77385393420E+02  0.43508640294E+02  0.48592159192E+03  0.49396487171E+03  0.10000000000E-01 0.  1.
</event>
<event>
 5    1  0.3934322E-009  0.3862573E+03  0.7957747E-01  0.3424357E+00
         13   -1    0    0    0    0  0.00000000000E+00  0.00000000000E+00  0.14999999963E+04  0.15000000000E+04  0.10566000000E+00 0. -1.
        994   -1    0    0    0    0 -0.00000000000E+00 -0.00000000000E+00  0.11368683772E-12  0.17120000000E+03  0.17120000000E+03 0.  0.
         13    1    1    2    0    0  0.16285033194E+02 -0.24691182438E+03  0.66484074207E+03  0.70939683873E+03  0.10566000000E+00 0. -1.
        994    1    1    2    0    0 -0.46694299797E+02  0.32608702480E+03  0.54445676126E+03  0.65898081176E+03  0.17120000000E+03 0.  0.
        998    1    1    2    0    0  0.30409266604E+02 -0.79175200419E+02  0.29070249295E+03  0.30282234951E+03  0.10000000000E-01 0. -1.
</event>
<event>
 5    1  0.3934322E-009  0.3876056E+03  0.7957747E-01  0.3418696E+00
         13   -1    0    0    0    0  0.00000000000E+00  0.00000000000E+00  0.14999999963E+04  0.15000000000E+04  0.10566000000E+00 0.  1.
        994   -1    0    0    0    0 -0.00000000000E+00 -0.00000000000E+00  0.11368683772E-12  0.17120000000E+03  0.17120000000E+03 0.  0.
         13    1    1    2    0    0 -0.23524194972E+03 -0.14430346463E+03  0.10611922645E+04  0.10964904460E+04  0.10566000000E+00 0.  1.
        994    1    1    2    0    0  0.25120424739E+03  0.14673656533E+03  0.35697908215E+03  0.49130306187E+03  0.17120000000E+03 0.  0.
        998    1    1    2    0    0 -0.15962297674E+02 -0.24331007016E+01  0.81828649616E+02  0.83406492097E+02  0.10000000000E-01 0. -1.
</event>
<event>
 5    1  0.3934322E-009  0.3883010E+03  0.7957747E-01  0.3415792E+00
         13   -1    0    0    0    0  0.00000000000E+00  0.00000000000E+00  0.14999999963E+04  0.15000000000E+04  0.10566000000E+00 0.  1.
        994   -1    0    0    0    0 -0.00000000000E+00 -0.00000000000E+00  0.11368683772E-12  0.17120000000E+03  0.17120000000E+03 0.  0.
         13    1    1    2    0    0  0.16839309900E+03 -0.23147693392E+03  0.10963862669E+04  0.11331375310E+04  0.10566000000E+00 0.  1.
        994    1    1    2    0    0 -0.17357089806E+03  0.23862447601E+03  0.36981883301E+03  0.50313408397E+03  0.17120000000E+03 0.  0.
        998    1    1    2    0    0  0.51777990506E+01 -0.71475420915E+01  0.33794896393E+02  0.34928385064E+02  0.10000000000E-01 0.  1.
</event>
<event>
 5    1  0.3934322E-009  0.3861234E+03  0.7957747E-01  0.3424922E+00
         13   -1    0    0    0    0  0.00000000000E+00  0.00000000000E+00  0.14999999963E+04  0.15000000000E+04  0.10566000000E+00 0.  1.
        994   -1    0    0    0    0 -0.00000000000E+00 -0.00000000000E+00  0.11368683772E-12  0.17120000000E+03  0.17120000000E+03 0.  0.
         13    1    1    2    0    0 -0.99978084618E+01  0.17280040210E+03  0.86732654043E+03  0.88442934938E+03  0.10566000000E+00 0.  1.
        994    1    1    2    0    0  0.43988286553E+02 -0.26272796676E+03  0.28490653349E+03  0.42596024075E+03  0.17120000000E+03 0.  0.
        998    1    1    2    0    0 -0.33990478091E+02  0.89927564664E+02  0.34776692236E+03  0.36081040987E+03  0.10000000000E-01 0.  1.
</event>
<event>
 5    1  0.3934322E-009  0.3882934E+03  0.7957747E-01  0.3415823E+00
         13   -1    0    0    0    0  0.00000000000E+00  0.00000000000E+00  0.14999999963E+04  0.15000000000E+04  0.10566000000E+00 0.  1.
        994   -1    0    0    0    0 -0.00000000000E+00 -0.00000000000E+00  0.11368683772E-12  0.17120000000E+03  0.17120000000E+03 0.  0.
         13    1    1    2    0    0  0.47712095562E+01 -0.25197377875E+03  0.12542432708E+04  0.12793122149E+04  0.10566000000E+00 0.  1.
        994    1    1    2    0    0 -0.48182281036E+01  0.25209035337E+03  0.24476017337E+03  0.39088328700E+03  0.17120000000E+03 0.  0.
        998    1    1    2    0    0  0.47018547398E-01 -0.11657462630E+00  0.99655211140E+00  0.10044981324E+01  0.10000000000E-01 0. -1.
</event>
<event>
 5    1  0.3934322E-009  0.3878334E+03  0.7957747E-01  0.3417744E+00
         13   -1    0    0    0    0  0.00000000000E+00  0.00000000000E+00  0.14999999963E+04  0.15000000000E+04  0.10566000000E+00 0.  1.
        994   -1    0    0    0    0 -0.00000000000E+00 -0.00000000000E+00  0.11368683772E-12  0.17120000000E+03  0.17120000000E+03 0.  0.
         13    1    1    2    0    0  0.19214456134E+03  0.20208765131E+03  0.93093481044E+03  0.97180172037E+03  0.10566000000E+00 0.  1.
        994    1    1    2    0    0 -0.21541143538E+03 -0.22300460868E+03  0.43111702426E+03  0.55794665568E+03  0.17120000000E+03 0.  0.
        998    1    1    2    0    0  0.23266874043E+02  0.20916957371E+02  0.13794816158E+03  0.14145162394E+03  0.10000000000E-01 0. -1.
</event>
<event>
 5    1  0.3934322E-009  0.3883010E+03  0.7957747E-01  0.3415792E+00
         13   -1    0    0    0    0  0.00000000000E+00  0.00000000000E+00  0.14999999963E+04  0.15000000000E+04  0.10566000000E+00 0.  1.
        994   -1    0    0    0    0 -0.00000000000E+00 -0.00000000000E+00  0.11368683772E-12  0.17120000000E+03  0.17120000000E+03 0.  0.
         13    1    1    2    0    0 -0.17818889480E+03  0.21694903613E+03  0.11318953532E+04  0.11661926377E+04  0.10566000000E+00 0.  1.
        994    1    1    2    0    0  0.18224584654E+03 -0.22188599455E+03  0.34245086368E+03  0.47856972031E+03  0.17120000000E+03 0.  0.
        998    1    1    2    0    0 -0.40569517435E+01  0.49369584163E+01  0.25653779426E+02  0.26437642003E+02  0.10000000000E-01 0. -1.
</event>
<event>
 5    1  0.3934322E-009  0.3882998E+03  0.7957747E-01  0.3415797E+00
         13   -1    0    0    0    0  0.00000000000E+00  0.00000000000E+00  0.14999999963E+04  0.15000000000E+04  0.10566000000E+00 0. -1.
        994   -1    0    0    0    0 -0.00000000000E+00 -0.00000000000E+00  0.11368683772E-12  0.17120000000E+03  0.17120000000E+03 0.  0.
         13    1    1    2    0    0 -0.10728428142E+01  0.83369364887E+02  0.49994730304E+03  0.50685196949E+03  0.10566000000E+00 0. -1.
        994    1    1    2    0    0  0.45153298502E+01 -0.22066231737E+03  0.17870560330E+03  0.33159821948E+03  0.17120000000E+03 0.  0.
        998    1    1    2    0    0 -0.34424870360E+01  0.13729295249E+03  0.82134708994E+03  0.83274981103E+03  0.10000000000E-01 0.  1.
</event>
<event>
 5    1  0.3934322E-009  0.3883009E+03  0.7957747E-01  0.3415792E+00
         13   -1    0    0    0    0  0.00000000000E+00  0.00000000000E+00  0.14999999963E+04  0.15000000000E+04  0.10566000000E+00 0. -1.
        994   -1    0    0    0    0 -0.00000000000E+00 -0.00000000000E+00  0.11368683772E-12  0.17120000000E+03  0.17120000000E+03 0.  0.
         13    1    1    2    0    0 -0.54432799943E+01  0.14695618690E+03  0.77837779877E+03  0.79214756135E+03  0.10566000000E+00 0.  1.
        994    1    1    2    0    0  0.91284093090E+01 -0.24168689238E+03  0.22132270317E+03  0.36985005170E+03  0.17120000000E+03 0.  0.
        998    1    1    2    0    0 -0.36851293147E+01  0.94730705482E+02  0.50029949434E+03  0.50920238695E+03  0.10000000000E-01 0. -1.
</event>
<event>
 5    1  0.3934322E-009  0.3882883E+03  0.7957747E-01  0.3415845E+00
         13   -1    0    0    0    0  0.00000000000E+00  0.00000000000E+00  0.14999999963E+04  0.15000000000E+04  0.10566000000E+00 0.  1.
        994   -1    0    0    0    0 -0.00000000000E+00 -0.00000000000E+00  0.11368683772E-12  0.17120000000E+03  0.17120000000E+03 0.  0.
         13    1    1    2    0    0 -0.27624198690E+03  0.40938836056E+02  0.11573027218E+04  0.11905188888E+04  0.10566000000E+00 0.  1.
        994    1    1    2    0    0  0.27953351839E+03 -0.41068769809E+02  0.32767544106E+03  0.46530233873E+03  0.17120000000E+03 0.  0.
        998    1    1    2    0    0 -0.32915314840E+01  0.12993375303E+00  0.15021833418E+02  0.15378772432E+02  0.10000000000E-01 0.  1.
</event>
<event>
 5    1  0.3934322E-009  0.3882358E+03  0.7957747E-01  0.3416064E+00
         13   -1    0    0    0    0  0.00000000000E+00  0.00000000000E+00  0.14999999963E+04  0.15000000000E+04  0.10566000000E+00 0. -1.
        994   -1    0    0    0    0 -0.00000000000E+00 -0.00000000000E+00  0.11368683772E-12  0.17120000000E+03  0.17120000000E+03 0.  0.
         13    1    1    2    0    0  0.26651337275E+03  0.57679002477E+02  0.85369740247E+03  0.89618943942E+03  0.10566000000E+00 0. -1.
        994    1    1    2    0    0 -0.31646124498E+03 -0.64508270973E+02  0.49368809675E+03  0.61428528671E+03  0.17120000000E+03 0.  0.
        998    1    1    2    0    0  0.49947872226E+02  0.68292684961E+01  0.15261449706E+03  0.16072527387E+03  0.10000000000E-01 0.  1.
</event>
<event>
 5    1  0.3934322E-009  0.3883008E+03  0.7957747E-01  0.3415793E+00
         13   -1    0    0    0    0  0.00000000000E+00  0.00000000000E+00  0.14999999963E+04  0.15000000000E+04  0.10566000000E+00 0. -1.
        994   -1    0    0    0    0 -0.00000000000E+00 -0.00000000000E+00  0.11368683772E-12  0.17120000000E+03  0.17120000000E+03 0.  0.
         13    1    1    2    0    0  0.30269261075E+03 -0.15832682473E+03  0.85384513481E+03  0.91964217250E+03  0.10566000000E+00 0. -1.
        994    1    1    2    0    0 -0.30347229249E+03  0.15873023551E+03  0.64389536336E+03  0.74913376571E+03  0.17120000000E+03 0.  0.
        998    1    1    2    0    0  0.77968173644E+00 -0.40341077345E+00  0.22594981072E+01  0.24240617894E+01  0.10000000000E-01 0. -1.
</event>
<event>
 5    1  0.3934322E-009  0.3882974E+03  0.7957747E-01  0.3415807E+00
         13   -1    0    0    0    0  0.00000000000E+00  0.00000000000E+00  0.14999999963E+04  0.15000000000E+04  0.10566000000E+00 0.  1.
        994   -1    0    0    0    0 -0.00000000000E+00 -0.00000000000E+00  0.11368683772E-12  0.17120000000E+03  0.17120000000E+03 0.  0.
         13    1    1    2    0    0  0.61138539886E+02 -0.18976358510E+03  0.11901856520E+04  0.12067684271E+04  0.10566000000E+00 0.  1.
        994    1    1    2    0    0 -0.67106787082E+02  0.21076461286E+03  0.17960384842E+03  0.33240340743E+03  0.17120000000E+03 0.  0.
        998    1    1    2    0    0  0.59682471966E+01 -0.21001027754E+02  0.13021049584E+03  0.13202816544E+03  0.10000000000E-01 0. -1.
</event>
<event>
 5    1  0.3934322E-009  0.3882979E+03  0.7957747E-01  0.3415805E+00
         13   -1    0    0    0    0  0.00000000000E+00  0.00000000000E+00  0.14999999963E+04  0.15000000000E+04  0.10566000000E+00 0. -1.
        994   -1    0    0    0    0 -0.00000000000E+00 -0.00000000000E+00  0.11368683772E-12  0.17120000000E+03  0.17120000000E+03 0.  0.
         13    1    1    2    0    0  0.16101077458E+03  0.18662818169E+03  0.12650684239E+04  0.12888571201E+04  0.10566000000E+00 0. -1.
        994    1    1    2    0    0 -0.16137031465E+03 -0.18697779530E+03  0.23276356150E+03  0.38011760016E+03  0.17120000000E+03 0.  0.
        998    1    1    2    0    0  0.35954007881E+00  0.34961361486E+00  0.21680108870E+01  0.22252797474E+01  0.10000000000E-01 0.  1.
</event>
<event>
 5    1  0.3934322E-009  0.3882425E+03  0.7957747E-01  0.3416036E+00
         13   -1    0    0    0    0  0.00000000000E+00  0.00000000000E+00  0.14999999963E+04  0.15000000000E+04  0.10566000000E+00 0. -1.
        994   -1    0    0    0    0 -0.00000000000E+00 -0.00000000000E+00  0.11368683772E-12  0.17120000000E+03  0.17120000000E+03 0.  0.
         13    1    1    2    0    0 -0.24137693234E+03 -0.67647345123E+02  0.11347509865E+04  0.11621096331E+04  0.10566000000E+00 0. -1.
        994    1    1    2    0    0  0.25729717673E+03  0.70758908322E+02  0.28211999053E+03  0.42439343694E+03  0.17120000000E+03 0.  0.
        998    1    1    2    0    0 -0.15920244393E+02 -0.31115631990E+01  0.83129019239E+02  0.84696929972E+02  0.10000000000E-01 0.  1.
</event>
<event>
 5    1  0.3934322E-009  0.3883008E+03  0.7957747E-01  0.3415793E+00
         13   -1    0    0    0    0  0.00000000000E+00  0.00000000000E+00  0.14999999963E+04  0.15000000000E+04  0.10566000000E+00 0. -1.
        994   -1    0    0    0    0 -0.00000000000E+00 -0.00000000000E+00  0.11368683772E-12  0.17120000000E+03  0.17120000000E+03 0.  0.
         13    1    1    2    0    0  0.16846166333E+03 -0.16048825518E+03  0.12934123576E+04  0.13141732573E+04  0.10566000000E+00 0. -1.
        994    1    1    2    0    0 -0.16888849398E+03  0.16092785766E+03  0.20319670691E+03  0.35358088250E+03  0.17120000000E+03 0.  0.
        998    1    1    2    0    0  0.42683065237E+00 -0.43960247262E+00  0.33909317406E+01  0.34458602422E+01  0.10000000000E-01 0. -1.
</event>
<event>
 5    1  0.3934322E-009  0.3882960E+03  0.7957747E-01  0.3415812E+00
         13   -1    0    0    0    0  0.00000000000E+00  0.00000000000E+00  0.14999999963E+04  0.15000000000E+04  0.10566000000E+00 0.  1.
        994   -1    0    0    0    0 -0.00000000000E+00 -0.00000000000E+00  0.11368683772E-12  0.17120000000E+03  0.17120000000E+03 0.  0.
         13    1    1    2    0    0 -0.11900711049E+03  0.27663517241E+03  0.10957311564E+04  0.11363610734E+04  0.10566000000E+00 0.  1.
        994    1    1    2    0    0  0.11944531259E+03 -0.27806710815E+03  0.39844414189E+03  0.52882480420E+03  0.17120000000E+03 0.  0.
        998    1    1    2    0    0 -0.43820210355E+00  0.14319357366E+01  0.58246980051E+01  0.60141223705E+01  0.10000000000E-01 0. -1.
</event>
<event>
 5    1  0.3934322E-009  0.3883009E+03  0.7957747E-01  0.3415792E+00
         13   -1    0    0    0    0  0.00000000000E+00  0.00000000000E+00  0.14999999963E+04  0.15000000000E+04  0.10566000000E+00 0. -1.
        994   -1    0    0    0    0 -0.00000000000E+00 -0.00000000000E+00  0.11368683772E-12  0.17120000000E+03  0.17120000000E+03 0.  0.
         13    1    1    2    0    0  0.16949511125E+03 -0.12308723526E+03  0.12430398404E+04  0.12605661887E+04  0.10566000000E+00 0. -1.
        994    1    1    2    0    0 -0.17983913172E+03  0.13057400621E+03  0.18156747084E+03  0.33416742939E+03  0.17120000000E+03 0.  0.
        998    1    1    2    0    0  0.10344020473E+02 -0.74867709458E+01  0.75392685080E+02  0.76466381910E+02  0.10000000000E-01 0. -1.
</event>
<event>
 5    1  0.3934322E-009  0.3882989E+03  0.7957747E-01  0.3415801E+00
         13   -1    0    0    0    0  0.00000000000E+00  0.00000000000E+00  0.14999999963E+04  0.15000000000E+04  0.10566000000E+00 0.  1.
        994   -1    0    0    0    0 -0.00000000000E+00 -0.00000000000E+00  0.11368683772E-12  0.17120000000E+03  0.17120000000E+03 0.  0.
         13    1    1    2    0    0 -0.13327323987E+03  0.18277718690E+03  0.12016791300E+04  0.12227845269E+04  0.10566000000E+00 0.  1.
        994    1    1    2    0    0  0.14230180108E+03 -0.19492996204E+03  0.22020418291E+03  0.36884524514E+03  0.17120000000E+03 0.  0.
        998    1    1    2    0    0 -0.90285612094E+01  0.12152775142E+02  0.78116683357E+02  0.79570227974E+02  0.10000000000E-01 0.  1.
</event>
<event>
 5    1  0.3934322E-009  0.3883007E+03  0.7957747E-01  0.3415793E+00
         13   -1    0    0    0    0  0.00000000000E+00  0.00000000000E+00  0.14999999963E+04  0.15000000000E+04  0.10566000000E+00 0. -1.
        994   -1    0    0    0    0 -0.00000000000E+00 -0.00000000000E+00  0.11368683772E-12  0.17120000000E+03  0.17120000000E+03 0.  0.
         13    1    1    2    0    0  0.65923396881E+02 -0.26980992898E+03  0.11817018610E+04  0.12139038642E+04  0.10566000000E+00 0. -1.
        994    1    1    2    0    0 -0.66128703308E+02  0.27052243388E+03  0.31519817276E+03  0.45410871027E+03  0.17120000000E+03 0.  0.
        998    1    1    2    0    0  0.20530642790E+00 -0.71250490557E+00  0.30999624946E+01  0.31874255188E+01  0.10000000000E-01 0.  1.
</event>
<event>
 5    1  0.3934322E-009  0.3882942E+03  0.7957747E-01  0.3415820E+00
         13   -1    0    0    0    0  0.00000000000E+00  0.00000000000E+00  0.14999999963E+04  0.15000000000E+04  0.10566000000E+00 0.  1.
        994   -1    0    0    0    0 -0.00000000000E+00 -0.00000000000E+00  0.11368683772E-12  0.17120000000E+03  0.17120000000E+03 0.  0.
         13    1    1    2    0    0  0.24776534492E+03 -0.30882918668E+02  0.12508586985E+04  0.12755347567E+04  0.10566000000E+00 0.  1.
        994    1    1    2    0    0 -0.24926962585E+03  0.30907974736E+02  0.24249128020E+03  0.38884715538E+03  0.17120000000E+03 0.  0.
        998    1    1    2    0    0  0.15042809276E+01 -0.25056068490E-01  0.66500176097E+01  0.68180879376E+01  0.10000000000E-01 0. -1.
</event>
<event>
 5    1  0.3934322E-009  0.3882799E+03  0.7957747E-01  0.3415880E+00
         13   -1    0    0    0    0  0.00000000000E+00  0.00000000000E+00  0.14999999963E+04  0.15000000000E+04  0.10566000000E+00 0. -1.
        994   -1    0    0    0    0 -0.00000000000E+00 -0.00000000000E+00  0.11368683772E-12  0.17120000000E+03  0.17120000000E+03 0.  0.
         13    1    1    2    0    0  0.27942827815E+03 -0.30770682397E+02  0.11645925956E+04  0.11980412858E+04  0.10566000000E+00 0. -1.
        994    1    1    2    0    0 -0.28086501574E+03  0.30756482099E+02  0.32772512120E+03  0.46534322099E+03  0.17120000000E+03 0.  0.
        998    1    1    2    0    0  0.14367375864E+01  0.14200298371E-01  0.76822794852E+01  0.78154932429E+01  0.10000000000E-01 0.  1.
</event>
<event>
 5    1  0.3934322E-009  0.3762457E+03  0.7957747E-01  0.3467670E+00
         13   -1    0    0    0    0  0.00000000000E+00  0.00000000000E+00  0.14999999963E+04  0.15000000000E+04  0.10566000000E+00 0. -1.
        994   -1    0    0    0    0 -0.00000000000E+00 -0.00000000000E+00  0.11368683772E-12  0.17120000000E+03  0.17120000000E+03 0.  0.
         13    1    1    2    0    0 -0.78587469311E+02 -0.38114997099E+02  0.19855526359E+03  0.21691691312E+03  0.10566000000E+00 0. -1.
        994    1    1    2    0    0  0.16616858314E+03  0.20805878990E+03  0.30472845942E+03  0.43939655444E+03  0.17120000000E+03 0.  0.
        998    1    1    2    0    0 -0.87581113832E+02 -0.16994379280E+03  0.99671627327E+03  0.10148865324E+04  0.10000000000E-01 0. -1.
</event>
<event>
 5    1  0.3934322E-009  0.3882737E+03  0.7957747E-01  0.3415906E+00
         13   -1    0    0    0    0  0.00000000000E+00  0.00000000000E+00  0.14999999963E+04  0.15000000000E+04  0.10566000000E+00 0.  1.
        994   -1    0    0    0    0 -0.00000000000E+00 -0.00000000000E+00  0.11368683772E-12  0.17120000000E+03  0.17120000000E+03 0.  0.
         13    1    1    2    0    0  0.87085824030E+02  0.14693996902E+03  0.10033682672E+04  0.10178031175E+04  0.10566000000E+00 0.  1.
        994    1    1    2    0    0 -0.11605841329E+03 -0.18985336138E+03  0.18211777217E+03  0.33464933447E+03  0.17120000000E+03 0.  0.
        998    1    1    2    0    0  0.28972589259E+02  0.42913392356E+02  0.31451395696E+03  0.31874754806E+03  0.10000000000E-01 0.  1.
</event>
