<event>
 5    1  0.1666761E-008  0.3850051E+03  0.7957747E-01  0.3429650E+00
         13   -1    0    0    0    0  0.00000000000E+00  0.00000000000E+00  0.14999999963E+04  0.15000000000E+04  0.10566000000E+00 0. -1.
        994   -1    0    0    0    0 -0.00000000000E+00 -0.00000000000E+00  0.11368683772E-12  0.17120000000E+03  0.17120000000E+03 0.  0.
         13    1    1    2    0    0  0.16326475922E+02  0.95452067562E+01  0.98585179646E+02  0.10038283518E+03  0.10566000000E+00 0. -1.
        994    1    1    2    0    0 -0.20056341848E+02 -0.17851316206E+02  0.40020175821E+01  0.17333892374E+03  0.17120000000E+03 0.  0.
        998    1    1    2    0    0  0.37298659261E+01  0.83061094503E+01  0.13974127991E+04  0.13974782411E+04  0.10000000000E+02 0. -1.
</event>
<event>
 5    1  0.1666761E-008  0.4012557E+03  0.7957747E-01  0.3363526E+00
         13   -1    0    0    0    0  0.00000000000E+00  0.00000000000E+00  0.14999999963E+04  0.15000000000E+04  0.10566000000E+00 0.  1.
        994   -1    0    0    0    0 -0.00000000000E+00 -0.00000000000E+00  0.11368683772E-12  0.17120000000E+03  0.17120000000E+03 0.  0.
         13    1    1    2    0    0  0.13992235958E+02  0.31923760716E+02  0.94193470155E+01  0.36106016502E+02  0.10566000000E+00 0.  1.
        994    1    1    2    0    0 -0.10068776296E+02 -0.35786808327E+02  0.33987797257E+02  0.17845639879E+03  0.17120000000E+03 0.  0.
        998    1    1    2    0    0 -0.39234596625E+01  0.38630476109E+01  0.14565928520E+04  0.14566375847E+04  0.10000000000E+02 0.  1.
</event>
<event>
 5    1  0.1666761E-008  0.3730613E+03  0.7957747E-01  0.3481939E+00
         13   -1    0    0    0    0  0.00000000000E+00  0.00000000000E+00  0.14999999963E+04  0.15000000000E+04  0.10566000000E+00 0.  1.
        994   -1    0    0    0    0 -0.00000000000E+00 -0.00000000000E+00  0.11368683772E-12  0.17120000000E+03  0.17120000000E+03 0.  0.
         13    1    1    2    0    0 -0.12800271108E+03  0.17298403846E+03  0.89371120692E+03  0.91925399327E+03  0.10566000000E+00 0.  1.
        994    1    1    2    0    0  0.10161154056E+03 -0.19675785951E+03  0.20007852952E+03  0.34406310239E+03  0.17120000000E+03 0.  0.
        998    1    1    2    0    0  0.26391170521E+02  0.23773821057E+02  0.40621025984E+03  0.40788290433E+03  0.10000000000E+02 0.  1.
</event>
<event>
 5    1  0.1666761E-008  0.3807544E+03  0.7957747E-01  0.3447880E+00
         13   -1    0    0    0    0  0.00000000000E+00  0.00000000000E+00  0.14999999963E+04  0.15000000000E+04  0.10566000000E+00 0.  1.
        994   -1    0    0    0    0 -0.00000000000E+00 -0.00000000000E+00  0.11368683772E-12  0.17120000000E+03  0.17120000000E+03 0.  0.
         13    1    1    2    0    0 -0.27896170959E+02 -0.27961793752E+01  0.73192053447E+02  0.78377948590E+02  0.10566000000E+00 0.  1.
        994    1    1    2    0    0  0.87141713122E+02  0.10425810803E+03  0.67994819399E+02  0.22890208981E+03  0.17120000000E+03 0.  0.
        998    1    1    2    0    0 -0.59245542164E+02 -0.10146192865E+03  0.13588131234E+04  0.13639199616E+04  0.10000000000E+02 0.  1.
</event>
<event>
 5    1  0.1666761E-008  0.3706828E+03  0.7957747E-01  0.3492759E+00
         13   -1    0    0    0    0  0.00000000000E+00  0.00000000000E+00  0.14999999963E+04  0.15000000000E+04  0.10566000000E+00 0. -1.
        994   -1    0    0    0    0 -0.00000000000E+00 -0.00000000000E+00  0.11368683772E-12  0.17120000000E+03  0.17120000000E+03 0.  0.
         13    1    1    2    0    0 -0.22671201357E+02 -0.12403554542E+02  0.23546620653E+02  0.34961207708E+02  0.10566000000E+00 0. -1.
        994    1    1    2    0    0  0.37070160271E+02  0.16991412543E+02  0.17150395392E+02  0.17682330430E+03  0.17120000000E+03 0.  0.
        998    1    1    2    0    0 -0.14398958914E+02 -0.45878580013E+01  0.14593029802E+04  0.14594154880E+04  0.10000000000E+02 0. -1.
</event>
<event>
 5    1  0.1666761E-008  0.3822893E+03  0.7957747E-01  0.3441250E+00
         13   -1    0    0    0    0  0.00000000000E+00  0.00000000000E+00  0.14999999963E+04  0.15000000000E+04  0.10566000000E+00 0. -1.
        994   -1    0    0    0    0 -0.00000000000E+00 -0.00000000000E+00  0.11368683772E-12  0.17120000000E+03  0.17120000000E+03 0.  0.
         13    1    1    2    0    0 -0.31862828169E+00  0.36214146940E+02  0.19084418790E+03  0.19425004809E+03  0.10566000000E+00 0. -1.
        994    1    1    2    0    0 -0.87731301120E+01 -0.38108327051E+02  0.80722333652E+01  0.17579480468E+03  0.17120000000E+03 0.  0.
        998    1    1    2    0    0  0.90917583937E+01  0.18941801104E+01  0.13010835750E+04  0.13011551472E+04  0.10000000000E+02 0. -1.
</event>
<event>
 5    1  0.1666761E-008  0.3713066E+03  0.7957747E-01  0.3489908E+00
         13   -1    0    0    0    0  0.00000000000E+00  0.00000000000E+00  0.14999999963E+04  0.15000000000E+04  0.10566000000E+00 0. -1.
        994   -1    0    0    0    0 -0.00000000000E+00 -0.00000000000E+00  0.11368683772E-12  0.17120000000E+03  0.17120000000E+03 0.  0.
         13    1    1    2    0    0  0.34180533882E+02 -0.80071363191E+02  0.28533662399E+03  0.29832320100E+03  0.10566000000E+00 0. -1.
        994    1    1    2    0    0 -0.34977190148E+02  0.63387687731E+02  0.30274411887E+02  0.18832785987E+03  0.17120000000E+03 0.  0.
        998    1    1    2    0    0  0.79665626660E+00  0.16683675460E+02  0.11843889604E+04  0.11845489391E+04  0.10000000000E+02 0.  1.
</event>
<event>
 5    1  0.1666761E-008  0.3785418E+03  0.7957747E-01  0.3457533E+00
         13   -1    0    0    0    0  0.00000000000E+00  0.00000000000E+00  0.14999999963E+04  0.15000000000E+04  0.10566000000E+00 0. -1.
        994   -1    0    0    0    0 -0.00000000000E+00 -0.00000000000E+00  0.11368683772E-12  0.17120000000E+03  0.17120000000E+03 0.  0.
         13    1    1    2    0    0  0.32925570713E+01  0.36549382806E+02  0.18267724087E+03  0.18632681990E+03  0.10566000000E+00 0. -1.
        994    1    1    2    0    0  0.11406972340E+02  0.19831104724E+02  0.66311803125E+01  0.17284907950E+03  0.17120000000E+03 0.  0.
        998    1    1    2    0    0 -0.14699529411E+02 -0.56380487529E+02  0.13106915751E+04  0.13120241006E+04  0.10000000000E+02 0. -1.
</event>
<event>
 5    1  0.1666761E-008  0.3809057E+03  0.7957747E-01  0.3447224E+00
         13   -1    0    0    0    0  0.00000000000E+00  0.00000000000E+00  0.14999999963E+04  0.15000000000E+04  0.10566000000E+00 0.  1.
        994   -1    0    0    0    0 -0.00000000000E+00 -0.00000000000E+00  0.11368683772E-12  0.17120000000E+03  0.17120000000E+03 0.  0.
         13    1    1    2    0    0  0.50635012354E+01  0.33234529723E+02  0.17430893382E+03  0.17752123417E+03  0.10566000000E+00 0.  1.
        994    1    1    2    0    0 -0.90792085623E+01 -0.34499668619E+00  0.39518176572E+01  0.17148646569E+03  0.17120000000E+03 0.  0.
        998    1    1    2    0    0  0.40157073269E+01 -0.32889533036E+02  0.13217392448E+04  0.13221923001E+04  0.10000000000E+02 0.  1.
</event>
<event>
 5    1  0.1666761E-008  0.3848976E+03  0.7957747E-01  0.3430107E+00
         13   -1    0    0    0    0  0.00000000000E+00  0.00000000000E+00  0.14999999963E+04  0.15000000000E+04  0.10566000000E+00 0. -1.
        994   -1    0    0    0    0 -0.00000000000E+00 -0.00000000000E+00  0.11368683772E-12  0.17120000000E+03  0.17120000000E+03 0.  0.
         13    1    1    2    0    0  0.11966329101E+02  0.29424364726E+01  0.46192754588E+02  0.47808291174E+02  0.10566000000E+00 0. -1.
        994    1    1    2    0    0 -0.36299243667E+01  0.14977891768E+00  0.17244128543E+01  0.17124722592E+03  0.17120000000E+03 0.  0.
        998    1    1    2    0    0 -0.83364047345E+01 -0.30922153903E+01  0.14520828288E+04  0.14521444829E+04  0.10000000000E+02 0. -1.
</event>
<event>
 5    1  0.1666761E-008  0.3687095E+03  0.7957747E-01  0.3501843E+00
         13   -1    0    0    0    0  0.00000000000E+00  0.00000000000E+00  0.14999999963E+04  0.15000000000E+04  0.10566000000E+00 0.  1.
        994   -1    0    0    0    0 -0.00000000000E+00 -0.00000000000E+00  0.11368683772E-12  0.17120000000E+03  0.17120000000E+03 0.  0.
         13    1    1    2    0    0  0.51697762597E+02  0.58934048612E+02  0.37312318456E+03  0.38126998671E+03  0.10566000000E+00 0.  1.
        994    1    1    2    0    0 -0.24412284182E+02 -0.40600111032E+01  0.12075142888E+02  0.17340038173E+03  0.17120000000E+03 0.  0.
        998    1    1    2    0    0 -0.27285478415E+02 -0.54874037509E+02  0.11148016688E+04  0.11165296316E+04  0.10000000000E+02 0. -1.
</event>
<event>
 5    1  0.1666761E-008  0.3791049E+03  0.7957747E-01  0.3455065E+00
         13   -1    0    0    0    0  0.00000000000E+00  0.00000000000E+00  0.14999999963E+04  0.15000000000E+04  0.10566000000E+00 0. -1.
        994   -1    0    0    0    0 -0.00000000000E+00 -0.00000000000E+00  0.11368683772E-12  0.17120000000E+03  0.17120000000E+03 0.  0.
         13    1    1    2    0    0  0.17049838928E+01  0.12180952668E+02 -0.25089591113E+01  0.12553430520E+02  0.10566000000E+00 0. -1.
        994    1    1    2    0    0  0.32555848377E+01 -0.53135720155E+01  0.15976939371E+02  0.17205677979E+03  0.17120000000E+03 0.  0.
        998    1    1    2    0    0 -0.49605687305E+01 -0.68673806525E+01  0.14865320160E+04  0.14865897897E+04  0.10000000000E+02 0. -1.
</event>
<event>
 5    1  0.1666761E-008  0.3799157E+03  0.7957747E-01  0.3451526E+00
         13   -1    0    0    0    0  0.00000000000E+00  0.00000000000E+00  0.14999999963E+04  0.15000000000E+04  0.10566000000E+00 0.  1.
        994   -1    0    0    0    0 -0.00000000000E+00 -0.00000000000E+00  0.11368683772E-12  0.17120000000E+03  0.17120000000E+03 0.  0.
         13    1    1    2    0    0  0.58504487434E+02 -0.40547138902E+02  0.13780817130E+03  0.15510624992E+03  0.10566000000E+00 0.  1.
        994    1    1    2    0    0 -0.57522348852E+02  0.39450283006E+02  0.34123179039E+02  0.18798663994E+03  0.17120000000E+03 0.  0.
        998    1    1    2    0    0 -0.98213858265E+00  0.10968558964E+01  0.13280686459E+04  0.13281071101E+04  0.10000000000E+02 0.  1.
</event>
<event>
 5    1  0.1666761E-008  0.3845528E+03  0.7957747E-01  0.3431571E+00
         13   -1    0    0    0    0  0.00000000000E+00  0.00000000000E+00  0.14999999963E+04  0.15000000000E+04  0.10566000000E+00 0. -1.
        994   -1    0    0    0    0 -0.00000000000E+00 -0.00000000000E+00  0.11368683772E-12  0.17120000000E+03  0.17120000000E+03 0.  0.
         13    1    1    2    0    0 -0.57204361929E-01  0.12705291394E+02  0.41862602764E+02  0.43748329979E+02  0.10566000000E+00 0. -1.
        994    1    1    2    0    0 -0.10465489194E+02 -0.15548086470E+02  0.30100575791E+01  0.17224915066E+03  0.17120000000E+03 0.  0.
        998    1    1    2    0    0  0.10522693556E+02  0.28427950762E+01  0.14551273359E+04  0.14552025194E+04  0.10000000000E+02 0. -1.
</event>
<event>
 5    1  0.1666761E-008  0.3696056E+03  0.7957747E-01  0.3497705E+00
         13   -1    0    0    0    0  0.00000000000E+00  0.00000000000E+00  0.14999999963E+04  0.15000000000E+04  0.10566000000E+00 0.  1.
        994   -1    0    0    0    0 -0.00000000000E+00 -0.00000000000E+00  0.11368683772E-12  0.17120000000E+03  0.17120000000E+03 0.  0.
         13    1    1    2    0    0 -0.50669577742E+02 -0.43991313726E+02  0.27014142382E+03  0.27835057359E+03  0.10566000000E+00 0.  1.
        994    1    1    2    0    0 -0.61239658200E+02  0.12951851534E+03  0.84304067068E+02  0.23862513966E+03  0.17120000000E+03 0.  0.
        998    1    1    2    0    0  0.11190923594E+03 -0.85527201612E+02  0.11455545054E+04  0.11542242868E+04  0.10000000000E+02 0.  1.
</event>
<event>
 5    1  0.1666761E-008  0.3835827E+03  0.7957747E-01  0.3435706E+00
         13   -1    0    0    0    0  0.00000000000E+00  0.00000000000E+00  0.14999999963E+04  0.15000000000E+04  0.10566000000E+00 0.  1.
        994   -1    0    0    0    0 -0.00000000000E+00 -0.00000000000E+00  0.11368683772E-12  0.17120000000E+03  0.17120000000E+03 0.  0.
         13    1    1    2    0    0  0.12229404185E+02  0.34818175881E+01  0.33895585661E+02  0.36202255065E+02  0.10566000000E+00 0.  1.
        994    1    1    2    0    0 -0.13365113418E+01 -0.28568410823E+02  0.50424699935E+01  0.17364563589E+03  0.17120000000E+03 0.  0.
        998    1    1    2    0    0 -0.10892892843E+02  0.25086593235E+02  0.14610619406E+04  0.14613521090E+04  0.10000000000E+02 0.  1.
</event>
<event>
 5    1  0.1666761E-008  0.3853120E+03  0.7957747E-01  0.3428350E+00
         13   -1    0    0    0    0  0.00000000000E+00  0.00000000000E+00  0.14999999963E+04  0.15000000000E+04  0.10566000000E+00 0.  1.
        994   -1    0    0    0    0 -0.00000000000E+00 -0.00000000000E+00  0.11368683772E-12  0.17120000000E+03  0.17120000000E+03 0.  0.
         13    1    1    2    0    0 -0.57745905091E+01  0.11884385663E+02  0.56920461268E+02  0.58434019142E+02  0.10566000000E+00 0.  1.
        994    1    1    2    0    0 -0.10754093339E+00 -0.17389908919E+02  0.24694784644E+01  0.17209868919E+03  0.17120000000E+03 0.  0.
        998    1    1    2    0    0  0.58821314425E+01  0.55055232565E+01  0.14406100565E+04  0.14406672917E+04  0.10000000000E+02 0.  1.
</event>
<event>
 5    1  0.1666761E-008  0.3747242E+03  0.7957747E-01  0.3474457E+00
         13   -1    0    0    0    0  0.00000000000E+00  0.00000000000E+00  0.14999999963E+04  0.15000000000E+04  0.10566000000E+00 0. -1.
        994   -1    0    0    0    0 -0.00000000000E+00 -0.00000000000E+00  0.11368683772E-12  0.17120000000E+03  0.17120000000E+03 0.  0.
         13    1    1    2    0    0 -0.19664859850E+02 -0.29154218212E+02  0.84269465941E+02  0.91312809652E+02  0.10566000000E+00 0. -1.
        994    1    1    2    0    0  0.28292799659E+02  0.21514667493E+02  0.11130951267E+02  0.17520474168E+03  0.17120000000E+03 0.  0.
        998    1    1    2    0    0 -0.86279398096E+01  0.76395507190E+01  0.14045995791E+04  0.14046824487E+04  0.10000000000E+02 0. -1.
</event>
<event>
 5    1  0.1666761E-008  0.3826878E+03  0.7957747E-01  0.3439538E+00
         13   -1    0    0    0    0  0.00000000000E+00  0.00000000000E+00  0.14999999963E+04  0.15000000000E+04  0.10566000000E+00 0. -1.
        994   -1    0    0    0    0 -0.00000000000E+00 -0.00000000000E+00  0.11368683772E-12  0.17120000000E+03  0.17120000000E+03 0.  0.
         13    1    1    2    0    0  0.18609235634E+02  0.61503274108E+00  0.66336824944E+02  0.68900416717E+02  0.10566000000E+00 0. -1.
        994    1    1    2    0    0  0.32324480135E+01 -0.51966298691E+01  0.29065774311E+01  0.17133400677E+03  0.17120000000E+03 0.  0.
        998    1    1    2    0    0 -0.21841683647E+02  0.45815971281E+01  0.14307565939E+04  0.14309655765E+04  0.10000000000E+02 0. -1.
</event>
<event>
 5    1  0.1666761E-008  0.3836810E+03  0.7957747E-01  0.3435286E+00
         13   -1    0    0    0    0  0.00000000000E+00  0.00000000000E+00  0.14999999963E+04  0.15000000000E+04  0.10566000000E+00 0. -1.
        994   -1    0    0    0    0 -0.00000000000E+00 -0.00000000000E+00  0.11368683772E-12  0.17120000000E+03  0.17120000000E+03 0.  0.
         13    1    1    2    0    0  0.61336332924E+01 -0.12826864528E+02  0.44951795625E+02  0.47146845121E+02  0.10566000000E+00 0. -1.
        994    1    1    2    0    0  0.37445033082E+00  0.33444789923E+01  0.23238288851E+01  0.17124884214E+03  0.17120000000E+03 0.  0.
        998    1    1    2    0    0 -0.65080836232E+01  0.94823855354E+01  0.14527243718E+04  0.14528043127E+04  0.10000000000E+02 0. -1.
</event>
<event>
 5    1  0.1666761E-008  0.3805294E+03  0.7957747E-01  0.3448857E+00
         13   -1    0    0    0    0  0.00000000000E+00  0.00000000000E+00  0.14999999963E+04  0.15000000000E+04  0.10566000000E+00 0.  1.
        994   -1    0    0    0    0 -0.00000000000E+00 -0.00000000000E+00  0.11368683772E-12  0.17120000000E+03  0.17120000000E+03 0.  0.
         13    1    1    2    0    0  0.14360790597E+02  0.41333703018E+02  0.21989371057E+03  0.22420517930E+03  0.10566000000E+00 0.  1.
        994    1    1    2    0    0 -0.98321823972E+01 -0.38427500016E+02  0.91344142441E+01  0.17597221966E+03  0.17120000000E+03 0.  0.
        998    1    1    2    0    0 -0.45286082001E+01 -0.29062030017E+01  0.12709718715E+04  0.12710226010E+04  0.10000000000E+02 0.  0.
</event>
<event>
 5    1  0.1666761E-008  0.3838032E+03  0.7957747E-01  0.3434764E+00
         13   -1    0    0    0    0  0.00000000000E+00  0.00000000000E+00  0.14999999963E+04  0.15000000000E+04  0.10566000000E+00 0. -1.
        994   -1    0    0    0    0 -0.00000000000E+00 -0.00000000000E+00  0.11368683772E-12  0.17120000000E+03  0.17120000000E+03 0.  0.
         13    1    1    2    0    0  0.13605003972E+02  0.42623985440E+01  0.48082498685E+02  0.50151789782E+02  0.10566000000E+00 0. -1.
        994    1    1    2    0    0  0.26385620420E+01  0.41558150852E+01  0.23054984836E+01  0.17128627538E+03  0.17120000000E+03 0.  0.
        998    1    1    2    0    0 -0.16243566014E+02 -0.84182136292E+01  0.14496119991E+04  0.14497619348E+04  0.10000000000E+02 0. -1.
</event>
<event>
 5    1  0.1666761E-008  0.3722232E+03  0.7957747E-01  0.3485735E+00
         13   -1    0    0    0    0  0.00000000000E+00  0.00000000000E+00  0.14999999963E+04  0.15000000000E+04  0.10566000000E+00 0.  1.
        994   -1    0    0    0    0 -0.00000000000E+00 -0.00000000000E+00  0.11368683772E-12  0.17120000000E+03  0.17120000000E+03 0.  0.
         13    1    1    2    0    0  0.49139560613E+02 -0.23738581184E+01  0.16008797574E+03  0.16747687231E+03  0.10566000000E+00 0.  1.
        994    1    1    2    0    0 -0.11716575359E+02 -0.68698857684E+01  0.87448704195E+01  0.17196042053E+03  0.17120000000E+03 0.  0.
        998    1    1    2    0    0 -0.37422985254E+02  0.92437438869E+01  0.13311671501E+04  0.13317627072E+04  0.10000000000E+02 0.  1.
</event>
<event>
 5    1  0.1666761E-008  0.3843583E+03  0.7957747E-01  0.3432398E+00
         13   -1    0    0    0    0  0.00000000000E+00  0.00000000000E+00  0.14999999963E+04  0.15000000000E+04  0.10566000000E+00 0.  1.
        994   -1    0    0    0    0 -0.00000000000E+00 -0.00000000000E+00  0.11368683772E-12  0.17120000000E+03  0.17120000000E+03 0.  0.
         13    1    1    2    0    0 -0.10463608880E+02 -0.17071625227E+02  0.95092068929E+02  0.97177364834E+02  0.10566000000E+00 0.  1.
        994    1    1    2    0    0  0.67859024830E+01  0.23529096130E+02  0.39277825160E+01  0.17298709291E+03  0.17120000000E+03 0.  0.
        998    1    1    2    0    0  0.36777063969E+01 -0.64574709027E+01  0.14009801448E+04  0.14010355423E+04  0.10000000000E+02 0.  1.
</event>
<event>
 5    1  0.1666761E-008  0.3842734E+03  0.7957747E-01  0.3432760E+00
         13   -1    0    0    0    0  0.00000000000E+00  0.00000000000E+00  0.14999999963E+04  0.15000000000E+04  0.10566000000E+00 0.  1.
        994   -1    0    0    0    0 -0.00000000000E+00 -0.00000000000E+00  0.11368683772E-12  0.17120000000E+03  0.17120000000E+03 0.  0.
         13    1    1    2    0    0 -0.10047640174E+02 -0.16933506997E+02  0.93608851738E+02  0.95657341695E+02  0.10566000000E+00 0.  1.
        994    1    1    2    0    0  0.54593328672E+01  0.17363163572E+02  0.30841201057E+01  0.17219243758E+03  0.17120000000E+03 0.  0.
        998    1    1    2    0    0  0.45883073070E+01 -0.42965657497E+00  0.14033070244E+04  0.14033502207E+04  0.10000000000E+02 0.  1.
</event>
<event>
 5    1  0.1666761E-008  0.3888133E+03  0.7957747E-01  0.3413659E+00
         13   -1    0    0    0    0  0.00000000000E+00  0.00000000000E+00  0.14999999963E+04  0.15000000000E+04  0.10566000000E+00 0.  1.
        994   -1    0    0    0    0 -0.00000000000E+00 -0.00000000000E+00  0.11368683772E-12  0.17120000000E+03  0.17120000000E+03 0.  0.
         13    1    1    2    0    0  0.35558052693E+02 -0.41210861949E+02  0.60022232788E+02  0.81027093288E+02  0.10566000000E+00 0.  1.
        994    1    1    2    0    0 -0.29451398950E+02  0.44984337405E+02  0.32163021829E+02  0.18230434851E+03  0.17120000000E+03 0.  0.
        998    1    1    2    0    0 -0.61066537431E+01 -0.37734754560E+01  0.14078147417E+04  0.14078685582E+04  0.10000000000E+02 0.  1.
</event>
<event>
 5    1  0.1666761E-008  0.3831846E+03  0.7957747E-01  0.3437408E+00
         13   -1    0    0    0    0  0.00000000000E+00  0.00000000000E+00  0.14999999963E+04  0.15000000000E+04  0.10566000000E+00 0.  1.
        994   -1    0    0    0    0 -0.00000000000E+00 -0.00000000000E+00  0.11368683772E-12  0.17120000000E+03  0.17120000000E+03 0.  0.
         13    1    1    2    0    0  0.46970743415E+01  0.14260422640E+02  0.44149464540E+02  0.46632698233E+02  0.10566000000E+00 0.  1.
        994    1    1    2    0    0 -0.86430699065E+01 -0.53405988698E+01  0.28756950065E+01  0.17152531672E+03  0.17120000000E+03 0.  0.
        998    1    1    2    0    0  0.39459955650E+01 -0.89198237705E+01  0.14529748367E+04  0.14530419850E+04  0.10000000000E+02 0.  1.
</event>
<event>
 5    1  0.1666761E-008  0.3791858E+03  0.7957747E-01  0.3454711E+00
         13   -1    0    0    0    0  0.00000000000E+00  0.00000000000E+00  0.14999999963E+04  0.15000000000E+04  0.10566000000E+00 0. -1.
        994   -1    0    0    0    0 -0.00000000000E+00 -0.00000000000E+00  0.11368683772E-12  0.17120000000E+03  0.17120000000E+03 0.  0.
         13    1    1    2    0    0  0.38603307050E+02 -0.22441843778E+00  0.17765518253E+03  0.18180110210E+03  0.10566000000E+00 0. -1.
        994    1    1    2    0    0 -0.11366134343E+02 -0.39150851565E+02  0.10135764683E+02  0.17627862013E+03  0.17120000000E+03 0.  0.
        998    1    1    2    0    0 -0.27237172707E+02  0.39375270002E+02  0.13122090491E+04  0.13131202778E+04  0.10000000000E+02 0. -1.
</event>
<event>
 5    1  0.1666761E-008  0.2617948E+03  0.7957747E-01  0.4213209E+00
         13   -1    0    0    0    0  0.00000000000E+00  0.00000000000E+00  0.14999999963E+04  0.15000000000E+04  0.10566000000E+00 0.  1.
        994   -1    0    0    0    0 -0.00000000000E+00 -0.00000000000E+00  0.11368683772E-12  0.17120000000E+03  0.17120000000E+03 0.  0.
         13    1    1    2    0    0 -0.38028056136E+02 -0.17232608880E+03  0.56526504344E+03  0.59217142318E+03  0.10566000000E+00 0.  1.
        994    1    1    2    0    0  0.75761826512E+01  0.52741323536E+02  0.50649625977E+02  0.18631658639E+03  0.17120000000E+03 0.  0.
        998    1    1    2    0    0  0.30451873485E+02  0.11958476527E+03  0.88408532686E+03  0.89271199043E+03  0.10000000000E+02 0.  1.
</event>
<event>
 5    1  0.1666761E-008  0.3798406E+03  0.7957747E-01  0.3451853E+00
         13   -1    0    0    0    0  0.00000000000E+00  0.00000000000E+00  0.14999999963E+04  0.15000000000E+04  0.10566000000E+00 0.  1.
        994   -1    0    0    0    0 -0.00000000000E+00 -0.00000000000E+00  0.11368683772E-12  0.17120000000E+03  0.17120000000E+03 0.  0.
         13    1    1    2    0    0 -0.34472832330E+02 -0.35913009256E+02  0.27267579123E+03  0.27718264500E+03  0.10566000000E+00 0.  1.
        994    1    1    2    0    0  0.38500369016E+02  0.14464198188E+02  0.98919715322E+01  0.17634846907E+03  0.17120000000E+03 0.  0.
        998    1    1    2    0    0 -0.40275366860E+01  0.21448811068E+02  0.12174322335E+04  0.12176688859E+04  0.10000000000E+02 0.  1.
</event>
<event>
 5    1  0.1666761E-008  0.3841824E+03  0.7957747E-01  0.3433147E+00
         13   -1    0    0    0    0  0.00000000000E+00  0.00000000000E+00  0.14999999963E+04  0.15000000000E+04  0.10566000000E+00 0.  1.
        994   -1    0    0    0    0 -0.00000000000E+00 -0.00000000000E+00  0.11368683772E-12  0.17120000000E+03  0.17120000000E+03 0.  0.
         13    1    1    2    0    0 -0.99355544393E+01  0.12605961048E+02  0.62914793483E+02  0.64930023095E+02  0.10566000000E+00 0.  1.
        994    1    1    2    0    0  0.89238636930E+01 -0.62404945502E+01  0.24277001766E+01  0.17156314535E+03  0.17120000000E+03 0.  0.
        998    1    1    2    0    0  0.10116907462E+01 -0.63654664980E+01  0.14346575026E+04  0.14347068316E+04  0.10000000000E+02 0.  1.
</event>
<event>
 5    1  0.1666761E-008  0.3811368E+03  0.7957747E-01  0.3446223E+00
         13   -1    0    0    0    0  0.00000000000E+00  0.00000000000E+00  0.14999999963E+04  0.15000000000E+04  0.10566000000E+00 0. -1.
        994   -1    0    0    0    0 -0.00000000000E+00 -0.00000000000E+00  0.11368683772E-12  0.17120000000E+03  0.17120000000E+03 0.  0.
         13    1    1    2    0    0  0.64859643544E+01  0.88048853280E+01  0.15288844330E+02  0.18797703695E+02  0.10566000000E+00 0. -1.
        994    1    1    2    0    0 -0.41927858134E+01 -0.68987528394E+01  0.37774767770E+01  0.17143185694E+03  0.17120000000E+03 0.  0.
        998    1    1    2    0    0 -0.22931785411E+01 -0.19061324886E+01  0.14809336752E+04  0.14809704394E+04  0.10000000000E+02 0. -1.
</event>
<event>
 5    1  0.1666761E-008  0.3804339E+03  0.7957747E-01  0.3449271E+00
         13   -1    0    0    0    0  0.00000000000E+00  0.00000000000E+00  0.14999999963E+04  0.15000000000E+04  0.10566000000E+00 0. -1.
        994   -1    0    0    0    0 -0.00000000000E+00 -0.00000000000E+00  0.11368683772E-12  0.17120000000E+03  0.17120000000E+03 0.  0.
         13    1    1    2    0    0 -0.10134358222E+02  0.28574838588E+01  0.12384990357E+02  0.16256370467E+02  0.10566000000E+00 0. -1.
        994    1    1    2    0    0  0.91165282312E+01 -0.52382132637E+01  0.42833830999E+01  0.17157603952E+03  0.17120000000E+03 0.  0.
        998    1    1    2    0    0  0.10178299910E+01  0.23807294049E+01  0.14833316228E+04  0.14833675900E+04  0.10000000000E+02 0. -1.
</event>
<event>
 5    1  0.1666761E-008  0.3722449E+03  0.7957747E-01  0.3485637E+00
         13   -1    0    0    0    0  0.00000000000E+00  0.00000000000E+00  0.14999999963E+04  0.15000000000E+04  0.10566000000E+00 0. -1.
        994   -1    0    0    0    0 -0.00000000000E+00 -0.00000000000E+00  0.11368683772E-12  0.17120000000E+03  0.17120000000E+03 0.  0.
         13    1    1    2    0    0 -0.60820416606E+02  0.26010453468E+01  0.19011965333E+03  0.19962810990E+03  0.10566000000E+00 0. -1.
        994    1    1    2    0    0  0.67982185394E+02 -0.11371551229E+02  0.24581489645E+02  0.18618426180E+03  0.17120000000E+03 0.  0.
        998    1    1    2    0    0 -0.71617687887E+01  0.87705058824E+01  0.12852988533E+04  0.12853876283E+04  0.10000000000E+02 0. -1.
</event>
<event>
 5    1  0.1666761E-008  0.3766278E+03  0.7957747E-01  0.3465974E+00
         13   -1    0    0    0    0  0.00000000000E+00  0.00000000000E+00  0.14999999963E+04  0.15000000000E+04  0.10566000000E+00 0.  1.
        994   -1    0    0    0    0 -0.00000000000E+00 -0.00000000000E+00  0.11368683772E-12  0.17120000000E+03  0.17120000000E+03 0.  0.
         13    1    1    2    0    0 -0.27153979799E+02 -0.28973948401E+02  0.48925225364E+02  0.63012039690E+02  0.10566000000E+00 0.  1.
        994    1    1    2    0    0  0.19183806766E+02  0.20687329902E+02  0.17341367672E+02  0.17437358485E+03  0.17120000000E+03 0.  0.
        998    1    1    2    0    0  0.79701730332E+01  0.82866184997E+01  0.14337334032E+04  0.14338143755E+04  0.10000000000E+02 0.  1.
</event>
<event>
 5    1  0.1666761E-008  0.3857199E+03  0.7957747E-01  0.3426625E+00
         13   -1    0    0    0    0  0.00000000000E+00  0.00000000000E+00  0.14999999963E+04  0.15000000000E+04  0.10566000000E+00 0.  1.
        994   -1    0    0    0    0 -0.00000000000E+00 -0.00000000000E+00  0.11368683772E-12  0.17120000000E+03  0.17120000000E+03 0.  0.
         13    1    1    2    0    0  0.14666392806E+02 -0.14554799294E+01  0.88896207632E+02  0.90109757492E+02  0.10566000000E+00 0.  1.
        994    1    1    2    0    0 -0.49136623996E+01  0.78612000091E+01  0.15551810920E+01  0.17145786985E+03  0.17120000000E+03 0.  0.
        998    1    1    2    0    0 -0.97527304066E+01 -0.64057200797E+01  0.14095486076E+04  0.14096323727E+04  0.10000000000E+02 0.  1.
</event>
<event>
 5    1  0.1666761E-008  0.3845442E+03  0.7957747E-01  0.3431608E+00
         13   -1    0    0    0    0  0.00000000000E+00  0.00000000000E+00  0.14999999963E+04  0.15000000000E+04  0.10566000000E+00 0.  1.
        994   -1    0    0    0    0 -0.00000000000E+00 -0.00000000000E+00  0.11368683772E-12  0.17120000000E+03  0.17120000000E+03 0.  0.
         13    1    1    2    0    0  0.21245650092E+02 -0.82367081679E+02  0.18689960613E+03  0.20534650649E+03  0.10566000000E+00 0.  1.
        994    1    1    2    0    0 -0.39146032825E+01  0.53830454399E+02  0.29660148973E+02  0.18194011756E+03  0.17120000000E+03 0.  0.
        998    1    1    2    0    0 -0.17331046810E+02  0.28536627280E+02  0.12834402412E+04  0.12839133760E+04  0.10000000000E+02 0.  1.
</event>
<event>
 5    1  0.1666761E-008  0.3706912E+03  0.7957747E-01  0.3492720E+00
         13   -1    0    0    0    0  0.00000000000E+00  0.00000000000E+00  0.14999999963E+04  0.15000000000E+04  0.10566000000E+00 0.  1.
        994   -1    0    0    0    0 -0.00000000000E+00 -0.00000000000E+00  0.11368683772E-12  0.17120000000E+03  0.17120000000E+03 0.  0.
         13    1    1    2    0    0 -0.37507423579E+02 -0.41441954266E+02  0.14527232905E+03  0.15565443504E+03  0.10566000000E+00 0.  1.
        994    1    1    2    0    0  0.17251512562E+02  0.56132824935E+01  0.12458982902E+02  0.17260877695E+03  0.17120000000E+03 0.  0.
        998    1    1    2    0    0  0.20255911017E+02  0.35828671772E+02  0.13422686843E+04  0.13429367880E+04  0.10000000000E+02 0.  1.
</event>
<event>
 5    1  0.1666761E-008  0.3824171E+03  0.7957747E-01  0.3440701E+00
         13   -1    0    0    0    0  0.00000000000E+00  0.00000000000E+00  0.14999999963E+04  0.15000000000E+04  0.10566000000E+00 0. -1.
        994   -1    0    0    0    0 -0.00000000000E+00 -0.00000000000E+00  0.11368683772E-12  0.17120000000E+03  0.17120000000E+03 0.  0.
         13    1    1    2    0    0  0.35284508004E+02 -0.38709566833E+01  0.17541404471E+03  0.17896949197E+03  0.10566000000E+00 0. -1.
        994    1    1    2    0    0 -0.48183802099E+02 -0.72414563327E+01  0.10831848520E+02  0.17832803037E+03  0.17120000000E+03 0.  0.
        998    1    1    2    0    0  0.12899294096E+02  0.11112413016E+02  0.13137541031E+04  0.13139024777E+04  0.10000000000E+02 0. -1.
</event>
<event>
 5    1  0.1666761E-008  0.3838548E+03  0.7957747E-01  0.3434544E+00
         13   -1    0    0    0    0  0.00000000000E+00  0.00000000000E+00  0.14999999963E+04  0.15000000000E+04  0.10566000000E+00 0. -1.
        994   -1    0    0    0    0 -0.00000000000E+00 -0.00000000000E+00  0.11368683772E-12  0.17120000000E+03  0.17120000000E+03 0.  0.
         13    1    1    2    0    0  0.18064275203E+02 -0.18539012885E+01  0.71781833205E+02  0.74043215293E+02  0.10566000000E+00 0. -1.
        994    1    1    2    0    0 -0.18086931549E+02  0.10261603326E+01  0.32838554796E+01  0.17218714762E+03  0.17120000000E+03 0.  0.
        998    1    1    2    0    0  0.22656345856E-01  0.82774095590E+00  0.14249343076E+04  0.14249696371E+04  0.10000000000E+02 0. -1.
</event>
<event>
 5    1  0.1666761E-008  0.3831049E+03  0.7957747E-01  0.3437750E+00
         13   -1    0    0    0    0  0.00000000000E+00  0.00000000000E+00  0.14999999963E+04  0.15000000000E+04  0.10566000000E+00 0. -1.
        994   -1    0    0    0    0 -0.00000000000E+00 -0.00000000000E+00  0.11368683772E-12  0.17120000000E+03  0.17120000000E+03 0.  0.
         13    1    1    2    0    0 -0.11312802756E+03  0.18730138922E+03  0.10974338746E+04  0.11190356926E+04  0.10566000000E+00 0. -1.
        994    1    1    2    0    0  0.11833144849E+03 -0.19023058248E+03  0.19164346617E+03  0.34092031963E+03  0.17120000000E+03 0.  0.
        998    1    1    2    0    0 -0.52034209269E+01  0.29291932579E+01  0.21092265553E+03  0.21124398779E+03  0.10000000000E+02 0.  0.
</event>
<event>
 5    1  0.1666761E-008  0.3749269E+03  0.7957747E-01  0.3473550E+00
         13   -1    0    0    0    0  0.00000000000E+00  0.00000000000E+00  0.14999999963E+04  0.15000000000E+04  0.10566000000E+00 0. -1.
        994   -1    0    0    0    0 -0.00000000000E+00 -0.00000000000E+00  0.11368683772E-12  0.17120000000E+03  0.17120000000E+03 0.  0.
         13    1    1    2    0    0  0.21519132007E+02  0.32275009084E+01  0.31129527125E+02  0.37980895559E+02  0.10566000000E+00 0. -1.
        994    1    1    2    0    0 -0.28892315366E+02 -0.13849777684E+02  0.10214613004E+02  0.17447166116E+03  0.17120000000E+03 0.  0.
        998    1    1    2    0    0  0.73731833591E+01  0.10622276776E+02  0.14586558562E+04  0.14587474433E+04  0.10000000000E+02 0. -1.
</event>
<event>
 5    1  0.1666761E-008  0.3777446E+03  0.7957747E-01  0.3461038E+00
         13   -1    0    0    0    0  0.00000000000E+00  0.00000000000E+00  0.14999999963E+04  0.15000000000E+04  0.10566000000E+00 0. -1.
        994   -1    0    0    0    0 -0.00000000000E+00 -0.00000000000E+00  0.11368683772E-12  0.17120000000E+03  0.17120000000E+03 0.  0.
         13    1    1    2    0    0 -0.10789561969E+02 -0.24646670278E+02  0.64800101540E+02  0.70163646761E+02  0.10566000000E+00 0. -1.
        994    1    1    2    0    0  0.17535213597E+02  0.18998288915E+02  0.75305114182E+01  0.17330483923E+03  0.17120000000E+03 0.  0.
        998    1    1    2    0    0 -0.67456516274E+01  0.56483813626E+01  0.14276693833E+04  0.14277315140E+04  0.10000000000E+02 0. -1.
</event>
<event>
 5    1  0.1666761E-008  0.3735285E+03  0.7957747E-01  0.3479830E+00
         13   -1    0    0    0    0  0.00000000000E+00  0.00000000000E+00  0.14999999963E+04  0.15000000000E+04  0.10566000000E+00 0. -1.
        994   -1    0    0    0    0 -0.00000000000E+00 -0.00000000000E+00  0.11368683772E-12  0.17120000000E+03  0.17120000000E+03 0.  0.
         13    1    1    2    0    0 -0.23557632816E+02 -0.14070207882E+02  0.24364913552E+02  0.36695953321E+02  0.10566000000E+00 0. -1.
        994    1    1    2    0    0  0.14144339635E+01  0.25795832436E+02  0.15182910716E+02  0.17380272257E+03  0.17120000000E+03 0.  0.
        998    1    1    2    0    0  0.22143198852E+02 -0.11725624554E+02  0.14604521720E+04  0.14607013241E+04  0.10000000000E+02 0. -1.
</event>
<event>
 5    1  0.1666761E-008  0.3737331E+03  0.7957747E-01  0.3478908E+00
         13   -1    0    0    0    0  0.00000000000E+00  0.00000000000E+00  0.14999999963E+04  0.15000000000E+04  0.10566000000E+00 0. -1.
        994   -1    0    0    0    0 -0.00000000000E+00 -0.00000000000E+00  0.11368683772E-12  0.17120000000E+03  0.17120000000E+03 0.  0.
         13    1    1    2    0    0  0.19460890776E+03 -0.10448742697E+02  0.80572167066E+03  0.82895670873E+03  0.10566000000E+00 0. -1.
        994    1    1    2    0    0 -0.20492981684E+03 -0.34661135668E+01  0.16782298238E+03  0.31540804871E+03  0.17120000000E+03 0.  0.
        998    1    1    2    0    0  0.10320909080E+02  0.13914856264E+02  0.52645534323E+03  0.52683524256E+03  0.10000000000E+02 0.  0.
</event>
<event>
 5    1  0.1666761E-008  0.3849353E+03  0.7957747E-01  0.3429947E+00
         13   -1    0    0    0    0  0.00000000000E+00  0.00000000000E+00  0.14999999963E+04  0.15000000000E+04  0.10566000000E+00 0.  1.
        994   -1    0    0    0    0 -0.00000000000E+00 -0.00000000000E+00  0.11368683772E-12  0.17120000000E+03  0.17120000000E+03 0.  0.
         13    1    1    2    0    0  0.63240971092E+01 -0.17921601871E+02  0.11456958198E+03  0.11613517252E+03  0.10566000000E+00 0.  1.
        994    1    1    2    0    0 -0.28100263547E+01  0.50979640252E+01  0.17737248416E+01  0.17130811885E+03  0.17120000000E+03 0.  0.
        998    1    1    2    0    0 -0.35140707545E+01  0.12823637846E+02  0.13836566895E+04  0.13837567086E+04  0.10000000000E+02 0.  1.
</event>
<event>
 5    1  0.1666761E-008  0.3826513E+03  0.7957747E-01  0.3439695E+00
         13   -1    0    0    0    0  0.00000000000E+00  0.00000000000E+00  0.14999999963E+04  0.15000000000E+04  0.10566000000E+00 0.  1.
        994   -1    0    0    0    0 -0.00000000000E+00 -0.00000000000E+00  0.11368683772E-12  0.17120000000E+03  0.17120000000E+03 0.  0.
         13    1    1    2    0    0  0.13395444530E+02 -0.12329582022E+02  0.62504239042E+02  0.65101824777E+02  0.10566000000E+00 0.  1.
        994    1    1    2    0    0 -0.67993637963E+00 -0.41965954428E+01  0.28606260338E+01  0.17127666773E+03  0.17120000000E+03 0.  0.
        998    1    1    2    0    0 -0.12715508151E+02  0.16526177464E+02  0.14346351312E+04  0.14348215075E+04  0.10000000000E+02 0.  1.
</event>
<event>
 5    1  0.1666761E-008  0.3755022E+03  0.7957747E-01  0.3470980E+00
         13   -1    0    0    0    0  0.00000000000E+00  0.00000000000E+00  0.14999999963E+04  0.15000000000E+04  0.10566000000E+00 0.  1.
        994   -1    0    0    0    0 -0.00000000000E+00 -0.00000000000E+00  0.11368683772E-12  0.17120000000E+03  0.17120000000E+03 0.  0.
         13    1    1    2    0    0  0.24718063460E+02 -0.44945622103E+02  0.86108254340E+02  0.10022841033E+03  0.10566000000E+00 0.  1.
        994    1    1    2    0    0 -0.42097583552E+02  0.31399725474E+02  0.23776570896E+02  0.18064582648E+03  0.17120000000E+03 0.  0.
        998    1    1    2    0    0  0.17379520092E+02  0.13545896629E+02  0.13901151710E+04  0.13903257632E+04  0.10000000000E+02 0.  1.
</event>
<event>
 5    1  0.1666761E-008  0.3734902E+03  0.7957747E-01  0.3480003E+00
         13   -1    0    0    0    0  0.00000000000E+00  0.00000000000E+00  0.14999999963E+04  0.15000000000E+04  0.10566000000E+00 0. -1.
        994   -1    0    0    0    0 -0.00000000000E+00 -0.00000000000E+00  0.11368683772E-12  0.17120000000E+03  0.17120000000E+03 0.  0.
         13    1    1    2    0    0 -0.78758839848E+02  0.26128108845E+02  0.22717872657E+03  0.24185908686E+03  0.10566000000E+00 0. -1.
        994    1    1    2    0    0  0.74345645745E+02 -0.32506716702E+02  0.36481045626E+02  0.19293591776E+03  0.17120000000E+03 0.  0.
        998    1    1    2    0    0  0.44131941023E+01  0.63786078575E+01  0.12363402241E+04  0.12364049954E+04  0.10000000000E+02 0. -1.
</event>
<event>
 5    1  0.1666761E-008  0.3757909E+03  0.7957747E-01  0.3469693E+00
         13   -1    0    0    0    0  0.00000000000E+00  0.00000000000E+00  0.14999999963E+04  0.15000000000E+04  0.10566000000E+00 0. -1.
        994   -1    0    0    0    0 -0.00000000000E+00 -0.00000000000E+00  0.11368683772E-12  0.17120000000E+03  0.17120000000E+03 0.  0.
         13    1    1    2    0    0  0.26276595532E+01 -0.23363555607E+02  0.41668620200E+02  0.47843969304E+02  0.10566000000E+00 0. -1.
        994    1    1    2    0    0 -0.83771097059E+01  0.14040055531E+02  0.71798392798E+01  0.17212869958E+03  0.17120000000E+03 0.  0.
        998    1    1    2    0    0  0.57494501527E+01  0.93235000755E+01  0.14511515368E+04  0.14512273311E+04  0.10000000000E+02 0. -1.
</event>
<event>
 5    1  0.1666761E-008  0.3834459E+03  0.7957747E-01  0.3436290E+00
         13   -1    0    0    0    0  0.00000000000E+00  0.00000000000E+00  0.14999999963E+04  0.15000000000E+04  0.10566000000E+00 0. -1.
        994   -1    0    0    0    0 -0.00000000000E+00 -0.00000000000E+00  0.11368683772E-12  0.17120000000E+03  0.17120000000E+03 0.  0.
         13    1    1    2    0    0 -0.15377827061E+02 -0.21721737043E+02  0.15114217284E+03  0.15346751774E+03  0.10566000000E+00 0. -1.
        994    1    1    2    0    0  0.86683474643E+01  0.89756970346E+01  0.29185085707E+01  0.17167894768E+03  0.17120000000E+03 0.  0.
        998    1    1    2    0    0  0.67094795964E+01  0.12746040009E+02  0.13459393149E+04  0.13460535346E+04  0.10000000000E+02 0. -1.
</event>
<event>
 5    1  0.1666761E-008  0.3807078E+03  0.7957747E-01  0.3448082E+00
         13   -1    0    0    0    0  0.00000000000E+00  0.00000000000E+00  0.14999999963E+04  0.15000000000E+04  0.10566000000E+00 0. -1.
        994   -1    0    0    0    0 -0.00000000000E+00 -0.00000000000E+00  0.11368683772E-12  0.17120000000E+03  0.17120000000E+03 0.  0.
         13    1    1    2    0    0  0.15240797762E+02 -0.96591957804E+01  0.39715698502E+02  0.43622584186E+02  0.10566000000E+00 0. -1.
        994    1    1    2    0    0 -0.18635818738E+02  0.18731420343E+02  0.61082031720E+01  0.17333467626E+03  0.17120000000E+03 0.  0.
        998    1    1    2    0    0  0.33950209766E+01 -0.90722245625E+01  0.14541760946E+04  0.14542427396E+04  0.10000000000E+02 0. -1.
</event>
<event>
 5    1  0.1666761E-008  0.3831619E+03  0.7957747E-01  0.3437505E+00
         13   -1    0    0    0    0  0.00000000000E+00  0.00000000000E+00  0.14999999963E+04  0.15000000000E+04  0.10566000000E+00 0. -1.
        994   -1    0    0    0    0 -0.00000000000E+00 -0.00000000000E+00  0.11368683772E-12  0.17120000000E+03  0.17120000000E+03 0.  0.
         13    1    1    2    0    0 -0.74905295357E+01  0.96570390557E+01  0.28464141344E+02  0.30977168085E+02  0.10566000000E+00 0. -1.
        994    1    1    2    0    0  0.37549507307E+01 -0.79598158275E+01  0.28017633209E+01  0.17144896675E+03  0.17120000000E+03 0.  0.
        998    1    1    2    0    0  0.37355788050E+01 -0.16972232283E+01  0.14687340916E+04  0.14687738652E+04  0.10000000000E+02 0. -1.
</event>
<event>
 5    1  0.1666761E-008  0.3833639E+03  0.7957747E-01  0.3436641E+00
         13   -1    0    0    0    0  0.00000000000E+00  0.00000000000E+00  0.14999999963E+04  0.15000000000E+04  0.10566000000E+00 0. -1.
        994   -1    0    0    0    0 -0.00000000000E+00 -0.00000000000E+00  0.11368683772E-12  0.17120000000E+03  0.17120000000E+03 0.  0.
         13    1    1    2    0    0 -0.99332967258E+01 -0.15928960425E+02  0.68577804169E+02  0.71100833700E+02  0.10566000000E+00 0. -1.
        994    1    1    2    0    0  0.12303800118E+02  0.15513714482E+02  0.37419214842E+01  0.17238184594E+03  0.17120000000E+03 0.  0.
        998    1    1    2    0    0 -0.23705033924E+01  0.41524594369E+00  0.14276802706E+04  0.14277173204E+04  0.10000000000E+02 0. -1.
</event>
<event>
 5    1  0.1666761E-008  0.3847499E+03  0.7957747E-01  0.3430734E+00
         13   -1    0    0    0    0  0.00000000000E+00  0.00000000000E+00  0.14999999963E+04  0.15000000000E+04  0.10566000000E+00 0.  1.
        994   -1    0    0    0    0 -0.00000000000E+00 -0.00000000000E+00  0.11368683772E-12  0.17120000000E+03  0.17120000000E+03 0.  0.
         13    1    1    2    0    0  0.10085633863E+02  0.63301333013E+00  0.28753508941E+02  0.30477797768E+02  0.10566000000E+00 0.  1.
        994    1    1    2    0    0 -0.67674928120E+01 -0.32675756675E+01  0.19402690604E+01  0.17137584618E+03  0.17120000000E+03 0.  0.
        998    1    1    2    0    0 -0.33181410508E+01  0.26345623373E+01  0.14693062183E+04  0.14693463561E+04  0.10000000000E+02 0.  1.
</event>
<event>
 5    1  0.1666761E-008  0.3847175E+03  0.7957747E-01  0.3430871E+00
         13   -1    0    0    0    0  0.00000000000E+00  0.00000000000E+00  0.14999999963E+04  0.15000000000E+04  0.10566000000E+00 0. -1.
        994   -1    0    0    0    0 -0.00000000000E+00 -0.00000000000E+00  0.11368683772E-12  0.17120000000E+03  0.17120000000E+03 0.  0.
         13    1    1    2    0    0  0.14774584299E+02  0.14861106945E+02  0.11459773980E+03  0.11649804278E+03  0.10566000000E+00 0. -1.
        994    1    1    2    0    0 -0.13565361649E+02 -0.18789466441E+02  0.35402698476E+01  0.17279767532E+03  0.17120000000E+03 0.  0.
        998    1    1    2    0    0 -0.12092226494E+01  0.39283594963E+01  0.13818619866E+04  0.13819042819E+04  0.10000000000E+02 0. -1.
</event>
<event>
 5    1  0.1666761E-008  0.2891254E+03  0.7957747E-01  0.3976849E+00
         13   -1    0    0    0    0  0.00000000000E+00  0.00000000000E+00  0.14999999963E+04  0.15000000000E+04  0.10566000000E+00 0. -1.
        994   -1    0    0    0    0 -0.00000000000E+00 -0.00000000000E+00  0.11368683772E-12  0.17120000000E+03  0.17120000000E+03 0.  0.
         13    1    1    2    0    0  0.66521951859E+02 -0.18075836152E+03  0.55986922330E+03  0.59207458458E+03  0.10566000000E+00 0. -1.
        994    1    1    2    0    0 -0.15542145889E+03  0.14358420119E+03  0.21312496389E+03  0.34569342335E+03  0.17120000000E+03 0.  0.
        998    1    1    2    0    0  0.88899507030E+02  0.37174160332E+02  0.72700580909E+03  0.73343199207E+03  0.10000000000E+02 0. -1.
</event>
<event>
 5    1  0.1666761E-008  0.3841137E+03  0.7957747E-01  0.3433440E+00
         13   -1    0    0    0    0  0.00000000000E+00  0.00000000000E+00  0.14999999963E+04  0.15000000000E+04  0.10566000000E+00 0.  1.
        994   -1    0    0    0    0 -0.00000000000E+00 -0.00000000000E+00  0.11368683772E-12  0.17120000000E+03  0.17120000000E+03 0.  0.
         13    1    1    2    0    0 -0.23078216573E+01 -0.14957027963E+02  0.52034404036E+02  0.54190673494E+02  0.10566000000E+00 0.  1.
        994    1    1    2    0    0  0.12108852580E+01  0.20602929197E+02  0.34768950300E+01  0.17247456547E+03  0.17120000000E+03 0.  0.
        998    1    1    2    0    0  0.10969363993E+01 -0.56459012337E+01  0.14444886972E+04  0.14445347610E+04  0.10000000000E+02 0.  1.
</event>
<event>
 5    1  0.1666761E-008  0.3849446E+03  0.7957747E-01  0.3429907E+00
         13   -1    0    0    0    0  0.00000000000E+00  0.00000000000E+00  0.14999999963E+04  0.15000000000E+04  0.10566000000E+00 0.  1.
        994   -1    0    0    0    0 -0.00000000000E+00 -0.00000000000E+00  0.11368683772E-12  0.17120000000E+03  0.17120000000E+03 0.  0.
         13    1    1    2    0    0  0.43410995516E+01 -0.13966790207E+02  0.64299658792E+02  0.65942199378E+02  0.10566000000E+00 0.  1.
        994    1    1    2    0    0 -0.19264833385E+01  0.10037109058E+02  0.20013017210E+01  0.17151647182E+03  0.17120000000E+03 0.  0.
        998    1    1    2    0    0 -0.24146162131E+01  0.39296811486E+01  0.14336990358E+04  0.14337413288E+04  0.10000000000E+02 0.  1.
</event>
<event>
 5    1  0.1666761E-008  0.3833288E+03  0.7957747E-01  0.3436791E+00
         13   -1    0    0    0    0  0.00000000000E+00  0.00000000000E+00  0.14999999963E+04  0.15000000000E+04  0.10566000000E+00 0.  1.
        994   -1    0    0    0    0 -0.00000000000E+00 -0.00000000000E+00  0.11368683772E-12  0.17120000000E+03  0.17120000000E+03 0.  0.
         13    1    1    2    0    0  0.31376759970E+01 -0.97939848186E+01  0.21487656702E+02  0.23822210306E+02  0.10566000000E+00 0.  1.
        994    1    1    2    0    0 -0.69132947556E+00 -0.62780651149E+01  0.25940638163E+01  0.17133610596E+03  0.17120000000E+03 0.  0.
        998    1    1    2    0    0 -0.24463465214E+01  0.16072049933E+02  0.14759182758E+04  0.14760416837E+04  0.10000000000E+02 0.  1.
</event>
<event>
 5    1  0.1666761E-008  0.3812682E+03  0.7957747E-01  0.3445655E+00
         13   -1    0    0    0    0  0.00000000000E+00  0.00000000000E+00  0.14999999963E+04  0.15000000000E+04  0.10566000000E+00 0.  1.
        994   -1    0    0    0    0 -0.00000000000E+00 -0.00000000000E+00  0.11368683772E-12  0.17120000000E+03  0.17120000000E+03 0.  0.
         13    1    1    2    0    0 -0.21753713627E+02 -0.19917206116E+02  0.15831017042E+03  0.16103428324E+03  0.10566000000E+00 0.  1.
        994    1    1    2    0    0  0.22750558474E+02 -0.44157186224E+02  0.11752348895E+02  0.17864770558E+03  0.17120000000E+03 0.  0.
        998    1    1    2    0    0 -0.99684484779E+00  0.64074392340E+02  0.13299374770E+04  0.13315180112E+04  0.10000000000E+02 0.  1.
</event>
<event>
 5    1  0.1666761E-008  0.3812541E+03  0.7957747E-01  0.3445716E+00
         13   -1    0    0    0    0  0.00000000000E+00  0.00000000000E+00  0.14999999963E+04  0.15000000000E+04  0.10566000000E+00 0. -1.
        994   -1    0    0    0    0 -0.00000000000E+00 -0.00000000000E+00  0.11368683772E-12  0.17120000000E+03  0.17120000000E+03 0.  0.
         13    1    1    2    0    0 -0.35541918817E+02 -0.67112288107E+00  0.18137985118E+03  0.18483057100E+03  0.10566000000E+00 0. -1.
        994    1    1    2    0    0  0.20113818032E+02 -0.19136591881E+02  0.60716448497E+01  0.17354273161E+03  0.17120000000E+03 0.  0.
        998    1    1    2    0    0  0.15428100785E+02  0.19807714762E+02  0.13125485003E+04  0.13128266974E+04  0.10000000000E+02 0. -1.
</event>
<event>
 5    1  0.1666761E-008  0.3796761E+03  0.7957747E-01  0.3452570E+00
         13   -1    0    0    0    0  0.00000000000E+00  0.00000000000E+00  0.14999999963E+04  0.15000000000E+04  0.10566000000E+00 0. -1.
        994   -1    0    0    0    0 -0.00000000000E+00 -0.00000000000E+00  0.11368683772E-12  0.17120000000E+03  0.17120000000E+03 0.  0.
         13    1    1    2    0    0  0.64711290853E+01  0.14863074653E+02  0.31279300786E+02  0.35230559483E+02  0.10566000000E+00 0. -1.
        994    1    1    2    0    0  0.69262026220E+01  0.13531112298E+02  0.50703852144E+01  0.17194828318E+03  0.17120000000E+03 0.  0.
        998    1    1    2    0    0 -0.13397331707E+02 -0.28394186951E+02  0.14636503103E+04  0.14640211573E+04  0.10000000000E+02 0. -1.
</event>
<event>
 5    1  0.1666761E-008  0.3788957E+03  0.7957747E-01  0.3455981E+00
         13   -1    0    0    0    0  0.00000000000E+00  0.00000000000E+00  0.14999999963E+04  0.15000000000E+04  0.10566000000E+00 0.  1.
        994   -1    0    0    0    0 -0.00000000000E+00 -0.00000000000E+00  0.11368683772E-12  0.17120000000E+03  0.17120000000E+03 0.  0.
         13    1    1    2    0    0 -0.72473992057E+02  0.52635612397E+02  0.53392926340E+03  0.54139029978E+03  0.10566000000E+00 0.  1.
        994    1    1    2    0    0  0.74374856177E+02 -0.52156124827E+02  0.32896106038E+02  0.19657943529E+03  0.17120000000E+03 0.  0.
        998    1    1    2    0    0 -0.19008641204E+01 -0.47948756955E+00  0.93317462684E+03  0.93323026493E+03  0.10000000000E+02 0.  0.
</event>
<event>
 5    1  0.1666761E-008  0.3845835E+03  0.7957747E-01  0.3431441E+00
         13   -1    0    0    0    0  0.00000000000E+00  0.00000000000E+00  0.14999999963E+04  0.15000000000E+04  0.10566000000E+00 0. -1.
        994   -1    0    0    0    0 -0.00000000000E+00 -0.00000000000E+00  0.11368683772E-12  0.17120000000E+03  0.17120000000E+03 0.  0.
         13    1    1    2    0    0 -0.36077872516E+01  0.19663706664E+02  0.11511292401E+03  0.11683609856E+03  0.10566000000E+00 0. -1.
        994    1    1    2    0    0 -0.12346472154E+01 -0.56721534770E+01  0.19480412617E+01  0.17130946426E+03  0.17120000000E+03 0.  0.
        998    1    1    2    0    0  0.48424344670E+01 -0.13991553187E+02  0.13829390310E+04  0.13830544372E+04  0.10000000000E+02 0. -1.
</event>
<event>
 5    1  0.1666761E-008  0.3852701E+03  0.7957747E-01  0.3428527E+00
         13   -1    0    0    0    0  0.00000000000E+00  0.00000000000E+00  0.14999999963E+04  0.15000000000E+04  0.10566000000E+00 0. -1.
        994   -1    0    0    0    0 -0.00000000000E+00 -0.00000000000E+00  0.11368683772E-12  0.17120000000E+03  0.17120000000E+03 0.  0.
         13    1    1    2    0    0 -0.28182457984E+01  0.10473880585E+02  0.39117822862E+02  0.40593840830E+02  0.10566000000E+00 0. -1.
        994    1    1    2    0    0 -0.20412802359E+02 -0.14524031743E+02  0.35610606789E+01  0.17305996403E+03  0.17120000000E+03 0.  0.
        998    1    1    2    0    0  0.23231048157E+02  0.40501511581E+01  0.14573211127E+04  0.14575461951E+04  0.10000000000E+02 0. -1.
</event>
<event>
 5    1  0.1666761E-008  0.3723758E+03  0.7957747E-01  0.3485043E+00
         13   -1    0    0    0    0  0.00000000000E+00  0.00000000000E+00  0.14999999963E+04  0.15000000000E+04  0.10566000000E+00 0. -1.
        994   -1    0    0    0    0 -0.00000000000E+00 -0.00000000000E+00  0.11368683772E-12  0.17120000000E+03  0.17120000000E+03 0.  0.
         13    1    1    2    0    0  0.33554361880E+02  0.23366796238E+02  0.60894673356E+02  0.73348993005E+02  0.10566000000E+00 0. -1.
        994    1    1    2    0    0 -0.35393728786E+02 -0.27575581523E+02  0.19331433447E+02  0.17803447153E+03  0.17120000000E+03 0.  0.
        998    1    1    2    0    0  0.18393669060E+01  0.42087852852E+01  0.14197738895E+04  0.14198165355E+04  0.10000000000E+02 0. -1.
</event>
<event>
 5    1  0.1666761E-008  0.3841543E+03  0.7957747E-01  0.3433267E+00
         13   -1    0    0    0    0  0.00000000000E+00  0.00000000000E+00  0.14999999963E+04  0.15000000000E+04  0.10566000000E+00 0.  1.
        994   -1    0    0    0    0 -0.00000000000E+00 -0.00000000000E+00  0.11368683772E-12  0.17120000000E+03  0.17120000000E+03 0.  0.
         13    1    1    2    0    0  0.10335235286E+02  0.18658942156E+02  0.10808180498E+03  0.11016651461E+03  0.10566000000E+00 0.  1.
        994    1    1    2    0    0 -0.45106675826E+01 -0.16294584464E+02  0.29938221575E+01  0.17205889275E+03  0.17120000000E+03 0.  0.
        998    1    1    2    0    0 -0.58245677033E+01 -0.23643576915E+01  0.13889243691E+04  0.13889745926E+04  0.10000000000E+02 0.  1.
</event>
<event>
 5    1  0.1666761E-008  0.3784217E+03  0.7957747E-01  0.3458060E+00
         13   -1    0    0    0    0  0.00000000000E+00  0.00000000000E+00  0.14999999963E+04  0.15000000000E+04  0.10566000000E+00 0. -1.
        994   -1    0    0    0    0 -0.00000000000E+00 -0.00000000000E+00  0.11368683772E-12  0.17120000000E+03  0.17120000000E+03 0.  0.
         13    1    1    2    0    0  0.88178024795E+01  0.57803247768E+01  0.88867812572E+01  0.13789555477E+02  0.10566000000E+00 0. -1.
        994    1    1    2    0    0 -0.95925203180E+01 -0.13806181510E+02  0.58823135257E+01  0.17212399225E+03  0.17120000000E+03 0.  0.
        998    1    1    2    0    0  0.77471783846E+00  0.80258567336E+01  0.14852309015E+04  0.14852864523E+04  0.10000000000E+02 0. -1.
</event>
<event>
 5    1  0.1666761E-008  0.3844367E+03  0.7957747E-01  0.3432065E+00
         13   -1    0    0    0    0  0.00000000000E+00  0.00000000000E+00  0.14999999963E+04  0.15000000000E+04  0.10566000000E+00 0. -1.
        994   -1    0    0    0    0 -0.00000000000E+00 -0.00000000000E+00  0.11368683772E-12  0.17120000000E+03  0.17120000000E+03 0.  0.
         13    1    1    2    0    0  0.11009160345E+02 -0.22945655612E+01  0.32340342215E+02  0.34239969937E+02  0.10566000000E+00 0. -1.
        994    1    1    2    0    0 -0.96285004990E+01  0.35346182590E+01  0.22567380338E+01  0.17152181906E+03  0.17120000000E+03 0.  0.
        998    1    1    2    0    0 -0.13806598465E+01 -0.12400526979E+01  0.14654029160E+04  0.14654382110E+04  0.10000000000E+02 0. -1.
</event>
<event>
 5    1  0.1666761E-008  0.3686280E+03  0.7957747E-01  0.3502220E+00
         13   -1    0    0    0    0  0.00000000000E+00  0.00000000000E+00  0.14999999963E+04  0.15000000000E+04  0.10566000000E+00 0. -1.
        994   -1    0    0    0    0 -0.00000000000E+00 -0.00000000000E+00  0.11368683772E-12  0.17120000000E+03  0.17120000000E+03 0.  0.
         13    1    1    2    0    0 -0.39042051076E+02  0.49164778726E+02  0.16205238717E+03  0.17378850529E+03  0.10566000000E+00 0. -1.
        994    1    1    2    0    0  0.47230708409E+02 -0.55150087818E+02  0.28790681386E+02  0.18817708505E+03  0.17120000000E+03 0.  0.
        998    1    1    2    0    0 -0.81886573324E+01  0.59853090925E+01  0.13091569277E+04  0.13092344097E+04  0.10000000000E+02 0. -1.
</event>
<event>
 5    1  0.1666761E-008  0.3777257E+03  0.7957747E-01  0.3461122E+00
         13   -1    0    0    0    0  0.00000000000E+00  0.00000000000E+00  0.14999999963E+04  0.15000000000E+04  0.10566000000E+00 0. -1.
        994   -1    0    0    0    0 -0.00000000000E+00 -0.00000000000E+00  0.11368683772E-12  0.17120000000E+03  0.17120000000E+03 0.  0.
         13    1    1    2    0    0 -0.25791112386E+02 -0.31514269831E+02  0.15992375112E+03  0.16502711298E+03  0.10566000000E+00 0. -1.
        994    1    1    2    0    0  0.17597032453E+02  0.97405578398E+01  0.66494026135E+01  0.17250561896E+03  0.17120000000E+03 0.  0.
        998    1    1    2    0    0  0.81940799332E+01  0.21773711991E+02  0.13334268425E+04  0.13336672681E+04  0.10000000000E+02 0. -1.
</event>
<event>
 5    1  0.1666761E-008  0.3775407E+03  0.7957747E-01  0.3461937E+00
         13   -1    0    0    0    0  0.00000000000E+00  0.00000000000E+00  0.14999999963E+04  0.15000000000E+04  0.10566000000E+00 0. -1.
        994   -1    0    0    0    0 -0.00000000000E+00 -0.00000000000E+00  0.11368683772E-12  0.17120000000E+03  0.17120000000E+03 0.  0.
         13    1    1    2    0    0  0.14681983342E+02  0.18097706771E+02  0.47325666661E+02  0.52752417141E+02  0.10566000000E+00 0. -1.
        994    1    1    2    0    0 -0.13146157601E+02 -0.17616047383E+02  0.70098013112E+01  0.17274757277E+03  0.17120000000E+03 0.  0.
        998    1    1    2    0    0 -0.15358257408E+01 -0.48165938865E+00  0.14456645283E+04  0.14457000101E+04  0.10000000000E+02 0. -1.
</event>
<event>
 5    1  0.1666761E-008  0.3695500E+03  0.7957747E-01  0.3497961E+00
         13   -1    0    0    0    0  0.00000000000E+00  0.00000000000E+00  0.14999999963E+04  0.15000000000E+04  0.10566000000E+00 0.  1.
        994   -1    0    0    0    0 -0.00000000000E+00 -0.00000000000E+00  0.11368683772E-12  0.17120000000E+03  0.17120000000E+03 0.  0.
         13    1    1    2    0    0  0.63398353184E+02 -0.13410435717E+02  0.20764917899E+03  0.21752559315E+03  0.10566000000E+00 0.  1.
        994    1    1    2    0    0 -0.29650175188E+02 -0.22312720767E+02  0.15522765650E+02  0.17586183966E+03  0.17120000000E+03 0.  0.
        998    1    1    2    0    0 -0.33748177996E+02  0.35723156483E+02  0.12768280516E+04  0.12778125672E+04  0.10000000000E+02 0.  1.
</event>
<event>
 5    1  0.1666761E-008  0.3811130E+03  0.7957747E-01  0.3446326E+00
         13   -1    0    0    0    0  0.00000000000E+00  0.00000000000E+00  0.14999999963E+04  0.15000000000E+04  0.10566000000E+00 0.  1.
        994   -1    0    0    0    0 -0.00000000000E+00 -0.00000000000E+00  0.11368683772E-12  0.17120000000E+03  0.17120000000E+03 0.  0.
         13    1    1    2    0    0 -0.11760258941E+02  0.11157192450E+02  0.35017981543E+02  0.38588299122E+02  0.10566000000E+00 0.  1.
        994    1    1    2    0    0  0.10031825867E+02 -0.10321359996E+02  0.42626588653E+01  0.17185685399E+03  0.17120000000E+03 0.  0.
        998    1    1    2    0    0  0.17284330741E+01 -0.83583245407E+00  0.14607193559E+04  0.14607548469E+04  0.10000000000E+02 0.  1.
</event>
<event>
 5    1  0.1666761E-008  0.3700607E+03  0.7957747E-01  0.3495612E+00
         13   -1    0    0    0    0  0.00000000000E+00  0.00000000000E+00  0.14999999963E+04  0.15000000000E+04  0.10566000000E+00 0. -1.
        994   -1    0    0    0    0 -0.00000000000E+00 -0.00000000000E+00  0.11368683772E-12  0.17120000000E+03  0.17120000000E+03 0.  0.
         13    1    1    2    0    0 -0.19298720566E+02 -0.39385090495E+01  0.17107111482E+02  0.26088635386E+02  0.10566000000E+00 0. -1.
        994    1    1    2    0    0  0.12466005009E+02 -0.25917660488E+01  0.97979812751E+01  0.17195219966E+03  0.17120000000E+03 0.  0.
        998    1    1    2    0    0  0.68327155573E+01  0.65302750983E+01  0.14730949035E+04  0.14731591650E+04  0.10000000000E+02 0. -1.
</event>
<event>
 5    1  0.1666761E-008  0.3803113E+03  0.7957747E-01  0.3449804E+00
         13   -1    0    0    0    0  0.00000000000E+00  0.00000000000E+00  0.14999999963E+04  0.15000000000E+04  0.10566000000E+00 0.  1.
        994   -1    0    0    0    0 -0.00000000000E+00 -0.00000000000E+00  0.11368683772E-12  0.17120000000E+03  0.17120000000E+03 0.  0.
         13    1    1    2    0    0  0.61325365774E+01  0.40917550442E+02  0.19960170760E+03  0.20384481053E+03  0.10566000000E+00 0.  1.
        994    1    1    2    0    0 -0.76526950263E+01 -0.32426017319E+02  0.76918136611E+01  0.17458125426E+03  0.17120000000E+03 0.  0.
        998    1    1    2    0    0  0.15201584488E+01 -0.84915331230E+01  0.12927064750E+04  0.12927739352E+04  0.10000000000E+02 0.  1.
</event>
<event>
 5    1  0.1666761E-008  0.3947812E+03  0.7957747E-01  0.3389220E+00
         13   -1    0    0    0    0  0.00000000000E+00  0.00000000000E+00  0.14999999963E+04  0.15000000000E+04  0.10566000000E+00 0.  1.
        994   -1    0    0    0    0 -0.00000000000E+00 -0.00000000000E+00  0.11368683772E-12  0.17120000000E+03  0.17120000000E+03 0.  0.
         13    1    1    2    0    0 -0.21098627411E+02  0.11488368129E+03  0.21260408510E+03  0.24257765864E+03  0.10566000000E+00 0.  1.
        994    1    1    2    0    0  0.29506116035E+02 -0.12851668250E+03  0.94961965894E+02  0.23603890258E+03  0.17120000000E+03 0.  0.
        998    1    1    2    0    0 -0.84074886240E+01  0.13633001209E+02  0.11924339453E+04  0.11925834388E+04  0.10000000000E+02 0.  1.
</event>
<event>
 5    1  0.1666761E-008  0.3810142E+03  0.7957747E-01  0.3446754E+00
         13   -1    0    0    0    0  0.00000000000E+00  0.00000000000E+00  0.14999999963E+04  0.15000000000E+04  0.10566000000E+00 0.  1.
        994   -1    0    0    0    0 -0.00000000000E+00 -0.00000000000E+00  0.11368683772E-12  0.17120000000E+03  0.17120000000E+03 0.  0.
         13    1    1    2    0    0  0.17309660772E+02 -0.83619090666E+01  0.49759125424E+02  0.53343487009E+02  0.10566000000E+00 0.  1.
        994    1    1    2    0    0 -0.94422073688E+01  0.87568841489E+01  0.41747980956E+01  0.17173440901E+03  0.17120000000E+03 0.  0.
        998    1    1    2    0    0 -0.78674534032E+01 -0.39497508232E+00  0.14460660728E+04  0.14461221040E+04  0.10000000000E+02 0.  1.
</event>
<event>
 5    1  0.1666761E-008  0.3820122E+03  0.7957747E-01  0.3442443E+00
         13   -1    0    0    0    0  0.00000000000E+00  0.00000000000E+00  0.14999999963E+04  0.15000000000E+04  0.10566000000E+00 0.  1.
        994   -1    0    0    0    0 -0.00000000000E+00 -0.00000000000E+00  0.11368683772E-12  0.17120000000E+03  0.17120000000E+03 0.  0.
         13    1    1    2    0    0 -0.10246623509E+02  0.19177942896E+02  0.81536964515E+02  0.84386459420E+02  0.10566000000E+00 0.  1.
        994    1    1    2    0    0  0.21356139428E+01  0.41127611612E+01  0.31921403409E+01  0.17129245579E+03  0.17120000000E+03 0.  0.
        998    1    1    2    0    0  0.81110095661E+01 -0.23290704057E+02  0.14152708914E+04  0.14155210848E+04  0.10000000000E+02 0.  1.
</event>
<event>
 5    1  0.1666761E-008  0.3715458E+03  0.7957747E-01  0.3488817E+00
         13   -1    0    0    0    0  0.00000000000E+00  0.00000000000E+00  0.14999999963E+04  0.15000000000E+04  0.10566000000E+00 0.  1.
        994   -1    0    0    0    0 -0.00000000000E+00 -0.00000000000E+00  0.11368683772E-12  0.17120000000E+03  0.17120000000E+03 0.  0.
         13    1    1    2    0    0 -0.42978419714E+02 -0.35387619131E+02  0.16405701471E+03  0.17324590439E+03  0.10566000000E+00 0.  1.
        994    1    1    2    0    0 -0.27611611912E+02 -0.17389768536E+01  0.14453684645E+02  0.17402233809E+03  0.17120000000E+03 0.  0.
        998    1    1    2    0    0  0.70590031626E+02  0.37126595984E+02  0.13214892969E+04  0.13239317575E+04  0.10000000000E+02 0.  1.
</event>
<event>
 5    1  0.1666761E-008  0.3758983E+03  0.7957747E-01  0.3469215E+00
         13   -1    0    0    0    0  0.00000000000E+00  0.00000000000E+00  0.14999999963E+04  0.15000000000E+04  0.10566000000E+00 0.  1.
        994   -1    0    0    0    0 -0.00000000000E+00 -0.00000000000E+00  0.11368683772E-12  0.17120000000E+03  0.17120000000E+03 0.  0.
         13    1    1    2    0    0 -0.28549323599E+02 -0.17922973145E+02  0.86731147440E+02  0.93051598291E+02  0.10566000000E+00 0.  1.
        994    1    1    2    0    0  0.21663062774E+02  0.17341679751E+02  0.88321078936E+01  0.17365905757E+03  0.17120000000E+03 0.  0.
        998    1    1    2    0    0  0.68862608250E+01  0.58129339401E+00  0.14044367409E+04  0.14044893441E+04  0.10000000000E+02 0.  1.
</event>
<event>
 5    1  0.1666761E-008  0.3787220E+03  0.7957747E-01  0.3456742E+00
         13   -1    0    0    0    0  0.00000000000E+00  0.00000000000E+00  0.14999999963E+04  0.15000000000E+04  0.10566000000E+00 0.  1.
        994   -1    0    0    0    0 -0.00000000000E+00 -0.00000000000E+00  0.11368683772E-12  0.17120000000E+03  0.17120000000E+03 0.  0.
         13    1    1    2    0    0 -0.16496769803E+02 -0.33028442468E+02  0.12958693996E+03  0.13474348814E+03  0.10566000000E+00 0.  1.
        994    1    1    2    0    0  0.23160853737E+02  0.30193845738E+02  0.96564612280E+01  0.17564390314E+03  0.17120000000E+03 0.  0.
        998    1    1    2    0    0 -0.66640839340E+01  0.28345967293E+01  0.13607565951E+04  0.13608126087E+04  0.10000000000E+02 0.  1.
</event>
<event>
 5    1  0.1666761E-008  0.3849508E+03  0.7957747E-01  0.3429881E+00
         13   -1    0    0    0    0  0.00000000000E+00  0.00000000000E+00  0.14999999963E+04  0.15000000000E+04  0.10566000000E+00 0. -1.
        994   -1    0    0    0    0 -0.00000000000E+00 -0.00000000000E+00  0.11368683772E-12  0.17120000000E+03  0.17120000000E+03 0.  0.
         13    1    1    2    0    0  0.13263818677E+02 -0.13267464147E+02  0.10868084870E+03  0.11028822480E+03  0.10566000000E+00 0. -1.
        994    1    1    2    0    0 -0.30033952930E+01  0.10196063362E+02  0.20262586794E+01  0.17154161540E+03  0.17120000000E+03 0.  0.
        998    1    1    2    0    0 -0.10260423384E+02  0.30714007853E+01  0.13892928889E+04  0.13893701598E+04  0.10000000000E+02 0. -1.
</event>
<event>
 5    1  0.1666761E-008  0.3735281E+03  0.7957747E-01  0.3479832E+00
         13   -1    0    0    0    0  0.00000000000E+00  0.00000000000E+00  0.14999999963E+04  0.15000000000E+04  0.10566000000E+00 0.  1.
        994   -1    0    0    0    0 -0.00000000000E+00 -0.00000000000E+00  0.11368683772E-12  0.17120000000E+03  0.17120000000E+03 0.  0.
         13    1    1    2    0    0 -0.52932855665E+02  0.12604762713E+02  0.22133580029E+03  0.22792611721E+03  0.10566000000E+00 0.  1.
        994    1    1    2    0    0  0.10548769092E+02 -0.88993056862E+01  0.80874665638E+01  0.17194569284E+03  0.17120000000E+03 0.  0.
        998    1    1    2    0    0  0.42384086573E+02 -0.37054570267E+01  0.12705767294E+04  0.12713281900E+04  0.10000000000E+02 0.  1.
</event>
<event>
 5    1  0.1666761E-008  0.3860125E+03  0.7957747E-01  0.3425389E+00
         13   -1    0    0    0    0  0.00000000000E+00  0.00000000000E+00  0.14999999963E+04  0.15000000000E+04  0.10566000000E+00 0. -1.
        994   -1    0    0    0    0 -0.00000000000E+00 -0.00000000000E+00  0.11368683772E-12  0.17120000000E+03  0.17120000000E+03 0.  0.
         13    1    1    2    0    0 -0.71279605155E+01 -0.94653886017E+01  0.69538434032E+02  0.70540813535E+02  0.10566000000E+00 0. -1.
        994    1    1    2    0    0 -0.29162268644E-01 -0.56599166314E+01  0.12332839677E+01  0.17129797575E+03  0.17120000000E+03 0.  0.
        998    1    1    2    0    0  0.71571227841E+01  0.15125305233E+02  0.14292282783E+04  0.14293612107E+04  0.10000000000E+02 0. -1.
</event>
<event>
 5    1  0.1666761E-008  0.3711924E+03  0.7957747E-01  0.3490429E+00
         13   -1    0    0    0    0  0.00000000000E+00  0.00000000000E+00  0.14999999963E+04  0.15000000000E+04  0.10566000000E+00 0. -1.
        994   -1    0    0    0    0 -0.00000000000E+00 -0.00000000000E+00  0.11368683772E-12  0.17120000000E+03  0.17120000000E+03 0.  0.
         13    1    1    2    0    0 -0.10294994581E+03 -0.64082499911E+02  0.59372553073E+03  0.60598290004E+03  0.10566000000E+00 0. -1.
        994    1    1    2    0    0  0.96650256956E+02  0.45036837450E+02  0.48879088750E+02  0.20752877924E+03  0.17120000000E+03 0.  0.
        998    1    1    2    0    0  0.62996888501E+01  0.19045662461E+02  0.85739537680E+03  0.85768832071E+03  0.10000000000E+02 0. -1.
</event>
<event>
 5    1  0.1666761E-008  0.3715015E+03  0.7957747E-01  0.3489019E+00
         13   -1    0    0    0    0  0.00000000000E+00  0.00000000000E+00  0.14999999963E+04  0.15000000000E+04  0.10566000000E+00 0. -1.
        994   -1    0    0    0    0 -0.00000000000E+00 -0.00000000000E+00  0.11368683772E-12  0.17120000000E+03  0.17120000000E+03 0.  0.
         13    1    1    2    0    0 -0.10080305358E+02  0.19752785138E+02  0.25136162893E+02  0.33520485167E+02  0.10566000000E+00 0. -1.
        994    1    1    2    0    0  0.14756758167E+02 -0.15092111376E+02  0.10020432725E+02  0.17278710256E+03  0.17120000000E+03 0.  0.
        998    1    1    2    0    0 -0.46764528092E+01 -0.46606737622E+01  0.14648434007E+04  0.14648924123E+04  0.10000000000E+02 0. -1.
</event>
<event>
 5    1  0.1666761E-008  0.3860347E+03  0.7957747E-01  0.3425296E+00
         13   -1    0    0    0    0  0.00000000000E+00  0.00000000000E+00  0.14999999963E+04  0.15000000000E+04  0.10566000000E+00 0.  1.
        994   -1    0    0    0    0 -0.00000000000E+00 -0.00000000000E+00  0.11368683772E-12  0.17120000000E+03  0.17120000000E+03 0.  0.
         13    1    1    2    0    0 -0.45331419618E+01 -0.90557585045E+01  0.44966043815E+02  0.46092433203E+02  0.10566000000E+00 0.  1.
        994    1    1    2    0    0  0.44066566971E+01  0.11209256443E+02  0.15929307723E+01  0.17163054356E+03  0.17120000000E+03 0.  0.
        998    1    1    2    0    0  0.12648526467E+00 -0.21534979386E+01  0.14534410217E+04  0.14534770232E+04  0.10000000000E+02 0.  1.
</event>
<event>
 5    1  0.1666761E-008  0.3812066E+03  0.7957747E-01  0.3445921E+00
         13   -1    0    0    0    0  0.00000000000E+00  0.00000000000E+00  0.14999999963E+04  0.15000000000E+04  0.10566000000E+00 0.  1.
        994   -1    0    0    0    0 -0.00000000000E+00 -0.00000000000E+00  0.11368683772E-12  0.17120000000E+03  0.17120000000E+03 0.  0.
         13    1    1    2    0    0 -0.10301656316E+02  0.13707685971E+02  0.39431931790E+02  0.42998990526E+02  0.10566000000E+00 0.  1.
        994    1    1    2    0    0  0.13737608671E+02 -0.12412716192E+02  0.46675244353E+01  0.17226149657E+03  0.17120000000E+03 0.  0.
        998    1    1    2    0    0 -0.34359523545E+01 -0.12949697789E+01  0.14559005401E+04  0.14559395129E+04  0.10000000000E+02 0.  1.
</event>
<event>
 5    1  0.1666761E-008  0.3812449E+03  0.7957747E-01  0.3445756E+00
         13   -1    0    0    0    0  0.00000000000E+00  0.00000000000E+00  0.14999999963E+04  0.15000000000E+04  0.10566000000E+00 0.  1.
        994   -1    0    0    0    0 -0.00000000000E+00 -0.00000000000E+00  0.11368683772E-12  0.17120000000E+03  0.17120000000E+03 0.  0.
         13    1    1    2    0    0 -0.15086386679E+02 -0.17119518022E+02  0.72235608812E+02  0.75754018407E+02  0.10566000000E+00 0.  1.
        994    1    1    2    0    0  0.63039974035E+01  0.16852067689E+02  0.45845827609E+01  0.17220392263E+03  0.17120000000E+03 0.  0.
        998    1    1    2    0    0  0.87823892751E+01  0.26745033255E+00  0.14231798047E+04  0.14232420590E+04  0.10000000000E+02 0.  1.
</event>
<event>
 5    1  0.1666761E-008  0.3788122E+03  0.7957747E-01  0.3456347E+00
         13   -1    0    0    0    0  0.00000000000E+00  0.00000000000E+00  0.14999999963E+04  0.15000000000E+04  0.10566000000E+00 0.  1.
        994   -1    0    0    0    0 -0.00000000000E+00 -0.00000000000E+00  0.11368683772E-12  0.17120000000E+03  0.17120000000E+03 0.  0.
         13    1    1    2    0    0  0.16345351782E+02  0.50314034546E+01  0.29080360562E+02  0.33736687449E+02  0.10566000000E+00 0.  1.
        994    1    1    2    0    0 -0.12242809987E+02  0.44548587356E+01  0.53037754172E+01  0.17177689657E+03  0.17120000000E+03 0.  0.
        998    1    1    2    0    0 -0.41025417945E+01 -0.94862621902E+01  0.14656158603E+04  0.14656864160E+04  0.10000000000E+02 0.  1.
</event>
<event>
 5    1  0.1666761E-008  0.3326898E+03  0.7957747E-01  0.3687154E+00
         13   -1    0    0    0    0  0.00000000000E+00  0.00000000000E+00  0.14999999963E+04  0.15000000000E+04  0.10566000000E+00 0. -1.
        994   -1    0    0    0    0 -0.00000000000E+00 -0.00000000000E+00  0.11368683772E-12  0.17120000000E+03  0.17120000000E+03 0.  0.
         13    1    1    2    0    0 -0.10997655373E+03 -0.25926810847E+02 -0.11268346180E+02  0.11355187661E+03  0.10566000000E+00 0. -1.
        994    1    1    2    0    0  0.20274732813E+03  0.63946698598E+02  0.11922589059E+04  0.12231052277E+04  0.17120000000E+03 0.  0.
        998    1    1    2    0    0 -0.92770774395E+02 -0.38019887752E+02  0.31900943655E+03  0.33454289568E+03  0.10000000000E+02 0. -1.
</event>
<event>
 5    1  0.1666761E-008  0.3790161E+03  0.7957747E-01  0.3455454E+00
         13   -1    0    0    0    0  0.00000000000E+00  0.00000000000E+00  0.14999999963E+04  0.15000000000E+04  0.10566000000E+00 0.  1.
        994   -1    0    0    0    0 -0.00000000000E+00 -0.00000000000E+00  0.11368683772E-12  0.17120000000E+03  0.17120000000E+03 0.  0.
         13    1    1    2    0    0  0.15733972190E+02  0.56307660370E+01  0.27894748778E+02  0.32517558034E+02  0.10566000000E+00 0.  1.
        994    1    1    2    0    0 -0.16835206928E+02 -0.69167618175E+00  0.55833704285E+01  0.17211774061E+03  0.17120000000E+03 0.  0.
        998    1    1    2    0    0  0.11012347381E+01 -0.49390898553E+01  0.14665218771E+04  0.14665647014E+04  0.10000000000E+02 0.  1.
</event>
<event>
 5    1  0.1666761E-008  0.3784248E+03  0.7957747E-01  0.3458046E+00
         13   -1    0    0    0    0  0.00000000000E+00  0.00000000000E+00  0.14999999963E+04  0.15000000000E+04  0.10566000000E+00 0. -1.
        994   -1    0    0    0    0 -0.00000000000E+00 -0.00000000000E+00  0.11368683772E-12  0.17120000000E+03  0.17120000000E+03 0.  0.
         13    1    1    2    0    0  0.21498647962E+02  0.39050587315E+02  0.20208080824E+03  0.20693913226E+03  0.10566000000E+00 0. -1.
        994    1    1    2    0    0 -0.92321836222E+01 -0.22431987957E+02  0.69102968101E+01  0.17304802657E+03  0.17120000000E+03 0.  0.
        998    1    1    2    0    0 -0.12266464340E+02 -0.16618599358E+02  0.12910088912E+04  0.12912128412E+04  0.10000000000E+02 0. -1.
</event>
<event>
 5    1  0.1666761E-008  0.3831823E+03  0.7957747E-01  0.3437418E+00
         13   -1    0    0    0    0  0.00000000000E+00  0.00000000000E+00  0.14999999963E+04  0.15000000000E+04  0.10566000000E+00 0. -1.
        994   -1    0    0    0    0 -0.00000000000E+00 -0.00000000000E+00  0.11368683772E-12  0.17120000000E+03  0.17120000000E+03 0.  0.
         13    1    1    2    0    0 -0.66386713307E+01  0.13249672776E+02  0.42596853949E+02  0.45101318341E+02  0.10566000000E+00 0. -1.
        994    1    1    2    0    0  0.10142838646E+01 -0.10283180070E+02  0.28886106712E+01  0.17153587565E+03  0.17120000000E+03 0.  0.
        998    1    1    2    0    0  0.56243874661E+01 -0.29664927056E+01  0.14545145317E+04  0.14545628060E+04  0.10000000000E+02 0. -1.
</event>
<event>
 5    1  0.1666761E-008  0.3707697E+03  0.7957747E-01  0.3492361E+00
         13   -1    0    0    0    0  0.00000000000E+00  0.00000000000E+00  0.14999999963E+04  0.15000000000E+04  0.10566000000E+00 0. -1.
        994   -1    0    0    0    0 -0.00000000000E+00 -0.00000000000E+00  0.11368683772E-12  0.17120000000E+03  0.17120000000E+03 0.  0.
         13    1    1    2    0    0  0.31535483138E+02  0.78127694150E+02  0.27284117662E+03  0.28555339625E+03  0.10566000000E+00 0. -1.
        994    1    1    2    0    0  0.54344590476E+01 -0.80214443617E+02  0.34363416901E+02  0.19223468660E+03  0.17120000000E+03 0.  0.
        998    1    1    2    0    0 -0.36969942186E+02  0.20867494668E+01  0.11927954028E+04  0.11934119172E+04  0.10000000000E+02 0. -1.
</event>
<event>
 5    1  0.1666761E-008  0.3733858E+03  0.7957747E-01  0.3480474E+00
         13   -1    0    0    0    0  0.00000000000E+00  0.00000000000E+00  0.14999999963E+04  0.15000000000E+04  0.10566000000E+00 0.  1.
        994   -1    0    0    0    0 -0.00000000000E+00 -0.00000000000E+00  0.11368683772E-12  0.17120000000E+03  0.17120000000E+03 0.  0.
         13    1    1    2    0    0  0.32156351382E+02  0.39927107342E+02  0.16808815521E+03  0.17573230756E+03  0.10566000000E+00 0.  1.
        994    1    1    2    0    0 -0.24084404310E+02 -0.25784894675E+02  0.11776770219E+02  0.17519432537E+03  0.17120000000E+03 0.  0.
        998    1    1    2    0    0 -0.80719470712E+01 -0.14142212667E+02  0.13201350709E+04  0.13202733671E+04  0.10000000000E+02 0.  1.
</event>
<event>
 5    1  0.1666761E-008  0.3837824E+03  0.7957747E-01  0.3434853E+00
         13   -1    0    0    0    0  0.00000000000E+00  0.00000000000E+00  0.14999999963E+04  0.15000000000E+04  0.10566000000E+00 0.  1.
        994   -1    0    0    0    0 -0.00000000000E+00 -0.00000000000E+00  0.11368683772E-12  0.17120000000E+03  0.17120000000E+03 0.  0.
         13    1    1    2    0    0 -0.11981789625E+02 -0.80819035094E+01  0.45746774879E+02  0.47975608624E+02  0.10566000000E+00 0.  1.
        994    1    1    2    0    0  0.13153118184E+02  0.11585142529E+01  0.28117169623E+01  0.17173145439E+03  0.17120000000E+03 0.  0.
        998    1    1    2    0    0 -0.11713285588E+01  0.69233892566E+01  0.14514415044E+04  0.14514929370E+04  0.10000000000E+02 0.  1.
</event>
<event>
 5    1  0.1666761E-008  0.3841958E+03  0.7957747E-01  0.3433090E+00
         13   -1    0    0    0    0  0.00000000000E+00  0.00000000000E+00  0.14999999963E+04  0.15000000000E+04  0.10566000000E+00 0.  1.
        994   -1    0    0    0    0 -0.00000000000E+00 -0.00000000000E+00  0.11368683772E-12  0.17120000000E+03  0.17120000000E+03 0.  0.
         13    1    1    2    0    0 -0.10140855999E+02 -0.15454374474E+02  0.89067734548E+02  0.90965637206E+02  0.10566000000E+00 0.  1.
        994    1    1    2    0    0 -0.12627431469E+01  0.42103673422E+01  0.20936229938E+01  0.17126921781E+03  0.17120000000E+03 0.  0.
        998    1    1    2    0    0  0.11403599146E+02  0.11244007131E+02  0.14088386387E+04  0.14089651450E+04  0.10000000000E+02 0.  1.
</event>
<event>
 5    1  0.1666761E-008  0.3829103E+03  0.7957747E-01  0.3438583E+00
         13   -1    0    0    0    0  0.00000000000E+00  0.00000000000E+00  0.14999999963E+04  0.15000000000E+04  0.10566000000E+00 0.  1.
        994   -1    0    0    0    0 -0.00000000000E+00 -0.00000000000E+00  0.11368683772E-12  0.17120000000E+03  0.17120000000E+03 0.  0.
         13    1    1    2    0    0  0.18862740542E+02 -0.18443450598E+02  0.15379980059E+03  0.15604599859E+03  0.10566000000E+00 0.  1.
        994    1    1    2    0    0  0.96017715990E+01  0.21916410791E+01  0.29924268112E+01  0.17150915989E+03  0.17120000000E+03 0.  0.
        998    1    1    2    0    0 -0.28464512141E+02  0.16251809519E+02  0.13432077689E+04  0.13436448415E+04  0.10000000000E+02 0.  1.
</event>
<event>
 5    1  0.1666761E-008  0.3840435E+03  0.7957747E-01  0.3433739E+00
         13   -1    0    0    0    0  0.00000000000E+00  0.00000000000E+00  0.14999999963E+04  0.15000000000E+04  0.10566000000E+00 0.  1.
        994   -1    0    0    0    0 -0.00000000000E+00 -0.00000000000E+00  0.11368683772E-12  0.17120000000E+03  0.17120000000E+03 0.  0.
         13    1    1    2    0    0  0.10817673889E+02 -0.42029687299E+01  0.30956467294E+02  0.33060566328E+02  0.10566000000E+00 0.  1.
        994    1    1    2    0    0 -0.12388686433E+02  0.11704455485E+00  0.26123030950E+01  0.17166757812E+03  0.17120000000E+03 0.  0.
        998    1    1    2    0    0  0.15710125440E+01  0.40859241750E+01  0.14664312259E+04  0.14664718555E+04  0.10000000000E+02 0.  1.
</event>
<event>
 5    1  0.1666761E-008  0.3830984E+03  0.7957747E-01  0.3437777E+00
         13   -1    0    0    0    0  0.00000000000E+00  0.00000000000E+00  0.14999999963E+04  0.15000000000E+04  0.10566000000E+00 0. -1.
        994   -1    0    0    0    0 -0.00000000000E+00 -0.00000000000E+00  0.11368683772E-12  0.17120000000E+03  0.17120000000E+03 0.  0.
         13    1    1    2    0    0  0.24242676971E+01 -0.10574328235E+02  0.21678935244E+02  0.24242130452E+02  0.10566000000E+00 0. -1.
        994    1    1    2    0    0  0.15467719885E+01  0.11396096694E+02  0.30149909623E+01  0.17161233549E+03  0.17120000000E+03 0.  0.
        998    1    1    2    0    0 -0.39710396856E+01 -0.82176845925E+00  0.14753060701E+04  0.14753455341E+04  0.10000000000E+02 0. -1.
</event>
<event>
 5    1  0.1666761E-008  0.3825517E+03  0.7957747E-01  0.3440123E+00
         13   -1    0    0    0    0  0.00000000000E+00  0.00000000000E+00  0.14999999963E+04  0.15000000000E+04  0.10566000000E+00 0. -1.
        994   -1    0    0    0    0 -0.00000000000E+00 -0.00000000000E+00  0.11368683772E-12  0.17120000000E+03  0.17120000000E+03 0.  0.
         13    1    1    2    0    0  0.19166463297E+02 -0.86483416781E+01  0.80070115431E+02  0.82785153731E+02  0.10566000000E+00 0. -1.
        994    1    1    2    0    0 -0.46728575213E+01  0.27270273709E+01  0.29476427587E+01  0.17131083116E+03  0.17120000000E+03 0.  0.
        998    1    1    2    0    0 -0.14493605776E+02  0.59213143072E+01  0.14169822381E+04  0.14171040151E+04  0.10000000000E+02 0. -1.
</event>
<event>
 5    1  0.1666761E-008  0.3844886E+03  0.7957747E-01  0.3431844E+00
         13   -1    0    0    0    0  0.00000000000E+00  0.00000000000E+00  0.14999999963E+04  0.15000000000E+04  0.10566000000E+00 0. -1.
        994   -1    0    0    0    0 -0.00000000000E+00 -0.00000000000E+00  0.11368683772E-12  0.17120000000E+03  0.17120000000E+03 0.  0.
         13    1    1    2    0    0  0.17671046083E+02  0.36957087970E+01  0.84391604531E+02  0.86301090448E+02  0.10566000000E+00 0. -1.
        994    1    1    2    0    0 -0.14556221795E+02 -0.30114093345E+01  0.26124151243E+01  0.17186394878E+03  0.17120000000E+03 0.  0.
        998    1    1    2    0    0 -0.31148242881E+01 -0.68429946253E+00  0.14129959766E+04  0.14130349608E+04  0.10000000000E+02 0. -1.
</event>
<event>
 5    1  0.1666761E-008  0.3738117E+03  0.7957747E-01  0.3478554E+00
         13   -1    0    0    0    0  0.00000000000E+00  0.00000000000E+00  0.14999999963E+04  0.15000000000E+04  0.10566000000E+00 0. -1.
        994   -1    0    0    0    0 -0.00000000000E+00 -0.00000000000E+00  0.11368683772E-12  0.17120000000E+03  0.17120000000E+03 0.  0.
         13    1    1    2    0    0 -0.46213617279E+01 -0.19497540940E+02  0.23949305945E+02  0.31226455229E+02  0.10566000000E+00 0. -1.
        994    1    1    2    0    0  0.45782084809E+01  0.22114736325E+02  0.90327711031E+01  0.17291920804E+03  0.17120000000E+03 0.  0.
        998    1    1    2    0    0  0.43153246996E-01 -0.26171953848E+01  0.14670179192E+04  0.14670543367E+04  0.10000000000E+02 0. -1.
</event>
<event>
 5    1  0.1666761E-008  0.3768186E+03  0.7957747E-01  0.3465129E+00
         13   -1    0    0    0    0  0.00000000000E+00  0.00000000000E+00  0.14999999963E+04  0.15000000000E+04  0.10566000000E+00 0.  1.
        994   -1    0    0    0    0 -0.00000000000E+00 -0.00000000000E+00  0.11368683772E-12  0.17120000000E+03  0.17120000000E+03 0.  0.
         13    1    1    2    0    0  0.14420981635E+02 -0.24376084985E+02  0.66170592513E+02  0.71977195750E+02  0.10566000000E+00 0.  1.
        994    1    1    2    0    0 -0.29018713399E+02  0.10640159872E+02  0.89820224380E+01  0.17419935550E+03  0.17120000000E+03 0.  0.
        998    1    1    2    0    0  0.14597731764E+02  0.13735925112E+02  0.14248473813E+04  0.14250234487E+04  0.10000000000E+02 0.  1.
</event>
<event>
 5    1  0.1666761E-008  0.3775750E+03  0.7957747E-01  0.3461786E+00
         13   -1    0    0    0    0  0.00000000000E+00  0.00000000000E+00  0.14999999963E+04  0.15000000000E+04  0.10566000000E+00 0. -1.
        994   -1    0    0    0    0 -0.00000000000E+00 -0.00000000000E+00  0.11368683772E-12  0.17120000000E+03  0.17120000000E+03 0.  0.
         13    1    1    2    0    0  0.37456920127E+02 -0.31564555851E+02  0.23432587859E+03  0.23939083231E+03  0.10566000000E+00 0. -1.
        994    1    1    2    0    0 -0.21963302470E+02  0.60868718697E+01  0.71147293441E+01  0.17285686575E+03  0.17120000000E+03 0.  0.
        998    1    1    2    0    0 -0.15493617656E+02  0.25477683982E+02  0.12585593883E+04  0.12589523019E+04  0.10000000000E+02 0. -1.
</event>
<event>
 5    1  0.1666761E-008  0.3857600E+03  0.7957747E-01  0.3426455E+00
         13   -1    0    0    0    0  0.00000000000E+00  0.00000000000E+00  0.14999999963E+04  0.15000000000E+04  0.10566000000E+00 0.  1.
        994   -1    0    0    0    0 -0.00000000000E+00 -0.00000000000E+00  0.11368683772E-12  0.17120000000E+03  0.17120000000E+03 0.  0.
         13    1    1    2    0    0 -0.15230355004E+02  0.34435962600E+01  0.89904075746E+02  0.91250074348E+02  0.10566000000E+00 0.  1.
        994    1    1    2    0    0  0.21209438546E+02  0.63876782287E+00  0.27317362972E+01  0.17253159331E+03  0.17120000000E+03 0.  0.
        998    1    1    2    0    0 -0.59790835417E+01 -0.40823640829E+01  0.14073641842E+04  0.14074183323E+04  0.10000000000E+02 0.  1.
</event>
<event>
 5    1  0.1666761E-008  0.3813994E+03  0.7957747E-01  0.3445088E+00
         13   -1    0    0    0    0  0.00000000000E+00  0.00000000000E+00  0.14999999963E+04  0.15000000000E+04  0.10566000000E+00 0. -1.
        994   -1    0    0    0    0 -0.00000000000E+00 -0.00000000000E+00  0.11368683772E-12  0.17120000000E+03  0.17120000000E+03 0.  0.
         13    1    1    2    0    0  0.60284262193E+01  0.30164777589E+02  0.17981684761E+03  0.18242906999E+03  0.10566000000E+00 0. -1.
        994    1    1    2    0    0  0.65565104265E+01  0.15011288809E+02  0.43217705097E+01  0.17203617155E+03  0.17120000000E+03 0.  0.
        998    1    1    2    0    0 -0.12584936646E+02 -0.45176066398E+02  0.13158613782E+04  0.13167347585E+04  0.10000000000E+02 0.  1.
</event>
<event>
 5    1  0.1666761E-008  0.3702956E+03  0.7957747E-01  0.3494533E+00
         13   -1    0    0    0    0  0.00000000000E+00  0.00000000000E+00  0.14999999963E+04  0.15000000000E+04  0.10566000000E+00 0. -1.
        994   -1    0    0    0    0 -0.00000000000E+00 -0.00000000000E+00  0.11368683772E-12  0.17120000000E+03  0.17120000000E+03 0.  0.
         13    1    1    2    0    0 -0.21454565922E+02 -0.76806142210E+00  0.21461905626E+02  0.30356430528E+02  0.10566000000E+00 0. -1.
        994    1    1    2    0    0  0.14383102155E+02  0.66596483564E+00  0.98310546411E+01  0.17208546357E+03  0.17120000000E+03 0.  0.
        998    1    1    2    0    0  0.70714637673E+01  0.10209658646E+00  0.14687070360E+04  0.14687581059E+04  0.10000000000E+02 0. -1.
</event>
<event>
 5    1  0.1666761E-008  0.3858397E+03  0.7957747E-01  0.3426119E+00
         13   -1    0    0    0    0  0.00000000000E+00  0.00000000000E+00  0.14999999963E+04  0.15000000000E+04  0.10566000000E+00 0. -1.
        994   -1    0    0    0    0 -0.00000000000E+00 -0.00000000000E+00  0.11368683772E-12  0.17120000000E+03  0.17120000000E+03 0.  0.
         13    1    1    2    0    0  0.79872207152E+01 -0.99710314938E+01  0.67647444843E+02  0.68843337525E+02  0.10566000000E+00 0. -1.
        994    1    1    2    0    0 -0.81959188210E+01  0.48530809807E+01  0.15114270114E+01  0.17147142588E+03  0.17120000000E+03 0.  0.
        998    1    1    2    0    0  0.20869810573E+00  0.51179505130E+01  0.14308411244E+04  0.14308852366E+04  0.10000000000E+02 0. -1.
</event>
<event>
 5    1  0.2677478E-008  0.3852469E+03  0.7957747E-01  0.3428626E+00
         13   -1    0    0    0    0  0.00000000000E+00  0.00000000000E+00  0.14999999963E+04  0.15000000000E+04  0.10566000000E+00 0.  1.
        994   -1    0    0    0    0 -0.00000000000E+00 -0.00000000000E+00  0.11368683772E-12  0.17120000000E+03  0.17120000000E+03 0.  0.
         13    1    1    2    0    0  0.71385554691E+01  0.88699595652E+01  0.43502028408E+02  0.44967463755E+02  0.10566000000E+00 0.  1.
        994    1    1    2    0    0 -0.53044800731E+01 -0.28916251313E+01  0.16275328407E+01  0.17131429557E+03  0.17120000000E+03 0.  0.
        998    1    1    2    0    0 -0.18340753960E+01 -0.59783344339E+01  0.14548704350E+04  0.14549182407E+04  0.10000000000E+02 0.  1.
</event>
<event>
 5    1  0.1666761E-008  0.3747516E+03  0.7957747E-01  0.3474334E+00
         13   -1    0    0    0    0  0.00000000000E+00  0.00000000000E+00  0.14999999963E+04  0.15000000000E+04  0.10566000000E+00 0. -1.
        994   -1    0    0    0    0 -0.00000000000E+00 -0.00000000000E+00  0.11368683772E-12  0.17120000000E+03  0.17120000000E+03 0.  0.
         13    1    1    2    0    0 -0.22206224689E+01  0.12713604690E+02  0.91357563037E+01  0.15812656818E+02  0.10566000000E+00 0. -1.
        994    1    1    2    0    0 -0.38840520216E+00 -0.11063994736E+02  0.72233892637E+01  0.17170958095E+03  0.17120000000E+03 0.  0.
        998    1    1    2    0    0  0.26090276711E+01 -0.16496099533E+01  0.14836408507E+04  0.14836777622E+04  0.10000000000E+02 0. -1.
</event>
<event>
 5    1  0.1666761E-008  0.3693888E+03  0.7957747E-01  0.3498704E+00
         13   -1    0    0    0    0  0.00000000000E+00  0.00000000000E+00  0.14999999963E+04  0.15000000000E+04  0.10566000000E+00 0. -1.
        994   -1    0    0    0    0 -0.00000000000E+00 -0.00000000000E+00  0.11368683772E-12  0.17120000000E+03  0.17120000000E+03 0.  0.
         13    1    1    2    0    0 -0.10508488499E+02 -0.74565282747E+01  0.28504113757E+01  0.13197126713E+02  0.10566000000E+00 0. -1.
        994    1    1    2    0    0  0.12733646546E+02  0.10600777172E+02  0.11574240021E+02  0.17238887801E+03  0.17120000000E+03 0.  0.
        998    1    1    2    0    0 -0.22251580473E+01 -0.31442488975E+01  0.14855753449E+04  0.14856139953E+04  0.10000000000E+02 0. -1.
</event>
<event>
 5    1  0.1666761E-008  0.3805441E+03  0.7957747E-01  0.3448793E+00
         13   -1    0    0    0    0  0.00000000000E+00  0.00000000000E+00  0.14999999963E+04  0.15000000000E+04  0.10566000000E+00 0.  1.
        994   -1    0    0    0    0 -0.00000000000E+00 -0.00000000000E+00  0.11368683772E-12  0.17120000000E+03  0.17120000000E+03 0.  0.
         13    1    1    2    0    0  0.33449959612E+02 -0.24264911158E+01  0.15885390309E+03  0.16235566313E+03  0.10566000000E+00 0.  1.
        994    1    1    2    0    0 -0.55194609084E+01  0.43862527436E+01  0.40246193470E+01  0.17139236046E+03  0.17120000000E+03 0.  0.
        998    1    1    2    0    0 -0.27930498704E+02 -0.19597616278E+01  0.13371214738E+04  0.13374519764E+04  0.10000000000E+02 0.  1.
</event>
<event>
 5    1  0.1666761E-008  0.3821136E+03  0.7957747E-01  0.3442007E+00
         13   -1    0    0    0    0  0.00000000000E+00  0.00000000000E+00  0.14999999963E+04  0.15000000000E+04  0.10566000000E+00 0. -1.
        994   -1    0    0    0    0 -0.00000000000E+00 -0.00000000000E+00  0.11368683772E-12  0.17120000000E+03  0.17120000000E+03 0.  0.
         13    1    1    2    0    0  0.21828615260E+02 -0.12754811631E+02  0.10785841328E+03  0.11078186739E+03  0.10566000000E+00 0. -1.
        994    1    1    2    0    0 -0.54794579019E+01  0.68011460694E+01  0.33232831002E+01  0.17145484612E+03  0.17120000000E+03 0.  0.
        998    1    1    2    0    0 -0.16349157358E+02  0.59536655619E+01  0.13888182999E+04  0.13889632865E+04  0.10000000000E+02 0. -1.
</event>
<event>
 5    1  0.1666761E-008  0.3840174E+03  0.7957747E-01  0.3433850E+00
         13   -1    0    0    0    0  0.00000000000E+00  0.00000000000E+00  0.14999999963E+04  0.15000000000E+04  0.10566000000E+00 0. -1.
        994   -1    0    0    0    0 -0.00000000000E+00 -0.00000000000E+00  0.11368683772E-12  0.17120000000E+03  0.17120000000E+03 0.  0.
         13    1    1    2    0    0  0.18768517868E+02  0.11599105277E+01  0.76835545498E+02  0.79103191284E+02  0.10566000000E+00 0. -1.
        994    1    1    2    0    0 -0.24785885417E+02 -0.33286841161E+01  0.41848329524E+01  0.17306753907E+03  0.17120000000E+03 0.  0.
        998    1    1    2    0    0  0.60173675488E+01  0.21687735884E+01  0.14189796178E+04  0.14190292696E+04  0.10000000000E+02 0. -1.
</event>
<event>
 5    1  0.1666761E-008  0.3754434E+03  0.7957747E-01  0.3471242E+00
         13   -1    0    0    0    0  0.00000000000E+00  0.00000000000E+00  0.14999999963E+04  0.15000000000E+04  0.10566000000E+00 0. -1.
        994   -1    0    0    0    0 -0.00000000000E+00 -0.00000000000E+00  0.11368683772E-12  0.17120000000E+03  0.17120000000E+03 0.  0.
         13    1    1    2    0    0  0.85622253390E+01  0.15746745715E+02  0.22166095102E+02  0.28506466626E+02  0.10566000000E+00 0. -1.
        994    1    1    2    0    0 -0.58596611458E+01 -0.11070424205E+02  0.69838835464E+01  0.17179960579E+03  0.17120000000E+03 0.  0.
        998    1    1    2    0    0 -0.27025641932E+01 -0.46763215104E+01  0.14708500176E+04  0.14708939276E+04  0.10000000000E+02 0. -1.
</event>
<event>
 5    1  0.1666761E-008  0.3829451E+03  0.7957747E-01  0.3438434E+00
         13   -1    0    0    0    0  0.00000000000E+00  0.00000000000E+00  0.14999999963E+04  0.15000000000E+04  0.10566000000E+00 0.  1.
        994   -1    0    0    0    0 -0.00000000000E+00 -0.00000000000E+00  0.11368683772E-12  0.17120000000E+03  0.17120000000E+03 0.  0.
         13    1    1    2    0    0 -0.16707790123E+02  0.70736804496E+01  0.65424680123E+02  0.67893940372E+02  0.10566000000E+00 0.  1.
        994    1    1    2    0    0 -0.63529614353E+00  0.13527387223E+01  0.26611912447E+01  0.17122720415E+03  0.17120000000E+03 0.  0.
        998    1    1    2    0    0  0.17343086266E+02 -0.84264191720E+01  0.14319141249E+04  0.14320788555E+04  0.10000000000E+02 0.  1.
</event>
<event>
 5    1  0.1886456E-008  0.3861814E+03  0.7957747E-01  0.3424677E+00
         13   -1    0    0    0    0  0.00000000000E+00  0.00000000000E+00  0.14999999963E+04  0.15000000000E+04  0.10566000000E+00 0.  1.
        994   -1    0    0    0    0 -0.00000000000E+00 -0.00000000000E+00  0.11368683772E-12  0.17120000000E+03  0.17120000000E+03 0.  0.
         13    1    1    2    0    0  0.87847710140E+01 -0.76334494866E+01  0.67745944248E+02  0.68738387229E+02  0.10566000000E+00 0.  1.
        994    1    1    2    0    0 -0.67595719399E+01 -0.14412719640E+01  0.12012494055E+01  0.17134366658E+03  0.17120000000E+03 0.  0.
        998    1    1    2    0    0 -0.20251990742E+01  0.90747214506E+01  0.14310528026E+04  0.14311179462E+04  0.10000000000E+02 0.  1.
</event>
<event>
 5    1  0.1666761E-008  0.3689252E+03  0.7957747E-01  0.3500845E+00
         13   -1    0    0    0    0  0.00000000000E+00  0.00000000000E+00  0.14999999963E+04  0.15000000000E+04  0.10566000000E+00 0. -1.
        994   -1    0    0    0    0 -0.00000000000E+00 -0.00000000000E+00  0.11368683772E-12  0.17120000000E+03  0.17120000000E+03 0.  0.
         13    1    1    2    0    0  0.13288955726E+02  0.16837318883E+02  0.21297187512E+02  0.30227024521E+02  0.10566000000E+00 0. -1.
        994    1    1    2    0    0  0.11524403894E+02  0.29590964411E+02  0.13339767854E+02  0.17463054276E+03  0.17120000000E+03 0.  0.
        998    1    1    2    0    0 -0.24813359620E+02 -0.46428283294E+02  0.14653630409E+04  0.14663424327E+04  0.10000000000E+02 0. -1.
</event>
<event>
 5    1  0.1666761E-008  0.3889615E+03  0.7957747E-01  0.3413043E+00
         13   -1    0    0    0    0  0.00000000000E+00  0.00000000000E+00  0.14999999963E+04  0.15000000000E+04  0.10566000000E+00 0.  1.
        994   -1    0    0    0    0 -0.00000000000E+00 -0.00000000000E+00  0.11368683772E-12  0.17120000000E+03  0.17120000000E+03 0.  0.
         13    1    1    2    0    0 -0.43298119312E+02 -0.67760333114E+02  0.17952115996E+03  0.19670802708E+03  0.10566000000E+00 0.  1.
        994    1    1    2    0    0  0.64227146029E+02 -0.45837983547E+02  0.45067382461E+02  0.19382145388E+03  0.17120000000E+03 0.  0.
        998    1    1    2    0    0 -0.20929026717E+02  0.11359831666E+03  0.12754114539E+04  0.12806705190E+04  0.10000000000E+02 0.  1.
</event>
<event>
 5    1  0.1666761E-008  0.3803854E+03  0.7957747E-01  0.3449482E+00
         13   -1    0    0    0    0  0.00000000000E+00  0.00000000000E+00  0.14999999963E+04  0.15000000000E+04  0.10566000000E+00 0. -1.
        994   -1    0    0    0    0 -0.00000000000E+00 -0.00000000000E+00  0.11368683772E-12  0.17120000000E+03  0.17120000000E+03 0.  0.
         13    1    1    2    0    0 -0.49878162978E+02 -0.13888893523E+02  0.28991469849E+03  0.29450174204E+03  0.10566000000E+00 0. -1.
        994    1    1    2    0    0  0.43783408195E+02  0.16642798434E+02  0.11298659592E+02  0.17785125606E+03  0.17120000000E+03 0.  0.
        998    1    1    2    0    0  0.60947547826E+01 -0.27539049109E+01  0.11987866382E+04  0.11988470019E+04  0.10000000000E+02 0. -1.
</event>
<event>
 5    1  0.1666761E-008  0.3863057E+03  0.7957747E-01  0.3424153E+00
         13   -1    0    0    0    0  0.00000000000E+00  0.00000000000E+00  0.14999999963E+04  0.15000000000E+04  0.10566000000E+00 0.  1.
        994   -1    0    0    0    0 -0.00000000000E+00 -0.00000000000E+00  0.11368683772E-12  0.17120000000E+03  0.17120000000E+03 0.  0.
         13    1    1    2    0    0  0.36217185623E+01 -0.10398940317E+02  0.60841585059E+02  0.61830125680E+02  0.10566000000E+00 0.  1.
        994    1    1    2    0    0 -0.68274730618E+01  0.96158633653E+01  0.14388414630E+01  0.17161174051E+03  0.17120000000E+03 0.  0.
        998    1    1    2    0    0  0.32057544994E+01  0.78307695167E+00  0.14377195698E+04  0.14377581338E+04  0.10000000000E+02 0.  1.
</event>
<event>
 5    1  0.1666761E-008  0.3958621E+03  0.7957747E-01  0.3384872E+00
         13   -1    0    0    0    0  0.00000000000E+00  0.00000000000E+00  0.14999999963E+04  0.15000000000E+04  0.10566000000E+00 0.  1.
        994   -1    0    0    0    0 -0.00000000000E+00 -0.00000000000E+00  0.11368683772E-12  0.17120000000E+03  0.17120000000E+03 0.  0.
         13    1    1    2    0    0  0.27947794588E+02  0.82066271346E+02  0.13925285612E+03  0.16403451227E+03  0.10566000000E+00 0.  1.
        994    1    1    2    0    0  0.35502772431E+00 -0.66250129969E+02  0.42429805775E+02  0.18841160841E+03  0.17120000000E+03 0.  0.
        998    1    1    2    0    0 -0.28302822313E+02 -0.15816141377E+02  0.13183173344E+04  0.13187538793E+04  0.10000000000E+02 0.  1.
</event>
<event>
 5    1  0.1666761E-008  0.3834212E+03  0.7957747E-01  0.3436396E+00
         13   -1    0    0    0    0  0.00000000000E+00  0.00000000000E+00  0.14999999963E+04  0.15000000000E+04  0.10566000000E+00 0. -1.
        994   -1    0    0    0    0 -0.00000000000E+00 -0.00000000000E+00  0.11368683772E-12  0.17120000000E+03  0.17120000000E+03 0.  0.
         13    1    1    2    0    0  0.49580683841E+01 -0.18037394325E+02  0.68647570661E+02  0.71150756551E+02  0.10566000000E+00 0. -1.
        994    1    1    2    0    0 -0.34961366862E+01  0.20134948161E+02  0.37977429425E+01  0.17245724676E+03  0.17120000000E+03 0.  0.
        998    1    1    2    0    0 -0.14619316978E+01 -0.20975538361E+01  0.14275546827E+04  0.14275919967E+04  0.10000000000E+02 0. -1.
</event>
<event>
 5    1  0.1666761E-008  0.3836007E+03  0.7957747E-01  0.3435629E+00
         13   -1    0    0    0    0  0.00000000000E+00  0.00000000000E+00  0.14999999963E+04  0.15000000000E+04  0.10566000000E+00 0.  1.
        994   -1    0    0    0    0 -0.00000000000E+00 -0.00000000000E+00  0.11368683772E-12  0.17120000000E+03  0.17120000000E+03 0.  0.
         13    1    1    2    0    0  0.11580339897E+02 -0.27530305055E+01  0.30618491439E+02  0.32850976106E+02  0.10566000000E+00 0.  1.
        994    1    1    2    0    0 -0.96373831405E+00 -0.18132073347E+01  0.23403915448E+01  0.17122830941E+03  0.17120000000E+03 0.  0.
        998    1    1    2    0    0 -0.10616601583E+02  0.45662378402E+01  0.14670411133E+04  0.14671207145E+04  0.10000000000E+02 0.  1.
</event>
<event>
 5    1  0.1666761E-008  0.4333729E+03  0.7957747E-01  0.3247295E+00
         13   -1    0    0    0    0  0.00000000000E+00  0.00000000000E+00  0.14999999963E+04  0.15000000000E+04  0.10566000000E+00 0.  1.
        994   -1    0    0    0    0 -0.00000000000E+00 -0.00000000000E+00  0.11368683772E-12  0.17120000000E+03  0.17120000000E+03 0.  0.
         13    1    1    2    0    0 -0.17479635789E+02 -0.13456480291E+03  0.14673881074E+03  0.19986373756E+03  0.10566000000E+00 0.  1.
        994    1    1    2    0    0  0.20545173852E+02  0.14343947512E+03  0.15417062053E+03  0.27216724165E+03  0.17120000000E+03 0.  0.
        998    1    1    2    0    0 -0.30655380632E+01 -0.88746722091E+01  0.11990905650E+04  0.11991690208E+04  0.10000000000E+02 0.  1.
</event>
<event>
 5    1  0.1666761E-008  0.3809101E+03  0.7957747E-01  0.3447205E+00
         13   -1    0    0    0    0  0.00000000000E+00  0.00000000000E+00  0.14999999963E+04  0.15000000000E+04  0.10566000000E+00 0.  1.
        994   -1    0    0    0    0 -0.00000000000E+00 -0.00000000000E+00  0.11368683772E-12  0.17120000000E+03  0.17120000000E+03 0.  0.
         13    1    1    2    0    0 -0.90162347125E+02  0.40418722848E+02  0.33817202332E+03  0.35231129774E+03  0.10566000000E+00 0.  1.
        994    1    1    2    0    0  0.22534578948E+02 -0.20751231517E+02  0.20247209735E+02  0.17509371879E+03  0.17120000000E+03 0.  0.
        998    1    1    2    0    0  0.67627768177E+02 -0.19667491332E+02  0.11415807632E+04  0.11437949835E+04  0.10000000000E+02 0. -1.
</event>
<event>
 5    1  0.1666761E-008  0.3716058E+03  0.7957747E-01  0.3488543E+00
         13   -1    0    0    0    0  0.00000000000E+00  0.00000000000E+00  0.14999999963E+04  0.15000000000E+04  0.10566000000E+00 0. -1.
        994   -1    0    0    0    0 -0.00000000000E+00 -0.00000000000E+00  0.11368683772E-12  0.17120000000E+03  0.17120000000E+03 0.  0.
         13    1    1    2    0    0  0.16499947785E+02 -0.26611912791E+02  0.57402830209E+02  0.65387600196E+02  0.10566000000E+00 0. -1.
        994    1    1    2    0    0 -0.68852354146E+01  0.30948161700E+01  0.86280998016E+01  0.17158341546E+03  0.17120000000E+03 0.  0.
        998    1    1    2    0    0 -0.96147123709E+01  0.23517096621E+02  0.14339690663E+04  0.14342289843E+04  0.10000000000E+02 0. -1.
</event>
<event>
 5    1  0.1666761E-008  0.3848614E+03  0.7957747E-01  0.3430260E+00
         13   -1    0    0    0    0  0.00000000000E+00  0.00000000000E+00  0.14999999963E+04  0.15000000000E+04  0.10566000000E+00 0. -1.
        994   -1    0    0    0    0 -0.00000000000E+00 -0.00000000000E+00  0.11368683772E-12  0.17120000000E+03  0.17120000000E+03 0.  0.
         13    1    1    2    0    0  0.42231797395E+01  0.14278835612E+02  0.62897663852E+02  0.64636272136E+02  0.10566000000E+00 0. -1.
        994    1    1    2    0    0 -0.47046720063E+01 -0.14981591434E+02  0.25106916447E+01  0.17193698146E+03  0.17120000000E+03 0.  0.
        998    1    1    2    0    0  0.48149226678E+00  0.70275582268E+00  0.14345916408E+04  0.14346267464E+04  0.10000000000E+02 0. -1.
</event>
<event>
 5    1  0.1666761E-008  0.3824755E+03  0.7957747E-01  0.3440450E+00
         13   -1    0    0    0    0  0.00000000000E+00  0.00000000000E+00  0.14999999963E+04  0.15000000000E+04  0.10566000000E+00 0.  1.
        994   -1    0    0    0    0 -0.00000000000E+00 -0.00000000000E+00  0.11368683772E-12  0.17120000000E+03  0.17120000000E+03 0.  0.
         13    1    1    2    0    0  0.23671681782E+02 -0.61298178350E+01  0.10417758193E+03  0.10700889181E+03  0.10566000000E+00 0.  1.
        994    1    1    2    0    0 -0.14121935774E+02 -0.41642314864E+01  0.36078204533E+01  0.17186979450E+03  0.17120000000E+03 0.  0.
        998    1    1    2    0    0 -0.95497460080E+01  0.10294049321E+02  0.13922145939E+04  0.13923213137E+04  0.10000000000E+02 0.  1.
</event>
<event>
 5    1  0.1666761E-008  0.3847434E+03  0.7957747E-01  0.3430761E+00
         13   -1    0    0    0    0  0.00000000000E+00  0.00000000000E+00  0.14999999963E+04  0.15000000000E+04  0.10566000000E+00 0. -1.
        994   -1    0    0    0    0 -0.00000000000E+00 -0.00000000000E+00  0.11368683772E-12  0.17120000000E+03  0.17120000000E+03 0.  0.
         13    1    1    2    0    0  0.44434430583E+01 -0.13102811431E+02  0.55138362263E+02  0.56847849658E+02  0.10566000000E+00 0. -1.
        994    1    1    2    0    0 -0.23862290329E+01  0.60526558766E+01  0.18969031662E+01  0.17133408001E+03  0.17120000000E+03 0.  0.
        998    1    1    2    0    0 -0.20572140254E+01  0.70501555544E+01  0.14429647308E+04  0.14430180703E+04  0.10000000000E+02 0. -1.
</event>
<event>
 5    1  0.1666761E-008  0.3830257E+03  0.7957747E-01  0.3438089E+00
         13   -1    0    0    0    0  0.00000000000E+00  0.00000000000E+00  0.14999999963E+04  0.15000000000E+04  0.10566000000E+00 0.  1.
        994   -1    0    0    0    0 -0.00000000000E+00 -0.00000000000E+00  0.11368683772E-12  0.17120000000E+03  0.17120000000E+03 0.  0.
         13    1    1    2    0    0 -0.24477685124E+02 -0.45303036277E+01  0.11206914842E+03  0.11480063550E+03  0.10566000000E+00 0.  1.
        994    1    1    2    0    0  0.19439915992E+02  0.22375308424E+02  0.55268373420E+01  0.17383483739E+03  0.17120000000E+03 0.  0.
        998    1    1    2    0    0  0.50377691315E+01 -0.17845004796E+02  0.13824040105E+04  0.13825645271E+04  0.10000000000E+02 0.  1.
</event>
<event>
 5    1  0.1666761E-008  0.3815196E+03  0.7957747E-01  0.3444568E+00
         13   -1    0    0    0    0  0.00000000000E+00  0.00000000000E+00  0.14999999963E+04  0.15000000000E+04  0.10566000000E+00 0. -1.
        994   -1    0    0    0    0 -0.00000000000E+00 -0.00000000000E+00  0.11368683772E-12  0.17120000000E+03  0.17120000000E+03 0.  0.
         13    1    1    2    0    0  0.12681596195E+01  0.13490777656E+02  0.25584281220E+02  0.28951268024E+02  0.10566000000E+00 0. -1.
        994    1    1    2    0    0 -0.77226066714E+01 -0.13260407692E+02  0.41516557776E+01  0.17193648046E+03  0.17120000000E+03 0.  0.
        998    1    1    2    0    0  0.64544470519E+01 -0.23036996451E+00  0.14702640593E+04  0.14703122515E+04  0.10000000000E+02 0. -1.
</event>
<event>
 5    1  0.1666761E-008  0.3802497E+03  0.7957747E-01  0.3450072E+00
         13   -1    0    0    0    0  0.00000000000E+00  0.00000000000E+00  0.14999999963E+04  0.15000000000E+04  0.10566000000E+00 0.  1.
        994   -1    0    0    0    0 -0.00000000000E+00 -0.00000000000E+00  0.11368683772E-12  0.17120000000E+03  0.17120000000E+03 0.  0.
         13    1    1    2    0    0  0.19581192141E+02 -0.80875393267E+01  0.52991820817E+02  0.57069918657E+02  0.10566000000E+00 0.  1.
        994    1    1    2    0    0 -0.19858096041E+02  0.72022480122E+01  0.54989846956E+01  0.17258590669E+03  0.17120000000E+03 0.  0.
        998    1    1    2    0    0  0.27690390018E+00  0.88529131456E+00  0.14415091908E+04  0.14415441747E+04  0.10000000000E+02 0.  1.
</event>
<event>
 5    1  0.1666761E-008  0.3855148E+03  0.7957747E-01  0.3427492E+00
         13   -1    0    0    0    0  0.00000000000E+00  0.00000000000E+00  0.14999999963E+04  0.15000000000E+04  0.10566000000E+00 0. -1.
        994   -1    0    0    0    0 -0.00000000000E+00 -0.00000000000E+00  0.11368683772E-12  0.17120000000E+03  0.17120000000E+03 0.  0.
         13    1    1    2    0    0 -0.10057637423E+02 -0.13882386943E+01  0.37633386858E+02  0.38979048829E+02  0.10566000000E+00 0. -1.
        994    1    1    2    0    0  0.66826108785E+01  0.16372220710E+00  0.15215050745E+01  0.17133720866E+03  0.17120000000E+03 0.  0.
        998    1    1    2    0    0  0.33750265445E+01  0.12245164872E+01  0.14608451043E+04  0.14608837425E+04  0.10000000000E+02 0. -1.
</event>
<event>
 5    1  0.1666761E-008  0.3830159E+03  0.7957747E-01  0.3438131E+00
         13   -1    0    0    0    0  0.00000000000E+00  0.00000000000E+00  0.14999999963E+04  0.15000000000E+04  0.10566000000E+00 0. -1.
        994   -1    0    0    0    0 -0.00000000000E+00 -0.00000000000E+00  0.11368683772E-12  0.17120000000E+03  0.17120000000E+03 0.  0.
         13    1    1    2    0    0 -0.48197442239E+01 -0.17432588266E+02  0.61822983562E+02  0.64414420191E+02  0.10566000000E+00 0. -1.
        994    1    1    2    0    0  0.81724315422E+01  0.95390452623E+01  0.31408244940E+01  0.17168892451E+03  0.17120000000E+03 0.  0.
        998    1    1    2    0    0 -0.33526873183E+01  0.78935430034E+01  0.14350361882E+04  0.14350966553E+04  0.10000000000E+02 0. -1.
</event>
<event>
 5    1  0.1666761E-008  0.3740714E+03  0.7957747E-01  0.3477386E+00
         13   -1    0    0    0    0  0.00000000000E+00  0.00000000000E+00  0.14999999963E+04  0.15000000000E+04  0.10566000000E+00 0. -1.
        994   -1    0    0    0    0 -0.00000000000E+00 -0.00000000000E+00  0.11368683772E-12  0.17120000000E+03  0.17120000000E+03 0.  0.
         13    1    1    2    0    0  0.80528216194E+01 -0.26795417866E+02  0.50517877964E+02  0.57748675419E+02  0.10566000000E+00 0. -1.
        994    1    1    2    0    0 -0.15141003611E+02  0.23843835563E+02  0.98814598777E+01  0.17379545947E+03  0.17120000000E+03 0.  0.
        998    1    1    2    0    0  0.70881819917E+01  0.29515823032E+01  0.14396006584E+04  0.14396558651E+04  0.10000000000E+02 0. -1.
</event>
<event>
 5    1  0.1666761E-008  0.3685508E+03  0.7957747E-01  0.3502578E+00
         13   -1    0    0    0    0  0.00000000000E+00  0.00000000000E+00  0.14999999963E+04  0.15000000000E+04  0.10566000000E+00 0. -1.
        994   -1    0    0    0    0 -0.00000000000E+00 -0.00000000000E+00  0.11368683772E-12  0.17120000000E+03  0.17120000000E+03 0.  0.
         13    1    1    2    0    0 -0.68110264480E+02 -0.22504355183E+02  0.22311635793E+03  0.23436376527E+03  0.10566000000E+00 0. -1.
        994    1    1    2    0    0  0.61651941360E+02  0.15337009962E+02  0.24348451948E+02  0.18422397472E+03  0.17120000000E+03 0.  0.
        998    1    1    2    0    0  0.64583231203E+01  0.71673452210E+01  0.12525351864E+04  0.12526122600E+04  0.10000000000E+02 0. -1.
</event>
<event>
 5    1  0.1666761E-008  0.3833807E+03  0.7957747E-01  0.3436569E+00
         13   -1    0    0    0    0  0.00000000000E+00  0.00000000000E+00  0.14999999963E+04  0.15000000000E+04  0.10566000000E+00 0. -1.
        994   -1    0    0    0    0 -0.00000000000E+00 -0.00000000000E+00  0.11368683772E-12  0.17120000000E+03  0.17120000000E+03 0.  0.
         13    1    1    2    0    0 -0.26195364563E+02  0.46976537225E+01  0.14707882662E+03  0.14946724550E+03  0.10566000000E+00 0. -1.
        994    1    1    2    0    0  0.13468709515E+02 -0.39512053181E+01  0.30878464828E+01  0.17180219136E+03  0.17120000000E+03 0.  0.
        998    1    1    2    0    0  0.12726655048E+02 -0.74644840445E+00  0.13498333232E+04  0.13499305631E+04  0.10000000000E+02 0. -1.
</event>
<event>
 5    1  0.1666761E-008  0.3806245E+03  0.7957747E-01  0.3448444E+00
         13   -1    0    0    0    0  0.00000000000E+00  0.00000000000E+00  0.14999999963E+04  0.15000000000E+04  0.10566000000E+00 0.  1.
        994   -1    0    0    0    0 -0.00000000000E+00 -0.00000000000E+00  0.11368683772E-12  0.17120000000E+03  0.17120000000E+03 0.  0.
         13    1    1    2    0    0  0.14514000813E+03 -0.82775829593E+02  0.87355835814E+03  0.88939399377E+03  0.10566000000E+00 0.  1.
        994    1    1    2    0    0 -0.16545913739E+03  0.80604898488E+02  0.12659522109E+03  0.28144211804E+03  0.17120000000E+03 0.  0.
        998    1    1    2    0    0  0.20319129258E+02  0.21709311048E+01  0.49984641706E+03  0.50036388818E+03  0.10000000000E+02 0. -1.
</event>
<event>
 5    1  0.1666761E-008  0.3855385E+03  0.7957747E-01  0.3427391E+00
         13   -1    0    0    0    0  0.00000000000E+00  0.00000000000E+00  0.14999999963E+04  0.15000000000E+04  0.10566000000E+00 0.  1.
        994   -1    0    0    0    0 -0.00000000000E+00 -0.00000000000E+00  0.11368683772E-12  0.17120000000E+03  0.17120000000E+03 0.  0.
         13    1    1    2    0    0 -0.12589780652E+02 -0.33147540477E+01  0.66040398652E+02  0.67311481854E+02  0.10566000000E+00 0.  1.
        994    1    1    2    0    0 -0.33949114305E+01  0.18038354301E+02  0.24698211624E+01  0.17219886082E+03  0.17120000000E+03 0.  0.
        998    1    1    2    0    0  0.15984692082E+02 -0.14723600254E+02  0.14314897765E+04  0.14316896573E+04  0.10000000000E+02 0.  1.
</event>
<event>
 5    1  0.1666761E-008  0.3847635E+03  0.7957747E-01  0.3430676E+00
         13   -1    0    0    0    0  0.00000000000E+00  0.00000000000E+00  0.14999999963E+04  0.15000000000E+04  0.10566000000E+00 0. -1.
        994   -1    0    0    0    0 -0.00000000000E+00 -0.00000000000E+00  0.11368683772E-12  0.17120000000E+03  0.17120000000E+03 0.  0.
         13    1    1    2    0    0  0.10899119169E+02  0.56887626383E+01  0.42302469714E+02  0.44052955939E+02  0.10566000000E+00 0. -1.
        994    1    1    2    0    0 -0.13716385298E+02  0.88288814905E+00  0.23696104563E+01  0.17176720808E+03  0.17120000000E+03 0.  0.
        998    1    1    2    0    0  0.28172661290E+01 -0.65716507873E+01  0.14553279161E+04  0.14553798360E+04  0.10000000000E+02 0. -1.
</event>
<event>
 5    1  0.1666761E-008  0.3850481E+03  0.7957747E-01  0.3429468E+00
         13   -1    0    0    0    0  0.00000000000E+00  0.00000000000E+00  0.14999999963E+04  0.15000000000E+04  0.10566000000E+00 0.  1.
        994   -1    0    0    0    0 -0.00000000000E+00 -0.00000000000E+00  0.11368683772E-12  0.17120000000E+03  0.17120000000E+03 0.  0.
         13    1    1    2    0    0 -0.19934727629E+01  0.19285504303E+02  0.11429570787E+03  0.11592853234E+03  0.10566000000E+00 0.  1.
        994    1    1    2    0    0  0.74222209735E+01 -0.14482298286E+02  0.24775068618E+01  0.17198954726E+03  0.17120000000E+03 0.  0.
        998    1    1    2    0    0 -0.54287482106E+01 -0.48032060172E+01  0.13832267816E+04  0.13832819204E+04  0.10000000000E+02 0.  1.
</event>
<event>
 5    1  0.1910417E-008  0.3860423E+03  0.7957747E-01  0.3425264E+00
         13   -1    0    0    0    0  0.00000000000E+00  0.00000000000E+00  0.14999999963E+04  0.15000000000E+04  0.10566000000E+00 0. -1.
        994   -1    0    0    0    0 -0.00000000000E+00 -0.00000000000E+00  0.11368683772E-12  0.17120000000E+03  0.17120000000E+03 0.  0.
         13    1    1    2    0    0 -0.76438325839E+01  0.66896818704E+01  0.45597095996E+02  0.46714947794E+02  0.10566000000E+00 0. -1.
        994    1    1    2    0    0  0.76862887698E+01 -0.83566088914E+01  0.15361781652E+01  0.17158295892E+03  0.17120000000E+03 0.  0.
        998    1    1    2    0    0 -0.42456185891E-01  0.16669270211E+01  0.14528667221E+04  0.14529020933E+04  0.10000000000E+02 0. -1.
</event>
<event>
 5    1  0.1666761E-008  0.3829125E+03  0.7957747E-01  0.3438574E+00
         13   -1    0    0    0    0  0.00000000000E+00  0.00000000000E+00  0.14999999963E+04  0.15000000000E+04  0.10566000000E+00 0. -1.
        994   -1    0    0    0    0 -0.00000000000E+00 -0.00000000000E+00  0.11368683772E-12  0.17120000000E+03  0.17120000000E+03 0.  0.
         13    1    1    2    0    0  0.41628425592E+01 -0.20931528343E+02  0.91140306015E+02  0.93605687229E+02  0.10566000000E+00 0. -1.
        994    1    1    2    0    0  0.11105527139E+02  0.32728080373E+01  0.31140496373E+01  0.17161929178E+03  0.17120000000E+03 0.  0.
        998    1    1    2    0    0 -0.15268369699E+02  0.17658720306E+02  0.14057456406E+04  0.14059750210E+04  0.10000000000E+02 0. -1.
</event>
<event>
 5    1  0.1666761E-008  0.3691004E+03  0.7957747E-01  0.3500035E+00
         13   -1    0    0    0    0  0.00000000000E+00  0.00000000000E+00  0.14999999963E+04  0.15000000000E+04  0.10566000000E+00 0.  1.
        994   -1    0    0    0    0 -0.00000000000E+00 -0.00000000000E+00  0.11368683772E-12  0.17120000000E+03  0.17120000000E+03 0.  0.
         13    1    1    2    0    0 -0.10325270420E+02  0.14792120879E+02  0.12357527091E+02  0.21866359761E+02  0.10566000000E+00 0.  1.
        994    1    1    2    0    0 -0.19838539480E+02  0.38487524281E+02  0.17026423251E+02  0.17740968481E+03  0.17120000000E+03 0.  0.
        998    1    1    2    0    0  0.30163809900E+02 -0.53279645160E+02  0.14706160459E+04  0.14719239554E+04  0.10000000000E+02 0.  1.
</event>
<event>
 5    1  0.1666761E-008  0.3857972E+03  0.7957747E-01  0.3426298E+00
         13   -1    0    0    0    0  0.00000000000E+00  0.00000000000E+00  0.14999999963E+04  0.15000000000E+04  0.10566000000E+00 0.  1.
        994   -1    0    0    0    0 -0.00000000000E+00 -0.00000000000E+00  0.11368683772E-12  0.17120000000E+03  0.17120000000E+03 0.  0.
         13    1    1    2    0    0 -0.39206355692E+00  0.10774153099E+02  0.46996003987E+02  0.48216922792E+02  0.10566000000E+00 0.  1.
        994    1    1    2    0    0 -0.76006341198E+01 -0.91948647724E+01  0.17018084972E+01  0.17162357452E+03  0.17120000000E+03 0.  0.
        998    1    1    2    0    0  0.79926976767E+01 -0.15792883262E+01  0.14513021838E+04  0.14513595027E+04  0.10000000000E+02 0.  1.
</event>
<event>
 5    1  0.1666761E-008  0.3838745E+03  0.7957747E-01  0.3434460E+00
         13   -1    0    0    0    0  0.00000000000E+00  0.00000000000E+00  0.14999999963E+04  0.15000000000E+04  0.10566000000E+00 0. -1.
        994   -1    0    0    0    0 -0.00000000000E+00 -0.00000000000E+00  0.11368683772E-12  0.17120000000E+03  0.17120000000E+03 0.  0.
         13    1    1    2    0    0 -0.11941128982E+02  0.12187431290E+02  0.65488315824E+02  0.67674623873E+02  0.10566000000E+00 0. -1.
        994    1    1    2    0    0  0.78547017836E+01 -0.97678125503E+01  0.27086961576E+01  0.17167959558E+03  0.17120000000E+03 0.  0.
        998    1    1    2    0    0  0.40864271984E+01 -0.24196187393E+01  0.14318029843E+04  0.14318457806E+04  0.10000000000E+02 0. -1.
</event>
<event>
 5    1  0.1666761E-008  0.3854483E+03  0.7957747E-01  0.3427773E+00
         13   -1    0    0    0    0  0.00000000000E+00  0.00000000000E+00  0.14999999963E+04  0.15000000000E+04  0.10566000000E+00 0. -1.
        994   -1    0    0    0    0 -0.00000000000E+00 -0.00000000000E+00  0.11368683772E-12  0.17120000000E+03  0.17120000000E+03 0.  0.
         13    1    1    2    0    0 -0.10191632857E+02 -0.69347908895E+01  0.58293871836E+02  0.59583113066E+02  0.10566000000E+00 0. -1.
        994    1    1    2    0    0  0.22540925708E+01 -0.83816621398E+01  0.16551453835E+01  0.17142786442E+03  0.17120000000E+03 0.  0.
        998    1    1    2    0    0  0.79375402859E+01  0.15316453029E+02  0.14400509791E+04  0.14401890225E+04  0.10000000000E+02 0. -1.
</event>
<event>
 5    1  0.1666761E-008  0.3837501E+03  0.7957747E-01  0.3434991E+00
         13   -1    0    0    0    0  0.00000000000E+00  0.00000000000E+00  0.14999999963E+04  0.15000000000E+04  0.10566000000E+00 0. -1.
        994   -1    0    0    0    0 -0.00000000000E+00 -0.00000000000E+00  0.11368683772E-12  0.17120000000E+03  0.17120000000E+03 0.  0.
         13    1    1    2    0    0  0.70603511069E+01 -0.12625702257E+02  0.45238008826E+02  0.47494689406E+02  0.10566000000E+00 0. -1.
        994    1    1    2    0    0 -0.12785095014E+02  0.74931099583E+01  0.29774427555E+01  0.17186596672E+03  0.17120000000E+03 0.  0.
        998    1    1    2    0    0  0.57247439066E+01  0.51325922991E+01  0.14517845447E+04  0.14518393439E+04  0.10000000000E+02 0. -1.
</event>
<event>
 5    1  0.1666761E-008  0.3830959E+03  0.7957747E-01  0.3437788E+00
         13   -1    0    0    0    0  0.00000000000E+00  0.00000000000E+00  0.14999999963E+04  0.15000000000E+04  0.10566000000E+00 0. -1.
        994   -1    0    0    0    0 -0.00000000000E+00 -0.00000000000E+00  0.11368683772E-12  0.17120000000E+03  0.17120000000E+03 0.  0.
         13    1    1    2    0    0 -0.11411834527E+02 -0.46994236549E+01  0.29025494361E+02  0.31540530066E+02  0.10566000000E+00 0. -1.
        994    1    1    2    0    0  0.46756638476E+01  0.17617711415E+01  0.26610432588E+01  0.17129356912E+03  0.17120000000E+03 0.  0.
        998    1    1    2    0    0  0.67361706794E+01  0.29376525135E+01  0.14683134587E+04  0.14683659008E+04  0.10000000000E+02 0. -1.
</event>
<event>
 5    1  0.1666761E-008  0.3841138E+03  0.7957747E-01  0.3433439E+00
         13   -1    0    0    0    0  0.00000000000E+00  0.00000000000E+00  0.14999999963E+04  0.15000000000E+04  0.10566000000E+00 0.  1.
        994   -1    0    0    0    0 -0.00000000000E+00 -0.00000000000E+00  0.11368683772E-12  0.17120000000E+03  0.17120000000E+03 0.  0.
         13    1    1    2    0    0 -0.92863092697E+01 -0.99317218266E+01  0.45924415455E+02  0.47895070072E+02  0.10566000000E+00 0.  1.
        994    1    1    2    0    0 -0.20485376170E+01  0.34694522002E+01  0.21242886172E+01  0.17126057984E+03  0.17120000000E+03 0.  0.
        998    1    1    2    0    0  0.11334846887E+02  0.64622696264E+01  0.14519512922E+04  0.14520443501E+04  0.10000000000E+02 0.  1.
</event>
<event>
 5    1  0.1666761E-008  0.3835060E+03  0.7957747E-01  0.3436033E+00
         13   -1    0    0    0    0  0.00000000000E+00  0.00000000000E+00  0.14999999963E+04  0.15000000000E+04  0.10566000000E+00 0. -1.
        994   -1    0    0    0    0 -0.00000000000E+00 -0.00000000000E+00  0.11368683772E-12  0.17120000000E+03  0.17120000000E+03 0.  0.
         13    1    1    2    0    0  0.12379615356E+02 -0.10581332222E+02  0.57876615862E+02  0.60124315345E+02  0.10566000000E+00 0. -1.
        994    1    1    2    0    0 -0.48517997442E+01 -0.32856804058E+01  0.24871941338E+01  0.17131830548E+03  0.17120000000E+03 0.  0.
        998    1    1    2    0    0 -0.75278156118E+01  0.13867012628E+02  0.14396361863E+04  0.14397573792E+04  0.10000000000E+02 0. -1.
</event>
<event>
 5    1  0.1666761E-008  0.3860825E+03  0.7957747E-01  0.3425094E+00
         13   -1    0    0    0    0  0.00000000000E+00  0.00000000000E+00  0.14999999963E+04  0.15000000000E+04  0.10566000000E+00 0. -1.
        994   -1    0    0    0    0 -0.00000000000E+00 -0.00000000000E+00  0.11368683772E-12  0.17120000000E+03  0.17120000000E+03 0.  0.
         13    1    1    2    0    0 -0.96212502585E+01  0.45031846957E+01  0.53632175111E+02  0.54674203241E+02  0.10566000000E+00 0. -1.
        994    1    1    2    0    0  0.35848026253E+01 -0.57533382722E+00  0.11368316685E+01  0.17124226758E+03  0.17120000000E+03 0.  0.
        998    1    1    2    0    0  0.60364476332E+01 -0.39278508685E+01  0.14452309895E+04  0.14452835292E+04  0.10000000000E+02 0. -1.
</event>
<event>
 5    1  0.1666761E-008  0.3778601E+03  0.7957747E-01  0.3460529E+00
         13   -1    0    0    0    0  0.00000000000E+00  0.00000000000E+00  0.14999999963E+04  0.15000000000E+04  0.10566000000E+00 0. -1.
        994   -1    0    0    0    0 -0.00000000000E+00 -0.00000000000E+00  0.11368683772E-12  0.17120000000E+03  0.17120000000E+03 0.  0.
         13    1    1    2    0    0  0.17721920121E+02  0.22936403969E+02  0.86018812910E+02  0.90771099025E+02  0.10566000000E+00 0. -1.
        994    1    1    2    0    0  0.14261164696E+02 -0.80109909259E+01  0.61185664370E+01  0.17208844717E+03  0.17120000000E+03 0.  0.
        998    1    1    2    0    0 -0.31983084817E+02 -0.14925413043E+02  0.14078626169E+04  0.14083404538E+04  0.10000000000E+02 0. -1.
</event>
<event>
 5    1  0.1820042E-008  0.3860304E+03  0.7957747E-01  0.3425314E+00
         13   -1    0    0    0    0  0.00000000000E+00  0.00000000000E+00  0.14999999963E+04  0.15000000000E+04  0.10566000000E+00 0.  1.
        994   -1    0    0    0    0 -0.00000000000E+00 -0.00000000000E+00  0.11368683772E-12  0.17120000000E+03  0.17120000000E+03 0.  0.
         13    1    1    2    0    0 -0.84074286576E+01 -0.87252441149E+01  0.69042779117E+02  0.70098011767E+02  0.10566000000E+00 0.  1.
        994    1    1    2    0    0  0.24184542304E+01  0.19114778187E+01  0.11505923401E+01  0.17123161662E+03  0.17120000000E+03 0.  0.
        998    1    1    2    0    0  0.59889744272E+01  0.68137662962E+01  0.14298066248E+04  0.14298703716E+04  0.10000000000E+02 0.  1.
</event>
<event>
 5    1  0.1666761E-008  0.3763400E+03  0.7957747E-01  0.3467251E+00
         13   -1    0    0    0    0  0.00000000000E+00  0.00000000000E+00  0.14999999963E+04  0.15000000000E+04  0.10566000000E+00 0.  1.
        994   -1    0    0    0    0 -0.00000000000E+00 -0.00000000000E+00  0.11368683772E-12  0.17120000000E+03  0.17120000000E+03 0.  0.
         13    1    1    2    0    0 -0.49680031325E+02  0.11724296225E+02  0.27030992339E+03  0.27508731428E+03  0.10566000000E+00 0.  1.
        994    1    1    2    0    0  0.25399677967E+01  0.10496911621E+02  0.63869837076E+01  0.17165916856E+03  0.17120000000E+03 0.  0.
        998    1    1    2    0    0  0.47140063528E+02 -0.22221207846E+02  0.12233030892E+04  0.12244535172E+04  0.10000000000E+02 0.  1.
</event>
<event>
 5    1  0.1666761E-008  0.3815956E+03  0.7957747E-01  0.3444240E+00
         13   -1    0    0    0    0  0.00000000000E+00  0.00000000000E+00  0.14999999963E+04  0.15000000000E+04  0.10566000000E+00 0. -1.
        994   -1    0    0    0    0 -0.00000000000E+00 -0.00000000000E+00  0.11368683772E-12  0.17120000000E+03  0.17120000000E+03 0.  0.
         13    1    1    2    0    0  0.20464757600E+02 -0.79699977473E+01  0.78675121184E+02  0.81683003282E+02  0.10566000000E+00 0. -1.
        994    1    1    2    0    0  0.48762057406E+01 -0.24149071478E+01  0.34283500624E+01  0.17132075981E+03  0.17120000000E+03 0.  0.
        998    1    1    2    0    0 -0.25340963341E+02  0.10384904895E+02  0.14178965250E+04  0.14181962369E+04  0.10000000000E+02 0. -1.
</event>
<event>
 5    1  0.1666761E-008  0.3826975E+03  0.7957747E-01  0.3439497E+00
         13   -1    0    0    0    0  0.00000000000E+00  0.00000000000E+00  0.14999999963E+04  0.15000000000E+04  0.10566000000E+00 0.  1.
        994   -1    0    0    0    0 -0.00000000000E+00 -0.00000000000E+00  0.11368683772E-12  0.17120000000E+03  0.17120000000E+03 0.  0.
         13    1    1    2    0    0  0.10321137285E+00 -0.11370778693E+02  0.22442319267E+02  0.25158976903E+02  0.10566000000E+00 0.  1.
        994    1    1    2    0    0 -0.50541528719E+01  0.50470543569E+01  0.29467002701E+01  0.17137426954E+03  0.17120000000E+03 0.  0.
        998    1    1    2    0    0  0.49509414990E+01  0.63237243365E+01  0.14746109767E+04  0.14746667536E+04  0.10000000000E+02 0.  1.
</event>
<event>
 5    1  0.1666761E-008  0.3843350E+03  0.7957747E-01  0.3432497E+00
         13   -1    0    0    0    0  0.00000000000E+00  0.00000000000E+00  0.14999999963E+04  0.15000000000E+04  0.10566000000E+00 0. -1.
        994   -1    0    0    0    0 -0.00000000000E+00 -0.00000000000E+00  0.11368683772E-12  0.17120000000E+03  0.17120000000E+03 0.  0.
         13    1    1    2    0    0 -0.12696473334E+02  0.42667187561E+01  0.47111271951E+02  0.48978448658E+02  0.10566000000E+00 0. -1.
        994    1    1    2    0    0  0.91441921264E+00 -0.20590503826E+01  0.19773909470E+01  0.17122624193E+03  0.17120000000E+03 0.  0.
        998    1    1    2    0    0  0.11782054122E+02 -0.22076683735E+01  0.14509113334E+04  0.14509953094E+04  0.10000000000E+02 0. -1.
</event>
<event>
 5    1  0.1666761E-008  0.3818261E+03  0.7957747E-01  0.3443245E+00
         13   -1    0    0    0    0  0.00000000000E+00  0.00000000000E+00  0.14999999963E+04  0.15000000000E+04  0.10566000000E+00 0. -1.
        994   -1    0    0    0    0 -0.00000000000E+00 -0.00000000000E+00  0.11368683772E-12  0.17120000000E+03  0.17120000000E+03 0.  0.
         13    1    1    2    0    0  0.15088402372E+02 -0.28795653786E+02  0.18360560008E+03  0.18646146280E+03  0.10566000000E+00 0. -1.
        994    1    1    2    0    0 -0.36086619819E+00  0.49790601981E+01  0.32969729696E+01  0.17130449876E+03  0.17120000000E+03 0.  0.
        998    1    1    2    0    0 -0.14727536174E+02  0.23816593588E+02  0.13130974232E+04  0.13134340384E+04  0.10000000000E+02 0. -1.
</event>
<event>
 5    1  0.1666761E-008  0.3829149E+03  0.7957747E-01  0.3438564E+00
         13   -1    0    0    0    0  0.00000000000E+00  0.00000000000E+00  0.14999999963E+04  0.15000000000E+04  0.10566000000E+00 0. -1.
        994   -1    0    0    0    0 -0.00000000000E+00 -0.00000000000E+00  0.11368683772E-12  0.17120000000E+03  0.17120000000E+03 0.  0.
         13    1    1    2    0    0  0.52377695190E+01 -0.15520219595E+02  0.45367255439E+02  0.48233914168E+02  0.10566000000E+00 0. -1.
        994    1    1    2    0    0 -0.47288489667E+01  0.31156475778E+02  0.59639878687E+01  0.17417834867E+03  0.17120000000E+03 0.  0.
        998    1    1    2    0    0 -0.50892055229E+00 -0.15636256183E+02  0.14486687530E+04  0.14487877372E+04  0.10000000000E+02 0. -1.
</event>
<event>
 5    1  0.1666761E-008  0.3828967E+03  0.7957747E-01  0.3438642E+00
         13   -1    0    0    0    0  0.00000000000E+00  0.00000000000E+00  0.14999999963E+04  0.15000000000E+04  0.10566000000E+00 0. -1.
        994   -1    0    0    0    0 -0.00000000000E+00 -0.00000000000E+00  0.11368683772E-12  0.17120000000E+03  0.17120000000E+03 0.  0.
         13    1    1    2    0    0 -0.43241012785E+01 -0.25619519549E+02  0.12822736336E+03  0.13083319729E+03  0.10566000000E+00 0. -1.
        994    1    1    2    0    0 -0.29078646678E+01  0.13131096798E+02  0.32771835971E+01  0.17175872995E+03  0.17120000000E+03 0.  0.
        998    1    1    2    0    0  0.72319659463E+01  0.12488422751E+02  0.13684954493E+04  0.13686080728E+04  0.10000000000E+02 0. -1.
</event>
<event>
 5    1  0.1666761E-008  0.3698393E+03  0.7957747E-01  0.3496630E+00
         13   -1    0    0    0    0  0.00000000000E+00  0.00000000000E+00  0.14999999963E+04  0.15000000000E+04  0.10566000000E+00 0.  1.
        994   -1    0    0    0    0 -0.00000000000E+00 -0.00000000000E+00  0.11368683772E-12  0.17120000000E+03  0.17120000000E+03 0.  0.
         13    1    1    2    0    0 -0.70230911216E+01  0.12951880048E+03  0.51569297742E+03  0.53175530238E+03  0.10566000000E+00 0.  1.
        994    1    1    2    0    0  0.98009588247E+01 -0.12273065698E+03  0.65869276244E+02  0.22092323216E+03  0.17120000000E+03 0.  0.
        998    1    1    2    0    0 -0.27778677032E+01 -0.67881434945E+01  0.91843774261E+03  0.91852146545E+03  0.10000000000E+02 0.  1.
</event>
<event>
 5    1  0.1666761E-008  0.3737263E+03  0.7957747E-01  0.3478939E+00
         13   -1    0    0    0    0  0.00000000000E+00  0.00000000000E+00  0.14999999963E+04  0.15000000000E+04  0.10566000000E+00 0. -1.
        994   -1    0    0    0    0 -0.00000000000E+00 -0.00000000000E+00  0.11368683772E-12  0.17120000000E+03  0.17120000000E+03 0.  0.
         13    1    1    2    0    0 -0.19749375393E+01  0.13851212320E+02  0.99603196479E+01  0.17174853494E+02  0.10566000000E+00 0. -1.
        994    1    1    2    0    0  0.35826498638E+01 -0.13878543600E+02  0.80359593706E+01  0.17198681925E+03  0.17120000000E+03 0.  0.
        998    1    1    2    0    0 -0.16077123246E+01  0.27331279989E-01  0.14820037173E+04  0.14820383273E+04  0.10000000000E+02 0. -1.
</event>
<event>
 5    1  0.1666761E-008  0.3733030E+03  0.7957747E-01  0.3480847E+00
         13   -1    0    0    0    0  0.00000000000E+00  0.00000000000E+00  0.14999999963E+04  0.15000000000E+04  0.10566000000E+00 0. -1.
        994   -1    0    0    0    0 -0.00000000000E+00 -0.00000000000E+00  0.11368683772E-12  0.17120000000E+03  0.17120000000E+03 0.  0.
         13    1    1    2    0    0 -0.45523754050E+01 -0.28194341743E+02  0.49949572230E+02  0.57537952328E+02  0.10566000000E+00 0. -1.
        994    1    1    2    0    0  0.32467842071E+01  0.25913321894E+02  0.98880393259E+01  0.17346254691E+03  0.17120000000E+03 0.  0.
        998    1    1    2    0    0  0.13055911979E+01  0.22810198489E+01  0.14401623847E+04  0.14401995008E+04  0.10000000000E+02 0. -1.
</event>
<event>
 5    1  0.1666761E-008  0.3731276E+03  0.7957747E-01  0.3481639E+00
         13   -1    0    0    0    0  0.00000000000E+00  0.00000000000E+00  0.14999999963E+04  0.15000000000E+04  0.10566000000E+00 0. -1.
        994   -1    0    0    0    0 -0.00000000000E+00 -0.00000000000E+00  0.11368683772E-12  0.17120000000E+03  0.17120000000E+03 0.  0.
         13    1    1    2    0    0 -0.26611124220E+01 -0.55853582231E+02  0.11916575244E+03  0.13163279184E+03  0.10566000000E+00 0. -1.
        994    1    1    2    0    0 -0.30039273118E+02  0.38504207988E+02  0.21080439428E+02  0.17927285597E+03  0.17120000000E+03 0.  0.
        998    1    1    2    0    0  0.32700385540E+02  0.17349374243E+02  0.13597538044E+04  0.13602943522E+04  0.10000000000E+02 0. -1.
</event>
<event>
 5    1  0.1666761E-008  0.3747081E+03  0.7957747E-01  0.3474529E+00
         13   -1    0    0    0    0  0.00000000000E+00  0.00000000000E+00  0.14999999963E+04  0.15000000000E+04  0.10566000000E+00 0.  1.
        994   -1    0    0    0    0 -0.00000000000E+00 -0.00000000000E+00  0.11368683772E-12  0.17120000000E+03  0.17120000000E+03 0.  0.
         13    1    1    2    0    0 -0.29610095363E+02  0.51114112997E+02  0.13270441587E+03  0.14525798928E+03  0.10566000000E+00 0.  1.
        994    1    1    2    0    0  0.21996741169E+02 -0.12692427977E+02  0.15746191381E+02  0.17378819549E+03  0.17120000000E+03 0.  0.
        998    1    1    2    0    0  0.76133541936E+01 -0.38421685020E+02  0.13515493890E+04  0.13521538152E+04  0.10000000000E+02 0.  1.
</event>
<event>
 5    1  0.1666761E-008  0.3846090E+03  0.7957747E-01  0.3431332E+00
         13   -1    0    0    0    0  0.00000000000E+00  0.00000000000E+00  0.14999999963E+04  0.15000000000E+04  0.10566000000E+00 0. -1.
        994   -1    0    0    0    0 -0.00000000000E+00 -0.00000000000E+00  0.11368683772E-12  0.17120000000E+03  0.17120000000E+03 0.  0.
         13    1    1    2    0    0  0.18369606305E+02  0.93232671100E+01  0.10350955214E+03  0.10553958638E+03  0.10566000000E+00 0. -1.
        994    1    1    2    0    0 -0.21975229605E+02 -0.19748390364E+02  0.47040221765E+01  0.17379435394E+03  0.17120000000E+03 0.  0.
        998    1    1    2    0    0  0.36056232997E+01  0.10425123254E+02  0.13917864220E+04  0.13918660597E+04  0.10000000000E+02 0. -1.
</event>
<event>
 5    1  0.1666761E-008  0.3783998E+03  0.7957747E-01  0.3458156E+00
         13   -1    0    0    0    0  0.00000000000E+00  0.00000000000E+00  0.14999999963E+04  0.15000000000E+04  0.10566000000E+00 0.  1.
        994   -1    0    0    0    0 -0.00000000000E+00 -0.00000000000E+00  0.11368683772E-12  0.17120000000E+03  0.17120000000E+03 0.  0.
         13    1    1    2    0    0 -0.36302412390E+02 -0.22158045883E+01  0.13217098929E+03  0.13708375728E+03  0.10566000000E+00 0.  1.
        994    1    1    2    0    0  0.21914085701E+02 -0.56618383979E+01  0.66666415361E+01  0.17281830828E+03  0.17120000000E+03 0.  0.
        998    1    1    2    0    0  0.14388326689E+02  0.78776429862E+01  0.13611623655E+04  0.13612979344E+04  0.10000000000E+02 0.  1.
</event>
<event>
 5    1  0.1666761E-008  0.3822320E+03  0.7957747E-01  0.3441497E+00
         13   -1    0    0    0    0  0.00000000000E+00  0.00000000000E+00  0.14999999963E+04  0.15000000000E+04  0.10566000000E+00 0.  1.
        994   -1    0    0    0    0 -0.00000000000E+00 -0.00000000000E+00  0.11368683772E-12  0.17120000000E+03  0.17120000000E+03 0.  0.
         13    1    1    2    0    0 -0.19330569773E+02  0.37834556909E+02  0.21946896034E+03  0.22354364303E+03  0.10566000000E+00 0.  1.
        994    1    1    2    0    0  0.25117631351E+02 -0.55286298534E+02  0.15345313747E+02  0.18229752841E+03  0.17120000000E+03 0.  0.
        998    1    1    2    0    0 -0.57870615786E+01  0.17451741626E+02  0.12651857222E+04  0.12653588286E+04  0.10000000000E+02 0.  1.
</event>
<event>
 5    1  0.1666761E-008  0.3823942E+03  0.7957747E-01  0.3440799E+00
         13   -1    0    0    0    0  0.00000000000E+00  0.00000000000E+00  0.14999999963E+04  0.15000000000E+04  0.10566000000E+00 0. -1.
        994   -1    0    0    0    0 -0.00000000000E+00 -0.00000000000E+00  0.11368683772E-12  0.17120000000E+03  0.17120000000E+03 0.  0.
         13    1    1    2    0    0 -0.48895786389E+02  0.46941643597E+02  0.12129684829E+03  0.13895053940E+03  0.10566000000E+00 0. -1.
        994    1    1    2    0    0  0.45107874775E+02 -0.28683614731E+02  0.28169507143E+02  0.18155007919E+03  0.17120000000E+03 0.  0.
        998    1    1    2    0    0  0.37879116148E+01 -0.18258028866E+02  0.13505336408E+04  0.13506993814E+04  0.10000000000E+02 0. -1.
</event>
<event>
 5    1  0.1666761E-008  0.3775711E+03  0.7957747E-01  0.3461803E+00
         13   -1    0    0    0    0  0.00000000000E+00  0.00000000000E+00  0.14999999963E+04  0.15000000000E+04  0.10566000000E+00 0.  1.
        994   -1    0    0    0    0 -0.00000000000E+00 -0.00000000000E+00  0.11368683772E-12  0.17120000000E+03  0.17120000000E+03 0.  0.
         13    1    1    2    0    0  0.46706034665E+02 -0.10033246083E+02  0.20549324873E+03  0.21097299860E+03  0.10566000000E+00 0.  1.
        994    1    1    2    0    0 -0.28403617415E+02  0.18324906980E+02  0.92243587251E+01  0.17474866664E+03  0.17120000000E+03 0.  0.
        998    1    1    2    0    0 -0.18302417250E+02 -0.82916608976E+01  0.12852823888E+04  0.12854783348E+04  0.10000000000E+02 0.  1.
</event>
<event>
 5    1  0.1666761E-008  0.3883642E+03  0.7957747E-01  0.3415528E+00
         13   -1    0    0    0    0  0.00000000000E+00  0.00000000000E+00  0.14999999963E+04  0.15000000000E+04  0.10566000000E+00 0.  1.
        994   -1    0    0    0    0 -0.00000000000E+00 -0.00000000000E+00  0.11368683772E-12  0.17120000000E+03  0.17120000000E+03 0.  0.
         13    1    1    2    0    0  0.55928103061E+02 -0.41434894839E+02  0.12435809891E+03  0.14251228421E+03  0.10566000000E+00 0.  1.
        994    1    1    2    0    0 -0.12917990005E+02 -0.89732833071E+01  0.21925337447E+02  0.17331345793E+03  0.17120000000E+03 0.  0.
        998    1    1    2    0    0 -0.43010113056E+02  0.50408178146E+02  0.13537165599E+04  0.13553742579E+04  0.10000000000E+02 0.  1.
</event>
<event>
 5    1  0.1666761E-008  0.3855218E+03  0.7957747E-01  0.3427462E+00
         13   -1    0    0    0    0  0.00000000000E+00  0.00000000000E+00  0.14999999963E+04  0.15000000000E+04  0.10566000000E+00 0. -1.
        994   -1    0    0    0    0 -0.00000000000E+00 -0.00000000000E+00  0.11368683772E-12  0.17120000000E+03  0.17120000000E+03 0.  0.
         13    1    1    2    0    0 -0.17023748848E+02  0.24774992676E+01  0.10314356860E+03  0.10456841271E+03  0.10566000000E+00 0. -1.
        994    1    1    2    0    0  0.16374418777E+02 -0.41738052577E+01  0.23092977432E+01  0.17204742107E+03  0.17120000000E+03 0.  0.
        998    1    1    2    0    0  0.64933007074E+00  0.16963059901E+01  0.13945471299E+04  0.13945841662E+04  0.10000000000E+02 0. -1.
</event>
<event>
 5    1  0.1666761E-008  0.3810334E+03  0.7957747E-01  0.3446671E+00
         13   -1    0    0    0    0  0.00000000000E+00  0.00000000000E+00  0.14999999963E+04  0.15000000000E+04  0.10566000000E+00 0.  1.
        994   -1    0    0    0    0 -0.00000000000E+00 -0.00000000000E+00  0.11368683772E-12  0.17120000000E+03  0.17120000000E+03 0.  0.
         13    1    1    2    0    0  0.49263158577E+00  0.16537224950E+02  0.38678753928E+02  0.42068749261E+02  0.10566000000E+00 0.  1.
        994    1    1    2    0    0  0.10310834721E+02  0.46178810885E+01  0.40377572546E+01  0.17161987537E+03  0.17120000000E+03 0.  0.
        998    1    1    2    0    0 -0.10803466307E+02 -0.21155106039E+02  0.14572834851E+04  0.14575113754E+04  0.10000000000E+02 0.  1.
</event>
<event>
 5    1  0.1666761E-008  0.3735588E+03  0.7957747E-01  0.3479693E+00
         13   -1    0    0    0    0  0.00000000000E+00  0.00000000000E+00  0.14999999963E+04  0.15000000000E+04  0.10566000000E+00 0. -1.
        994   -1    0    0    0    0 -0.00000000000E+00 -0.00000000000E+00  0.11368683772E-12  0.17120000000E+03  0.17120000000E+03 0.  0.
         13    1    1    2    0    0  0.74261408714E+02  0.10108314050E+03  0.38237880986E+03  0.40242530178E+03  0.10566000000E+00 0. -1.
        994    1    1    2    0    0 -0.91409850089E+02 -0.11118344651E+03  0.90292625744E+02  0.24120472163E+03  0.17120000000E+03 0.  0.
        998    1    1    2    0    0  0.17148441376E+02  0.10100306005E+02  0.10273285607E+04  0.10275699766E+04  0.10000000000E+02 0. -1.
</event>
<event>
 5    1  0.1666761E-008  0.3836987E+03  0.7957747E-01  0.3435210E+00
         13   -1    0    0    0    0  0.00000000000E+00  0.00000000000E+00  0.14999999963E+04  0.15000000000E+04  0.10566000000E+00 0. -1.
        994   -1    0    0    0    0 -0.00000000000E+00 -0.00000000000E+00  0.11368683772E-12  0.17120000000E+03  0.17120000000E+03 0.  0.
         13    1    1    2    0    0 -0.14505165403E+02  0.23614436979E+02  0.15657338407E+03  0.15900716091E+03  0.10566000000E+00 0. -1.
        994    1    1    2    0    0  0.11163856962E+02 -0.22474540592E+02  0.43601011784E+01  0.17308433540E+03  0.17120000000E+03 0.  0.
        998    1    1    2    0    0  0.33413084412E+01 -0.11398963864E+01  0.13390665110E+04  0.13391085037E+04  0.10000000000E+02 0. -1.
</event>
<event>
 5    1  0.1666761E-008  0.3764987E+03  0.7957747E-01  0.3466547E+00
         13   -1    0    0    0    0  0.00000000000E+00  0.00000000000E+00  0.14999999963E+04  0.15000000000E+04  0.10566000000E+00 0.  1.
        994   -1    0    0    0    0 -0.00000000000E+00 -0.00000000000E+00  0.11368683772E-12  0.17120000000E+03  0.17120000000E+03 0.  0.
         13    1    1    2    0    0 -0.10023535593E+01  0.20440634819E+02  0.33116354932E+02  0.38929787984E+02  0.10566000000E+00 0.  1.
        994    1    1    2    0    0  0.12835888354E+02 -0.12274682981E+02  0.69786513966E+01  0.17226017952E+03  0.17120000000E+03 0.  0.
        998    1    1    2    0    0 -0.11833534794E+02 -0.81659518381E+01  0.14599049900E+04  0.14600100325E+04  0.10000000000E+02 0.  1.
</event>
<event>
 5    1  0.1666761E-008  0.3262946E+03  0.7957747E-01  0.3724516E+00
         13   -1    0    0    0    0  0.00000000000E+00  0.00000000000E+00  0.14999999963E+04  0.15000000000E+04  0.10566000000E+00 0.  1.
        994   -1    0    0    0    0 -0.00000000000E+00 -0.00000000000E+00  0.11368683772E-12  0.17120000000E+03  0.17120000000E+03 0.  0.
         13    1    1    2    0    0  0.17278789030E+03 -0.39664628511E+02  0.10189750631E+04  0.10342819385E+04  0.10566000000E+00 0.  1.
        994    1    1    2    0    0 -0.84494514346E+02  0.23025550194E+02  0.53026248350E+02  0.19947611870E+03  0.17120000000E+03 0.  0.
        998    1    1    2    0    0 -0.88293375955E+02  0.16639078317E+02  0.42799868479E+03  0.43744194283E+03  0.10000000000E+02 0.  1.
</event>
<event>
 5    1  0.1666761E-008  0.3795844E+03  0.7957747E-01  0.3452970E+00
         13   -1    0    0    0    0  0.00000000000E+00  0.00000000000E+00  0.14999999963E+04  0.15000000000E+04  0.10566000000E+00 0.  1.
        994   -1    0    0    0    0 -0.00000000000E+00 -0.00000000000E+00  0.11368683772E-12  0.17120000000E+03  0.17120000000E+03 0.  0.
         13    1    1    2    0    0  0.42173343983E+01  0.47576154412E+02  0.22268373491E+03  0.22774839920E+03  0.10566000000E+00 0.  1.
        994    1    1    2    0    0 -0.21820312009E+01 -0.48673414991E+02  0.12330946770E+02  0.17842464750E+03  0.17120000000E+03 0.  0.
        998    1    1    2    0    0 -0.20353031973E+01  0.10972605788E+01  0.12649853146E+04  0.12650269533E+04  0.10000000000E+02 0.  1.
</event>
<event>
 5    1  0.1666761E-008  0.3837716E+03  0.7957747E-01  0.3434899E+00
         13   -1    0    0    0    0  0.00000000000E+00  0.00000000000E+00  0.14999999963E+04  0.15000000000E+04  0.10566000000E+00 0. -1.
        994   -1    0    0    0    0 -0.00000000000E+00 -0.00000000000E+00  0.11368683772E-12  0.17120000000E+03  0.17120000000E+03 0.  0.
         13    1    1    2    0    0  0.69692993977E+01  0.12013559399E+02  0.43631791703E+02  0.45789094278E+02  0.10566000000E+00 0. -1.
        994    1    1    2    0    0  0.20346692316E+00 -0.39314943145E+01  0.22924357040E+01  0.17126060057E+03  0.17120000000E+03 0.  0.
        998    1    1    2    0    0 -0.71727663208E+01 -0.80820650849E+01  0.14540757689E+04  0.14541503052E+04  0.10000000000E+02 0. -1.
</event>
<event>
 5    1  0.1666761E-008  0.3768409E+03  0.7957747E-01  0.3465031E+00
         13   -1    0    0    0    0  0.00000000000E+00  0.00000000000E+00  0.14999999963E+04  0.15000000000E+04  0.10566000000E+00 0.  1.
        994   -1    0    0    0    0 -0.00000000000E+00 -0.00000000000E+00  0.11368683772E-12  0.17120000000E+03  0.17120000000E+03 0.  0.
         13    1    1    2    0    0  0.46231389158E+02 -0.40283874390E+02  0.26206791631E+03  0.26914630928E+03  0.10566000000E+00 0.  1.
        994    1    1    2    0    0 -0.50969680735E+02  0.40768689399E+02  0.20265784467E+02  0.18433701855E+03  0.17120000000E+03 0.  0.
        998    1    1    2    0    0  0.47382915776E+01 -0.48481500867E+00  0.12176662955E+04  0.12177166722E+04  0.10000000000E+02 0.  1.
</event>
<event>
 5    1  0.1666761E-008  0.3430230E+03  0.7957747E-01  0.3629869E+00
         13   -1    0    0    0    0  0.00000000000E+00  0.00000000000E+00  0.14999999963E+04  0.15000000000E+04  0.10566000000E+00 0.  1.
        994   -1    0    0    0    0 -0.00000000000E+00 -0.00000000000E+00  0.11368683772E-12  0.17120000000E+03  0.17120000000E+03 0.  0.
         13    1    1    2    0    0 -0.41924143265E+02  0.22022251512E+03  0.97993854555E+03  0.10052537760E+04  0.10566000000E+00 0.  1.
        994    1    1    2    0    0  0.12156225616E+03 -0.20239914785E+03  0.25157260349E+03  0.38515063547E+03  0.17120000000E+03 0.  0.
        998    1    1    2    0    0 -0.79638112895E+02 -0.17823367268E+02  0.26848884723E+03  0.28079558852E+03  0.10000000000E+02 0. -1.
</event>
<event>
 5    1  0.1666761E-008  0.3858204E+03  0.7957747E-01  0.3426200E+00
         13   -1    0    0    0    0  0.00000000000E+00  0.00000000000E+00  0.14999999963E+04  0.15000000000E+04  0.10566000000E+00 0. -1.
        994   -1    0    0    0    0 -0.00000000000E+00 -0.00000000000E+00  0.11368683772E-12  0.17120000000E+03  0.17120000000E+03 0.  0.
         13    1    1    2    0    0  0.30907615781E+01  0.96205742432E+01  0.44233623791E+02  0.45373261880E+02  0.10566000000E+00 0. -1.
        994    1    1    2    0    0 -0.23782699222E+01  0.22446550908E+01  0.12584337963E+01  0.17123585577E+03  0.17120000000E+03 0.  0.
        998    1    1    2    0    0 -0.71249165587E+00 -0.11865229334E+02  0.14545079387E+04  0.14545908824E+04  0.10000000000E+02 0. -1.
</event>
<event>
 5    1  0.1666761E-008  0.3815459E+03  0.7957747E-01  0.3444455E+00
         13   -1    0    0    0    0  0.00000000000E+00  0.00000000000E+00  0.14999999963E+04  0.15000000000E+04  0.10566000000E+00 0. -1.
        994   -1    0    0    0    0 -0.00000000000E+00 -0.00000000000E+00  0.11368683772E-12  0.17120000000E+03  0.17120000000E+03 0.  0.
         13    1    1    2    0    0  0.83454805975E+01  0.13213489043E+02  0.35900834513E+02  0.39155132766E+02  0.10566000000E+00 0. -1.
        994    1    1    2    0    0 -0.27853720885E+01 -0.37914555740E+01  0.34284364154E+01  0.17129894223E+03  0.17120000000E+03 0.  0.
        998    1    1    2    0    0 -0.55601085091E+01 -0.94220334693E+01  0.14606707253E+04  0.14607459250E+04  0.10000000000E+02 0. -1.
</event>
<event>
 5    1  0.1666761E-008  0.3832391E+03  0.7957747E-01  0.3437175E+00
         13   -1    0    0    0    0  0.00000000000E+00  0.00000000000E+00  0.14999999963E+04  0.15000000000E+04  0.10566000000E+00 0.  1.
        994   -1    0    0    0    0 -0.00000000000E+00 -0.00000000000E+00  0.11368683772E-12  0.17120000000E+03  0.17120000000E+03 0.  0.
         13    1    1    2    0    0  0.59823064491E+01  0.16972093226E+02  0.61722221276E+02  0.64292174502E+02  0.10566000000E+00 0.  1.
        994    1    1    2    0    0 -0.66126635633E+01 -0.17309744163E+02  0.36433863244E+01  0.17223840694E+03  0.17120000000E+03 0.  0.
        998    1    1    2    0    0  0.63035711414E+00  0.33765093712E+00  0.14346343887E+04  0.14346694186E+04  0.10000000000E+02 0.  0.
</event>
<event>
 5    1  0.1666761E-008  0.3859112E+03  0.7957747E-01  0.3425817E+00
         13   -1    0    0    0    0  0.00000000000E+00  0.00000000000E+00  0.14999999963E+04  0.15000000000E+04  0.10566000000E+00 0. -1.
        994   -1    0    0    0    0 -0.00000000000E+00 -0.00000000000E+00  0.11368683772E-12  0.17120000000E+03  0.17120000000E+03 0.  0.
         13    1    1    2    0    0 -0.34323109552E+01  0.96407615953E+01  0.44470658299E+02  0.45633054426E+02  0.10566000000E+00 0. -1.
        994    1    1    2    0    0  0.58198037556E+01 -0.68359718018E+01  0.14427510440E+01  0.17144130820E+03  0.17120000000E+03 0.  0.
        998    1    1    2    0    0 -0.23874928004E+01 -0.28047897935E+01  0.14540865869E+04  0.14541256374E+04  0.10000000000E+02 0. -1.
</event>
<event>
 5    1  0.1666761E-008  0.3856159E+03  0.7957747E-01  0.3427065E+00
         13   -1    0    0    0    0  0.00000000000E+00  0.00000000000E+00  0.14999999963E+04  0.15000000000E+04  0.10566000000E+00 0.  1.
        994   -1    0    0    0    0 -0.00000000000E+00 -0.00000000000E+00  0.11368683772E-12  0.17120000000E+03  0.17120000000E+03 0.  0.
         13    1    1    2    0    0  0.84992336492E+01  0.85215127700E+01  0.57333518752E+02  0.58583245805E+02  0.10566000000E+00 0.  1.
        994    1    1    2    0    0  0.24227375919E+01 -0.50271106571E+01  0.14269036621E+01  0.17129686965E+03  0.17120000000E+03 0.  0.
        998    1    1    2    0    0 -0.10921971241E+02 -0.34944021129E+01  0.14412395739E+04  0.14413198845E+04  0.10000000000E+02 0.  1.
</event>
<event>
 5    1  0.1666761E-008  0.3852352E+03  0.7957747E-01  0.3428675E+00
         13   -1    0    0    0    0  0.00000000000E+00  0.00000000000E+00  0.14999999963E+04  0.15000000000E+04  0.10566000000E+00 0.  1.
        994   -1    0    0    0    0 -0.00000000000E+00 -0.00000000000E+00  0.11368683772E-12  0.17120000000E+03  0.17120000000E+03 0.  0.
         13    1    1    2    0    0 -0.31161097202E+01  0.13448331411E+02  0.67808489628E+02  0.69199495570E+02  0.10566000000E+00 0.  1.
        994    1    1    2    0    0 -0.38603105949E+01  0.59386666483E+00  0.15635562500E+01  0.17125168432E+03  0.17120000000E+03 0.  0.
        998    1    1    2    0    0  0.69764203151E+01 -0.14042198076E+02  0.14306279504E+04  0.14307488201E+04  0.10000000000E+02 0.  1.
</event>
<event>
 5    1  0.1666761E-008  0.3810668E+03  0.7957747E-01  0.3446527E+00
         13   -1    0    0    0    0  0.00000000000E+00  0.00000000000E+00  0.14999999963E+04  0.15000000000E+04  0.10566000000E+00 0.  1.
        994   -1    0    0    0    0 -0.00000000000E+00 -0.00000000000E+00  0.11368683772E-12  0.17120000000E+03  0.17120000000E+03 0.  0.
         13    1    1    2    0    0 -0.22073008869E+02 -0.47812137650E+01  0.69294427376E+02  0.72882141537E+02  0.10566000000E+00 0.  1.
        994    1    1    2    0    0  0.19292746821E+02 -0.14764444595E+02  0.55641499295E+01  0.17300462037E+03  0.17120000000E+03 0.  0.
        998    1    1    2    0    0  0.27802620472E+01  0.19545658360E+02  0.14251414190E+04  0.14253132381E+04  0.10000000000E+02 0.  1.
</event>
<event>
 5    1  0.1795712E-008  0.3859008E+03  0.7957747E-01  0.3425861E+00
         13   -1    0    0    0    0  0.00000000000E+00  0.00000000000E+00  0.14999999963E+04  0.15000000000E+04  0.10566000000E+00 0. -1.
        994   -1    0    0    0    0 -0.00000000000E+00 -0.00000000000E+00  0.11368683772E-12  0.17120000000E+03  0.17120000000E+03 0.  0.
         13    1    1    2    0    0 -0.86108430334E+01  0.51813916159E+01  0.44717959938E+02  0.45833399851E+02  0.10566000000E+00 0. -1.
        994    1    1    2    0    0  0.15422477266E+01  0.11359515581E+01  0.11956140305E+01  0.17121488956E+03  0.17120000000E+03 0.  0.
        998    1    1    2    0    0  0.70685953068E+01 -0.63173431740E+01  0.14540864223E+04  0.14541517106E+04  0.10000000000E+02 0. -1.
</event>
<event>
 5    1  0.1666761E-008  0.3840829E+03  0.7957747E-01  0.3433571E+00
         13   -1    0    0    0    0  0.00000000000E+00  0.00000000000E+00  0.14999999963E+04  0.15000000000E+04  0.10566000000E+00 0. -1.
        994   -1    0    0    0    0 -0.00000000000E+00 -0.00000000000E+00  0.11368683772E-12  0.17120000000E+03  0.17120000000E+03 0.  0.
         13    1    1    2    0    0  0.50381897365E+01  0.20378035114E+02  0.12093532749E+03  0.12274368526E+03  0.10566000000E+00 0. -1.
        994    1    1    2    0    0 -0.26303946010E+01  0.52396832910E+01  0.21995459791E+01  0.17131448059E+03  0.17120000000E+03 0.  0.
        998    1    1    2    0    0 -0.24077951355E+01 -0.25617718405E+02  0.13768651228E+04  0.13771418342E+04  0.10000000000E+02 0. -1.
</event>
<event>
 5    1  0.1666761E-008  0.3852614E+03  0.7957747E-01  0.3428564E+00
         13   -1    0    0    0    0  0.00000000000E+00  0.00000000000E+00  0.14999999963E+04  0.15000000000E+04  0.10566000000E+00 0. -1.
        994   -1    0    0    0    0 -0.00000000000E+00 -0.00000000000E+00  0.11368683772E-12  0.17120000000E+03  0.17120000000E+03 0.  0.
         13    1    1    2    0    0  0.10826099648E+02  0.73407178999E+00  0.40046026017E+02  0.41490223653E+02  0.10566000000E+00 0. -1.
        994    1    1    2    0    0 -0.30649657469E+01 -0.48734406492E+01  0.16093373113E+01  0.17130433271E+03  0.17120000000E+03 0.  0.
        998    1    1    2    0    0 -0.77611339008E+01  0.41393688592E+01  0.14583446330E+04  0.14584054436E+04  0.10000000000E+02 0. -1.
</event>
<event>
 5    1  0.1666761E-008  0.3825405E+03  0.7957747E-01  0.3440171E+00
         13   -1    0    0    0    0  0.00000000000E+00  0.00000000000E+00  0.14999999963E+04  0.15000000000E+04  0.10566000000E+00 0. -1.
        994   -1    0    0    0    0 -0.00000000000E+00 -0.00000000000E+00  0.11368683772E-12  0.17120000000E+03  0.17120000000E+03 0.  0.
         13    1    1    2    0    0 -0.10912393013E+02 -0.14688471238E+02  0.56097084644E+02  0.59006148647E+02  0.10566000000E+00 0. -1.
        994    1    1    2    0    0  0.11792665167E+02  0.13800415257E+02  0.39493069746E+01  0.17220498088E+03  0.17120000000E+03 0.  0.
        998    1    1    2    0    0 -0.88027215335E+00  0.88805598133E+00  0.14399536047E+04  0.14399888705E+04  0.10000000000E+02 0. -1.
</event>
<event>
 5    1  0.1666761E-008  0.3795245E+03  0.7957747E-01  0.3453232E+00
         13   -1    0    0    0    0  0.00000000000E+00  0.00000000000E+00  0.14999999963E+04  0.15000000000E+04  0.10566000000E+00 0. -1.
        994   -1    0    0    0    0 -0.00000000000E+00 -0.00000000000E+00  0.11368683772E-12  0.17120000000E+03  0.17120000000E+03 0.  0.
         13    1    1    2    0    0 -0.20083483477E+02 -0.66402007411E+01  0.69128013709E+01  0.22253911145E+02  0.10566000000E+00 0. -1.
        994    1    1    2    0    0  0.16164075009E+02 -0.36640508864E+01  0.17060608883E+02  0.17284445888E+03  0.17120000000E+03 0.  0.
        998    1    1    2    0    0  0.39194084675E+01  0.10304251628E+02  0.14760265860E+04  0.14761016300E+04  0.10000000000E+02 0. -1.
</event>
<event>
 5    1  0.1666761E-008  0.3829839E+03  0.7957747E-01  0.3438268E+00
         13   -1    0    0    0    0  0.00000000000E+00  0.00000000000E+00  0.14999999963E+04  0.15000000000E+04  0.10566000000E+00 0. -1.
        994   -1    0    0    0    0 -0.00000000000E+00 -0.00000000000E+00  0.11368683772E-12  0.17120000000E+03  0.17120000000E+03 0.  0.
         13    1    1    2    0    0 -0.20149504106E+02 -0.25983772244E+02  0.19630412723E+03  0.19903889185E+03  0.10566000000E+00 0. -1.
        994    1    1    2    0    0  0.24011434876E+02  0.11759023376E+02  0.50042575329E+01  0.17334735714E+03  0.17120000000E+03 0.  0.
        998    1    1    2    0    0 -0.38619307702E+01  0.14224748867E+02  0.12986916115E+04  0.12988137510E+04  0.10000000000E+02 0. -1.
</event>
<event>
 5    1  0.1666761E-008  0.3786005E+03  0.7957747E-01  0.3457275E+00
         13   -1    0    0    0    0  0.00000000000E+00  0.00000000000E+00  0.14999999963E+04  0.15000000000E+04  0.10566000000E+00 0.  1.
        994   -1    0    0    0    0 -0.00000000000E+00 -0.00000000000E+00  0.11368683772E-12  0.17120000000E+03  0.17120000000E+03 0.  0.
         13    1    1    2    0    0 -0.19369536015E+02  0.69202984342E+01  0.66163363054E+01  0.21606862937E+02  0.10566000000E+00 0.  1.
        994    1    1    2    0    0  0.21127008691E+02 -0.44617651566E+01  0.17243253370E+02  0.17341576523E+03  0.17120000000E+03 0.  0.
        998    1    1    2    0    0 -0.17574726764E+01 -0.24585332776E+01  0.14761404066E+04  0.14761773718E+04  0.10000000000E+02 0.  1.
</event>
<event>
 5    1  0.1666761E-008  0.3802148E+03  0.7957747E-01  0.3450224E+00
         13   -1    0    0    0    0  0.00000000000E+00  0.00000000000E+00  0.14999999963E+04  0.15000000000E+04  0.10566000000E+00 0. -1.
        994   -1    0    0    0    0 -0.00000000000E+00 -0.00000000000E+00  0.11368683772E-12  0.17120000000E+03  0.17120000000E+03 0.  0.
         13    1    1    2    0    0 -0.15897450353E+02 -0.43495794315E+01  0.75043918790E+00  0.16499154280E+02  0.10566000000E+00 0. -1.
        994    1    1    2    0    0  0.17202744033E+02  0.69024631974E+01  0.17692233907E+02  0.17310700027E+03  0.17120000000E+03 0.  0.
        998    1    1    2    0    0 -0.13052936798E+01 -0.25528837659E+01  0.14815573232E+04  0.14815938455E+04  0.10000000000E+02 0. -1.
</event>
<event>
 5    1  0.1666761E-008  0.4042551E+03  0.7957747E-01  0.3351900E+00
         13   -1    0    0    0    0  0.00000000000E+00  0.00000000000E+00  0.14999999963E+04  0.15000000000E+04  0.10566000000E+00 0.  1.
        994   -1    0    0    0    0 -0.00000000000E+00 -0.00000000000E+00  0.11368683772E-12  0.17120000000E+03  0.17120000000E+03 0.  0.
         13    1    1    2    0    0 -0.10701046343E+02 -0.58885416273E+02  0.50035645026E+02  0.78010137672E+02  0.10566000000E+00 0.  1.
        994    1    1    2    0    0  0.29471483362E+02  0.30532960407E+02  0.37553659257E+02  0.18033454280E+03  0.17120000000E+03 0.  0.
        998    1    1    2    0    0 -0.18770437020E+02  0.28352455866E+02  0.14124106920E+04  0.14128553195E+04  0.10000000000E+02 0.  1.
</event>
<event>
 5    1  0.1666761E-008  0.3714936E+03  0.7957747E-01  0.3489054E+00
         13   -1    0    0    0    0  0.00000000000E+00  0.00000000000E+00  0.14999999963E+04  0.15000000000E+04  0.10566000000E+00 0. -1.
        994   -1    0    0    0    0 -0.00000000000E+00 -0.00000000000E+00  0.11368683772E-12  0.17120000000E+03  0.17120000000E+03 0.  0.
         13    1    1    2    0    0 -0.20494544738E+02  0.22912127740E+01  0.21440602799E+02  0.29748724887E+02  0.10566000000E+00 0. -1.
        994    1    1    2    0    0  0.12155718994E+02 -0.19676679548E+02  0.10332749904E+02  0.17306397356E+03  0.17120000000E+03 0.  0.
        998    1    1    2    0    0  0.83388257436E+01  0.17385466774E+02  0.14682266436E+04  0.14683873016E+04  0.10000000000E+02 0. -1.
</event>
<event>
 5    1  0.1666761E-008  0.3829833E+03  0.7957747E-01  0.3438271E+00
         13   -1    0    0    0    0  0.00000000000E+00  0.00000000000E+00  0.14999999963E+04  0.15000000000E+04  0.10566000000E+00 0.  1.
        994   -1    0    0    0    0 -0.00000000000E+00 -0.00000000000E+00  0.11368683772E-12  0.17120000000E+03  0.17120000000E+03 0.  0.
         13    1    1    2    0    0  0.39522826601E+01 -0.20411888601E+02  0.78251622328E+02  0.80966618402E+02  0.10566000000E+00 0.  1.
        994    1    1    2    0    0  0.16242663959E+01  0.20733457483E+02  0.40677905560E+01  0.17250652573E+03  0.17120000000E+03 0.  0.
        998    1    1    2    0    0 -0.55765490560E+01 -0.32156888251E+00  0.14176805834E+04  0.14177268559E+04  0.10000000000E+02 0.  1.
</event>
<event>
 5    1  0.1666761E-008  0.3742521E+03  0.7957747E-01  0.3476575E+00
         13   -1    0    0    0    0  0.00000000000E+00  0.00000000000E+00  0.14999999963E+04  0.15000000000E+04  0.10566000000E+00 0. -1.
        994   -1    0    0    0    0 -0.00000000000E+00 -0.00000000000E+00  0.11368683772E-12  0.17120000000E+03  0.17120000000E+03 0.  0.
         13    1    1    2    0    0 -0.24835095503E+01  0.23874533226E+02  0.38260266034E+02  0.45166583637E+02  0.10566000000E+00 0. -1.
        994    1    1    2    0    0  0.99583447544E+01 -0.12350307529E+02  0.79215117564E+01  0.17211591755E+03  0.17120000000E+03 0.  0.
        998    1    1    2    0    0 -0.74748352041E+01 -0.11524225696E+02  0.14538182185E+04  0.14539174988E+04  0.10000000000E+02 0. -1.
</event>
<event>
 5    1  0.1666761E-008  0.3725942E+03  0.7957747E-01  0.3484053E+00
         13   -1    0    0    0    0  0.00000000000E+00  0.00000000000E+00  0.14999999963E+04  0.15000000000E+04  0.10566000000E+00 0.  1.
        994   -1    0    0    0    0 -0.00000000000E+00 -0.00000000000E+00  0.11368683772E-12  0.17120000000E+03  0.17120000000E+03 0.  0.
         13    1    1    2    0    0  0.60119354550E+01 -0.31969341923E+02  0.63040082231E+02  0.70938320551E+02  0.10566000000E+00 0.  1.
        994    1    1    2    0    0 -0.93405045819E+01  0.23551759127E+02  0.10122402629E+02  0.17336041480E+03  0.17120000000E+03 0.  0.
        998    1    1    2    0    0  0.33285691268E+01  0.84175827952E+01  0.14268375114E+04  0.14269012647E+04  0.10000000000E+02 0.  1.
</event>
<event>
 5    1  0.1666761E-008  0.4089987E+03  0.7957747E-01  0.3333859E+00
         13   -1    0    0    0    0  0.00000000000E+00  0.00000000000E+00  0.14999999963E+04  0.15000000000E+04  0.10566000000E+00 0. -1.
        994   -1    0    0    0    0 -0.00000000000E+00 -0.00000000000E+00  0.11368683772E-12  0.17120000000E+03  0.17120000000E+03 0.  0.
         13    1    1    2    0    0  0.48273781624E+01 -0.23644941714E+02 -0.55161536194E+01  0.24755321920E+02  0.10566000000E+00 0. -1.
        994    1    1    2    0    0 -0.29642021872E+01  0.23538990180E+02  0.35563714647E+02  0.17645704393E+03  0.17120000000E+03 0.  0.
        998    1    1    2    0    0 -0.18631759752E+01  0.10595153417E+00  0.14699524353E+04  0.14699876341E+04  0.10000000000E+02 0. -1.
</event>
<event>
 5    1  0.1666761E-008  0.3842539E+03  0.7957747E-01  0.3432843E+00
         13   -1    0    0    0    0  0.00000000000E+00  0.00000000000E+00  0.14999999963E+04  0.15000000000E+04  0.10566000000E+00 0.  1.
        994   -1    0    0    0    0 -0.00000000000E+00 -0.00000000000E+00  0.11368683772E-12  0.17120000000E+03  0.17120000000E+03 0.  0.
         13    1    1    2    0    0 -0.34396745078E+01 -0.12489387104E+02  0.43581317245E+02  0.45466015086E+02  0.10566000000E+00 0.  1.
        994    1    1    2    0    0  0.26923384513E+01 -0.21974013371E+01  0.20408471527E+01  0.17124743010E+03  0.17120000000E+03 0.  0.
        998    1    1    2    0    0  0.74733605645E+00  0.14686788441E+02  0.14543778319E+04  0.14544865548E+04  0.10000000000E+02 0.  1.
</event>
<event>
 5    1  0.1666761E-008  0.3766075E+03  0.7957747E-01  0.3466064E+00
         13   -1    0    0    0    0  0.00000000000E+00  0.00000000000E+00  0.14999999963E+04  0.15000000000E+04  0.10566000000E+00 0.  1.
        994   -1    0    0    0    0 -0.00000000000E+00 -0.00000000000E+00  0.11368683772E-12  0.17120000000E+03  0.17120000000E+03 0.  0.
         13    1    1    2    0    0  0.12370833764E+03 -0.21819092392E+02  0.73278137868E+03  0.74347050090E+03  0.10566000000E+00 0.  1.
        994    1    1    2    0    0 -0.11633247753E+03  0.23688032741E+02  0.55098618295E+02  0.21549864492E+03  0.17120000000E+03 0.  0.
        998    1    1    2    0    0 -0.73758601160E+01 -0.18689403490E+01  0.71211999930E+03  0.71223085419E+03  0.10000000000E+02 0.  0.
</event>
<event>
 5    1  0.1666761E-008  0.3909296E+03  0.7957747E-01  0.3404907E+00
         13   -1    0    0    0    0  0.00000000000E+00  0.00000000000E+00  0.14999999963E+04  0.15000000000E+04  0.10566000000E+00 0.  1.
        994   -1    0    0    0    0 -0.00000000000E+00 -0.00000000000E+00  0.11368683772E-12  0.17120000000E+03  0.17120000000E+03 0.  0.
         13    1    1    2    0    0  0.50750562357E+02  0.72078155124E+02  0.17582484807E+03  0.19668570967E+03  0.10566000000E+00 0.  1.
        994    1    1    2    0    0 -0.33690495028E+02 -0.28321505278E+02  0.29815095068E+02  0.17926387536E+03  0.17120000000E+03 0.  0.
        998    1    1    2    0    0 -0.17060067329E+02 -0.43756649846E+02  0.12943600531E+04  0.12952504150E+04  0.10000000000E+02 0.  1.
</event>
<event>
 5    1  0.1666761E-008  0.3831734E+03  0.7957747E-01  0.3437456E+00
         13   -1    0    0    0    0  0.00000000000E+00  0.00000000000E+00  0.14999999963E+04  0.15000000000E+04  0.10566000000E+00 0. -1.
        994   -1    0    0    0    0 -0.00000000000E+00 -0.00000000000E+00  0.11368683772E-12  0.17120000000E+03  0.17120000000E+03 0.  0.
         13    1    1    2    0    0  0.18815937749E+02  0.10166257229E+02  0.84237576418E+02  0.86910141780E+02  0.10566000000E+00 0. -1.
        994    1    1    2    0    0 -0.21613815483E+02 -0.96263067907E+01  0.43939745169E+01  0.17288311026E+03  0.17120000000E+03 0.  0.
        998    1    1    2    0    0  0.27978777340E+01 -0.53995043860E+00  0.14113684453E+04  0.14114067480E+04  0.10000000000E+02 0. -1.
</event>
<event>
 5    1  0.1666761E-008  0.3845853E+03  0.7957747E-01  0.3431433E+00
         13   -1    0    0    0    0  0.00000000000E+00  0.00000000000E+00  0.14999999963E+04  0.15000000000E+04  0.10566000000E+00 0. -1.
        994   -1    0    0    0    0 -0.00000000000E+00 -0.00000000000E+00  0.11368683772E-12  0.17120000000E+03  0.17120000000E+03 0.  0.
         13    1    1    2    0    0 -0.17229735950E+02  0.47863648241E+01  0.95040675950E+02  0.96708398488E+02  0.10566000000E+00 0. -1.
        994    1    1    2    0    0 -0.29216437549E+00  0.15740740855E+01  0.18445884274E+01  0.17121742194E+03  0.17120000000E+03 0.  0.
        998    1    1    2    0    0  0.17521900326E+02 -0.63604389096E+01  0.14031147319E+04  0.14032741796E+04  0.10000000000E+02 0. -1.
</event>
<event>
 5    1  0.1666761E-008  0.3780507E+03  0.7957747E-01  0.3459690E+00
         13   -1    0    0    0    0  0.00000000000E+00  0.00000000000E+00  0.14999999963E+04  0.15000000000E+04  0.10566000000E+00 0. -1.
        994   -1    0    0    0    0 -0.00000000000E+00 -0.00000000000E+00  0.11368683772E-12  0.17120000000E+03  0.17120000000E+03 0.  0.
         13    1    1    2    0    0  0.54981845252E+01 -0.10839674899E+02  0.12104484355E+02  0.17153958451E+02  0.10566000000E+00 0. -1.
        994    1    1    2    0    0 -0.53367033472E+01  0.93726311679E+01  0.55118668937E+01  0.17162793273E+03  0.17120000000E+03 0.  0.
        998    1    1    2    0    0 -0.16148117794E+00  0.14670437313E+01  0.14823836450E+04  0.14824181088E+04  0.10000000000E+02 0. -1.
</event>
<event>
 5    1  0.1666761E-008  0.3807300E+03  0.7957747E-01  0.3447986E+00
         13   -1    0    0    0    0  0.00000000000E+00  0.00000000000E+00  0.14999999963E+04  0.15000000000E+04  0.10566000000E+00 0. -1.
        994   -1    0    0    0    0 -0.00000000000E+00 -0.00000000000E+00  0.11368683772E-12  0.17120000000E+03  0.17120000000E+03 0.  0.
         13    1    1    2    0    0  0.10381025361E+02  0.39800526584E+01  0.14702587473E+02  0.18433224057E+02  0.10566000000E+00 0. -1.
        994    1    1    2    0    0 -0.90494930272E+01 -0.68593043217E+01  0.41952436009E+01  0.17162745540E+03  0.17120000000E+03 0.  0.
        998    1    1    2    0    0 -0.13315323343E+01  0.28792516634E+01  0.14811021652E+04  0.14811393205E+04  0.10000000000E+02 0. -1.
</event>
<event>
 5    1  0.1666761E-008  0.3855794E+03  0.7957747E-01  0.3427219E+00
         13   -1    0    0    0    0  0.00000000000E+00  0.00000000000E+00  0.14999999963E+04  0.15000000000E+04  0.10566000000E+00 0. -1.
        994   -1    0    0    0    0 -0.00000000000E+00 -0.00000000000E+00  0.11368683772E-12  0.17120000000E+03  0.17120000000E+03 0.  0.
         13    1    1    2    0    0  0.18328357505E+01  0.12219211208E+02  0.61625216709E+02  0.62851785240E+02  0.10566000000E+00 0. -1.
        994    1    1    2    0    0  0.64728946635E+01  0.16747846134E+01  0.14895196065E+01  0.17133698357E+03  0.17120000000E+03 0.  0.
        998    1    1    2    0    0 -0.83057304140E+01 -0.13893995821E+02  0.14368852600E+04  0.14370112312E+04  0.10000000000E+02 0. -1.
</event>
<event>
 5    1  0.1666761E-008  0.3743485E+03  0.7957747E-01  0.3476142E+00
         13   -1    0    0    0    0  0.00000000000E+00  0.00000000000E+00  0.14999999963E+04  0.15000000000E+04  0.10566000000E+00 0.  1.
        994   -1    0    0    0    0 -0.00000000000E+00 -0.00000000000E+00  0.11368683772E-12  0.17120000000E+03  0.17120000000E+03 0.  0.
         13    1    1    2    0    0  0.47162958511E+02 -0.67469763402E+02  0.24446536100E+03  0.25795316925E+03  0.10566000000E+00 0.  1.
        994    1    1    2    0    0 -0.40283761956E+02  0.16526387743E+03  0.11302278376E+03  0.26649300237E+03  0.17120000000E+03 0.  0.
        998    1    1    2    0    0 -0.68791965549E+01 -0.97794114026E+02  0.11425118515E+04  0.11467538284E+04  0.10000000000E+02 0.  1.
</event>
<event>
 5    1  0.1666761E-008  0.3855109E+03  0.7957747E-01  0.3427508E+00
         13   -1    0    0    0    0  0.00000000000E+00  0.00000000000E+00  0.14999999963E+04  0.15000000000E+04  0.10566000000E+00 0.  1.
        994   -1    0    0    0    0 -0.00000000000E+00 -0.00000000000E+00  0.11368683772E-12  0.17120000000E+03  0.17120000000E+03 0.  0.
         13    1    1    2    0    0 -0.56627647104E+00 -0.13757742939E+02  0.73569450729E+02  0.74846986609E+02  0.10566000000E+00 0.  1.
        994    1    1    2    0    0 -0.28075917816E+01  0.95351102259E+00  0.14055786564E+01  0.17123144398E+03  0.17120000000E+03 0.  0.
        998    1    1    2    0    0  0.33738682526E+01  0.12804231917E+02  0.14250249669E+04  0.14251215694E+04  0.10000000000E+02 0.  1.
</event>
<event>
 5    1  0.1666761E-008  0.3750437E+03  0.7957747E-01  0.3473028E+00
         13   -1    0    0    0    0  0.00000000000E+00  0.00000000000E+00  0.14999999963E+04  0.15000000000E+04  0.10566000000E+00 0. -1.
        994   -1    0    0    0    0 -0.00000000000E+00 -0.00000000000E+00  0.11368683772E-12  0.17120000000E+03  0.17120000000E+03 0.  0.
         13    1    1    2    0    0  0.16961279996E+03  0.80522316900E+02  0.96129805216E+03  0.97946225128E+03  0.10566000000E+00 0. -1.
        994    1    1    2    0    0 -0.15071517326E+03 -0.11190503802E+03  0.13777052702E+03  0.28901203971E+03  0.17120000000E+03 0.  0.
        998    1    1    2    0    0 -0.18897626704E+02  0.31382721117E+02  0.40093141710E+03  0.40272570901E+03  0.10000000000E+02 0.  1.
</event>
<event>
 5    1  0.1666761E-008  0.3810593E+03  0.7957747E-01  0.3446559E+00
         13   -1    0    0    0    0  0.00000000000E+00  0.00000000000E+00  0.14999999963E+04  0.15000000000E+04  0.10566000000E+00 0.  1.
        994   -1    0    0    0    0 -0.00000000000E+00 -0.00000000000E+00  0.11368683772E-12  0.17120000000E+03  0.17120000000E+03 0.  0.
         13    1    1    2    0    0 -0.27995018302E+02  0.24408840916E+02  0.18518964328E+03  0.18887754686E+03  0.10566000000E+00 0.  1.
        994    1    1    2    0    0  0.15704755607E+02 -0.20511448179E+02  0.58256668874E+01  0.17323607375E+03  0.17120000000E+03 0.  0.
        998    1    1    2    0    0  0.12290262695E+02 -0.38973927376E+01  0.13089846861E+04  0.13090863794E+04  0.10000000000E+02 0.  1.
</event>
<event>
 5    1  0.1666761E-008  0.3848685E+03  0.7957747E-01  0.3430230E+00
         13   -1    0    0    0    0  0.00000000000E+00  0.00000000000E+00  0.14999999963E+04  0.15000000000E+04  0.10566000000E+00 0.  1.
        994   -1    0    0    0    0 -0.00000000000E+00 -0.00000000000E+00  0.11368683772E-12  0.17120000000E+03  0.17120000000E+03 0.  0.
         13    1    1    2    0    0 -0.67696353739E+01  0.94656386624E+01  0.40966527050E+02  0.42587483854E+02  0.10566000000E+00 0.  1.
        994    1    1    2    0    0  0.39642986658E+00 -0.19785490676E+01  0.17088486431E+01  0.17122041928E+03  0.17120000000E+03 0.  0.
        998    1    1    2    0    0  0.63732055073E+01 -0.74870895948E+01  0.14573246206E+04  0.14573920969E+04  0.10000000000E+02 0.  1.
</event>
<event>
 5    1  0.1666761E-008  0.3786025E+03  0.7957747E-01  0.3457266E+00
         13   -1    0    0    0    0  0.00000000000E+00  0.00000000000E+00  0.14999999963E+04  0.15000000000E+04  0.10566000000E+00 0. -1.
        994   -1    0    0    0    0 -0.00000000000E+00 -0.00000000000E+00  0.11368683772E-12  0.17120000000E+03  0.17120000000E+03 0.  0.
         13    1    1    2    0    0  0.81519207214E+00  0.47532172813E+02  0.24207214119E+03  0.24669597624E+03  0.10566000000E+00 0. -1.
        994    1    1    2    0    0  0.23303755072E+02 -0.22882507966E+02  0.84309087906E+01  0.17449124446E+03  0.17120000000E+03 0.  0.
        998    1    1    2    0    0 -0.24118947144E+02 -0.24649664846E+02  0.12494969463E+04  0.12500127793E+04  0.10000000000E+02 0. -1.
</event>
<event>
 5    1  0.1666761E-008  0.3743608E+03  0.7957747E-01  0.3476087E+00
         13   -1    0    0    0    0  0.00000000000E+00  0.00000000000E+00  0.14999999963E+04  0.15000000000E+04  0.10566000000E+00 0.  1.
        994   -1    0    0    0    0 -0.00000000000E+00 -0.00000000000E+00  0.11368683772E-12  0.17120000000E+03  0.17120000000E+03 0.  0.
         13    1    1    2    0    0 -0.41738970001E+02  0.42349014008E+02  0.12645804053E+03  0.13973985753E+03  0.10566000000E+00 0.  1.
        994    1    1    2    0    0  0.28475234508E+02 -0.32081418116E+02  0.19824795417E+02  0.17760213648E+03  0.17120000000E+03 0.  0.
        998    1    1    2    0    0  0.13263735493E+02 -0.10267595892E+02  0.13537171603E+04  0.13538580060E+04  0.10000000000E+02 0.  1.
</event>
<event>
 5    1  0.1666761E-008  0.3858119E+03  0.7957747E-01  0.3426236E+00
         13   -1    0    0    0    0  0.00000000000E+00  0.00000000000E+00  0.14999999963E+04  0.15000000000E+04  0.10566000000E+00 0. -1.
        994   -1    0    0    0    0 -0.00000000000E+00 -0.00000000000E+00  0.11368683772E-12  0.17120000000E+03  0.17120000000E+03 0.  0.
         13    1    1    2    0    0  0.14502123712E+02 -0.83232958415E+01  0.10007542047E+03  0.10146275076E+03  0.10566000000E+00 0. -1.
        994    1    1    2    0    0 -0.25251987738E+02  0.89427641199E+01  0.35849532885E+01  0.17332030408E+03  0.17120000000E+03 0.  0.
        998    1    1    2    0    0  0.10749864026E+02 -0.61946827837E+00  0.13963396225E+04  0.13964169452E+04  0.10000000000E+02 0. -1.
</event>
<event>
 5    1  0.1666761E-008  0.3826968E+03  0.7957747E-01  0.3439499E+00
         13   -1    0    0    0    0  0.00000000000E+00  0.00000000000E+00  0.14999999963E+04  0.15000000000E+04  0.10566000000E+00 0.  1.
        994   -1    0    0    0    0 -0.00000000000E+00 -0.00000000000E+00  0.11368683772E-12  0.17120000000E+03  0.17120000000E+03 0.  0.
         13    1    1    2    0    0  0.25448469599E+02 -0.13507742578E+01  0.11649891064E+03  0.11925374853E+03  0.10566000000E+00 0.  1.
        994    1    1    2    0    0 -0.14657644223E+02  0.67034747134E+01  0.36391850249E+01  0.17199554289E+03  0.17120000000E+03 0.  0.
        998    1    1    2    0    0 -0.10790825376E+02 -0.53527004557E+01  0.13798619006E+04  0.13799507086E+04  0.10000000000E+02 0.  1.
</event>
<event>
 5    1  0.1666761E-008  0.3857048E+03  0.7957747E-01  0.3426688E+00
         13   -1    0    0    0    0  0.00000000000E+00  0.00000000000E+00  0.14999999963E+04  0.15000000000E+04  0.10566000000E+00 0. -1.
        994   -1    0    0    0    0 -0.00000000000E+00 -0.00000000000E+00  0.11368683772E-12  0.17120000000E+03  0.17120000000E+03 0.  0.
         13    1    1    2    0    0 -0.44994793816E+01  0.14017617952E+02  0.81763344417E+02  0.83078243734E+02  0.10566000000E+00 0. -1.
        994    1    1    2    0    0  0.96170783612E-01 -0.15629696001E+02  0.20825816844E+01  0.17192461660E+03  0.17120000000E+03 0.  0.
        998    1    1    2    0    0  0.44033085980E+01  0.16120780499E+01  0.14161540702E+04  0.14161971397E+04  0.10000000000E+02 0. -1.
</event>
<event>
 5    1  0.1666761E-008  0.3745554E+03  0.7957747E-01  0.3475214E+00
         13   -1    0    0    0    0  0.00000000000E+00  0.00000000000E+00  0.14999999963E+04  0.15000000000E+04  0.10566000000E+00 0.  1.
        994   -1    0    0    0    0 -0.00000000000E+00 -0.00000000000E+00  0.11368683772E-12  0.17120000000E+03  0.17120000000E+03 0.  0.
         13    1    1    2    0    0 -0.66455281398E+02 -0.40480029430E+02  0.35839376081E+03  0.36674382907E+03  0.10566000000E+00 0.  1.
        994    1    1    2    0    0  0.66940031486E+02  0.22887024698E+02  0.24140777707E+02  0.18680738974E+03  0.17120000000E+03 0.  0.
        998    1    1    2    0    0 -0.48475008761E+00  0.17593004732E+02  0.11174654578E+04  0.11176487812E+04  0.10000000000E+02 0.  1.
</event>
<event>
 5    1  0.1666761E-008  0.3786424E+03  0.7957747E-01  0.3457091E+00
         13   -1    0    0    0    0  0.00000000000E+00  0.00000000000E+00  0.14999999963E+04  0.15000000000E+04  0.10566000000E+00 0.  1.
        994   -1    0    0    0    0 -0.00000000000E+00 -0.00000000000E+00  0.11368683772E-12  0.17120000000E+03  0.17120000000E+03 0.  0.
         13    1    1    2    0    0  0.52027703645E+01  0.19756638131E+02  0.40625315144E+02  0.45473299466E+02  0.10566000000E+00 0.  1.
        994    1    1    2    0    0 -0.49152788595E+01 -0.18839160533E+02  0.60939864383E+01  0.17241128329E+03  0.17120000000E+03 0.  0.
        998    1    1    2    0    0 -0.28749150502E+00 -0.91747759751E+00  0.14532806947E+04  0.14533154172E+04  0.10000000000E+02 0.  1.
</event>
<event>
 5    1  0.1666761E-008  0.3846232E+03  0.7957747E-01  0.3431272E+00
         13   -1    0    0    0    0  0.00000000000E+00  0.00000000000E+00  0.14999999963E+04  0.15000000000E+04  0.10566000000E+00 0.  1.
        994   -1    0    0    0    0 -0.00000000000E+00 -0.00000000000E+00  0.11368683772E-12  0.17120000000E+03  0.17120000000E+03 0.  0.
         13    1    1    2    0    0 -0.13536410967E+02  0.97496636798E+01  0.90221028162E+02  0.91750397549E+02  0.10566000000E+00 0.  1.
        994    1    1    2    0    0 -0.38478880712E+01  0.14827523502E+02  0.25903552195E+01  0.17190349512E+03  0.17120000000E+03 0.  0.
        998    1    1    2    0    0  0.17384299039E+02 -0.24577187182E+02  0.14071886129E+04  0.14075461073E+04  0.10000000000E+02 0.  1.
</event>
<event>
 5    1  0.1666761E-008  0.3854306E+03  0.7957747E-01  0.3427848E+00
         13   -1    0    0    0    0  0.00000000000E+00  0.00000000000E+00  0.14999999963E+04  0.15000000000E+04  0.10566000000E+00 0. -1.
        994   -1    0    0    0    0 -0.00000000000E+00 -0.00000000000E+00  0.11368683772E-12  0.17120000000E+03  0.17120000000E+03 0.  0.
         13    1    1    2    0    0  0.13889874306E+02  0.13998561608E+02  0.11260453059E+03  0.11431832665E+03  0.10566000000E+00 0. -1.
        994    1    1    2    0    0 -0.35788680618E+02 -0.15545212541E+02  0.64324771935E+01  0.17570799656E+03  0.17120000000E+03 0.  0.
        998    1    1    2    0    0  0.21898806312E+02  0.15466509334E+01  0.13809629885E+04  0.13811736768E+04  0.10000000000E+02 0. -1.
</event>
<event>
 5    1  0.1666761E-008  0.3703930E+03  0.7957747E-01  0.3494087E+00
         13   -1    0    0    0    0  0.00000000000E+00  0.00000000000E+00  0.14999999963E+04  0.15000000000E+04  0.10566000000E+00 0.  1.
        994   -1    0    0    0    0 -0.00000000000E+00 -0.00000000000E+00  0.11368683772E-12  0.17120000000E+03  0.17120000000E+03 0.  0.
         13    1    1    2    0    0 -0.57465352376E+02  0.47706653932E+01  0.20287714052E+03  0.21091271010E+03  0.10566000000E+00 0.  1.
        994    1    1    2    0    0  0.13277089109E+02  0.10994736073E+02  0.10090550721E+02  0.17236131970E+03  0.17120000000E+03 0.  0.
        998    1    1    2    0    0  0.44188263268E+02 -0.15765401466E+02  0.12870323050E+04  0.12879259702E+04  0.10000000000E+02 0.  1.
</event>
<event>
 5    1  0.1666761E-008  0.3984227E+03  0.7957747E-01  0.3374666E+00
         13   -1    0    0    0    0  0.00000000000E+00  0.00000000000E+00  0.14999999963E+04  0.15000000000E+04  0.10566000000E+00 0.  1.
        994   -1    0    0    0    0 -0.00000000000E+00 -0.00000000000E+00  0.11368683772E-12  0.17120000000E+03  0.17120000000E+03 0.  0.
         13    1    1    2    0    0  0.49591719540E+02  0.46918432233E+02  0.75734453429E+02  0.10196272128E+03  0.10566000000E+00 0.  1.
        994    1    1    2    0    0 -0.56285481721E+02 -0.29867386387E+02  0.42808092108E+02  0.18762219744E+03  0.17120000000E+03 0.  0.
        998    1    1    2    0    0  0.66937621808E+01 -0.17051045846E+02  0.13814574507E+04  0.13816150813E+04  0.10000000000E+02 0.  1.
</event>
<event>
 5    1  0.1666761E-008  0.3854036E+03  0.7957747E-01  0.3427962E+00
         13   -1    0    0    0    0  0.00000000000E+00  0.00000000000E+00  0.14999999963E+04  0.15000000000E+04  0.10566000000E+00 0.  1.
        994   -1    0    0    0    0 -0.00000000000E+00 -0.00000000000E+00  0.11368683772E-12  0.17120000000E+03  0.17120000000E+03 0.  0.
         13    1    1    2    0    0  0.19037946163E+01 -0.17627937613E+02  0.10330216243E+03  0.10481276900E+03  0.10566000000E+00 0.  1.
        994    1    1    2    0    0 -0.54101055383E+01  0.18680853580E+02  0.26731538483E+01  0.17232187697E+03  0.17120000000E+03 0.  0.
        998    1    1    2    0    0  0.35063109220E+01 -0.10529159677E+01  0.13940246800E+04  0.13940653540E+04  0.10000000000E+02 0.  1.
</event>
<event>
 5    1  0.1666761E-008  0.3828671E+03  0.7957747E-01  0.3438769E+00
         13   -1    0    0    0    0  0.00000000000E+00  0.00000000000E+00  0.14999999963E+04  0.15000000000E+04  0.10566000000E+00 0. -1.
        994   -1    0    0    0    0 -0.00000000000E+00 -0.00000000000E+00  0.11368683772E-12  0.17120000000E+03  0.17120000000E+03 0.  0.
         13    1    1    2    0    0  0.15901967518E+02  0.51207688811E+01  0.51716055641E+02  0.54347552106E+02  0.10566000000E+00 0. -1.
        994    1    1    2    0    0 -0.70721357832E+01 -0.38405289014E+01  0.29073244556E+01  0.17141370220E+03  0.17120000000E+03 0.  0.
        998    1    1    2    0    0 -0.88298317349E+01 -0.12802399797E+01  0.14453766162E+04  0.14454387457E+04  0.10000000000E+02 0. -1.
</event>
<event>
 5    1  0.1666761E-008  0.3854600E+03  0.7957747E-01  0.3427723E+00
         13   -1    0    0    0    0  0.00000000000E+00  0.00000000000E+00  0.14999999963E+04  0.15000000000E+04  0.10566000000E+00 0. -1.
        994   -1    0    0    0    0 -0.00000000000E+00 -0.00000000000E+00  0.11368683772E-12  0.17120000000E+03  0.17120000000E+03 0.  0.
         13    1    1    2    0    0  0.12253578625E+02  0.22481206840E+01  0.58271637940E+02  0.59588582698E+02  0.10566000000E+00 0. -1.
        994    1    1    2    0    0 -0.23297128628E+01  0.63765587760E+01  0.15532629668E+01  0.17134159066E+03  0.17120000000E+03 0.  0.
        998    1    1    2    0    0 -0.99238657620E+01 -0.86246794600E+01  0.14401750954E+04  0.14402698266E+04  0.10000000000E+02 0. -1.
</event>
<event>
 5    1  0.1666761E-008  0.3743774E+03  0.7957747E-01  0.3476012E+00
         13   -1    0    0    0    0  0.00000000000E+00  0.00000000000E+00  0.14999999963E+04  0.15000000000E+04  0.10566000000E+00 0.  1.
        994   -1    0    0    0    0 -0.00000000000E+00 -0.00000000000E+00  0.11368683772E-12  0.17120000000E+03  0.17120000000E+03 0.  0.
         13    1    1    2    0    0 -0.13344042700E+03 -0.83010068234E+01  0.47388389766E+03  0.49238319822E+03  0.10566000000E+00 0.  1.
        994    1    1    2    0    0  0.12441523576E+03  0.13057645597E+01  0.70486185343E+02  0.22306635388E+03  0.17120000000E+03 0.  0.
        998    1    1    2    0    0  0.90251912380E+01  0.69952422637E+01  0.95562991328E+03  0.95575044789E+03  0.10000000000E+02 0.  1.
</event>
<event>
 5    1  0.1666761E-008  0.3822187E+03  0.7957747E-01  0.3441554E+00
         13   -1    0    0    0    0  0.00000000000E+00  0.00000000000E+00  0.14999999963E+04  0.15000000000E+04  0.10566000000E+00 0. -1.
        994   -1    0    0    0    0 -0.00000000000E+00 -0.00000000000E+00  0.11368683772E-12  0.17120000000E+03  0.17120000000E+03 0.  0.
         13    1    1    2    0    0 -0.15339416640E+02 -0.11286880279E+02  0.56922968546E+02  0.60024385723E+02  0.10566000000E+00 0. -1.
        994    1    1    2    0    0  0.15776961317E+02  0.13564081942E+02  0.44552422819E+01  0.17251720497E+03  0.17120000000E+03 0.  0.
        998    1    1    2    0    0 -0.43754467684E+00 -0.22772016629E+01  0.14386217855E+04  0.14386584093E+04  0.10000000000E+02 0. -1.
</event>
<event>
 5    1  0.1666761E-008  0.3865610E+03  0.7957747E-01  0.3423079E+00
         13   -1    0    0    0    0  0.00000000000E+00  0.00000000000E+00  0.14999999963E+04  0.15000000000E+04  0.10566000000E+00 0. -1.
        994   -1    0    0    0    0 -0.00000000000E+00 -0.00000000000E+00  0.11368683772E-12  0.17120000000E+03  0.17120000000E+03 0.  0.
         13    1    1    2    0    0 -0.25414231712E+02  0.15654233235E+02  0.13196771755E+02  0.32635933271E+02  0.10566000000E+00 0. -1.
        994    1    1    2    0    0  0.31887438463E+02 -0.30621876374E+02  0.27271409050E+02  0.17890689700E+03  0.17120000000E+03 0.  0.
        998    1    1    2    0    0 -0.64732067513E+01  0.14967643139E+02  0.14595318155E+04  0.14596571697E+04  0.10000000000E+02 0. -1.
</event>
<event>
 5    1  0.1666761E-008  0.3731701E+03  0.7957747E-01  0.3481447E+00
         13   -1    0    0    0    0  0.00000000000E+00  0.00000000000E+00  0.14999999963E+04  0.15000000000E+04  0.10566000000E+00 0. -1.
        994   -1    0    0    0    0 -0.00000000000E+00 -0.00000000000E+00  0.11368683772E-12  0.17120000000E+03  0.17120000000E+03 0.  0.
         13    1    1    2    0    0  0.34236539301E+02  0.57328547452E+01  0.79102567747E+02  0.86384220985E+02  0.10566000000E+00 0. -1.
        994    1    1    2    0    0 -0.12765321336E+02  0.42154579289E+01  0.82397960821E+01  0.17192456995E+03  0.17120000000E+03 0.  0.
        998    1    1    2    0    0 -0.21471217965E+02 -0.99483126741E+01  0.14126576324E+04  0.14128912091E+04  0.10000000000E+02 0. -1.
</event>
<event>
 5    1  0.1666761E-008  0.3708694E+03  0.7957747E-01  0.3491905E+00
         13   -1    0    0    0    0  0.00000000000E+00  0.00000000000E+00  0.14999999963E+04  0.15000000000E+04  0.10566000000E+00 0.  1.
        994   -1    0    0    0    0 -0.00000000000E+00 -0.00000000000E+00  0.11368683772E-12  0.17120000000E+03  0.17120000000E+03 0.  0.
         13    1    1    2    0    0  0.27333526187E+02 -0.28192978336E+01  0.37980741758E+02  0.46878758544E+02  0.10566000000E+00 0.  1.
        994    1    1    2    0    0 -0.33554209736E+02 -0.22347856081E+02  0.14439144581E+02  0.17647447566E+03  0.17120000000E+03 0.  0.
        998    1    1    2    0    0  0.62206835495E+01  0.25167153915E+02  0.14475801099E+04  0.14478467658E+04  0.10000000000E+02 0.  1.
</event>
<event>
 5    1  0.1666761E-008  0.3804232E+03  0.7957747E-01  0.3449318E+00
         13   -1    0    0    0    0  0.00000000000E+00  0.00000000000E+00  0.14999999963E+04  0.15000000000E+04  0.10566000000E+00 0. -1.
        994   -1    0    0    0    0 -0.00000000000E+00 -0.00000000000E+00  0.11368683772E-12  0.17120000000E+03  0.17120000000E+03 0.  0.
         13    1    1    2    0    0  0.12785350026E+02 -0.14042013134E+02  0.42876157437E+02  0.46893702655E+02  0.10566000000E+00 0. -1.
        994    1    1    2    0    0  0.68495279297E+01  0.37684688907E+02  0.88326050963E+01  0.17565450955E+03  0.17120000000E+03 0.  0.
        998    1    1    2    0    0 -0.19634877955E+02 -0.23642675772E+02  0.14482912337E+04  0.14486517878E+04  0.10000000000E+02 0. -1.
</event>
<event>
 5    1  0.1666761E-008  0.3853061E+03  0.7957747E-01  0.3428375E+00
         13   -1    0    0    0    0  0.00000000000E+00  0.00000000000E+00  0.14999999963E+04  0.15000000000E+04  0.10566000000E+00 0. -1.
        994   -1    0    0    0    0 -0.00000000000E+00 -0.00000000000E+00  0.11368683772E-12  0.17120000000E+03  0.17120000000E+03 0.  0.
         13    1    1    2    0    0  0.19765978063E+01  0.12984130309E+02  0.58326102570E+02  0.59786620441E+02  0.10566000000E+00 0. -1.
        994    1    1    2    0    0 -0.56242046258E+01 -0.84990453631E+01  0.18195741001E+01  0.17151272926E+03  0.17120000000E+03 0.  0.
        998    1    1    2    0    0  0.36476068195E+01 -0.44850849461E+01  0.14398543196E+04  0.14399006503E+04  0.10000000000E+02 0. -1.
</event>
<event>
 5    1  0.1666761E-008  0.3820890E+03  0.7957747E-01  0.3442113E+00
         13   -1    0    0    0    0  0.00000000000E+00  0.00000000000E+00  0.14999999963E+04  0.15000000000E+04  0.10566000000E+00 0. -1.
        994   -1    0    0    0    0 -0.00000000000E+00 -0.00000000000E+00  0.11368683772E-12  0.17120000000E+03  0.17120000000E+03 0.  0.
         13    1    1    2    0    0  0.67503978905E+01 -0.21020540366E+02  0.88120509885E+02  0.90844187571E+02  0.10566000000E+00 0. -1.
        994    1    1    2    0    0  0.64610243591E+01 -0.60530389990E+01  0.33426345313E+01  0.17146135810E+03  0.17120000000E+03 0.  0.
        998    1    1    2    0    0 -0.13211422250E+02  0.27073579365E+02  0.14085368519E+04  0.14088944543E+04  0.10000000000E+02 0. -1.
</event>
<event>
 5    1  0.1666761E-008  0.3763639E+03  0.7957747E-01  0.3467145E+00
         13   -1    0    0    0    0  0.00000000000E+00  0.00000000000E+00  0.14999999963E+04  0.15000000000E+04  0.10566000000E+00 0.  1.
        994   -1    0    0    0    0 -0.00000000000E+00 -0.00000000000E+00  0.11368683772E-12  0.17120000000E+03  0.17120000000E+03 0.  0.
         13    1    1    2    0    0  0.58458380420E+02  0.36386267694E+02  0.40184924165E+03  0.40770598094E+03  0.10566000000E+00 0.  1.
        994    1    1    2    0    0 -0.23737586774E+02 -0.33466948196E+02  0.11697661267E+02  0.17643634809E+03  0.17120000000E+03 0.  0.
        998    1    1    2    0    0 -0.34720793647E+02 -0.29193194977E+01  0.10864530934E+04  0.10870576710E+04  0.10000000000E+02 0.  1.
</event>
<event>
 5    1  0.1666761E-008  0.3786196E+03  0.7957747E-01  0.3457191E+00
         13   -1    0    0    0    0  0.00000000000E+00  0.00000000000E+00  0.14999999963E+04  0.15000000000E+04  0.10566000000E+00 0.  1.
        994   -1    0    0    0    0 -0.00000000000E+00 -0.00000000000E+00  0.11368683772E-12  0.17120000000E+03  0.17120000000E+03 0.  0.
         13    1    1    2    0    0 -0.83776129173E+01  0.35881774977E+02  0.12332520409E+03  0.12871209462E+03  0.10566000000E+00 0.  1.
        994    1    1    2    0    0  0.12746292053E+01 -0.45355535085E+02  0.11776648494E+02  0.17750177096E+03  0.17120000000E+03 0.  0.
        998    1    1    2    0    0  0.71029837120E+01  0.94737601077E+01  0.13648981437E+04  0.13649861344E+04  0.10000000000E+02 0.  1.
</event>
<event>
 5    1  0.1666761E-008  0.3848613E+03  0.7957747E-01  0.3430261E+00
         13   -1    0    0    0    0  0.00000000000E+00  0.00000000000E+00  0.14999999963E+04  0.15000000000E+04  0.10566000000E+00 0.  1.
        994   -1    0    0    0    0 -0.00000000000E+00 -0.00000000000E+00  0.11368683772E-12  0.17120000000E+03  0.17120000000E+03 0.  0.
         13    1    1    2    0    0 -0.11550215851E+02 -0.10376219581E+02  0.74623810861E+02  0.76222029168E+02  0.10566000000E+00 0.  1.
        994    1    1    2    0    0  0.72351693011E+01 -0.41571918482E+01  0.19281517982E+01  0.17141408253E+03  0.17120000000E+03 0.  0.
        998    1    1    2    0    0  0.43150465495E+01  0.14533411429E+02  0.14234480336E+04  0.14235638883E+04  0.10000000000E+02 0.  1.
</event>
<event>
 5    1  0.1666761E-008  0.3755004E+03  0.7957747E-01  0.3470988E+00
         13   -1    0    0    0    0  0.00000000000E+00  0.00000000000E+00  0.14999999963E+04  0.15000000000E+04  0.10566000000E+00 0.  1.
        994   -1    0    0    0    0 -0.00000000000E+00 -0.00000000000E+00  0.11368683772E-12  0.17120000000E+03  0.17120000000E+03 0.  0.
         13    1    1    2    0    0 -0.17990690558E+02  0.17700360585E+02  0.17113416384E+02  0.30493407418E+02  0.10566000000E+00 0.  1.
        994    1    1    2    0    0  0.26173559594E+02  0.18873916218E+01  0.16335859744E+02  0.17396815163E+03  0.17120000000E+03 0.  0.
        998    1    1    2    0    0 -0.81828690360E+01 -0.19587752207E+02  0.14665507202E+04  0.14667384409E+04  0.10000000000E+02 0.  1.
</event>
<event>
 5    1  0.1666761E-008  0.3832885E+03  0.7957747E-01  0.3436963E+00
         13   -1    0    0    0    0  0.00000000000E+00  0.00000000000E+00  0.14999999963E+04  0.15000000000E+04  0.10566000000E+00 0. -1.
        994   -1    0    0    0    0 -0.00000000000E+00 -0.00000000000E+00  0.11368683772E-12  0.17120000000E+03  0.17120000000E+03 0.  0.
         13    1    1    2    0    0 -0.10546797590E+00 -0.11114553230E+02  0.24011235097E+02  0.26459308228E+02  0.10566000000E+00 0. -1.
        994    1    1    2    0    0  0.57839026846E+00  0.79108319649E+01  0.26903312009E+01  0.17140476563E+03  0.17120000000E+03 0.  0.
        998    1    1    2    0    0 -0.47292229256E+00  0.32037212650E+01  0.14732984300E+04  0.14733359261E+04  0.10000000000E+02 0. -1.
</event>
<event>
 5    1  0.1666761E-008  0.3846064E+03  0.7957747E-01  0.3431343E+00
         13   -1    0    0    0    0  0.00000000000E+00  0.00000000000E+00  0.14999999963E+04  0.15000000000E+04  0.10566000000E+00 0.  1.
        994   -1    0    0    0    0 -0.00000000000E+00 -0.00000000000E+00  0.11368683772E-12  0.17120000000E+03  0.17120000000E+03 0.  0.
         13    1    1    2    0    0  0.10172238802E+02  0.10088818445E+02  0.55822997962E+02  0.57632256293E+02  0.10566000000E+00 0.  1.
        994    1    1    2    0    0 -0.15278727889E+02  0.92127420787E+00  0.25975429044E+01  0.17190251744E+03  0.17120000000E+03 0.  0.
        998    1    1    2    0    0  0.51064890872E+01 -0.11010092652E+02  0.14415794554E+04  0.14416652263E+04  0.10000000000E+02 0.  1.
</event>
<event>
 5    1  0.1666761E-008  0.3856627E+03  0.7957747E-01  0.3426867E+00
         13   -1    0    0    0    0  0.00000000000E+00  0.00000000000E+00  0.14999999963E+04  0.15000000000E+04  0.10566000000E+00 0. -1.
        994   -1    0    0    0    0 -0.00000000000E+00 -0.00000000000E+00  0.11368683772E-12  0.17120000000E+03  0.17120000000E+03 0.  0.
         13    1    1    2    0    0 -0.14481737504E+02 -0.12172923423E+02  0.10282637259E+03  0.10455225894E+03  0.10566000000E+00 0. -1.
        994    1    1    2    0    0  0.32988626342E+02  0.34299616729E+02  0.87689254160E+01  0.17790741196E+03  0.17120000000E+03 0.  0.
        998    1    1    2    0    0 -0.18506888839E+02 -0.22126693306E+02  0.13884046983E+04  0.13887403291E+04  0.10000000000E+02 0. -1.
</event>
<event>
 5    1  0.1666761E-008  0.3763761E+03  0.7957747E-01  0.3467091E+00
         13   -1    0    0    0    0  0.00000000000E+00  0.00000000000E+00  0.14999999963E+04  0.15000000000E+04  0.10566000000E+00 0.  1.
        994   -1    0    0    0    0 -0.00000000000E+00 -0.00000000000E+00  0.11368683772E-12  0.17120000000E+03  0.17120000000E+03 0.  0.
         13    1    1    2    0    0  0.51241803685E+02  0.42488799981E+02  0.28377923464E+03  0.29148187893E+03  0.10566000000E+00 0.  1.
        994    1    1    2    0    0 -0.51663260097E+02 -0.52966409620E+02  0.24727449292E+02  0.18813670493E+03  0.17120000000E+03 0.  0.
        998    1    1    2    0    0  0.42145641154E+00  0.10477609639E+02  0.11914933123E+04  0.11915814161E+04  0.10000000000E+02 0.  1.
</event>
<event>
 5    1  0.1666761E-008  0.3726581E+03  0.7957747E-01  0.3483763E+00
         13   -1    0    0    0    0  0.00000000000E+00  0.00000000000E+00  0.14999999963E+04  0.15000000000E+04  0.10566000000E+00 0.  1.
        994   -1    0    0    0    0 -0.00000000000E+00 -0.00000000000E+00  0.11368683772E-12  0.17120000000E+03  0.17120000000E+03 0.  0.
         13    1    1    2    0    0  0.49276293758E+02  0.30123459734E+02  0.11978661824E+03  0.13298278470E+03  0.10566000000E+00 0.  1.
        994    1    1    2    0    0 -0.48315051983E+02 -0.36716534134E+02  0.25462123868E+02  0.18341267099E+03  0.17120000000E+03 0.  0.
        998    1    1    2    0    0 -0.96124177507E+00  0.65930743996E+01  0.13547512542E+04  0.13548045443E+04  0.10000000000E+02 0.  1.
</event>
<event>
 5    1  0.1666761E-008  0.3814866E+03  0.7957747E-01  0.3444711E+00
         13   -1    0    0    0    0  0.00000000000E+00  0.00000000000E+00  0.14999999963E+04  0.15000000000E+04  0.10566000000E+00 0. -1.
        994   -1    0    0    0    0 -0.00000000000E+00 -0.00000000000E+00  0.11368683772E-12  0.17120000000E+03  0.17120000000E+03 0.  0.
         13    1    1    2    0    0  0.12318865607E+02 -0.51148209013E+00  0.21874885520E+02  0.25110512626E+02  0.10566000000E+00 0. -1.
        994    1    1    2    0    0  0.43186627311E+01  0.16076178145E+02  0.43069092079E+01  0.17206127925E+03  0.17120000000E+03 0.  0.
        998    1    1    2    0    0 -0.16637528338E+02 -0.15564696054E+02  0.14738182016E+04  0.14740282081E+04  0.10000000000E+02 0. -1.
</event>
<event>
 5    1  0.1666761E-008  0.3844913E+03  0.7957747E-01  0.3431832E+00
         13   -1    0    0    0    0  0.00000000000E+00  0.00000000000E+00  0.14999999963E+04  0.15000000000E+04  0.10566000000E+00 0.  1.
        994   -1    0    0    0    0 -0.00000000000E+00 -0.00000000000E+00  0.11368683772E-12  0.17120000000E+03  0.17120000000E+03 0.  0.
         13    1    1    2    0    0 -0.15716335247E+02  0.40006653961E+01  0.70625391852E+02  0.72463547081E+02  0.10566000000E+00 0.  1.
        994    1    1    2    0    0  0.90708466688E+01  0.21406848946E+01  0.21690891500E+01  0.17146722060E+03  0.17120000000E+03 0.  0.
        998    1    1    2    0    0  0.66454885782E+01 -0.61413502907E+01  0.14272055153E+04  0.14272692323E+04  0.10000000000E+02 0.  1.
</event>
<event>
 5    1  0.1666761E-008  0.3815238E+03  0.7957747E-01  0.3444550E+00
         13   -1    0    0    0    0  0.00000000000E+00  0.00000000000E+00  0.14999999963E+04  0.15000000000E+04  0.10566000000E+00 0. -1.
        994   -1    0    0    0    0 -0.00000000000E+00 -0.00000000000E+00  0.11368683772E-12  0.17120000000E+03  0.17120000000E+03 0.  0.
         13    1    1    2    0    0  0.55803435665E+01 -0.22199003637E+02  0.76804108119E+02  0.80142486764E+02  0.10566000000E+00 0. -1.
        994    1    1    2    0    0  0.46989438250E+01  0.15785544796E+02  0.42687205663E+01  0.17204338253E+03  0.17120000000E+03 0.  0.
        998    1    1    2    0    0 -0.10279287391E+02  0.64134588410E+01  0.14189271676E+04  0.14190141307E+04  0.10000000000E+02 0. -1.
</event>
<event>
 5    1  0.1666761E-008  0.3855238E+03  0.7957747E-01  0.3427454E+00
         13   -1    0    0    0    0  0.00000000000E+00  0.00000000000E+00  0.14999999963E+04  0.15000000000E+04  0.10566000000E+00 0.  1.
        994   -1    0    0    0    0 -0.00000000000E+00 -0.00000000000E+00  0.11368683772E-12  0.17120000000E+03  0.17120000000E+03 0.  0.
         13    1    1    2    0    0 -0.15713989841E+02 -0.13218138446E+00  0.87565815306E+02  0.88964768998E+02  0.10566000000E+00 0.  1.
        994    1    1    2    0    0  0.14503146481E+02 -0.41129486375E+01  0.21167846442E+01  0.17187547347E+03  0.17120000000E+03 0.  0.
        998    1    1    2    0    0  0.12108433598E+01  0.42451300219E+01  0.14103173963E+04  0.14103597575E+04  0.10000000000E+02 0.  1.
</event>
<event>
 5    1  0.1666761E-008  0.3750389E+03  0.7957747E-01  0.3473049E+00
         13   -1    0    0    0    0  0.00000000000E+00  0.00000000000E+00  0.14999999963E+04  0.15000000000E+04  0.10566000000E+00 0.  1.
        994   -1    0    0    0    0 -0.00000000000E+00 -0.00000000000E+00  0.11368683772E-12  0.17120000000E+03  0.17120000000E+03 0.  0.
         13    1    1    2    0    0 -0.10892700977E+02  0.11553249037E+02  0.16113064980E+02  0.22622345701E+02  0.10566000000E+00 0.  1.
        994    1    1    2    0    0  0.42253180555E+01 -0.85796227870E+01  0.69696805624E+01  0.17160850704E+03  0.17120000000E+03 0.  0.
        998    1    1    2    0    0  0.66673829216E+01 -0.29736262505E+01  0.14769172507E+04  0.14769691473E+04  0.10000000000E+02 0.  1.
</event>
<event>
 5    1  0.1666761E-008  0.3842357E+03  0.7957747E-01  0.3432920E+00
         13   -1    0    0    0    0  0.00000000000E+00  0.00000000000E+00  0.14999999963E+04  0.15000000000E+04  0.10566000000E+00 0. -1.
        994   -1    0    0    0    0 -0.00000000000E+00 -0.00000000000E+00  0.11368683772E-12  0.17120000000E+03  0.17120000000E+03 0.  0.
         13    1    1    2    0    0  0.19460973497E+02  0.12242032783E+02  0.13359947795E+03  0.13556337458E+03  0.10566000000E+00 0. -1.
        994    1    1    2    0    0 -0.57307827833E+00 -0.22568759591E+02  0.36921913267E+01  0.17272159565E+03  0.17120000000E+03 0.  0.
        998    1    1    2    0    0 -0.18887895218E+02  0.10326726808E+02  0.13627083270E+04  0.13629150298E+04  0.10000000000E+02 0. -1.
</event>
<event>
 5    1  0.1666761E-008  0.3732011E+03  0.7957747E-01  0.3481307E+00
         13   -1    0    0    0    0  0.00000000000E+00  0.00000000000E+00  0.14999999963E+04  0.15000000000E+04  0.10566000000E+00 0.  1.
        994   -1    0    0    0    0 -0.00000000000E+00 -0.00000000000E+00  0.11368683772E-12  0.17120000000E+03  0.17120000000E+03 0.  0.
         13    1    1    2    0    0  0.30893554240E+02 -0.45818520533E+01  0.58702085240E+02  0.66493240539E+02  0.10566000000E+00 0.  1.
        994    1    1    2    0    0 -0.32884692924E+02  0.57517364422E+01  0.11426405999E+02  0.17479842177E+03  0.17120000000E+03 0.  0.
        998    1    1    2    0    0  0.19911386840E+01 -0.11698843889E+01  0.14298715050E+04  0.14299083377E+04  0.10000000000E+02 0.  1.
</event>
<event>
 5    1  0.1666761E-008  0.3704171E+03  0.7957747E-01  0.3493976E+00
         13   -1    0    0    0    0  0.00000000000E+00  0.00000000000E+00  0.14999999963E+04  0.15000000000E+04  0.10566000000E+00 0.  1.
        994   -1    0    0    0    0 -0.00000000000E+00 -0.00000000000E+00  0.11368683772E-12  0.17120000000E+03  0.17120000000E+03 0.  0.
         13    1    1    2    0    0 -0.45405252958E+02 -0.19213785109E+02  0.10371146989E+03  0.11483417037E+03  0.10566000000E+00 0.  1.
        994    1    1    2    0    0  0.28402300245E+02  0.22424300265E+02  0.15758277506E+02  0.17569093093E+03  0.17120000000E+03 0.  0.
        998    1    1    2    0    0  0.17002952712E+02 -0.32105151558E+01  0.13805302489E+04  0.13806748987E+04  0.10000000000E+02 0. -1.
</event>
<event>
 5    1  0.1666761E-008  0.3764902E+03  0.7957747E-01  0.3466585E+00
         13   -1    0    0    0    0  0.00000000000E+00  0.00000000000E+00  0.14999999963E+04  0.15000000000E+04  0.10566000000E+00 0.  1.
        994   -1    0    0    0    0 -0.00000000000E+00 -0.00000000000E+00  0.11368683772E-12  0.17120000000E+03  0.17120000000E+03 0.  0.
         13    1    1    2    0    0 -0.35695982078E+01 -0.36840915660E+02  0.10666374127E+03  0.11290332131E+03  0.10566000000E+00 0.  1.
        994    1    1    2    0    0  0.17654500084E+01  0.36485464603E+02  0.10441642527E+02  0.17536468812E+03  0.17120000000E+03 0.  0.
        998    1    1    2    0    0  0.18041481994E+01  0.35545105707E+00  0.13828946125E+04  0.13829319906E+04  0.10000000000E+02 0.  0.
</event>
<event>
 5    1  0.1666761E-008  0.3845491E+03  0.7957747E-01  0.3431587E+00
         13   -1    0    0    0    0  0.00000000000E+00  0.00000000000E+00  0.14999999963E+04  0.15000000000E+04  0.10566000000E+00 0.  1.
        994   -1    0    0    0    0 -0.00000000000E+00 -0.00000000000E+00  0.11368683772E-12  0.17120000000E+03  0.17120000000E+03 0.  0.
         13    1    1    2    0    0 -0.51700559236E+01 -0.22769377627E+02  0.14021922897E+03  0.14214998196E+03  0.10566000000E+00 0.  1.
        994    1    1    2    0    0  0.42721412179E+01  0.19061714235E+02  0.31119480750E+01  0.17233898097E+03  0.17120000000E+03 0.  0.
        998    1    1    2    0    0  0.89791470566E+00  0.37076633920E+01  0.13566688192E+04  0.13567110371E+04  0.10000000000E+02 0.  0.
</event>
<event>
 5    1  0.1666761E-008  0.3997612E+03  0.7957747E-01  0.3369383E+00
         13   -1    0    0    0    0  0.00000000000E+00  0.00000000000E+00  0.14999999963E+04  0.15000000000E+04  0.10566000000E+00 0. -1.
        994   -1    0    0    0    0 -0.00000000000E+00 -0.00000000000E+00  0.11368683772E-12  0.17120000000E+03  0.17120000000E+03 0.  0.
         13    1    1    2    0    0  0.61173998838E+01  0.12131365230E+02 -0.90366567956E+01  0.16317626475E+02  0.10566000000E+00 0. -1.
        994    1    1    2    0    0 -0.26484863591E+02  0.17650641357E+02  0.31607291345E+02  0.17697868235E+03  0.17120000000E+03 0.  0.
        998    1    1    2    0    0  0.20367463707E+02 -0.29782006588E+02  0.14774293617E+04  0.14779036912E+04  0.10000000000E+02 0. -1.
</event>
<event>
 5    1  0.1666761E-008  0.3823629E+03  0.7957747E-01  0.3440934E+00
         13   -1    0    0    0    0  0.00000000000E+00  0.00000000000E+00  0.14999999963E+04  0.15000000000E+04  0.10566000000E+00 0.  1.
        994   -1    0    0    0    0 -0.00000000000E+00 -0.00000000000E+00  0.11368683772E-12  0.17120000000E+03  0.17120000000E+03 0.  0.
         13    1    1    2    0    0 -0.44738770671E+02 -0.79214011537E+02  0.42469472399E+03  0.43432941067E+03  0.10566000000E+00 0.  1.
        994    1    1    2    0    0  0.10868018967E+03  0.12471202200E+03  0.99755454299E+02  0.25811831148E+03  0.17120000000E+03 0.  0.
        998    1    1    2    0    0 -0.63941419000E+02 -0.45498010460E+02  0.97554981799E+03  0.97875227785E+03  0.10000000000E+02 0.  1.
</event>
<event>
 5    1  0.1666761E-008  0.3838191E+03  0.7957747E-01  0.3434696E+00
         13   -1    0    0    0    0  0.00000000000E+00  0.00000000000E+00  0.14999999963E+04  0.15000000000E+04  0.10566000000E+00 0.  1.
        994   -1    0    0    0    0 -0.00000000000E+00 -0.00000000000E+00  0.11368683772E-12  0.17120000000E+03  0.17120000000E+03 0.  0.
         13    1    1    2    0    0 -0.24977820257E+02 -0.95231138326E+01  0.14872646008E+03  0.15110973593E+03  0.10566000000E+00 0.  1.
        994    1    1    2    0    0  0.26763416141E+02  0.13435088417E+01  0.45917722209E+01  0.17334534846E+03  0.17120000000E+03 0.  0.
        998    1    1    2    0    0 -0.17855958837E+01  0.81796049910E+01  0.13466817640E+04  0.13467449156E+04  0.10000000000E+02 0.  1.
</event>
<event>
 5    1  0.1666761E-008  0.3746057E+03  0.7957747E-01  0.3474988E+00
         13   -1    0    0    0    0  0.00000000000E+00  0.00000000000E+00  0.14999999963E+04  0.15000000000E+04  0.10566000000E+00 0. -1.
        994   -1    0    0    0    0 -0.00000000000E+00 -0.00000000000E+00  0.11368683772E-12  0.17120000000E+03  0.17120000000E+03 0.  0.
         13    1    1    2    0    0  0.13067373909E+02  0.35630346650E+02  0.42480519915E+02  0.56963879780E+02  0.10566000000E+00 0. -1.
        994    1    1    2    0    0 -0.87495468223E+01 -0.78248915367E+02  0.35765892570E+02  0.19180220644E+03  0.17120000000E+03 0.  0.
        998    1    1    2    0    0 -0.43178270865E+01  0.42618568717E+02  0.14217535838E+04  0.14224339138E+04  0.10000000000E+02 0. -1.
</event>
<event>
 5    1  0.1666761E-008  0.3706323E+03  0.7957747E-01  0.3492990E+00
         13   -1    0    0    0    0  0.00000000000E+00  0.00000000000E+00  0.14999999963E+04  0.15000000000E+04  0.10566000000E+00 0. -1.
        994   -1    0    0    0    0 -0.00000000000E+00 -0.00000000000E+00  0.11368683772E-12  0.17120000000E+03  0.17120000000E+03 0.  0.
         13    1    1    2    0    0  0.92314961672E+01 -0.15729682025E+02  0.15457666985E+02  0.23908033185E+02  0.10566000000E+00 0. -1.
        994    1    1    2    0    0 -0.13792850391E+02 -0.19028494099E+02  0.10846841353E+02  0.17314566202E+03  0.17120000000E+03 0.  0.
        998    1    1    2    0    0  0.45613542238E+01  0.34758176124E+02  0.14736954879E+04  0.14741463048E+04  0.10000000000E+02 0. -1.
</event>
<event>
 5    1  0.1666761E-008  0.3824732E+03  0.7957747E-01  0.3440460E+00
         13   -1    0    0    0    0  0.00000000000E+00  0.00000000000E+00  0.14999999963E+04  0.15000000000E+04  0.10566000000E+00 0. -1.
        994   -1    0    0    0    0 -0.00000000000E+00 -0.00000000000E+00  0.11368683772E-12  0.17120000000E+03  0.17120000000E+03 0.  0.
         13    1    1    2    0    0 -0.23282075885E+02 -0.10053859549E+02  0.10368315306E+02  0.27397961159E+02  0.10566000000E+00 0. -1.
        994    1    1    2    0    0  0.27152685781E+02  0.64428031078E+01  0.20545265990E+02  0.17467205275E+03  0.17120000000E+03 0.  0.
        998    1    1    2    0    0 -0.38706098959E+01  0.36110564409E+01  0.14690864150E+04  0.14691299861E+04  0.10000000000E+02 0. -1.
</event>
<event>
 5    1  0.1666761E-008  0.3700716E+03  0.7957747E-01  0.3495562E+00
         13   -1    0    0    0    0  0.00000000000E+00  0.00000000000E+00  0.14999999963E+04  0.15000000000E+04  0.10566000000E+00 0. -1.
        994   -1    0    0    0    0 -0.00000000000E+00 -0.00000000000E+00  0.11368683772E-12  0.17120000000E+03  0.17120000000E+03 0.  0.
         13    1    1    2    0    0  0.20537316033E+01 -0.65127097972E+02  0.16856953541E+03  0.18072480775E+03  0.10566000000E+00 0. -1.
        994    1    1    2    0    0 -0.10183032105E+03  0.66392554052E+02  0.64599953407E+02  0.21968154110E+03  0.17120000000E+03 0.  0.
        998    1    1    2    0    0  0.99776589442E+02 -0.12654560801E+01  0.12668305075E+04  0.12707936512E+04  0.10000000000E+02 0. -1.
</event>
<event>
 5    1  0.1666761E-008  0.3735077E+03  0.7957747E-01  0.3479924E+00
         13   -1    0    0    0    0  0.00000000000E+00  0.00000000000E+00  0.14999999963E+04  0.15000000000E+04  0.10566000000E+00 0. -1.
        994   -1    0    0    0    0 -0.00000000000E+00 -0.00000000000E+00  0.11368683772E-12  0.17120000000E+03  0.17120000000E+03 0.  0.
         13    1    1    2    0    0  0.29960693721E+02  0.37351865026E+02  0.79989168169E+02  0.93225979092E+02  0.10566000000E+00 0. -1.
        994    1    1    2    0    0 -0.29509444752E+02 -0.41689321646E+02  0.22097567926E+02  0.18001819179E+03  0.17120000000E+03 0.  0.
        998    1    1    2    0    0 -0.45124896946E+00  0.43374566208E+01  0.13979132602E+04  0.13979558291E+04  0.10000000000E+02 0. -1.
</event>
<event>
 5    1  0.1666761E-008  0.3843896E+03  0.7957747E-01  0.3432265E+00
         13   -1    0    0    0    0  0.00000000000E+00  0.00000000000E+00  0.14999999963E+04  0.15000000000E+04  0.10566000000E+00 0. -1.
        994   -1    0    0    0    0 -0.00000000000E+00 -0.00000000000E+00  0.11368683772E-12  0.17120000000E+03  0.17120000000E+03 0.  0.
         13    1    1    2    0    0 -0.15638176247E+02  0.27840719583E+01  0.73780452479E+02  0.75470987439E+02  0.10566000000E+00 0. -1.
        994    1    1    2    0    0 -0.99349019711E+01 -0.10628803217E+01  0.22625377223E+01  0.17150624207E+03  0.17120000000E+03 0.  0.
        998    1    1    2    0    0  0.25573078218E+02 -0.17211916366E+01  0.14239570061E+04  0.14242227705E+04  0.10000000000E+02 0. -1.
</event>
<event>
 5    1  0.1666761E-008  0.3810369E+03  0.7957747E-01  0.3446656E+00
         13   -1    0    0    0    0  0.00000000000E+00  0.00000000000E+00  0.14999999963E+04  0.15000000000E+04  0.10566000000E+00 0.  1.
        994   -1    0    0    0    0 -0.00000000000E+00 -0.00000000000E+00  0.11368683772E-12  0.17120000000E+03  0.17120000000E+03 0.  0.
         13    1    1    2    0    0  0.42819681828E+02  0.78869625204E+01  0.21675125689E+03  0.22108108887E+03  0.10566000000E+00 0.  1.
        994    1    1    2    0    0 -0.50401624358E+02  0.43807416248E+01  0.12185129476E+02  0.17893415553E+03  0.17120000000E+03 0.  0.
        998    1    1    2    0    0  0.75819425309E+01 -0.12267704145E+02  0.12710636099E+04  0.12711847556E+04  0.10000000000E+02 0.  1.
</event>
<event>
 5    1  0.1666761E-008  0.3811752E+03  0.7957747E-01  0.3446057E+00
         13   -1    0    0    0    0  0.00000000000E+00  0.00000000000E+00  0.14999999963E+04  0.15000000000E+04  0.10566000000E+00 0. -1.
        994   -1    0    0    0    0 -0.00000000000E+00 -0.00000000000E+00  0.11368683772E-12  0.17120000000E+03  0.17120000000E+03 0.  0.
         13    1    1    2    0    0  0.14539024143E+02 -0.27499445567E+02  0.12330075005E+03  0.12716402344E+03  0.10566000000E+00 0. -1.
        994    1    1    2    0    0 -0.11934591795E+02  0.32337018740E+02  0.75076102567E+01  0.17479680053E+03  0.17120000000E+03 0.  0.
        998    1    1    2    0    0 -0.26044323486E+01 -0.48375731738E+01  0.13691916360E+04  0.13692391760E+04  0.10000000000E+02 0. -1.
</event>
<event>
 5    1  0.1666761E-008  0.3856270E+03  0.7957747E-01  0.3427017E+00
         13   -1    0    0    0    0  0.00000000000E+00  0.00000000000E+00  0.14999999963E+04  0.15000000000E+04  0.10566000000E+00 0.  1.
        994   -1    0    0    0    0 -0.00000000000E+00 -0.00000000000E+00  0.11368683772E-12  0.17120000000E+03  0.17120000000E+03 0.  0.
         13    1    1    2    0    0  0.50536094880E+01 -0.12599445977E+02  0.72490430279E+02  0.73750651887E+02  0.10566000000E+00 0.  1.
        994    1    1    2    0    0 -0.29057942068E+00  0.51123536735E+01  0.14052108286E+01  0.17128232604E+03  0.17120000000E+03 0.  0.
        998    1    1    2    0    0 -0.47630300673E+01  0.74870923034E+01  0.14261043552E+04  0.14261670221E+04  0.10000000000E+02 0.  1.
</event>
<event>
 5    1  0.1666761E-008  0.3847946E+03  0.7957747E-01  0.3430544E+00
         13   -1    0    0    0    0  0.00000000000E+00  0.00000000000E+00  0.14999999963E+04  0.15000000000E+04  0.10566000000E+00 0.  1.
        994   -1    0    0    0    0 -0.00000000000E+00 -0.00000000000E+00  0.11368683772E-12  0.17120000000E+03  0.17120000000E+03 0.  0.
         13    1    1    2    0    0  0.95842135884E+01 -0.16544166496E+02  0.10168744036E+03  0.10346938333E+03  0.10566000000E+00 0.  1.
        994    1    1    2    0    0 -0.18647661005E+02  0.89612340042E+01  0.31420258099E+01  0.17247420474E+03  0.17120000000E+03 0.  0.
        998    1    1    2    0    0  0.90634474163E+01  0.75829324922E+01  0.13951705301E+04  0.13952564119E+04  0.10000000000E+02 0.  1.
</event>
<event>
 5    1  0.1666761E-008  0.3727880E+03  0.7957747E-01  0.3483175E+00
         13   -1    0    0    0    0  0.00000000000E+00  0.00000000000E+00  0.14999999963E+04  0.15000000000E+04  0.10566000000E+00 0. -1.
        994   -1    0    0    0    0 -0.00000000000E+00 -0.00000000000E+00  0.11368683772E-12  0.17120000000E+03  0.17120000000E+03 0.  0.
         13    1    1    2    0    0 -0.19877093099E+02 -0.15239848557E+02  0.37180540965E+02  0.44830297842E+02  0.10566000000E+00 0. -1.
        994    1    1    2    0    0  0.71138650844E+01  0.15262514661E+02  0.87907532712E+01  0.17225059876E+03  0.17120000000E+03 0.  0.
        998    1    1    2    0    0  0.12763228015E+02 -0.22666104055E-01  0.14540287020E+04  0.14541191034E+04  0.10000000000E+02 0. -1.
</event>
<event>
 5    1  0.1666761E-008  0.3728618E+03  0.7957747E-01  0.3482841E+00
         13   -1    0    0    0    0  0.00000000000E+00  0.00000000000E+00  0.14999999963E+04  0.15000000000E+04  0.10566000000E+00 0.  1.
        994   -1    0    0    0    0 -0.00000000000E+00 -0.00000000000E+00  0.11368683772E-12  0.17120000000E+03  0.17120000000E+03 0.  0.
         13    1    1    2    0    0 -0.29445510060E+02 -0.15612717381E+01  0.51233237461E+02  0.59112870146E+02  0.10566000000E+00 0.  1.
        994    1    1    2    0    0  0.29847605793E+02 -0.17950430331E+01  0.10848288702E+02  0.17412991449E+03  0.17120000000E+03 0.  0.
        998    1    1    2    0    0 -0.40209573335E+00  0.33563147712E+01  0.14379184701E+04  0.14379572154E+04  0.10000000000E+02 0.  1.
</event>
<event>
 5    1  0.1666761E-008  0.3814830E+03  0.7957747E-01  0.3444727E+00
         13   -1    0    0    0    0  0.00000000000E+00  0.00000000000E+00  0.14999999963E+04  0.15000000000E+04  0.10566000000E+00 0.  1.
        994   -1    0    0    0    0 -0.00000000000E+00 -0.00000000000E+00  0.11368683772E-12  0.17120000000E+03  0.17120000000E+03 0.  0.
         13    1    1    2    0    0 -0.25271264616E+02  0.10194833005E+02  0.11680634286E+03  0.11994292114E+03  0.10566000000E+00 0.  1.
        994    1    1    2    0    0  0.67274425679E+01  0.44440905891E+01  0.36027097631E+01  0.17142761721E+03  0.17120000000E+03 0.  0.
        998    1    1    2    0    0  0.18543822048E+02 -0.14638923594E+02  0.13795909437E+04  0.13798294616E+04  0.10000000000E+02 0.  1.
</event>
<event>
 5    1  0.1666761E-008  0.3804590E+03  0.7957747E-01  0.3449162E+00
         13   -1    0    0    0    0  0.00000000000E+00  0.00000000000E+00  0.14999999963E+04  0.15000000000E+04  0.10566000000E+00 0.  1.
        994   -1    0    0    0    0 -0.00000000000E+00 -0.00000000000E+00  0.11368683772E-12  0.17120000000E+03  0.17120000000E+03 0.  0.
         13    1    1    2    0    0  0.35987345091E+02  0.69266433447E+01  0.19195992951E+03  0.19542695079E+03  0.10566000000E+00 0.  1.
        994    1    1    2    0    0 -0.74285436057E+01  0.70613696994E+01  0.42523454374E+01  0.17155922780E+03  0.17120000000E+03 0.  0.
        998    1    1    2    0    0 -0.28558801485E+02 -0.13988013044E+02  0.13037877213E+04  0.13042138214E+04  0.10000000000E+02 0.  1.
</event>
<event>
 5    1  0.1666761E-008  0.3852962E+03  0.7957747E-01  0.3428417E+00
         13   -1    0    0    0    0  0.00000000000E+00  0.00000000000E+00  0.14999999963E+04  0.15000000000E+04  0.10566000000E+00 0. -1.
        994   -1    0    0    0    0 -0.00000000000E+00 -0.00000000000E+00  0.11368683772E-12  0.17120000000E+03  0.17120000000E+03 0.  0.
         13    1    1    2    0    0  0.10190435632E+02  0.69709154027E+01  0.54392808754E+02  0.55776585124E+02  0.10566000000E+00 0. -1.
        994    1    1    2    0    0  0.10623890746E+02 -0.15071212197E+02  0.26010553385E+01  0.17220979641E+03  0.17120000000E+03 0.  0.
        998    1    1    2    0    0 -0.20814326378E+02  0.81002967939E+01  0.14430061322E+04  0.14432136185E+04  0.10000000000E+02 0. -1.
</event>
<event>
 5    1  0.1858624E-008  0.3856359E+03  0.7957747E-01  0.3426980E+00
         13   -1    0    0    0    0  0.00000000000E+00  0.00000000000E+00  0.14999999963E+04  0.15000000000E+04  0.10566000000E+00 0. -1.
        994   -1    0    0    0    0 -0.00000000000E+00 -0.00000000000E+00  0.11368683772E-12  0.17120000000E+03  0.17120000000E+03 0.  0.
         13    1    1    2    0    0  0.53999636260E+01  0.85848085996E+01  0.40807515839E+02  0.42049055386E+02  0.10566000000E+00 0. -1.
        994    1    1    2    0    0 -0.11608013704E+01  0.49313143701E+00  0.13199914616E+01  0.17120973400E+03  0.17120000000E+03 0.  0.
        998    1    1    2    0    0 -0.42391622556E+01 -0.90779400366E+01  0.14578724890E+04  0.14579412106E+04  0.10000000000E+02 0. -1.
</event>
<event>
 5    1  0.1666761E-008  0.3855555E+03  0.7957747E-01  0.3427320E+00
         13   -1    0    0    0    0  0.00000000000E+00  0.00000000000E+00  0.14999999963E+04  0.15000000000E+04  0.10566000000E+00 0. -1.
        994   -1    0    0    0    0 -0.00000000000E+00 -0.00000000000E+00  0.11368683772E-12  0.17120000000E+03  0.17120000000E+03 0.  0.
         13    1    1    2    0    0 -0.36834605523E+01 -0.11956654924E+02  0.60599384106E+02  0.61877508003E+02  0.10566000000E+00 0. -1.
        994    1    1    2    0    0  0.36626608406E+00  0.20673925199E+01  0.13690657764E+01  0.17121834774E+03  0.17120000000E+03 0.  0.
        998    1    1    2    0    0  0.33171944682E+01  0.98892624041E+01  0.14380315464E+04  0.14381041443E+04  0.10000000000E+02 0. -1.
</event>
<event>
 5    1  0.1666761E-008  0.3921580E+03  0.7957747E-01  0.3399870E+00
         13   -1    0    0    0    0  0.00000000000E+00  0.00000000000E+00  0.14999999963E+04  0.15000000000E+04  0.10566000000E+00 0. -1.
        994   -1    0    0    0    0 -0.00000000000E+00 -0.00000000000E+00  0.11368683772E-12  0.17120000000E+03  0.17120000000E+03 0.  0.
         13    1    1    2    0    0 -0.84615716528E+01  0.64996377238E+02  0.79844204003E+02  0.10330167146E+03  0.10566000000E+00 0. -1.
        994    1    1    2    0    0  0.87052974326E+01 -0.68666546745E+02  0.41586025277E+02  0.18928738559E+03  0.17120000000E+03 0.  0.
        998    1    1    2    0    0 -0.24372577979E+00  0.36701695076E+01  0.13785697670E+04  0.13786109430E+04  0.10000000000E+02 0. -1.
</event>
<event>
 5    1  0.1666761E-008  0.3702679E+03  0.7957747E-01  0.3494661E+00
         13   -1    0    0    0    0  0.00000000000E+00  0.00000000000E+00  0.14999999963E+04  0.15000000000E+04  0.10566000000E+00 0. -1.
        994   -1    0    0    0    0 -0.00000000000E+00 -0.00000000000E+00  0.11368683772E-12  0.17120000000E+03  0.17120000000E+03 0.  0.
         13    1    1    2    0    0  0.26313047770E+02  0.89340774749E+01  0.29826230596E+02  0.40765296747E+02  0.10566000000E+00 0.  1.
        994    1    1    2    0    0 -0.24031911577E+02 -0.11534260041E+02  0.13571005362E+02  0.17379350999E+03  0.17120000000E+03 0.  0.
        998    1    1    2    0    0 -0.22811361922E+01  0.26001825663E+01  0.14566027603E+04  0.14566411933E+04  0.10000000000E+02 0. -1.
</event>
<event>
 5    1  0.1666761E-008  0.3955216E+03  0.7957747E-01  0.3386239E+00
         13   -1    0    0    0    0  0.00000000000E+00  0.00000000000E+00  0.14999999963E+04  0.15000000000E+04  0.10566000000E+00 0.  1.
        994   -1    0    0    0    0 -0.00000000000E+00 -0.00000000000E+00  0.11368683772E-12  0.17120000000E+03  0.17120000000E+03 0.  0.
         13    1    1    2    0    0  0.39307666646E+01  0.39777440195E+02  0.21295113266E+02  0.45290050653E+02  0.10566000000E+00 0.  1.
        994    1    1    2    0    0 -0.12013313763E+02 -0.42090831261E+02  0.32530384851E+02  0.17967644176E+03  0.17120000000E+03 0.  0.
        998    1    1    2    0    0  0.80825470986E+01  0.23133910661E+01  0.14461744982E+04  0.14462335076E+04  0.10000000000E+02 0.  1.
</event>
<event>
 5    1  0.1666761E-008  0.3855459E+03  0.7957747E-01  0.3427360E+00
         13   -1    0    0    0    0  0.00000000000E+00  0.00000000000E+00  0.14999999963E+04  0.15000000000E+04  0.10566000000E+00 0.  1.
        994   -1    0    0    0    0 -0.00000000000E+00 -0.00000000000E+00  0.11368683772E-12  0.17120000000E+03  0.17120000000E+03 0.  0.
         13    1    1    2    0    0 -0.69519016798E+01  0.10719116210E+02  0.62161848776E+02  0.63461287385E+02  0.10566000000E+00 0.  1.
        994    1    1    2    0    0 -0.93804848299E+00 -0.56327357789E+01  0.14664014489E+01  0.17130148272E+03  0.17120000000E+03 0.  0.
        998    1    1    2    0    0  0.78899501628E+01 -0.50863804315E+01  0.14363717461E+04  0.14364372299E+04  0.10000000000E+02 0.  1.
</event>
<event>
 5    1  0.1666761E-008  0.3832170E+03  0.7957747E-01  0.3437269E+00
         13   -1    0    0    0    0  0.00000000000E+00  0.00000000000E+00  0.14999999963E+04  0.15000000000E+04  0.10566000000E+00 0.  1.
        994   -1    0    0    0    0 -0.00000000000E+00 -0.00000000000E+00  0.11368683772E-12  0.17120000000E+03  0.17120000000E+03 0.  0.
         13    1    1    2    0    0  0.12890281423E+02  0.77903613769E+01  0.43436428955E+02  0.45973727388E+02  0.10566000000E+00 0.  1.
        994    1    1    2    0    0 -0.14453121836E+02 -0.43373233754E+01  0.32715160010E+01  0.17189487462E+03  0.17120000000E+03 0.  0.
        998    1    1    2    0    0  0.15628404133E+01 -0.34530380015E+01  0.14532920513E+04  0.14533313980E+04  0.10000000000E+02 0.  1.
</event>
<event>
 5    1  0.1666761E-008  0.3752648E+03  0.7957747E-01  0.3472039E+00
         13   -1    0    0    0    0  0.00000000000E+00  0.00000000000E+00  0.14999999963E+04  0.15000000000E+04  0.10566000000E+00 0. -1.
        994   -1    0    0    0    0 -0.00000000000E+00 -0.00000000000E+00  0.11368683772E-12  0.17120000000E+03  0.17120000000E+03 0.  0.
         13    1    1    2    0    0 -0.20243887862E+02 -0.51908612273E+01  0.30665294408E+02  0.37109722193E+02  0.10566000000E+00 0. -1.
        994    1    1    2    0    0  0.14244220475E+02  0.32717025929E+01  0.72685670775E+01  0.17197637606E+03  0.17120000000E+03 0.  0.
        998    1    1    2    0    0  0.59996673875E+01  0.19191586345E+01  0.14620661348E+04  0.14621139017E+04  0.10000000000E+02 0. -1.
</event>
<event>
 5    1  0.1666761E-008  0.3842597E+03  0.7957747E-01  0.3432818E+00
         13   -1    0    0    0    0  0.00000000000E+00  0.00000000000E+00  0.14999999963E+04  0.15000000000E+04  0.10566000000E+00 0. -1.
        994   -1    0    0    0    0 -0.00000000000E+00 -0.00000000000E+00  0.11368683772E-12  0.17120000000E+03  0.17120000000E+03 0.  0.
         13    1    1    2    0    0 -0.14280015815E+02  0.65441787365E+01  0.65947309805E+02  0.67792359168E+02  0.10566000000E+00 0. -1.
        994    1    1    2    0    0  0.16568930763E+00  0.47586179650E+01  0.20728663249E+01  0.17127874554E+03  0.17120000000E+03 0.  0.
        998    1    1    2    0    0  0.14114326507E+02 -0.11302796702E+02  0.14319798201E+04  0.14321288953E+04  0.10000000000E+02 0. -1.
</event>
<event>
 5    1  0.1666761E-008  0.3792774E+03  0.7957747E-01  0.3454311E+00
         13   -1    0    0    0    0  0.00000000000E+00  0.00000000000E+00  0.14999999963E+04  0.15000000000E+04  0.10566000000E+00 0. -1.
        994   -1    0    0    0    0 -0.00000000000E+00 -0.00000000000E+00  0.11368683772E-12  0.17120000000E+03  0.17120000000E+03 0.  0.
         13    1    1    2    0    0 -0.21958547635E+02 -0.10389769856E+02  0.61302199970E+02  0.65940094154E+02  0.10566000000E+00 0. -1.
        994    1    1    2    0    0  0.24090492145E+02  0.10177939419E+02  0.67935822772E+01  0.17331917096E+03  0.17120000000E+03 0.  0.
        998    1    1    2    0    0 -0.21319445094E+01  0.21183043662E+00  0.14319042140E+04  0.14319407349E+04  0.10000000000E+02 0.  0.
</event>
<event>
 5    1  0.1666761E-008  0.3841872E+03  0.7957747E-01  0.3433127E+00
         13   -1    0    0    0    0  0.00000000000E+00  0.00000000000E+00  0.14999999963E+04  0.15000000000E+04  0.10566000000E+00 0. -1.
        994   -1    0    0    0    0 -0.00000000000E+00 -0.00000000000E+00  0.11368683772E-12  0.17120000000E+03  0.17120000000E+03 0.  0.
         13    1    1    2    0    0 -0.11483787652E+02  0.10606577023E+02  0.61638914476E+02  0.63590437935E+02  0.10566000000E+00 0. -1.
        994    1    1    2    0    0  0.34282071262E+01 -0.29904673080E+01  0.21024507240E+01  0.17127333651E+03  0.17120000000E+03 0.  0.
        998    1    1    2    0    0  0.80555805257E+01 -0.76161097150E+01  0.14362586311E+04  0.14363362256E+04  0.10000000000E+02 0. -1.
</event>
<event>
 5    1  0.1666761E-008  0.3754097E+03  0.7957747E-01  0.3471393E+00
         13   -1    0    0    0    0  0.00000000000E+00  0.00000000000E+00  0.14999999963E+04  0.15000000000E+04  0.10566000000E+00 0.  1.
        994   -1    0    0    0    0 -0.00000000000E+00 -0.00000000000E+00  0.11368683772E-12  0.17120000000E+03  0.17120000000E+03 0.  0.
         13    1    1    2    0    0  0.42012257559E+01 -0.30584928111E+02  0.17848142285E+03  0.18113176859E+03  0.10566000000E+00 0.  1.
        994    1    1    2    0    0  0.75271852489E+01 -0.11618727561E+03  0.53971896785E+02  0.21395921848E+03  0.17120000000E+03 0.  0.
        998    1    1    2    0    0 -0.11728411005E+02  0.14677220372E+03  0.12675466766E+04  0.12761090129E+04  0.10000000000E+02 0.  1.
</event>
<event>
 5    1  0.1666761E-008  0.3802866E+03  0.7957747E-01  0.3449912E+00
         13   -1    0    0    0    0  0.00000000000E+00  0.00000000000E+00  0.14999999963E+04  0.15000000000E+04  0.10566000000E+00 0.  1.
        994   -1    0    0    0    0 -0.00000000000E+00 -0.00000000000E+00  0.11368683772E-12  0.17120000000E+03  0.17120000000E+03 0.  0.
         13    1    1    2    0    0 -0.38082163582E+01 -0.32051314765E+02  0.14161594746E+03  0.14524764036E+03  0.10566000000E+00 0.  1.
        994    1    1    2    0    0  0.68080119704E+01  0.39571171494E+01  0.41956692509E+01  0.17143235238E+03  0.17120000000E+03 0.  0.
        998    1    1    2    0    0 -0.29997956122E+01  0.28094197616E+02  0.13541883796E+04  0.13545200073E+04  0.10000000000E+02 0.  1.
</event>
<event>
 5    1  0.1666761E-008  0.3784967E+03  0.7957747E-01  0.3457730E+00
         13   -1    0    0    0    0  0.00000000000E+00  0.00000000000E+00  0.14999999963E+04  0.15000000000E+04  0.10566000000E+00 0.  1.
        994   -1    0    0    0    0 -0.00000000000E+00 -0.00000000000E+00  0.11368683772E-12  0.17120000000E+03  0.17120000000E+03 0.  0.
         13    1    1    2    0    0 -0.21240186805E+02 -0.11980139693E+03  0.59773895339E+03  0.60999621950E+03  0.10566000000E+00 0.  1.
        994    1    1    2    0    0  0.31512941107E+02  0.14452407603E+03  0.82315539935E+02  0.24076038321E+03  0.17120000000E+03 0.  0.
        998    1    1    2    0    0 -0.10272754302E+02 -0.24722679099E+02  0.81994550295E+03  0.82044339729E+03  0.10000000000E+02 0.  1.
</event>
<event>
 5    1  0.1666761E-008  0.3801646E+03  0.7957747E-01  0.3450442E+00
         13   -1    0    0    0    0  0.00000000000E+00  0.00000000000E+00  0.14999999963E+04  0.15000000000E+04  0.10566000000E+00 0.  1.
        994   -1    0    0    0    0 -0.00000000000E+00 -0.00000000000E+00  0.11368683772E-12  0.17120000000E+03  0.17120000000E+03 0.  0.
         13    1    1    2    0    0  0.54181231359E+00 -0.24621348145E+02  0.71412625356E+02  0.75539913750E+02  0.10566000000E+00 0.  1.
        994    1    1    2    0    0  0.16855733231E+02  0.22339191296E+02  0.66711045031E+01  0.17360039990E+03  0.17120000000E+03 0.  0.
        998    1    1    2    0    0 -0.17397545545E+02  0.22821568491E+01  0.14219162664E+04  0.14220596863E+04  0.10000000000E+02 0.  1.
</event>
<event>
 5    1  0.1666761E-008  0.3702397E+03  0.7957747E-01  0.3494790E+00
         13   -1    0    0    0    0  0.00000000000E+00  0.00000000000E+00  0.14999999963E+04  0.15000000000E+04  0.10566000000E+00 0. -1.
        994   -1    0    0    0    0 -0.00000000000E+00 -0.00000000000E+00  0.11368683772E-12  0.17120000000E+03  0.17120000000E+03 0.  0.
         13    1    1    2    0    0  0.15971635140E+03  0.12435906369E+03  0.86185246940E+03  0.88530456895E+03  0.10566000000E+00 0. -1.
        994    1    1    2    0    0 -0.14407453768E+03 -0.13185838734E+03  0.15524881313E+03  0.30258179175E+03  0.17120000000E+03 0.  0.
        998    1    1    2    0    0 -0.15641813715E+02  0.74993236455E+01  0.48289871375E+03  0.48331363930E+03  0.10000000000E+02 0.  1.
</event>
<event>
 5    1  0.1666761E-008  0.3825622E+03  0.7957747E-01  0.3440078E+00
         13   -1    0    0    0    0  0.00000000000E+00  0.00000000000E+00  0.14999999963E+04  0.15000000000E+04  0.10566000000E+00 0. -1.
        994   -1    0    0    0    0 -0.00000000000E+00 -0.00000000000E+00  0.11368683772E-12  0.17120000000E+03  0.17120000000E+03 0.  0.
         13    1    1    2    0    0 -0.18114411122E+02  0.14571877073E+02  0.10831440181E+03  0.11078128134E+03  0.10566000000E+00 0. -1.
        994    1    1    2    0    0 -0.16715989623E+02 -0.96880809269E+01  0.40836997104E+01  0.17233513810E+03  0.17120000000E+03 0.  0.
        998    1    1    2    0    0  0.34830400745E+02 -0.48837961461E+01  0.13876018948E+04  0.13880835806E+04  0.10000000000E+02 0. -1.
</event>
<event>
 5    1  0.1666761E-008  0.3856851E+03  0.7957747E-01  0.3426772E+00
         13   -1    0    0    0    0  0.00000000000E+00  0.00000000000E+00  0.14999999963E+04  0.15000000000E+04  0.10566000000E+00 0. -1.
        994   -1    0    0    0    0 -0.00000000000E+00 -0.00000000000E+00  0.11368683772E-12  0.17120000000E+03  0.17120000000E+03 0.  0.
         13    1    1    2    0    0 -0.12051237159E+02 -0.78688278582E+01  0.83687282921E+02  0.84915977623E+02  0.10566000000E+00 0. -1.
        994    1    1    2    0    0  0.97918419112E+01 -0.53114455372E+01  0.16976725907E+01  0.17157043368E+03  0.17120000000E+03 0.  0.
        998    1    1    2    0    0  0.22593952475E+01  0.13180273395E+02  0.14146150408E+04  0.14147135887E+04  0.10000000000E+02 0. -1.
</event>
<event>
 5    1  0.1732932E-008  0.3859462E+03  0.7957747E-01  0.3425669E+00
         13   -1    0    0    0    0  0.00000000000E+00  0.00000000000E+00  0.14999999963E+04  0.15000000000E+04  0.10566000000E+00 0. -1.
        994   -1    0    0    0    0 -0.00000000000E+00 -0.00000000000E+00  0.11368683772E-12  0.17120000000E+03  0.17120000000E+03 0.  0.
         13    1    1    2    0    0 -0.49335612409E+01  0.12716073395E+02  0.82407408306E+02  0.83528621782E+02  0.10566000000E+00 0. -1.
        994    1    1    2    0    0 -0.12284608638E+01 -0.78419757576E+01  0.13676769134E+01  0.17138937027E+03  0.17120000000E+03 0.  0.
        998    1    1    2    0    0  0.61620221048E+01 -0.48740976372E+01  0.14162249111E+04  0.14162820080E+04  0.10000000000E+02 0. -1.
</event>
<event>
 5    1  0.1729326E-008  0.3861892E+03  0.7957747E-01  0.3424644E+00
         13   -1    0    0    0    0  0.00000000000E+00  0.00000000000E+00  0.14999999963E+04  0.15000000000E+04  0.10566000000E+00 0. -1.
        994   -1    0    0    0    0 -0.00000000000E+00 -0.00000000000E+00  0.11368683772E-12  0.17120000000E+03  0.17120000000E+03 0.  0.
         13    1    1    2    0    0  0.48206426829E+01  0.88545623168E+01  0.46150736042E+02  0.47239215393E+02  0.10566000000E+00 0. -1.
        994    1    1    2    0    0 -0.43602664696E+01 -0.17812795654E+02  0.21433751074E+01  0.17219274569E+03  0.17120000000E+03 0.  0.
        998    1    1    2    0    0 -0.46037621327E+00  0.89582333376E+01  0.14517058851E+04  0.14517680389E+04  0.10000000000E+02 0. -1.
</event>
<event>
 5    1  0.1666761E-008  0.3845483E+03  0.7957747E-01  0.3431590E+00
         13   -1    0    0    0    0  0.00000000000E+00  0.00000000000E+00  0.14999999963E+04  0.15000000000E+04  0.10566000000E+00 0. -1.
        994   -1    0    0    0    0 -0.00000000000E+00 -0.00000000000E+00  0.11368683772E-12  0.17120000000E+03  0.17120000000E+03 0.  0.
         13    1    1    2    0    0  0.69026275327E+01  0.77788363325E+01  0.29208805705E+02  0.31005194021E+02  0.10566000000E+00 0. -1.
        994    1    1    2    0    0  0.59410667592E+00 -0.48333488667E+01  0.19326565245E+01  0.17128014884E+03  0.17120000000E+03 0.  0.
        998    1    1    2    0    0 -0.74967342086E+01 -0.29454874658E+01  0.14688585340E+04  0.14689146571E+04  0.10000000000E+02 0. -1.
</event>
<event>
 5    1  0.1666761E-008  0.3857843E+03  0.7957747E-01  0.3426353E+00
         13   -1    0    0    0    0  0.00000000000E+00  0.00000000000E+00  0.14999999963E+04  0.15000000000E+04  0.10566000000E+00 0.  1.
        994   -1    0    0    0    0 -0.00000000000E+00 -0.00000000000E+00  0.11368683772E-12  0.17120000000E+03  0.17120000000E+03 0.  0.
         13    1    1    2    0    0  0.96065203984E+01  0.82266164764E+01  0.66842745150E+02  0.68028862963E+02  0.10566000000E+00 0.  1.
        994    1    1    2    0    0 -0.28768292156E+01 -0.36781688409E+01  0.13127745991E+01  0.17126870248E+03  0.17120000000E+03 0.  0.
        998    1    1    2    0    0 -0.67296911827E+01 -0.45484476356E+01  0.14318444765E+04  0.14319024346E+04  0.10000000000E+02 0.  1.
</event>
<event>
 5    1  0.1666761E-008  0.3819142E+03  0.7957747E-01  0.3442866E+00
         13   -1    0    0    0    0  0.00000000000E+00  0.00000000000E+00  0.14999999963E+04  0.15000000000E+04  0.10566000000E+00 0.  1.
        994   -1    0    0    0    0 -0.00000000000E+00 -0.00000000000E+00  0.11368683772E-12  0.17120000000E+03  0.17120000000E+03 0.  0.
         13    1    1    2    0    0 -0.13551868661E+02 -0.29025538831E+02  0.18659798584E+03  0.18932763806E+03  0.10566000000E+00 0.  1.
        994    1    1    2    0    0 -0.97015207642E+01  0.56122862401E+01  0.35873950226E+01  0.17160398208E+03  0.17120000000E+03 0.  0.
        998    1    1    2    0    0  0.23253389425E+02  0.23413252591E+02  0.13098146154E+04  0.13102683799E+04  0.10000000000E+02 0.  1.
</event>
<event>
 5    1  0.1666761E-008  0.3824907E+03  0.7957747E-01  0.3440385E+00
         13   -1    0    0    0    0  0.00000000000E+00  0.00000000000E+00  0.14999999963E+04  0.15000000000E+04  0.10566000000E+00 0. -1.
        994   -1    0    0    0    0 -0.00000000000E+00 -0.00000000000E+00  0.11368683772E-12  0.17120000000E+03  0.17120000000E+03 0.  0.
         13    1    1    2    0    0  0.85975474755E+01 -0.10878596356E+02  0.34748830219E+02  0.37413287037E+02  0.10566000000E+00 0. -1.
        994    1    1    2    0    0  0.46308309515E+01 -0.87412112123E+01  0.32056296683E+01  0.17151550784E+03  0.17120000000E+03 0.  0.
        998    1    1    2    0    0 -0.13228378427E+02  0.19619807568E+02  0.14620455364E+04  0.14622712051E+04  0.10000000000E+02 0. -1.
</event>
<event>
 5    1  0.1666761E-008  0.3765315E+03  0.7957747E-01  0.3466401E+00
         13   -1    0    0    0    0  0.00000000000E+00  0.00000000000E+00  0.14999999963E+04  0.15000000000E+04  0.10566000000E+00 0. -1.
        994   -1    0    0    0    0 -0.00000000000E+00 -0.00000000000E+00  0.11368683772E-12  0.17120000000E+03  0.17120000000E+03 0.  0.
         13    1    1    2    0    0  0.19406078381E+02 -0.12118813293E+02  0.42377112558E+02  0.48159031827E+02  0.10566000000E+00 0. -1.
        994    1    1    2    0    0 -0.37921716501E+01  0.18250107548E+02  0.70701958457E+01  0.17235682366E+03  0.17120000000E+03 0.  0.
        998    1    1    2    0    0 -0.15613906730E+02 -0.61312942553E+01  0.14505526879E+04  0.14506841445E+04  0.10000000000E+02 0. -1.
</event>
<event>
 5    1  0.1666761E-008  0.3823191E+03  0.7957747E-01  0.3441122E+00
         13   -1    0    0    0    0  0.00000000000E+00  0.00000000000E+00  0.14999999963E+04  0.15000000000E+04  0.10566000000E+00 0. -1.
        994   -1    0    0    0    0 -0.00000000000E+00 -0.00000000000E+00  0.11368683772E-12  0.17120000000E+03  0.17120000000E+03 0.  0.
         13    1    1    2    0    0  0.23525688610E+02 -0.52721782652E+01  0.93879277591E+02  0.96925661273E+02  0.10566000000E+00 0. -1.
        994    1    1    2    0    0 -0.18143426461E+02  0.13870373474E+02  0.46992476038E+01  0.17278047955E+03  0.17120000000E+03 0.  0.
        998    1    1    2    0    0 -0.53822621488E+01 -0.85981952092E+01  0.14014214711E+04  0.14014938592E+04  0.10000000000E+02 0. -1.
</event>
<event>
 5    1  0.1666761E-008  0.3836071E+03  0.7957747E-01  0.3435601E+00
         13   -1    0    0    0    0  0.00000000000E+00  0.00000000000E+00  0.14999999963E+04  0.15000000000E+04  0.10566000000E+00 0. -1.
        994   -1    0    0    0    0 -0.00000000000E+00 -0.00000000000E+00  0.11368683772E-12  0.17120000000E+03  0.17120000000E+03 0.  0.
         13    1    1    2    0    0  0.12546793490E+02  0.16228781362E+02  0.10888090531E+03  0.11079647141E+03  0.10566000000E+00 0. -1.
        994    1    1    2    0    0  0.90060304662E+01  0.10183113738E+02  0.29340240543E+01  0.17176394525E+03  0.17120000000E+03 0.  0.
        998    1    1    2    0    0 -0.21552823956E+02 -0.26411895100E+02  0.13881850669E+04  0.13886395833E+04  0.10000000000E+02 0. -1.
</event>
<event>
 5    1  0.1666761E-008  0.3753102E+03  0.7957747E-01  0.3471837E+00
         13   -1    0    0    0    0  0.00000000000E+00  0.00000000000E+00  0.14999999963E+04  0.15000000000E+04  0.10566000000E+00 0. -1.
        994   -1    0    0    0    0 -0.00000000000E+00 -0.00000000000E+00  0.11368683772E-12  0.17120000000E+03  0.17120000000E+03 0.  0.
         13    1    1    2    0    0  0.37287421415E+02 -0.65421424850E+02  0.35572419062E+03  0.36360696581E+03  0.10566000000E+00 0. -1.
        994    1    1    2    0    0 -0.32476951303E+02  0.58296285662E+02  0.21794408745E+02  0.18503417398E+03  0.17120000000E+03 0.  0.
        998    1    1    2    0    0 -0.48104701125E+01  0.71251391882E+01  0.11224813969E+04  0.11225588602E+04  0.10000000000E+02 0. -1.
</event>
<event>
 5    1  0.1666761E-008  0.3833230E+03  0.7957747E-01  0.3436816E+00
         13   -1    0    0    0    0  0.00000000000E+00  0.00000000000E+00  0.14999999963E+04  0.15000000000E+04  0.10566000000E+00 0. -1.
        994   -1    0    0    0    0 -0.00000000000E+00 -0.00000000000E+00  0.11368683772E-12  0.17120000000E+03  0.17120000000E+03 0.  0.
         13    1    1    2    0    0  0.10354713225E+02  0.17497887604E+02  0.32637068367E+01  0.20592695378E+02  0.10566000000E+00 0. -1.
        994    1    1    2    0    0 -0.89463611149E+01 -0.18575347330E+02  0.19725459726E+02  0.17356155872E+03  0.17120000000E+03 0.  0.
        998    1    1    2    0    0 -0.14083521098E+01  0.10774597259E+01  0.14770108297E+04  0.14770457459E+04  0.10000000000E+02 0. -1.
</event>
<event>
 5    1  0.1666761E-008  0.3854352E+03  0.7957747E-01  0.3427828E+00
         13   -1    0    0    0    0  0.00000000000E+00  0.00000000000E+00  0.14999999963E+04  0.15000000000E+04  0.10566000000E+00 0.  1.
        994   -1    0    0    0    0 -0.00000000000E+00 -0.00000000000E+00  0.11368683772E-12  0.17120000000E+03  0.17120000000E+03 0.  0.
         13    1    1    2    0    0  0.56418824417E+01 -0.15563206757E+02  0.98150375932E+02  0.99536685205E+02  0.10566000000E+00 0.  1.
        994    1    1    2    0    0 -0.10541723890E+01  0.98311443582E+01  0.17353297436E+01  0.17149406418E+03  0.17120000000E+03 0.  0.
        998    1    1    2    0    0 -0.45877100528E+01  0.57320623984E+01  0.14001142906E+04  0.14001692506E+04  0.10000000000E+02 0.  1.
</event>
<event>
 5    1  0.1666761E-008  0.3826507E+03  0.7957747E-01  0.3439697E+00
         13   -1    0    0    0    0  0.00000000000E+00  0.00000000000E+00  0.14999999963E+04  0.15000000000E+04  0.10566000000E+00 0.  1.
        994   -1    0    0    0    0 -0.00000000000E+00 -0.00000000000E+00  0.11368683772E-12  0.17120000000E+03  0.17120000000E+03 0.  0.
         13    1    1    2    0    0 -0.12628328313E+02  0.26883352089E+02  0.17668941197E+03  0.17916849266E+03  0.10566000000E+00 0.  1.
        994    1    1    2    0    0  0.14748456457E+01 -0.29052742563E+01  0.28362055491E+01  0.17125448855E+03  0.17120000000E+03 0.  0.
        998    1    1    2    0    0  0.11153482668E+02 -0.23978077833E+02  0.13204743788E+04  0.13207770188E+04  0.10000000000E+02 0.  1.
</event>
<event>
 5    1  0.1666761E-008  0.3817507E+03  0.7957747E-01  0.3443571E+00
         13   -1    0    0    0    0  0.00000000000E+00  0.00000000000E+00  0.14999999963E+04  0.15000000000E+04  0.10566000000E+00 0. -1.
        994   -1    0    0    0    0 -0.00000000000E+00 -0.00000000000E+00  0.11368683772E-12  0.17120000000E+03  0.17120000000E+03 0.  0.
         13    1    1    2    0    0  0.25028934915E+02  0.15120511109E+02  0.11764112136E+03  0.12122096369E+03  0.10566000000E+00 0. -1.
        994    1    1    2    0    0 -0.24648595550E+02 -0.25996318317E+02  0.75292353749E+01  0.17506996091E+03  0.17120000000E+03 0.  0.
        998    1    1    2    0    0 -0.38033936546E+00  0.10875807209E+02  0.13748296395E+04  0.13749090754E+04  0.10000000000E+02 0. -1.
</event>
<event>
 5    1  0.1666761E-008  0.3735721E+03  0.7957747E-01  0.3479634E+00
         13   -1    0    0    0    0  0.00000000000E+00  0.00000000000E+00  0.14999999963E+04  0.15000000000E+04  0.10566000000E+00 0.  1.
        994   -1    0    0    0    0 -0.00000000000E+00 -0.00000000000E+00  0.11368683772E-12  0.17120000000E+03  0.17120000000E+03 0.  0.
         13    1    1    2    0    0 -0.33300501323E+02  0.71651361817E+02  0.38636488446E+03  0.39436109867E+03  0.10566000000E+00 0.  1.
        994    1    1    2    0    0  0.31228842692E+02 -0.46024776560E+02  0.18054879184E+02  0.18091141295E+03  0.17120000000E+03 0.  0.
        998    1    1    2    0    0  0.20716586317E+01 -0.25626585257E+02  0.10955802326E+04  0.10959274884E+04  0.10000000000E+02 0.  1.
</event>
<event>
 5    1  0.1666761E-008  0.3703879E+03  0.7957747E-01  0.3494110E+00
         13   -1    0    0    0    0  0.00000000000E+00  0.00000000000E+00  0.14999999963E+04  0.15000000000E+04  0.10566000000E+00 0.  1.
        994   -1    0    0    0    0 -0.00000000000E+00 -0.00000000000E+00  0.11368683772E-12  0.17120000000E+03  0.17120000000E+03 0.  0.
         13    1    1    2    0    0 -0.67261055593E+02  0.47748600510E+02  0.28287705475E+03  0.29465813703E+03  0.10566000000E+00 0.  1.
        994    1    1    2    0    0  0.74126964977E+02 -0.53947511507E+02  0.38676007220E+02  0.19801619749E+03  0.17120000000E+03 0.  0.
        998    1    1    2    0    0 -0.68659093840E+01  0.61989109965E+01  0.11784469343E+04  0.11785256655E+04  0.10000000000E+02 0.  1.
</event>
<event>
 5    1  0.1666761E-008  0.3859900E+03  0.7957747E-01  0.3425484E+00
         13   -1    0    0    0    0  0.00000000000E+00  0.00000000000E+00  0.14999999963E+04  0.15000000000E+04  0.10566000000E+00 0.  1.
        994   -1    0    0    0    0 -0.00000000000E+00 -0.00000000000E+00  0.11368683772E-12  0.17120000000E+03  0.17120000000E+03 0.  0.
         13    1    1    2    0    0 -0.76878201686E+01  0.66257067219E+01  0.47289370227E+02  0.48366292694E+02  0.10566000000E+00 0.  1.
        994    1    1    2    0    0  0.16626744043E+01 -0.53594588398E+00  0.11494127966E+01  0.17121277077E+03  0.17120000000E+03 0.  0.
        998    1    1    2    0    0  0.60251457642E+01 -0.60897608379E+01  0.14515612133E+04  0.14516209365E+04  0.10000000000E+02 0.  1.
</event>
<event>
 5    1  0.1666761E-008  0.3860808E+03  0.7957747E-01  0.3425101E+00
         13   -1    0    0    0    0  0.00000000000E+00  0.00000000000E+00  0.14999999963E+04  0.15000000000E+04  0.10566000000E+00 0. -1.
        994   -1    0    0    0    0 -0.00000000000E+00 -0.00000000000E+00  0.11368683772E-12  0.17120000000E+03  0.17120000000E+03 0.  0.
         13    1    1    2    0    0 -0.66384651505E+01 -0.85194349809E+01  0.56046929347E+02  0.57078187123E+02  0.10566000000E+00 0. -1.
        994    1    1    2    0    0  0.40111216042E+01 -0.49787531570E+00  0.11480324988E+01  0.17125155461E+03  0.17120000000E+03 0.  0.
        998    1    1    2    0    0  0.26273435463E+01  0.90173102966E+01  0.14428050344E+04  0.14428702583E+04  0.10000000000E+02 0. -1.
</event>
<event>
 5    1  0.1666761E-008  0.3852307E+03  0.7957747E-01  0.3428694E+00
         13   -1    0    0    0    0  0.00000000000E+00  0.00000000000E+00  0.14999999963E+04  0.15000000000E+04  0.10566000000E+00 0. -1.
        994   -1    0    0    0    0 -0.00000000000E+00 -0.00000000000E+00  0.11368683772E-12  0.17120000000E+03  0.17120000000E+03 0.  0.
         13    1    1    2    0    0 -0.44975684355E+01  0.13639206405E+02  0.73146524700E+02  0.74543150678E+02  0.10566000000E+00 0. -1.
        994    1    1    2    0    0 -0.17291343812E+01 -0.64555781155E-01  0.15254801518E+01  0.17121554007E+03  0.17120000000E+03 0.  0.
        998    1    1    2    0    0  0.62267028167E+01 -0.13574650623E+02  0.14253279914E+04  0.14254413092E+04  0.10000000000E+02 0. -1.
</event>
<event>
 5    1  0.1666761E-008  0.3852756E+03  0.7957747E-01  0.3428504E+00
         13   -1    0    0    0    0  0.00000000000E+00  0.00000000000E+00  0.14999999963E+04  0.15000000000E+04  0.10566000000E+00 0.  1.
        994   -1    0    0    0    0 -0.00000000000E+00 -0.00000000000E+00  0.11368683772E-12  0.17120000000E+03  0.17120000000E+03 0.  0.
         13    1    1    2    0    0 -0.11382871486E+02  0.30284013886E+01  0.40616995858E+02  0.42290572174E+02  0.10566000000E+00 0.  1.
        994    1    1    2    0    0  0.33539226653E+02 -0.66062314300E+01  0.53422588071E+01  0.17466110542E+03  0.17120000000E+03 0.  0.
        998    1    1    2    0    0 -0.22156355168E+02  0.35778300413E+01  0.14540407416E+04  0.14542483224E+04  0.10000000000E+02 0.  1.
</event>
<event>
 5    1  0.1666761E-008  0.3862241E+03  0.7957747E-01  0.3424497E+00
         13   -1    0    0    0    0  0.00000000000E+00  0.00000000000E+00  0.14999999963E+04  0.15000000000E+04  0.10566000000E+00 0.  1.
        994   -1    0    0    0    0 -0.00000000000E+00 -0.00000000000E+00  0.11368683772E-12  0.17120000000E+03  0.17120000000E+03 0.  0.
         13    1    1    2    0    0  0.86320051534E+01 -0.74623480553E+01  0.64600821464E+02  0.65600879943E+02  0.10566000000E+00 0.  1.
        994    1    1    2    0    0 -0.65663141855E+01  0.40353552489E+01  0.12182244025E+01  0.17137772505E+03  0.17120000000E+03 0.  0.
        998    1    1    2    0    0 -0.20656909679E+01  0.34269928065E+01  0.14341809504E+04  0.14342213950E+04  0.10000000000E+02 0.  1.
</event>
<event>
 5    1  0.1666761E-008  0.3728613E+03  0.7957747E-01  0.3482843E+00
         13   -1    0    0    0    0  0.00000000000E+00  0.00000000000E+00  0.14999999963E+04  0.15000000000E+04  0.10566000000E+00 0.  1.
        994   -1    0    0    0    0 -0.00000000000E+00 -0.00000000000E+00  0.11368683772E-12  0.17120000000E+03  0.17120000000E+03 0.  0.
         13    1    1    2    0    0 -0.68478197426E+01  0.47881551060E+02  0.17702047325E+03  0.18350965828E+03  0.10566000000E+00 0.  1.
        994    1    1    2    0    0  0.29621616948E+02  0.85680286782E+01  0.11043663975E+02  0.17430505965E+03  0.17120000000E+03 0.  0.
        998    1    1    2    0    0 -0.22773797205E+02 -0.56449579738E+02  0.13119358591E+04  0.13133852821E+04  0.10000000000E+02 0.  1.
</event>
<event>
 5    1  0.1666761E-008  0.3834514E+03  0.7957747E-01  0.3436267E+00
         13   -1    0    0    0    0  0.00000000000E+00  0.00000000000E+00  0.14999999963E+04  0.15000000000E+04  0.10566000000E+00 0.  1.
        994   -1    0    0    0    0 -0.00000000000E+00 -0.00000000000E+00  0.11368683772E-12  0.17120000000E+03  0.17120000000E+03 0.  0.
         13    1    1    2    0    0 -0.13055617978E+02 -0.18469535741E+02  0.10258970713E+03  0.10505347250E+03  0.10566000000E+00 0.  1.
        994    1    1    2    0    0  0.12792957043E+02  0.14066208350E+02  0.35967607411E+01  0.17229014672E+03  0.17120000000E+03 0.  0.
        998    1    1    2    0    0  0.26266093488E+00  0.44033273902E+01  0.13938135284E+04  0.13938563808E+04  0.10000000000E+02 0.  1.
</event>
<event>
 5    1  0.1666761E-008  0.3828510E+03  0.7957747E-01  0.3438838E+00
         13   -1    0    0    0    0  0.00000000000E+00  0.00000000000E+00  0.14999999963E+04  0.15000000000E+04  0.10566000000E+00 0. -1.
        994   -1    0    0    0    0 -0.00000000000E+00 -0.00000000000E+00  0.11368683772E-12  0.17120000000E+03  0.17120000000E+03 0.  0.
         13    1    1    2    0    0 -0.18417273889E+02  0.40532688352E+02  0.47238754605E+02  0.64912293930E+02  0.10566000000E+00 0. -1.
        994    1    1    2    0    0  0.17081841341E+02 -0.40890037655E+02  0.25127918457E+02  0.17861869098E+03  0.17120000000E+03 0.  0.
        998    1    1    2    0    0  0.13354325479E+01  0.35734930319E+00  0.14276333232E+04  0.14276690151E+04  0.10000000000E+02 0. -1.
</event>
<event>
 5    1  0.1666761E-008  0.3841267E+03  0.7957747E-01  0.3433384E+00
         13   -1    0    0    0    0  0.00000000000E+00  0.00000000000E+00  0.14999999963E+04  0.15000000000E+04  0.10566000000E+00 0.  1.
        994   -1    0    0    0    0 -0.00000000000E+00 -0.00000000000E+00  0.11368683772E-12  0.17120000000E+03  0.17120000000E+03 0.  0.
         13    1    1    2    0    0 -0.40214281373E+01  0.11768306789E+02  0.38186890052E+02  0.40161108860E+02  0.10566000000E+00 0.  1.
        994    1    1    2    0    0 -0.38349988935E+01 -0.25086972274E+01  0.21335919226E+01  0.17127461281E+03  0.17120000000E+03 0.  0.
        998    1    1    2    0    0  0.78564270309E+01 -0.92596095612E+01  0.14596795143E+04  0.14597642783E+04  0.10000000000E+02 0.  1.
</event>
<event>
 5    1  0.1666761E-008  0.3819454E+03  0.7957747E-01  0.3442731E+00
         13   -1    0    0    0    0  0.00000000000E+00  0.00000000000E+00  0.14999999963E+04  0.15000000000E+04  0.10566000000E+00 0. -1.
        994   -1    0    0    0    0 -0.00000000000E+00 -0.00000000000E+00  0.11368683772E-12  0.17120000000E+03  0.17120000000E+03 0.  0.
         13    1    1    2    0    0 -0.11903171722E+01 -0.11923510703E+02  0.21752706877E+02  0.24835023313E+02  0.10566000000E+00 0. -1.
        994    1    1    2    0    0  0.49674608685E+01  0.43937250963E+01  0.33004541343E+01  0.17136018641E+03  0.17120000000E+03 0.  0.
        998    1    1    2    0    0 -0.37771436963E+01  0.75297856064E+01  0.14749468353E+04  0.14750047903E+04  0.10000000000E+02 0. -1.
</event>
<event>
 5    1  0.1666761E-008  0.3726555E+03  0.7957747E-01  0.3483775E+00
         13   -1    0    0    0    0  0.00000000000E+00  0.00000000000E+00  0.14999999963E+04  0.15000000000E+04  0.10566000000E+00 0. -1.
        994   -1    0    0    0    0 -0.00000000000E+00 -0.00000000000E+00  0.11368683772E-12  0.17120000000E+03  0.17120000000E+03 0.  0.
         13    1    1    2    0    0 -0.14304351616E+02  0.16020020350E+01  0.95099173517E+01  0.17251973155E+02  0.10566000000E+00 0. -1.
        994    1    1    2    0    0  0.14191644739E+02  0.79604670448E-01  0.85780039448E+01  0.17200125368E+03  0.17120000000E+03 0.  0.
        998    1    1    2    0    0  0.11270687707E+00 -0.16816067054E+01  0.14819120750E+04  0.14819467732E+04  0.10000000000E+02 0. -1.
</event>
<event>
 5    1  0.1666761E-008  0.3785702E+03  0.7957747E-01  0.3457408E+00
         13   -1    0    0    0    0  0.00000000000E+00  0.00000000000E+00  0.14999999963E+04  0.15000000000E+04  0.10566000000E+00 0. -1.
        994   -1    0    0    0    0 -0.00000000000E+00 -0.00000000000E+00  0.11368683772E-12  0.17120000000E+03  0.17120000000E+03 0.  0.
         13    1    1    2    0    0  0.52888092946E+01  0.35449235543E+02  0.12410962929E+03  0.12918138817E+03  0.10566000000E+00 0. -1.
        994    1    1    2    0    0  0.48597496546E+01 -0.32050468626E+02  0.83943271703E+01  0.17444412984E+03  0.17120000000E+03 0.  0.
        998    1    1    2    0    0 -0.10148558949E+02 -0.33987669170E+01  0.13674960398E+04  0.13675744820E+04  0.10000000000E+02 0. -1.
</event>
<event>
 5    1  0.1666761E-008  0.3744406E+03  0.7957747E-01  0.3475728E+00
         13   -1    0    0    0    0  0.00000000000E+00  0.00000000000E+00  0.14999999963E+04  0.15000000000E+04  0.10566000000E+00 0.  1.
        994   -1    0    0    0    0 -0.00000000000E+00 -0.00000000000E+00  0.11368683772E-12  0.17120000000E+03  0.17120000000E+03 0.  0.
         13    1    1    2    0    0 -0.22659421954E+02  0.22651464083E+02  0.73751015796E+02  0.80409960350E+02  0.10566000000E+00 0.  1.
        994    1    1    2    0    0  0.43770207948E+01 -0.10136181724E+02  0.73815248126E+01  0.17171437738E+03  0.17120000000E+03 0.  0.
        998    1    1    2    0    0  0.18282401160E+02 -0.12515282359E+02  0.14188674557E+04  0.14190756623E+04  0.10000000000E+02 0.  1.
</event>
<event>
 5    1  0.1666761E-008  0.3847800E+03  0.7957747E-01  0.3430606E+00
         13   -1    0    0    0    0  0.00000000000E+00  0.00000000000E+00  0.14999999963E+04  0.15000000000E+04  0.10566000000E+00 0. -1.
        994   -1    0    0    0    0 -0.00000000000E+00 -0.00000000000E+00  0.11368683772E-12  0.17120000000E+03  0.17120000000E+03 0.  0.
         13    1    1    2    0    0  0.13632245444E+02 -0.81408356602E+01  0.78424591549E+02  0.80015867456E+02  0.10566000000E+00 0. -1.
        994    1    1    2    0    0  0.20715056009E+01  0.80879548524E+00  0.17557012380E+01  0.17122344399E+03  0.17120000000E+03 0.  0.
        998    1    1    2    0    0 -0.15703751045E+02  0.73320401750E+01  0.14198197035E+04  0.14199606886E+04  0.10000000000E+02 0. -1.
</event>
<event>
 5    1  0.1666761E-008  0.3800582E+03  0.7957747E-01  0.3450905E+00
         13   -1    0    0    0    0  0.00000000000E+00  0.00000000000E+00  0.14999999963E+04  0.15000000000E+04  0.10566000000E+00 0. -1.
        994   -1    0    0    0    0 -0.00000000000E+00 -0.00000000000E+00  0.11368683772E-12  0.17120000000E+03  0.17120000000E+03 0.  0.
         13    1    1    2    0    0 -0.52081237584E+01  0.19839687083E+02  0.50777488145E+02  0.54764059409E+02  0.10566000000E+00 0. -1.
        994    1    1    2    0    0  0.78430964960E+01 -0.61363319717E+01  0.44352898069E+01  0.17154672987E+03  0.17120000000E+03 0.  0.
        998    1    1    2    0    0 -0.26349727375E+01 -0.13703355111E+02  0.14447872183E+04  0.14448892107E+04  0.10000000000E+02 0. -1.
</event>
<event>
 5    1  0.1666761E-008  0.3845786E+03  0.7957747E-01  0.3431461E+00
         13   -1    0    0    0    0  0.00000000000E+00  0.00000000000E+00  0.14999999963E+04  0.15000000000E+04  0.10566000000E+00 0.  1.
        994   -1    0    0    0    0 -0.00000000000E+00 -0.00000000000E+00  0.11368683772E-12  0.17120000000E+03  0.17120000000E+03 0.  0.
         13    1    1    2    0    0 -0.16360587438E+02  0.43429825623E+01  0.75560318585E+02  0.77433217856E+02  0.10566000000E+00 0.  1.
        994    1    1    2    0    0  0.14170215153E+02 -0.64140851428E+01  0.26366108832E+01  0.17192535358E+03  0.17120000000E+03 0.  0.
        998    1    1    2    0    0  0.21903722851E+01  0.20711025805E+01  0.14218030668E+04  0.14218414286E+04  0.10000000000E+02 0.  1.
</event>
<event>
 5    1  0.1666761E-008  0.3852407E+03  0.7957747E-01  0.3428652E+00
         13   -1    0    0    0    0  0.00000000000E+00  0.00000000000E+00  0.14999999963E+04  0.15000000000E+04  0.10566000000E+00 0. -1.
        994   -1    0    0    0    0 -0.00000000000E+00 -0.00000000000E+00  0.11368683772E-12  0.17120000000E+03  0.17120000000E+03 0.  0.
         13    1    1    2    0    0  0.22804797059E+01 -0.16176886290E+02  0.89788685228E+02  0.91262869759E+02  0.10566000000E+00 0. -1.
        994    1    1    2    0    0  0.14777596907E+01  0.90839861995E+01  0.17890897861E+01  0.17145653508E+03  0.17120000000E+03 0.  0.
        998    1    1    2    0    0 -0.37582393966E+01  0.70929000907E+01  0.14084222213E+04  0.14084805952E+04  0.10000000000E+02 0. -1.
</event>
<event>
 5    1  0.1666761E-008  0.3820234E+03  0.7957747E-01  0.3442395E+00
         13   -1    0    0    0    0  0.00000000000E+00  0.00000000000E+00  0.14999999963E+04  0.15000000000E+04  0.10566000000E+00 0. -1.
        994   -1    0    0    0    0 -0.00000000000E+00 -0.00000000000E+00  0.11368683772E-12  0.17120000000E+03  0.17120000000E+03 0.  0.
         13    1    1    2    0    0  0.29427282356E+02 -0.26822617341E+01  0.12969303229E+03  0.13301674053E+03  0.10566000000E+00 0. -1.
        994    1    1    2    0    0 -0.27939539556E+02  0.60156330021E+01  0.58323312822E+01  0.17366710051E+03  0.17120000000E+03 0.  0.
        998    1    1    2    0    0 -0.14877428003E+01 -0.33333712680E+01  0.13644746327E+04  0.13645161590E+04  0.10000000000E+02 0. -1.
</event>
<event>
 5    1  0.1666761E-008  0.3762288E+03  0.7957747E-01  0.3467745E+00
         13   -1    0    0    0    0  0.00000000000E+00  0.00000000000E+00  0.14999999963E+04  0.15000000000E+04  0.10566000000E+00 0.  1.
        994   -1    0    0    0    0 -0.00000000000E+00 -0.00000000000E+00  0.11368683772E-12  0.17120000000E+03  0.17120000000E+03 0.  0.
         13    1    1    2    0    0  0.24220645205E+02  0.45252732592E+01  0.15027917832E+02  0.28861171677E+02  0.10566000000E+00 0.  1.
        994    1    1    2    0    0 -0.23304093059E+02  0.61065653249E+00  0.16215727338E+02  0.17353916984E+03  0.17120000000E+03 0.  0.
        998    1    1    2    0    0 -0.91655214563E+00 -0.51359297917E+01  0.14687563511E+04  0.14687996585E+04  0.10000000000E+02 0.  1.
</event>
<event>
 5    1  0.1666761E-008  0.3755734E+03  0.7957747E-01  0.3470662E+00
         13   -1    0    0    0    0  0.00000000000E+00  0.00000000000E+00  0.14999999963E+04  0.15000000000E+04  0.10566000000E+00 0. -1.
        994   -1    0    0    0    0 -0.00000000000E+00 -0.00000000000E+00  0.11368683772E-12  0.17120000000E+03  0.17120000000E+03 0.  0.
         13    1    1    2    0    0 -0.19391352754E+02  0.16969720144E+03  0.72913406054E+03  0.74887225489E+03  0.10566000000E+00 0. -1.
        994    1    1    2    0    0  0.19597373496E+02 -0.18962278504E+03  0.14175542197E+03  0.29282229648E+03  0.17120000000E+03 0.  0.
        998    1    1    2    0    0 -0.20602074212E+00  0.19925583602E+02  0.62911051377E+03  0.62950544863E+03  0.10000000000E+02 0. -1.
</event>
<event>
 5    1  0.1666761E-008  0.3789760E+03  0.7957747E-01  0.3455629E+00
         13   -1    0    0    0    0  0.00000000000E+00  0.00000000000E+00  0.14999999963E+04  0.15000000000E+04  0.10566000000E+00 0.  1.
        994   -1    0    0    0    0 -0.00000000000E+00 -0.00000000000E+00  0.11368683772E-12  0.17120000000E+03  0.17120000000E+03 0.  0.
         13    1    1    2    0    0  0.86286669986E+02  0.71709175302E+02  0.33649130834E+03  0.35470270226E+03  0.10566000000E+00 0.  1.
        994    1    1    2    0    0 -0.60261898382E+02 -0.75311315839E+02  0.50171294244E+02  0.20280505284E+03  0.17120000000E+03 0.  0.
        998    1    1    2    0    0 -0.26024771604E+02  0.36021405364E+01  0.11133373937E+04  0.11136922449E+04  0.10000000000E+02 0.  1.
</event>
<event>
 5    1  0.1666761E-008  0.3725961E+03  0.7957747E-01  0.3484044E+00
         13   -1    0    0    0    0  0.00000000000E+00  0.00000000000E+00  0.14999999963E+04  0.15000000000E+04  0.10566000000E+00 0.  1.
        994   -1    0    0    0    0 -0.00000000000E+00 -0.00000000000E+00  0.11368683772E-12  0.17120000000E+03  0.17120000000E+03 0.  0.
         13    1    1    2    0    0  0.62251228195E+02  0.31401009292E+02  0.24304667690E+03  0.25284963340E+03  0.10566000000E+00 0.  1.
        994    1    1    2    0    0 -0.64130446536E+02 -0.44969626071E+02  0.29244847526E+02  0.19052475574E+03  0.17120000000E+03 0.  0.
        998    1    1    2    0    0  0.18792183411E+01  0.13568616779E+02  0.12277084719E+04  0.12278256109E+04  0.10000000000E+02 0.  1.
</event>
<event>
 5    1  0.1666761E-008  0.3707411E+03  0.7957747E-01  0.3492492E+00
         13   -1    0    0    0    0  0.00000000000E+00  0.00000000000E+00  0.14999999963E+04  0.15000000000E+04  0.10566000000E+00 0.  1.
        994   -1    0    0    0    0 -0.00000000000E+00 -0.00000000000E+00  0.11368683772E-12  0.17120000000E+03  0.17120000000E+03 0.  0.
         13    1    1    2    0    0  0.30682728449E+02  0.52584935333E+02  0.29693582915E+03  0.30311302025E+03  0.10566000000E+00 0.  1.
        994    1    1    2    0    0  0.51476046177E+02 -0.14676423057E+02  0.18829409467E+02  0.18035844140E+03  0.17120000000E+03 0.  0.
        998    1    1    2    0    0 -0.82158774626E+02 -0.37908512276E+02  0.11842347577E+04  0.11877285383E+04  0.10000000000E+02 0.  1.
</event>
<event>
 5    1  0.1666761E-008  0.3859331E+03  0.7957747E-01  0.3425725E+00
         13   -1    0    0    0    0  0.00000000000E+00  0.00000000000E+00  0.14999999963E+04  0.15000000000E+04  0.10566000000E+00 0. -1.
        994   -1    0    0    0    0 -0.00000000000E+00 -0.00000000000E+00  0.11368683772E-12  0.17120000000E+03  0.17120000000E+03 0.  0.
         13    1    1    2    0    0  0.20646966647E+02  0.76691102858E+01  0.13226535303E+03  0.13408671545E+03  0.10566000000E+00 0. -1.
        994    1    1    2    0    0 -0.59721560594E+02 -0.13836365829E+02  0.13587738474E+02  0.18235179313E+03  0.17120000000E+03 0.  0.
        998    1    1    2    0    0  0.39074593948E+02  0.61672555436E+01  0.13541469048E+04  0.13547614914E+04  0.10000000000E+02 0. -1.
</event>
<event>
 5    1  0.1666761E-008  0.3862770E+03  0.7957747E-01  0.3424274E+00
         13   -1    0    0    0    0  0.00000000000E+00  0.00000000000E+00  0.14999999963E+04  0.15000000000E+04  0.10566000000E+00 0. -1.
        994   -1    0    0    0    0 -0.00000000000E+00 -0.00000000000E+00  0.11368683772E-12  0.17120000000E+03  0.17120000000E+03 0.  0.
         13    1    1    2    0    0  0.82540872540E+01 -0.60514217292E+01  0.55989476234E+02  0.56917328419E+02  0.10566000000E+00 0. -1.
        994    1    1    2    0    0 -0.26890285685E+01 -0.26151513484E+01  0.10435214577E+01  0.17124426656E+03  0.17120000000E+03 0.  0.
        998    1    1    2    0    0 -0.55650586856E+01  0.86665730776E+01  0.14429669986E+04  0.14430384050E+04  0.10000000000E+02 0. -1.
</event>
<event>
 5    1  0.1666761E-008  0.3832175E+03  0.7957747E-01  0.3437268E+00
         13   -1    0    0    0    0  0.00000000000E+00  0.00000000000E+00  0.14999999963E+04  0.15000000000E+04  0.10566000000E+00 0. -1.
        994   -1    0    0    0    0 -0.00000000000E+00 -0.00000000000E+00  0.11368683772E-12  0.17120000000E+03  0.17120000000E+03 0.  0.
         13    1    1    2    0    0 -0.88084141639E+01  0.92868389991E+01  0.30768831611E+02  0.33325151184E+02  0.10566000000E+00 0. -1.
        994    1    1    2    0    0  0.10147010425E+02 -0.13686639120E+02  0.34785125967E+01  0.17208087041E+03  0.17120000000E+03 0.  0.
        998    1    1    2    0    0 -0.13385962610E+01  0.43998001205E+01  0.14657526521E+04  0.14657939784E+04  0.10000000000E+02 0. -1.
</event>
<event>
 5    1  0.1666761E-008  0.3795368E+03  0.7957747E-01  0.3453178E+00
         13   -1    0    0    0    0  0.00000000000E+00  0.00000000000E+00  0.14999999963E+04  0.15000000000E+04  0.10566000000E+00 0.  1.
        994   -1    0    0    0    0 -0.00000000000E+00 -0.00000000000E+00  0.11368683772E-12  0.17120000000E+03  0.17120000000E+03 0.  0.
         13    1    1    2    0    0  0.25635799961E+01 -0.23209892008E+02  0.60036934663E+02  0.64418287133E+02  0.10566000000E+00 0.  1.
        994    1    1    2    0    0 -0.67224644476E+01  0.17595983482E+02  0.55559366352E+01  0.17232271642E+03  0.17120000000E+03 0.  0.
        998    1    1    2    0    0  0.41588844515E+01  0.56139085261E+01  0.14344071250E+04  0.14344589964E+04  0.10000000000E+02 0.  1.
</event>
<event>
 5    1  0.1666761E-008  0.3754228E+03  0.7957747E-01  0.3471334E+00
         13   -1    0    0    0    0  0.00000000000E+00  0.00000000000E+00  0.14999999963E+04  0.15000000000E+04  0.10566000000E+00 0. -1.
        994   -1    0    0    0    0 -0.00000000000E+00 -0.00000000000E+00  0.11368683772E-12  0.17120000000E+03  0.17120000000E+03 0.  0.
         13    1    1    2    0    0 -0.20921930778E+02 -0.36091419103E+02  0.13805490705E+03  0.14422026988E+03  0.10566000000E+00 0. -1.
        994    1    1    2    0    0  0.32944575567E+02  0.72420192536E+00  0.10156450651E+02  0.17463809154E+03  0.17120000000E+03 0.  0.
        998    1    1    2    0    0 -0.12022644788E+02  0.35367217177E+02  0.13517886386E+04  0.13523416386E+04  0.10000000000E+02 0. -1.
</event>
<event>
 5    1  0.1666761E-008  0.3742801E+03  0.7957747E-01  0.3476449E+00
         13   -1    0    0    0    0  0.00000000000E+00  0.00000000000E+00  0.14999999963E+04  0.15000000000E+04  0.10566000000E+00 0.  1.
        994   -1    0    0    0    0 -0.00000000000E+00 -0.00000000000E+00  0.11368683772E-12  0.17120000000E+03  0.17120000000E+03 0.  0.
         13    1    1    2    0    0  0.87774063966E+02  0.59840753280E+02  0.59399799276E+03  0.60342259539E+03  0.10566000000E+00 0.  1.
        994    1    1    2    0    0 -0.80982312847E+02 -0.38627392819E+02  0.34995743152E+02  0.19642900119E+03  0.17120000000E+03 0.  0.
        998    1    1    2    0    0 -0.67917511189E+01 -0.21213360461E+02  0.87100626037E+03  0.87134840342E+03  0.10000000000E+02 0.  1.
</event>
<event>
 5    1  0.1666761E-008  0.3753257E+03  0.7957747E-01  0.3471768E+00
         13   -1    0    0    0    0  0.00000000000E+00  0.00000000000E+00  0.14999999963E+04  0.15000000000E+04  0.10566000000E+00 0.  1.
        994   -1    0    0    0    0 -0.00000000000E+00 -0.00000000000E+00  0.11368683772E-12  0.17120000000E+03  0.17120000000E+03 0.  0.
         13    1    1    2    0    0 -0.54323405609E+02  0.19920126230E+02  0.15868346893E+03  0.16890322170E+03  0.10566000000E+00 0.  1.
        994    1    1    2    0    0 -0.45929101186E+02 -0.13945031863E+02  0.22036588289E+02  0.17916193087E+03  0.17120000000E+03 0.  0.
        998    1    1    2    0    0  0.10025250680E+03 -0.59750943673E+01  0.13192799391E+04  0.13231348474E+04  0.10000000000E+02 0.  1.
</event>
<event>
 5    1  0.1666761E-008  0.3834497E+03  0.7957747E-01  0.3436274E+00
         13   -1    0    0    0    0  0.00000000000E+00  0.00000000000E+00  0.14999999963E+04  0.15000000000E+04  0.10566000000E+00 0.  1.
        994   -1    0    0    0    0 -0.00000000000E+00 -0.00000000000E+00  0.11368683772E-12  0.17120000000E+03  0.17120000000E+03 0.  0.
         13    1    1    2    0    0  0.87699417314E+01 -0.90736308539E+01  0.31047724768E+02  0.33514400370E+02  0.10566000000E+00 0.  1.
        994    1    1    2    0    0 -0.16169131975E+02  0.12009161880E+02  0.37437531757E+01  0.17242133420E+03  0.17120000000E+03 0.  0.
        998    1    1    2    0    0  0.73991902435E+01 -0.29355310261E+01  0.14652085183E+04  0.14652642654E+04  0.10000000000E+02 0.  1.
</event>
<event>
 5    1  0.1666761E-008  0.3800101E+03  0.7957747E-01  0.3451115E+00
         13   -1    0    0    0    0  0.00000000000E+00  0.00000000000E+00  0.14999999963E+04  0.15000000000E+04  0.10566000000E+00 0.  1.
        994   -1    0    0    0    0 -0.00000000000E+00 -0.00000000000E+00  0.11368683772E-12  0.17120000000E+03  0.17120000000E+03 0.  0.
         13    1    1    2    0    0  0.28566984355E+02 -0.29098813324E+02  0.21201819590E+03  0.21590400665E+03  0.10566000000E+00 0.  1.
        994    1    1    2    0    0 -0.10929126058E+02  0.11599607730E+02  0.49775684502E+01  0.17201224632E+03  0.17120000000E+03 0.  0.
        998    1    1    2    0    0 -0.17637858296E+02  0.17499205593E+02  0.12830042319E+04  0.12832837470E+04  0.10000000000E+02 0.  1.
</event>
<event>
 5    1  0.1666761E-008  0.3930992E+03  0.7957747E-01  0.3396032E+00
         13   -1    0    0    0    0  0.00000000000E+00  0.00000000000E+00  0.14999999963E+04  0.15000000000E+04  0.10566000000E+00 0.  1.
        994   -1    0    0    0    0 -0.00000000000E+00 -0.00000000000E+00  0.11368683772E-12  0.17120000000E+03  0.17120000000E+03 0.  0.
         13    1    1    2    0    0 -0.20483602031E+02  0.23824910883E+02  0.11035120551E+02  0.33301492164E+02  0.10566000000E+00 0.  1.
        994    1    1    2    0    0  0.10033221082E+02 -0.23486833201E+02  0.26204850493E+02  0.17506693305E+03  0.17120000000E+03 0.  0.
        998    1    1    2    0    0  0.10450380949E+02 -0.33807768208E+00  0.14627600252E+04  0.14628315748E+04  0.10000000000E+02 0.  1.
</event>
<event>
 5    1  0.1666761E-008  0.3852705E+03  0.7957747E-01  0.3428526E+00
         13   -1    0    0    0    0  0.00000000000E+00  0.00000000000E+00  0.14999999963E+04  0.15000000000E+04  0.10566000000E+00 0.  1.
        994   -1    0    0    0    0 -0.00000000000E+00 -0.00000000000E+00  0.11368683772E-12  0.17120000000E+03  0.17120000000E+03 0.  0.
         13    1    1    2    0    0 -0.11196588801E+02 -0.85133930044E+01  0.66465043784E+02  0.67937137638E+02  0.10566000000E+00 0.  1.
        994    1    1    2    0    0  0.12404740242E+02 -0.13995075694E+01  0.20081193716E+01  0.17166627143E+03  0.17120000000E+03 0.  0.
        998    1    1    2    0    0 -0.12081514412E+01  0.99129005738E+01  0.14315268331E+04  0.14315965909E+04  0.10000000000E+02 0.  1.
</event>
<event>
 5    1  0.1666761E-008  0.3817713E+03  0.7957747E-01  0.3443482E+00
         13   -1    0    0    0    0  0.00000000000E+00  0.00000000000E+00  0.14999999963E+04  0.15000000000E+04  0.10566000000E+00 0. -1.
        994   -1    0    0    0    0 -0.00000000000E+00 -0.00000000000E+00  0.11368683772E-12  0.17120000000E+03  0.17120000000E+03 0.  0.
         13    1    1    2    0    0 -0.27097417978E+01  0.10115424215E+02  0.15801773918E+02  0.18957102380E+02  0.10566000000E+00 0. -1.
        994    1    1    2    0    0 -0.44161381990E+01 -0.33874094089E+01  0.33446123641E+01  0.17132309608E+03  0.17120000000E+03 0.  0.
        998    1    1    2    0    0  0.71258799968E+01 -0.67280148057E+01  0.14808536100E+04  0.14809198015E+04  0.10000000000E+02 0. -1.
</event>
<event>
 5    1  0.1666761E-008  0.3783223E+03  0.7957747E-01  0.3458496E+00
         13   -1    0    0    0    0  0.00000000000E+00  0.00000000000E+00  0.14999999963E+04  0.15000000000E+04  0.10566000000E+00 0.  1.
        994   -1    0    0    0    0 -0.00000000000E+00 -0.00000000000E+00  0.11368683772E-12  0.17120000000E+03  0.17120000000E+03 0.  0.
         13    1    1    2    0    0 -0.15374420065E+00  0.30353680782E+02  0.89057641761E+02  0.94088491828E+02  0.10566000000E+00 0.  1.
        994    1    1    2    0    0 -0.68507184570E+01 -0.22745935011E+02  0.68817273779E+01  0.17297718946E+03  0.17120000000E+03 0.  0.
        998    1    1    2    0    0  0.70044626577E+01 -0.76077457710E+01  0.14040606271E+04  0.14041343187E+04  0.10000000000E+02 0.  1.
</event>
<event>
 5    1  0.1666761E-008  0.3829600E+03  0.7957747E-01  0.3438370E+00
         13   -1    0    0    0    0  0.00000000000E+00  0.00000000000E+00  0.14999999963E+04  0.15000000000E+04  0.10566000000E+00 0.  1.
        994   -1    0    0    0    0 -0.00000000000E+00 -0.00000000000E+00  0.11368683772E-12  0.17120000000E+03  0.17120000000E+03 0.  0.
         13    1    1    2    0    0 -0.37277545374E+02 -0.60991205159E+02  0.42881533253E+03  0.43473226596E+03  0.10566000000E+00 0.  1.
        994    1    1    2    0    0  0.31612859589E+02  0.10849250647E+03  0.46138854123E+02  0.21025753426E+03  0.17120000000E+03 0.  0.
        998    1    1    2    0    0  0.56646857844E+01 -0.47501301314E+02  0.10250458096E+04  0.10262101998E+04  0.10000000000E+02 0.  1.
</event>
<event>
 5    1  0.1666761E-008  0.3852910E+03  0.7957747E-01  0.3428439E+00
         13   -1    0    0    0    0  0.00000000000E+00  0.00000000000E+00  0.14999999963E+04  0.15000000000E+04  0.10566000000E+00 0.  1.
        994   -1    0    0    0    0 -0.00000000000E+00 -0.00000000000E+00  0.11368683772E-12  0.17120000000E+03  0.17120000000E+03 0.  0.
         13    1    1    2    0    0 -0.79450442484E+01  0.14367180844E+02  0.93216160817E+02  0.94650955701E+02  0.10566000000E+00 0.  1.
        994    1    1    2    0    0 -0.54738392485E+01 -0.11858534229E+02  0.20463976437E+01  0.17170968375E+03  0.17120000000E+03 0.  0.
        998    1    1    2    0    0  0.13418883497E+02 -0.25086466157E+01  0.14047374378E+04  0.14048393605E+04  0.10000000000E+02 0.  1.
</event>
<event>
 5    1  0.1666761E-008  0.3772856E+03  0.7957747E-01  0.3463063E+00
         13   -1    0    0    0    0  0.00000000000E+00  0.00000000000E+00  0.14999999963E+04  0.15000000000E+04  0.10566000000E+00 0. -1.
        994   -1    0    0    0    0 -0.00000000000E+00 -0.00000000000E+00  0.11368683772E-12  0.17120000000E+03  0.17120000000E+03 0.  0.
         13    1    1    2    0    0 -0.35221457078E+02 -0.34518765116E+02  0.29721399494E+03  0.30127772260E+03  0.10566000000E+00 0. -1.
        994    1    1    2    0    0 -0.49067488031E+01 -0.52844691036E+01  0.56850867222E+01  0.17144609068E+03  0.17120000000E+03 0.  0.
        998    1    1    2    0    0  0.40128205881E+02  0.39803234219E+02  0.11971009146E+04  0.11984761867E+04  0.10000000000E+02 0. -1.
</event>
<event>
 5    1  0.1666761E-008  0.3777609E+03  0.7957747E-01  0.3460966E+00
         13   -1    0    0    0    0  0.00000000000E+00  0.00000000000E+00  0.14999999963E+04  0.15000000000E+04  0.10566000000E+00 0. -1.
        994   -1    0    0    0    0 -0.00000000000E+00 -0.00000000000E+00  0.11368683772E-12  0.17120000000E+03  0.17120000000E+03 0.  0.
         13    1    1    2    0    0 -0.93438722832E+01 -0.32282627930E+02  0.10214444853E+03  0.10753127706E+03  0.10566000000E+00 0. -1.
        994    1    1    2    0    0  0.13819171434E-02  0.28140476674E+02  0.79392608972E+01  0.17367889421E+03  0.17120000000E+03 0.  0.
        998    1    1    2    0    0  0.93424903661E+01  0.41421512564E+01  0.13899162868E+04  0.13899898287E+04  0.10000000000E+02 0. -1.
</event>
<event>
 5    1  0.1666761E-008  0.3836507E+03  0.7957747E-01  0.3435415E+00
         13   -1    0    0    0    0  0.00000000000E+00  0.00000000000E+00  0.14999999963E+04  0.15000000000E+04  0.10566000000E+00 0. -1.
        994   -1    0    0    0    0 -0.00000000000E+00 -0.00000000000E+00  0.11368683772E-12  0.17120000000E+03  0.17120000000E+03 0.  0.
         13    1    1    2    0    0  0.10451442087E+02 -0.74474153302E+01  0.36899296987E+02  0.39067453449E+02  0.10566000000E+00 0. -1.
        994    1    1    2    0    0  0.39314386589E+01  0.17737160909E+00  0.23526635752E+01  0.17126138706E+03  0.17120000000E+03 0.  0.
        998    1    1    2    0    0 -0.14382880746E+02  0.72700437212E+01  0.14607480357E+04  0.14608711595E+04  0.10000000000E+02 0. -1.
</event>
<event>
 5    1  0.1666761E-008  0.3856960E+03  0.7957747E-01  0.3426726E+00
         13   -1    0    0    0    0  0.00000000000E+00  0.00000000000E+00  0.14999999963E+04  0.15000000000E+04  0.10566000000E+00 0. -1.
        994   -1    0    0    0    0 -0.00000000000E+00 -0.00000000000E+00  0.11368683772E-12  0.17120000000E+03  0.17120000000E+03 0.  0.
         13    1    1    2    0    0  0.60375973557E+01 -0.93502981012E+01  0.51514108847E+02  0.52702895848E+02  0.10566000000E+00 0. -1.
        994    1    1    2    0    0 -0.16899970942E+01 -0.32394491536E+01  0.13287650907E+01  0.17124414074E+03  0.17120000000E+03 0.  0.
        998    1    1    2    0    0 -0.43476002616E+01  0.12589747255E+02  0.14471571223E+04  0.14472529634E+04  0.10000000000E+02 0. -1.
</event>
<event>
 5    1  0.1945207E-008  0.3860106E+03  0.7957747E-01  0.3425398E+00
         13   -1    0    0    0    0  0.00000000000E+00  0.00000000000E+00  0.14999999963E+04  0.15000000000E+04  0.10566000000E+00 0. -1.
        994   -1    0    0    0    0 -0.00000000000E+00 -0.00000000000E+00  0.11368683772E-12  0.17120000000E+03  0.17120000000E+03 0.  0.
         13    1    1    2    0    0  0.14538870915E+01  0.12277639713E+02  0.72683758540E+02  0.73727838325E+02  0.10566000000E+00 0. -1.
        994    1    1    2    0    0 -0.14450770052E+01 -0.67089417605E+00  0.11375546585E+01  0.17121119232E+03  0.17120000000E+03 0.  0.
        998    1    1    2    0    0 -0.88100863636E-02 -0.11606745537E+02  0.14261786831E+04  0.14262609694E+04  0.10000000000E+02 0. -1.
</event>
<event>
 5    1  0.1666761E-008  0.3766051E+03  0.7957747E-01  0.3466075E+00
         13   -1    0    0    0    0  0.00000000000E+00  0.00000000000E+00  0.14999999963E+04  0.15000000000E+04  0.10566000000E+00 0. -1.
        994   -1    0    0    0    0 -0.00000000000E+00 -0.00000000000E+00  0.11368683772E-12  0.17120000000E+03  0.17120000000E+03 0.  0.
         13    1    1    2    0    0  0.23282732899E+02 -0.38553088619E+02  0.15364955888E+03  0.16011441035E+03  0.10566000000E+00 0. -1.
        994    1    1    2    0    0 -0.19767159186E+02  0.42184557487E+02  0.13229733848E+02  0.17791779936E+03  0.17120000000E+03 0.  0.
        998    1    1    2    0    0 -0.35155737129E+01 -0.36314688684E+01  0.13331207036E+04  0.13331677903E+04  0.10000000000E+02 0. -1.
</event>
<event>
 5    1  0.1666761E-008  0.3854546E+03  0.7957747E-01  0.3427746E+00
         13   -1    0    0    0    0  0.00000000000E+00  0.00000000000E+00  0.14999999963E+04  0.15000000000E+04  0.10566000000E+00 0. -1.
        994   -1    0    0    0    0 -0.00000000000E+00 -0.00000000000E+00  0.11368683772E-12  0.17120000000E+03  0.17120000000E+03 0.  0.
         13    1    1    2    0    0  0.27098496347E+01 -0.10422163975E+02  0.40700364278E+02  0.42101016655E+02  0.10566000000E+00 0. -1.
        994    1    1    2    0    0 -0.10824333048E+02  0.79653416885E+01  0.19979222505E+01  0.17173830251E+03  0.17120000000E+03 0.  0.
        998    1    1    2    0    0  0.81144834133E+01  0.24568222869E+01  0.14573017098E+04  0.14573606808E+04  0.10000000000E+02 0. -1.
</event>
<event>
 5    1  0.1666761E-008  0.3845093E+03  0.7957747E-01  0.3431756E+00
         13   -1    0    0    0    0  0.00000000000E+00  0.00000000000E+00  0.14999999963E+04  0.15000000000E+04  0.10566000000E+00 0. -1.
        994   -1    0    0    0    0 -0.00000000000E+00 -0.00000000000E+00  0.11368683772E-12  0.17120000000E+03  0.17120000000E+03 0.  0.
         13    1    1    2    0    0  0.38583843222E+01 -0.10855273574E+02  0.33962192955E+02  0.35863153909E+02  0.10566000000E+00 0. -1.
        994    1    1    2    0    0 -0.55202209228E+01  0.13902982645E+02  0.26113582860E+01  0.17187211803E+03  0.17120000000E+03 0.  0.
        998    1    1    2    0    0  0.16618366006E+01 -0.30477090707E+01  0.14634264450E+04  0.14634647281E+04  0.10000000000E+02 0. -1.
</event>
<event>
 5    1  0.1666761E-008  0.3847557E+03  0.7957747E-01  0.3430709E+00
         13   -1    0    0    0    0  0.00000000000E+00  0.00000000000E+00  0.14999999963E+04  0.15000000000E+04  0.10566000000E+00 0. -1.
        994   -1    0    0    0    0 -0.00000000000E+00 -0.00000000000E+00  0.11368683772E-12  0.17120000000E+03  0.17120000000E+03 0.  0.
         13    1    1    2    0    0 -0.12796799016E+02 -0.69878532235E+00  0.48224506367E+02  0.49898502426E+02  0.10566000000E+00 0. -1.
        994    1    1    2    0    0  0.25859153112E+01 -0.36993013270E+00  0.17739370396E+01  0.17122911744E+03  0.17120000000E+03 0.  0.
        998    1    1    2    0    0  0.10210883705E+02  0.10687154550E+01  0.14500015529E+04  0.14500723801E+04  0.10000000000E+02 0. -1.
</event>
<event>
 5    1  0.1666761E-008  0.3853442E+03  0.7957747E-01  0.3428214E+00
         13   -1    0    0    0    0  0.00000000000E+00  0.00000000000E+00  0.14999999963E+04  0.15000000000E+04  0.10566000000E+00 0.  1.
        994   -1    0    0    0    0 -0.00000000000E+00 -0.00000000000E+00  0.11368683772E-12  0.17120000000E+03  0.17120000000E+03 0.  0.
         13    1    1    2    0    0  0.25928954796E+00 -0.11920592627E+02  0.49866876292E+02  0.51272646459E+02  0.10566000000E+00 0.  1.
        994    1    1    2    0    0 -0.75198762945E+00  0.44065168224E+01  0.15249941334E+01  0.17126514089E+03  0.17120000000E+03 0.  0.
        998    1    1    2    0    0  0.49269808149E+00  0.75140758049E+01  0.14486081259E+04  0.14486622127E+04  0.10000000000E+02 0.  1.
</event>
<event>
 5    1  0.1666761E-008  0.3715039E+03  0.7957747E-01  0.3489007E+00
         13   -1    0    0    0    0  0.00000000000E+00  0.00000000000E+00  0.14999999963E+04  0.15000000000E+04  0.10566000000E+00 0. -1.
        994   -1    0    0    0    0 -0.00000000000E+00 -0.00000000000E+00  0.11368683772E-12  0.17120000000E+03  0.17120000000E+03 0.  0.
         13    1    1    2    0    0  0.96483099582E+01  0.13846310207E+02  0.12857374477E+02  0.21216348269E+02  0.10566000000E+00 0. -1.
        994    1    1    2    0    0 -0.70348717355E+01 -0.17422649221E+02  0.97003961050E+01  0.17250094438E+03  0.17120000000E+03 0.  0.
        998    1    1    2    0    0 -0.26134382227E+01  0.35763390147E+01  0.14774422257E+04  0.14774827074E+04  0.10000000000E+02 0. -1.
</event>
<event>
 5    1  0.1666761E-008  0.3843072E+03  0.7957747E-01  0.3432616E+00
         13   -1    0    0    0    0  0.00000000000E+00  0.00000000000E+00  0.14999999963E+04  0.15000000000E+04  0.10566000000E+00 0. -1.
        994   -1    0    0    0    0 -0.00000000000E+00 -0.00000000000E+00  0.11368683772E-12  0.17120000000E+03  0.17120000000E+03 0.  0.
         13    1    1    2    0    0 -0.46997861728E+01  0.15583090774E+02  0.71660624748E+02  0.73485896684E+02  0.10566000000E+00 0. -1.
        994    1    1    2    0    0  0.20055821168E+01  0.15077904819E+01  0.19952661659E+01  0.17123001162E+03  0.17120000000E+03 0.  0.
        998    1    1    2    0    0  0.26942040560E+01 -0.17090881256E+02  0.14263441054E+04  0.14264840917E+04  0.10000000000E+02 0. -1.
</event>
<event>
 5    1  0.1666761E-008  0.3759794E+03  0.7957747E-01  0.3468854E+00
         13   -1    0    0    0    0  0.00000000000E+00  0.00000000000E+00  0.14999999963E+04  0.15000000000E+04  0.10566000000E+00 0.  1.
        994   -1    0    0    0    0 -0.00000000000E+00 -0.00000000000E+00  0.11368683772E-12  0.17120000000E+03  0.17120000000E+03 0.  0.
         13    1    1    2    0    0  0.89879609693E+02  0.51797107308E+02  0.54128463090E+03  0.55113550727E+03  0.10566000000E+00 0.  1.
        994    1    1    2    0    0 -0.93306615764E+02 -0.46345304239E+02  0.43885085009E+02  0.20515689717E+03  0.17120000000E+03 0.  0.
        998    1    1    2    0    0  0.34270060708E+01 -0.54518030690E+01  0.91483028037E+03  0.91490759556E+03  0.10000000000E+02 0.  0.
</event>
<event>
 5    1  0.1666761E-008  0.3872627E+03  0.7957747E-01  0.3420132E+00
         13   -1    0    0    0    0  0.00000000000E+00  0.00000000000E+00  0.14999999963E+04  0.15000000000E+04  0.10566000000E+00 0.  1.
        994   -1    0    0    0    0 -0.00000000000E+00 -0.00000000000E+00  0.11368683772E-12  0.17120000000E+03  0.17120000000E+03 0.  0.
         13    1    1    2    0    0 -0.49199123833E+02 -0.21437042595E+01  0.49833176102E+02  0.70060729787E+02  0.10566000000E+00 0.  1.
        994    1    1    2    0    0  0.53427981718E+02  0.39838740228E+01  0.31140585796E+02  0.18207030666E+03  0.17120000000E+03 0.  0.
        998    1    1    2    0    0 -0.42288578842E+01 -0.18401697633E+01  0.14190262344E+04  0.14190689636E+04  0.10000000000E+02 0.  1.
</event>
<event>
 5    1  0.1666761E-008  0.3719335E+03  0.7957747E-01  0.3487052E+00
         13   -1    0    0    0    0  0.00000000000E+00  0.00000000000E+00  0.14999999963E+04  0.15000000000E+04  0.10566000000E+00 0.  1.
        994   -1    0    0    0    0 -0.00000000000E+00 -0.00000000000E+00  0.11368683772E-12  0.17120000000E+03  0.17120000000E+03 0.  0.
         13    1    1    2    0    0  0.40438873196E+02  0.79001091604E+02  0.34386157167E+03  0.35512992914E+03  0.10566000000E+00 0.  1.
        994    1    1    2    0    0 -0.37483883607E+02 -0.88019555480E+02  0.40385712677E+02  0.20023218888E+03  0.17120000000E+03 0.  0.
        998    1    1    2    0    0 -0.29549895893E+01  0.90184638753E+01  0.11157527119E+04  0.11158378820E+04  0.10000000000E+02 0.  1.
</event>
<event>
 5    1  0.2735164E-008  0.3864643E+03  0.7957747E-01  0.3423485E+00
         13   -1    0    0    0    0  0.00000000000E+00  0.00000000000E+00  0.14999999963E+04  0.15000000000E+04  0.10566000000E+00 0. -1.
        994   -1    0    0    0    0 -0.00000000000E+00 -0.00000000000E+00  0.11368683772E-12  0.17120000000E+03  0.17120000000E+03 0.  0.
         13    1    1    2    0    0  0.95034976156E+01  0.47986835745E+01  0.61352504060E+02  0.62269452779E+02  0.10566000000E+00 0. -1.
        994    1    1    2    0    0 -0.12198611743E+02 -0.29985873536E+01  0.14215126325E+01  0.17166612465E+03  0.17120000000E+03 0.  0.
        998    1    1    2    0    0  0.26951141276E+01 -0.18000962209E+01  0.14372259796E+04  0.14372644226E+04  0.10000000000E+02 0. -1.
</event>
<event>
 5    1  0.1666761E-008  0.2500877E+03  0.7957747E-01  0.4332580E+00
         13   -1    0    0    0    0  0.00000000000E+00  0.00000000000E+00  0.14999999963E+04  0.15000000000E+04  0.10566000000E+00 0.  1.
        994   -1    0    0    0    0 -0.00000000000E+00 -0.00000000000E+00  0.11368683772E-12  0.17120000000E+03  0.17120000000E+03 0.  0.
         13    1    1    2    0    0  0.19681224444E+03 -0.53013278819E+02  0.30550029856E+03  0.36725455869E+03  0.10566000000E+00 0.  1.
        994    1    1    2    0    0 -0.15376679551E+03 -0.51507317004E+02  0.21884608554E+03  0.32171459442E+03  0.17120000000E+03 0.  0.
        998    1    1    2    0    0 -0.43045448931E+02  0.10452059582E+03  0.97565361218E+03  0.98223084689E+03  0.10000000000E+02 0.  1.
</event>
<event>
 5    1  0.1666761E-008  0.3852941E+03  0.7957747E-01  0.3428426E+00
         13   -1    0    0    0    0  0.00000000000E+00  0.00000000000E+00  0.14999999963E+04  0.15000000000E+04  0.10566000000E+00 0. -1.
        994   -1    0    0    0    0 -0.00000000000E+00 -0.00000000000E+00  0.11368683772E-12  0.17120000000E+03  0.17120000000E+03 0.  0.
         13    1    1    2    0    0  0.27849074737E+00  0.16846394837E+02  0.94344633254E+02  0.95837359959E+02  0.10566000000E+00 0. -1.
        994    1    1    2    0    0  0.33883374738E+01 -0.12988882744E+02  0.20764444976E+01  0.17173800840E+03  0.17120000000E+03 0.  0.
        998    1    1    2    0    0 -0.36668282211E+01 -0.38575120932E+01  0.14035789185E+04  0.14036246316E+04  0.10000000000E+02 0. -1.
</event>
<event>
 5    1  0.1666761E-008  0.3774742E+03  0.7957747E-01  0.3462231E+00
         13   -1    0    0    0    0  0.00000000000E+00  0.00000000000E+00  0.14999999963E+04  0.15000000000E+04  0.10566000000E+00 0.  1.
        994   -1    0    0    0    0 -0.00000000000E+00 -0.00000000000E+00  0.11368683772E-12  0.17120000000E+03  0.17120000000E+03 0.  0.
         13    1    1    2    0    0 -0.19834176066E+02  0.36063341966E+02  0.19341278206E+03  0.19774345653E+03  0.10566000000E+00 0.  1.
        994    1    1    2    0    0 -0.10163614452E+02  0.53408677060E+01  0.58581220833E+01  0.17168454072E+03  0.17120000000E+03 0.  0.
        998    1    1    2    0    0  0.29997790518E+02 -0.41404209672E+02  0.13007290921E+04  0.13017720028E+04  0.10000000000E+02 0.  1.
</event>
<event>
 5    1  0.1666761E-008  0.3814434E+03  0.7957747E-01  0.3444898E+00
         13   -1    0    0    0    0  0.00000000000E+00  0.00000000000E+00  0.14999999963E+04  0.15000000000E+04  0.10566000000E+00 0. -1.
        994   -1    0    0    0    0 -0.00000000000E+00 -0.00000000000E+00  0.11368683772E-12  0.17120000000E+03  0.17120000000E+03 0.  0.
         13    1    1    2    0    0 -0.31563804949E+02  0.30942179654E+02  0.26325224838E+03  0.26693716434E+03  0.10566000000E+00 0. -1.
        994    1    1    2    0    0  0.19023112191E+02 -0.29356222737E+02  0.74882011913E+01  0.17489762654E+03  0.17120000000E+03 0.  0.
        998    1    1    2    0    0  0.12540692758E+02 -0.15859569169E+01  0.12292595467E+04  0.12293652091E+04  0.10000000000E+02 0. -1.
</event>
<event>
 5    1  0.1666761E-008  0.3839470E+03  0.7957747E-01  0.3434150E+00
         13   -1    0    0    0    0  0.00000000000E+00  0.00000000000E+00  0.14999999963E+04  0.15000000000E+04  0.10566000000E+00 0.  1.
        994   -1    0    0    0    0 -0.00000000000E+00 -0.00000000000E+00  0.11368683772E-12  0.17120000000E+03  0.17120000000E+03 0.  0.
         13    1    1    2    0    0 -0.79643936528E+01 -0.92805307177E+01  0.35961712385E+02  0.37984414414E+02  0.10566000000E+00 0.  1.
        994    1    1    2    0    0 -0.40254474626E+01 -0.16083607175E+01  0.22158280687E+01  0.17126920606E+03  0.17120000000E+03 0.  0.
        998    1    1    2    0    0  0.11989841115E+02  0.10888891435E+02  0.14618224558E+04  0.14619463795E+04  0.10000000000E+02 0.  1.
</event>
<event>
 5    1  0.1666761E-008  0.3852942E+03  0.7957747E-01  0.3428425E+00
         13   -1    0    0    0    0  0.00000000000E+00  0.00000000000E+00  0.14999999963E+04  0.15000000000E+04  0.10566000000E+00 0.  1.
        994   -1    0    0    0    0 -0.00000000000E+00 -0.00000000000E+00  0.11368683772E-12  0.17120000000E+03  0.17120000000E+03 0.  0.
         13    1    1    2    0    0  0.27688652539E+01 -0.11554941264E+02  0.49310467787E+02  0.50721954613E+02  0.10566000000E+00 0.  1.
        994    1    1    2    0    0 -0.11159338355E+02 -0.41031286008E+00  0.18939543344E+01  0.17157425871E+03  0.17120000000E+03 0.  0.
        998    1    1    2    0    0  0.83904731010E+01  0.11965254124E+02  0.14487955742E+04  0.14489037867E+04  0.10000000000E+02 0.  1.
</event>
<event>
 5    1  0.1666761E-008  0.3820403E+03  0.7957747E-01  0.3442322E+00
         13   -1    0    0    0    0  0.00000000000E+00  0.00000000000E+00  0.14999999963E+04  0.15000000000E+04  0.10566000000E+00 0. -1.
        994   -1    0    0    0    0 -0.00000000000E+00 -0.00000000000E+00  0.11368683772E-12  0.17120000000E+03  0.17120000000E+03 0.  0.
         13    1    1    2    0    0  0.44642509071E+01 -0.31012054152E+02  0.15174862398E+03  0.15494945332E+03  0.10566000000E+00 0. -1.
        994    1    1    2    0    0  0.16446283271E+02  0.26428258163E+02  0.63307626125E+01  0.17412194468E+03  0.17120000000E+03 0.  0.
        998    1    1    2    0    0 -0.20910534178E+02  0.45837959887E+01  0.13419206097E+04  0.13421286020E+04  0.10000000000E+02 0. -1.
</event>
<event>
 5    1  0.1666761E-008  0.3797203E+03  0.7957747E-01  0.3452377E+00
         13   -1    0    0    0    0  0.00000000000E+00  0.00000000000E+00  0.14999999963E+04  0.15000000000E+04  0.10566000000E+00 0.  1.
        994   -1    0    0    0    0 -0.00000000000E+00 -0.00000000000E+00  0.11368683772E-12  0.17120000000E+03  0.17120000000E+03 0.  0.
         13    1    1    2    0    0  0.28528068861E+02  0.15232993641E+01  0.89747057432E+02  0.94184481926E+02  0.10566000000E+00 0.  1.
        994    1    1    2    0    0 -0.28281273728E+02  0.16819627740E+02  0.79057189172E+01  0.17451266634E+03  0.17120000000E+03 0.  0.
        998    1    1    2    0    0 -0.24679513248E+00 -0.18342927104E+02  0.14023472199E+04  0.14025028517E+04  0.10000000000E+02 0.  1.
</event>
<event>
 5    1  0.1666761E-008  0.3750270E+03  0.7957747E-01  0.3473102E+00
         13   -1    0    0    0    0  0.00000000000E+00  0.00000000000E+00  0.14999999963E+04  0.15000000000E+04  0.10566000000E+00 0. -1.
        994   -1    0    0    0    0 -0.00000000000E+00 -0.00000000000E+00  0.11368683772E-12  0.17120000000E+03  0.17120000000E+03 0.  0.
         13    1    1    2    0    0 -0.13701310239E+02 -0.26210297327E+02  0.63403257268E+02  0.69962059607E+02  0.10566000000E+00 0. -1.
        994    1    1    2    0    0  0.35486302726E+02  0.14321962540E+01  0.10963991319E+02  0.17518840707E+03  0.17120000000E+03 0.  0.
        998    1    1    2    0    0 -0.21784992487E+02  0.24778101073E+02  0.14256327477E+04  0.14260495333E+04  0.10000000000E+02 0. -1.
</event>
<event>
 5    1  0.1666761E-008  0.3838652E+03  0.7957747E-01  0.3434499E+00
         13   -1    0    0    0    0  0.00000000000E+00  0.00000000000E+00  0.14999999963E+04  0.15000000000E+04  0.10566000000E+00 0.  1.
        994   -1    0    0    0    0 -0.00000000000E+00 -0.00000000000E+00  0.11368683772E-12  0.17120000000E+03  0.17120000000E+03 0.  0.
         13    1    1    2    0    0  0.21782841597E+03 -0.13779643626E+03  0.10692377484E+04  0.10998665603E+04  0.10566000000E+00 0.  1.
        994    1    1    2    0    0 -0.22688050736E+03  0.13731406551E+03  0.28602762187E+03  0.42597084135E+03  0.17120000000E+03 0.  0.
        998    1    1    2    0    0  0.90520913927E+01  0.48237075423E+00  0.14473462599E+03  0.14536259835E+03  0.10000000000E+02 0.  0.
</event>
<event>
 5    1  0.1666761E-008  0.3847437E+03  0.7957747E-01  0.3430760E+00
         13   -1    0    0    0    0  0.00000000000E+00  0.00000000000E+00  0.14999999963E+04  0.15000000000E+04  0.10566000000E+00 0. -1.
        994   -1    0    0    0    0 -0.00000000000E+00 -0.00000000000E+00  0.11368683772E-12  0.17120000000E+03  0.17120000000E+03 0.  0.
         13    1    1    2    0    0  0.97835658308E+01  0.49900150137E+01  0.36326924715E+02  0.37950955634E+02  0.10566000000E+00 0. -1.
        994    1    1    2    0    0  0.31459583390E+01  0.80642911244E+01  0.20041196890E+01  0.17143041253E+03  0.17120000000E+03 0.  0.
        998    1    1    2    0    0 -0.12929524170E+02 -0.13054306138E+02  0.14616689519E+04  0.14618186318E+04  0.10000000000E+02 0. -1.
</event>
<event>
 5    1  0.1666761E-008  0.3853711E+03  0.7957747E-01  0.3428100E+00
         13   -1    0    0    0    0  0.00000000000E+00  0.00000000000E+00  0.14999999963E+04  0.15000000000E+04  0.10566000000E+00 0.  1.
        994   -1    0    0    0    0 -0.00000000000E+00 -0.00000000000E+00  0.11368683772E-12  0.17120000000E+03  0.17120000000E+03 0.  0.
         13    1    1    2    0    0 -0.14525941959E+02  0.69641062820E+01  0.87257950149E+02  0.88732535151E+02  0.10566000000E+00 0.  1.
        994    1    1    2    0    0  0.14529463675E+02 -0.33327248835E+01  0.21762402541E+01  0.17186153843E+03  0.17120000000E+03 0.  0.
        998    1    1    2    0    0 -0.35217162137E-02 -0.36313813986E+01  0.14105658059E+04  0.14106059264E+04  0.10000000000E+02 0.  1.
</event>
<event>
 5    1  0.1666761E-008  0.3734599E+03  0.7957747E-01  0.3480139E+00
         13   -1    0    0    0    0  0.00000000000E+00  0.00000000000E+00  0.14999999963E+04  0.15000000000E+04  0.10566000000E+00 0. -1.
        994   -1    0    0    0    0 -0.00000000000E+00 -0.00000000000E+00  0.11368683772E-12  0.17120000000E+03  0.17120000000E+03 0.  0.
         13    1    1    2    0    0  0.95608126585E+02  0.34165811999E+02  0.60643027038E+03  0.61487063727E+03  0.10566000000E+00 0. -1.
        994    1    1    2    0    0 -0.66875221470E+02 -0.21809788771E+02  0.24572050782E+02  0.18671150959E+03  0.17120000000E+03 0.  0.
        998    1    1    2    0    0 -0.28732905115E+02 -0.12356023228E+02  0.86899767512E+03  0.86961785314E+03  0.10000000000E+02 0. -1.
</event>
<event>
 5    1  0.1666761E-008  0.3860750E+03  0.7957747E-01  0.3425126E+00
         13   -1    0    0    0    0  0.00000000000E+00  0.00000000000E+00  0.14999999963E+04  0.15000000000E+04  0.10566000000E+00 0. -1.
        994   -1    0    0    0    0 -0.00000000000E+00 -0.00000000000E+00  0.11368683772E-12  0.17120000000E+03  0.17120000000E+03 0.  0.
         13    1    1    2    0    0 -0.15935605053E+01  0.10567625211E+02  0.48724815535E+02  0.49883193068E+02  0.10566000000E+00 0. -1.
        994    1    1    2    0    0 -0.21292428006E+00 -0.19489974558E+02  0.23433741536E+01  0.17232189602E+03  0.17120000000E+03 0.  0.
        998    1    1    2    0    0  0.18064847854E+01  0.89223493470E+01  0.14489318066E+04  0.14489949109E+04  0.10000000000E+02 0. -1.
</event>
<event>
 5    1  0.1666761E-008  0.3855547E+03  0.7957747E-01  0.3427323E+00
         13   -1    0    0    0    0  0.00000000000E+00  0.00000000000E+00  0.14999999963E+04  0.15000000000E+04  0.10566000000E+00 0.  1.
        994   -1    0    0    0    0 -0.00000000000E+00 -0.00000000000E+00  0.11368683772E-12  0.17120000000E+03  0.17120000000E+03 0.  0.
         13    1    1    2    0    0  0.20713674255E+01  0.15295892804E+02  0.88493247845E+02  0.89829399296E+02  0.10566000000E+00 0.  1.
        994    1    1    2    0    0  0.52332980344E+01 -0.10763775492E+02  0.18253832787E+01  0.17162755692E+03  0.17120000000E+03 0.  0.
        998    1    1    2    0    0 -0.73046654599E+01 -0.45321173117E+01  0.14096813652E+04  0.14097430438E+04  0.10000000000E+02 0.  1.
</event>
<event>
 5    1  0.1666761E-008  0.3842859E+03  0.7957747E-01  0.3432707E+00
         13   -1    0    0    0    0  0.00000000000E+00  0.00000000000E+00  0.14999999963E+04  0.15000000000E+04  0.10566000000E+00 0.  1.
        994   -1    0    0    0    0 -0.00000000000E+00 -0.00000000000E+00  0.11368683772E-12  0.17120000000E+03  0.17120000000E+03 0.  0.
         13    1    1    2    0    0 -0.15056882609E+02  0.66689055908E+01  0.68666785903E+02  0.70613898532E+02  0.10566000000E+00 0.  1.
        994    1    1    2    0    0  0.67085738639E+01 -0.72585073976E+01  0.23071983162E+01  0.17150059492E+03  0.17120000000E+03 0.  0.
        998    1    1    2    0    0  0.83483087447E+01  0.58960180675E+00  0.14290260121E+04  0.14290855066E+04  0.10000000000E+02 0.  1.
</event>
<event>
 5    1  0.1666761E-008  0.3756947E+03  0.7957747E-01  0.3470122E+00
         13   -1    0    0    0    0  0.00000000000E+00  0.00000000000E+00  0.14999999963E+04  0.15000000000E+04  0.10566000000E+00 0.  1.
        994   -1    0    0    0    0 -0.00000000000E+00 -0.00000000000E+00  0.11368683772E-12  0.17120000000E+03  0.17120000000E+03 0.  0.
         13    1    1    2    0    0 -0.93063027559E+01  0.31580905658E+02  0.81532398744E+02  0.87928971802E+02  0.10566000000E+00 0.  1.
        994    1    1    2    0    0  0.10237904887E+02 -0.24457979080E+02  0.87101734091E+01  0.17345983558E+03  0.17120000000E+03 0.  0.
        998    1    1    2    0    0 -0.93160213114E+00 -0.71229265778E+01  0.14097574241E+04  0.14098111926E+04  0.10000000000E+02 0.  1.
</event>
<event>
 5    1  0.1666761E-008  0.3763322E+03  0.7957747E-01  0.3467286E+00
         13   -1    0    0    0    0  0.00000000000E+00  0.00000000000E+00  0.14999999963E+04  0.15000000000E+04  0.10566000000E+00 0.  1.
        994   -1    0    0    0    0 -0.00000000000E+00 -0.00000000000E+00  0.11368683772E-12  0.17120000000E+03  0.17120000000E+03 0.  0.
         13    1    1    2    0    0  0.47054426969E+01  0.35110039183E+02  0.98772139019E+02  0.10493237181E+03  0.10566000000E+00 0.  1.
        994    1    1    2    0    0 -0.75698175184E+01 -0.29377069693E+02  0.91168143127E+01  0.17410591795E+03  0.17120000000E+03 0.  0.
        998    1    1    2    0    0  0.28643748215E+01 -0.57329694908E+01  0.13921110429E+04  0.13921617102E+04  0.10000000000E+02 0.  1.
</event>
<event>
 5    1  0.1666761E-008  0.3858012E+03  0.7957747E-01  0.3426281E+00
         13   -1    0    0    0    0  0.00000000000E+00  0.00000000000E+00  0.14999999963E+04  0.15000000000E+04  0.10566000000E+00 0. -1.
        994   -1    0    0    0    0 -0.00000000000E+00 -0.00000000000E+00  0.11368683772E-12  0.17120000000E+03  0.17120000000E+03 0.  0.
         13    1    1    2    0    0 -0.97934098489E+01  0.24628648104E+01  0.41546820347E+02  0.42756590422E+02  0.10566000000E+00 0. -1.
        994    1    1    2    0    0  0.79435435969E+01  0.13504978658E+01  0.14458546789E+01  0.17139560737E+03  0.17120000000E+03 0.  0.
        998    1    1    2    0    0  0.18498662520E+01 -0.38133626762E+01  0.14570073213E+04  0.14570478022E+04  0.10000000000E+02 0. -1.
</event>
<event>
 5    1  0.1666761E-008  0.2423543E+03  0.7957747E-01  0.4418844E+00
         13   -1    0    0    0    0  0.00000000000E+00  0.00000000000E+00  0.14999999963E+04  0.15000000000E+04  0.10566000000E+00 0.  1.
        994   -1    0    0    0    0 -0.00000000000E+00 -0.00000000000E+00  0.11368683772E-12  0.17120000000E+03  0.17120000000E+03 0.  0.
         13    1    1    2    0    0 -0.13713919453E+03  0.88764297640E+02  0.21616899898E+03  0.27095259087E+03  0.10566000000E+00 0.  1.
        994    1    1    2    0    0  0.11271302797E+03 -0.14296005626E+03  0.21483527354E+03  0.32955339343E+03  0.17120000000E+03 0.  0.
        998    1    1    2    0    0  0.24426166557E+02  0.54195758624E+02  0.10689957238E+04  0.10706940157E+04  0.10000000000E+02 0.  1.
</event>
<event>
 5    1  0.1666761E-008  0.3795109E+03  0.7957747E-01  0.3453291E+00
         13   -1    0    0    0    0  0.00000000000E+00  0.00000000000E+00  0.14999999963E+04  0.15000000000E+04  0.10566000000E+00 0. -1.
        994   -1    0    0    0    0 -0.00000000000E+00 -0.00000000000E+00  0.11368683772E-12  0.17120000000E+03  0.17120000000E+03 0.  0.
         13    1    1    2    0    0 -0.49595202671E+01 -0.11307925205E+02  0.15257969871E+02  0.19628622528E+02  0.10566000000E+00 0. -1.
        994    1    1    2    0    0  0.16647869654E+02  0.96785211439E+01  0.56228796054E+01  0.17237134945E+03  0.17120000000E+03 0.  0.
        998    1    1    2    0    0 -0.11688349387E+02  0.16294040611E+01  0.14791191468E+04  0.14792000280E+04  0.10000000000E+02 0. -1.
</event>
<event>
 5    1  0.1666761E-008  0.3850402E+03  0.7957747E-01  0.3429502E+00
         13   -1    0    0    0    0  0.00000000000E+00  0.00000000000E+00  0.14999999963E+04  0.15000000000E+04  0.10566000000E+00 0. -1.
        994   -1    0    0    0    0 -0.00000000000E+00 -0.00000000000E+00  0.11368683772E-12  0.17120000000E+03  0.17120000000E+03 0.  0.
         13    1    1    2    0    0  0.10104426045E+02 -0.52332358079E+00  0.31625147604E+02  0.33204433714E+02  0.10566000000E+00 0. -1.
        994    1    1    2    0    0 -0.65185601722E+01  0.27192428252E+01  0.17742203305E+01  0.17135481833E+03  0.17120000000E+03 0.  0.
        998    1    1    2    0    0 -0.35858658725E+01 -0.21959192444E+01  0.14666006283E+04  0.14666407480E+04  0.10000000000E+02 0. -1.
</event>
<event>
 5    1  0.1666761E-008  0.3806541E+03  0.7957747E-01  0.3448315E+00
         13   -1    0    0    0    0  0.00000000000E+00  0.00000000000E+00  0.14999999963E+04  0.15000000000E+04  0.10566000000E+00 0. -1.
        994   -1    0    0    0    0 -0.00000000000E+00 -0.00000000000E+00  0.11368683772E-12  0.17120000000E+03  0.17120000000E+03 0.  0.
         13    1    1    2    0    0 -0.21617095426E+01  0.31689812965E+02  0.15290585378E+03  0.15617019087E+03  0.10566000000E+00 0. -1.
        994    1    1    2    0    0  0.17116729780E+02  0.43135342612E+01  0.48433673268E+01  0.17217574517E+03  0.17120000000E+03 0.  0.
        998    1    1    2    0    0 -0.14955020237E+02 -0.36003347226E+02  0.13422507752E+04  0.13428540640E+04  0.10000000000E+02 0. -1.
</event>
<event>
 5    1  0.1666761E-008  0.3816224E+03  0.7957747E-01  0.3444125E+00
         13   -1    0    0    0    0  0.00000000000E+00  0.00000000000E+00  0.14999999963E+04  0.15000000000E+04  0.10566000000E+00 0.  1.
        994   -1    0    0    0    0 -0.00000000000E+00 -0.00000000000E+00  0.11368683772E-12  0.17120000000E+03  0.17120000000E+03 0.  0.
         13    1    1    2    0    0  0.28372594675E+02  0.21854583312E+01  0.12937073386E+03  0.13246349800E+03  0.10566000000E+00 0.  1.
        994    1    1    2    0    0 -0.80853282792E+01  0.12947240683E+02  0.40915462823E+01  0.17192784628E+03  0.17120000000E+03 0.  0.
        998    1    1    2    0    0 -0.20287266396E+02 -0.15132699014E+02  0.13665377161E+04  0.13668086557E+04  0.10000000000E+02 0.  1.
</event>
<event>
 5    1  0.1666761E-008  0.3846381E+03  0.7957747E-01  0.3431209E+00
         13   -1    0    0    0    0  0.00000000000E+00  0.00000000000E+00  0.14999999963E+04  0.15000000000E+04  0.10566000000E+00 0.  1.
        994   -1    0    0    0    0 -0.00000000000E+00 -0.00000000000E+00  0.11368683772E-12  0.17120000000E+03  0.17120000000E+03 0.  0.
         13    1    1    2    0    0  0.11715436808E+02 -0.11836091981E+02  0.79080519072E+02  0.80815123546E+02  0.10566000000E+00 0.  1.
        994    1    1    2    0    0 -0.58022800717E+01  0.23830087216E+01  0.19394932573E+01  0.17132584983E+03  0.17120000000E+03 0.  0.
        998    1    1    2    0    0 -0.59131567362E+01  0.94530832592E+01  0.14189799839E+04  0.14190590266E+04  0.10000000000E+02 0.  1.
</event>
<event>
 5    1  0.1666761E-008  0.3758458E+03  0.7957747E-01  0.3469449E+00
         13   -1    0    0    0    0  0.00000000000E+00  0.00000000000E+00  0.14999999963E+04  0.15000000000E+04  0.10566000000E+00 0.  1.
        994   -1    0    0    0    0 -0.00000000000E+00 -0.00000000000E+00  0.11368683772E-12  0.17120000000E+03  0.17120000000E+03 0.  0.
         13    1    1    2    0    0 -0.46952998054E+02  0.17713143770E+02  0.28561374230E+03  0.28998889710E+03  0.10566000000E+00 0.  1.
        994    1    1    2    0    0 -0.15416013357E+02  0.38607145685E+01  0.71015546487E+01  0.17208262743E+03  0.17120000000E+03 0.  0.
        998    1    1    2    0    0  0.62369011412E+02 -0.21573858339E+02  0.12072846993E+04  0.12091284755E+04  0.10000000000E+02 0.  1.
</event>
<event>
 5    1  0.1666761E-008  0.3824490E+03  0.7957747E-01  0.3440564E+00
         13   -1    0    0    0    0  0.00000000000E+00  0.00000000000E+00  0.14999999963E+04  0.15000000000E+04  0.10566000000E+00 0. -1.
        994   -1    0    0    0    0 -0.00000000000E+00 -0.00000000000E+00  0.11368683772E-12  0.17120000000E+03  0.17120000000E+03 0.  0.
         13    1    1    2    0    0  0.20678988068E+02  0.12521157743E+02  0.10845119786E+03  0.11111288593E+03  0.10566000000E+00 0. -1.
        994    1    1    2    0    0  0.58698536574E+01 -0.13609161022E+02  0.36307231888E+01  0.17187869733E+03  0.17120000000E+03 0.  0.
        998    1    1    2    0    0 -0.26548841725E+02  0.10880032791E+01  0.13879180752E+04  0.13882084167E+04  0.10000000000E+02 0. -1.
</event>
<event>
 5    1  0.1666761E-008  0.3826481E+03  0.7957747E-01  0.3439708E+00
         13   -1    0    0    0    0  0.00000000000E+00  0.00000000000E+00  0.14999999963E+04  0.15000000000E+04  0.10566000000E+00 0. -1.
        994   -1    0    0    0    0 -0.00000000000E+00 -0.00000000000E+00  0.11368683772E-12  0.17120000000E+03  0.17120000000E+03 0.  0.
         13    1    1    2    0    0 -0.57989466306E+01  0.16203326662E+02  0.50120706281E+02  0.52993131056E+02  0.10566000000E+00 0. -1.
        994    1    1    2    0    0  0.59538210255E+01 -0.18601811144E+02  0.40675229791E+01  0.17235852200E+03  0.17120000000E+03 0.  0.
        998    1    1    2    0    0 -0.15487439498E+00  0.23984844821E+01  0.14458117670E+04  0.14458483469E+04  0.10000000000E+02 0. -1.
</event>
<event>
 5    1  0.1666761E-008  0.3809391E+03  0.7957747E-01  0.3447079E+00
         13   -1    0    0    0    0  0.00000000000E+00  0.00000000000E+00  0.14999999963E+04  0.15000000000E+04  0.10566000000E+00 0.  1.
        994   -1    0    0    0    0 -0.00000000000E+00 -0.00000000000E+00  0.11368683772E-12  0.17120000000E+03  0.17120000000E+03 0.  0.
         13    1    1    2    0    0 -0.40399917899E+02  0.30932522275E+02  0.30036524996E+03  0.30464449584E+03  0.10566000000E+00 0.  1.
        994    1    1    2    0    0  0.43996651196E+02 -0.18050298122E+02  0.11233509157E+02  0.17803693523E+03  0.17120000000E+03 0.  0.
        998    1    1    2    0    0 -0.35967332966E+01 -0.12882224153E+02  0.11884012372E+04  0.11885185689E+04  0.10000000000E+02 0. -1.
</event>
<event>
 5    1  0.1666761E-008  0.4044208E+03  0.7957747E-01  0.3351263E+00
         13   -1    0    0    0    0  0.00000000000E+00  0.00000000000E+00  0.14999999963E+04  0.15000000000E+04  0.10566000000E+00 0. -1.
        994   -1    0    0    0    0 -0.00000000000E+00 -0.00000000000E+00  0.11368683772E-12  0.17120000000E+03  0.17120000000E+03 0.  0.
         13    1    1    2    0    0  0.58493090528E+02 -0.22213858742E+02  0.52879286046E+02  0.81921469814E+02  0.10566000000E+00 0. -1.
        994    1    1    2    0    0 -0.62876054907E+02 -0.88658033727E+01  0.46704325956E+02  0.18847475909E+03  0.17120000000E+03 0.  0.
        998    1    1    2    0    0  0.43829643796E+01  0.31079662114E+02  0.14004163843E+04  0.14008037711E+04  0.10000000000E+02 0. -1.
</event>
<event>
 5    1  0.1666761E-008  0.3797925E+03  0.7957747E-01  0.3452063E+00
         13   -1    0    0    0    0  0.00000000000E+00  0.00000000000E+00  0.14999999963E+04  0.15000000000E+04  0.10566000000E+00 0.  1.
        994   -1    0    0    0    0 -0.00000000000E+00 -0.00000000000E+00  0.11368683772E-12  0.17120000000E+03  0.17120000000E+03 0.  0.
         13    1    1    2    0    0 -0.11737494650E+03  0.19750517113E+02  0.67700903162E+03  0.68739231961E+03  0.10566000000E+00 0.  1.
        994    1    1    2    0    0  0.13091467182E+03 -0.31128316489E+02  0.67404772065E+02  0.22794838600E+03  0.17120000000E+03 0.  0.
        998    1    1    2    0    0 -0.13539725318E+02  0.11377799376E+02  0.75558619259E+03  0.75585929439E+03  0.10000000000E+02 0.  1.
</event>
<event>
 5    1  0.1666761E-008  0.4407398E+03  0.7957747E-01  0.3222974E+00
         13   -1    0    0    0    0  0.00000000000E+00  0.00000000000E+00  0.14999999963E+04  0.15000000000E+04  0.10566000000E+00 0. -1.
        994   -1    0    0    0    0 -0.00000000000E+00 -0.00000000000E+00  0.11368683772E-12  0.17120000000E+03  0.17120000000E+03 0.  0.
         13    1    1    2    0    0  0.49813887796E+02 -0.70317348860E+02  0.76047815755E+02  0.11493143353E+03  0.10566000000E+00 0. -1.
        994    1    1    2    0    0  0.70451697302E+02 -0.56151008729E+02  0.94376408493E+02  0.21525037495E+03  0.17120000000E+03 0.  0.
        998    1    1    2    0    0 -0.12026558510E+03  0.12646835759E+03  0.13295757720E+04  0.13410181915E+04  0.10000000000E+02 0. -1.
</event>
<event>
 5    1  0.1666761E-008  0.3996138E+03  0.7957747E-01  0.3369963E+00
         13   -1    0    0    0    0  0.00000000000E+00  0.00000000000E+00  0.14999999963E+04  0.15000000000E+04  0.10566000000E+00 0. -1.
        994   -1    0    0    0    0 -0.00000000000E+00 -0.00000000000E+00  0.11368683772E-12  0.17120000000E+03  0.17120000000E+03 0.  0.
         13    1    1    2    0    0  0.55073264384E+01 -0.63531541372E+02  0.61979797255E+02  0.88927463843E+02  0.10566000000E+00 0. -1.
        994    1    1    2    0    0 -0.26283768006E+02  0.61093123307E+02  0.45049275712E+02  0.18910865506E+03  0.17120000000E+03 0.  0.
        998    1    1    2    0    0  0.20776441567E+02  0.24384180656E+01  0.13929709233E+04  0.13931638811E+04  0.10000000000E+02 0. -1.
</event>
<event>
 5    1  0.1666761E-008  0.3793467E+03  0.7957747E-01  0.3454008E+00
         13   -1    0    0    0    0  0.00000000000E+00  0.00000000000E+00  0.14999999963E+04  0.15000000000E+04  0.10566000000E+00 0. -1.
        994   -1    0    0    0    0 -0.00000000000E+00 -0.00000000000E+00  0.11368683772E-12  0.17120000000E+03  0.17120000000E+03 0.  0.
         13    1    1    2    0    0  0.43576670233E+02  0.51503367641E+02  0.38670338917E+03  0.39254432289E+03  0.10566000000E+00 0. -1.
        994    1    1    2    0    0 -0.96777199256E+02 -0.16162324451E+02  0.37421901884E+02  0.20084044854E+03  0.17120000000E+03 0.  0.
        998    1    1    2    0    0  0.53200529023E+02 -0.35341043190E+02  0.10758747052E+04  0.10778152286E+04  0.10000000000E+02 0. -1.
</event>
<event>
 5    1  0.1666761E-008  0.3856029E+03  0.7957747E-01  0.3427119E+00
         13   -1    0    0    0    0  0.00000000000E+00  0.00000000000E+00  0.14999999963E+04  0.15000000000E+04  0.10566000000E+00 0.  1.
        994   -1    0    0    0    0 -0.00000000000E+00 -0.00000000000E+00  0.11368683772E-12  0.17120000000E+03  0.17120000000E+03 0.  0.
         13    1    1    2    0    0 -0.54792366602E+01 -0.13788880156E+02  0.79586098347E+02  0.80957479361E+02  0.10566000000E+00 0.  1.
        994    1    1    2    0    0  0.47571267665E+01  0.14795657222E+02  0.21242864131E+01  0.17191711468E+03  0.17120000000E+03 0.  0.
        998    1    1    2    0    0  0.72210989364E+00 -0.10067770666E+01  0.14182896115E+04  0.14183254060E+04  0.10000000000E+02 0.  1.
</event>
<event>
 5    1  0.1666761E-008  0.3851722E+03  0.7957747E-01  0.3428942E+00
         13   -1    0    0    0    0  0.00000000000E+00  0.00000000000E+00  0.14999999963E+04  0.15000000000E+04  0.10566000000E+00 0.  1.
        994   -1    0    0    0    0 -0.00000000000E+00 -0.00000000000E+00  0.11368683772E-12  0.17120000000E+03  0.17120000000E+03 0.  0.
         13    1    1    2    0    0  0.94876770318E+01 -0.12665502613E+02  0.91356695466E+02  0.92717247276E+02  0.10566000000E+00 0.  1.
        994    1    1    2    0    0 -0.99162008811E+01 -0.12729048153E+02  0.24009124792E+01  0.17197547525E+03  0.17120000000E+03 0.  0.
        998    1    1    2    0    0  0.42852384935E+00  0.25394550767E+02  0.14062423883E+04  0.14065072775E+04  0.10000000000E+02 0.  1.
</event>
<event>
 5    1  0.1666761E-008  0.3855500E+03  0.7957747E-01  0.3427343E+00
         13   -1    0    0    0    0  0.00000000000E+00  0.00000000000E+00  0.14999999963E+04  0.15000000000E+04  0.10566000000E+00 0. -1.
        994   -1    0    0    0    0 -0.00000000000E+00 -0.00000000000E+00  0.11368683772E-12  0.17120000000E+03  0.17120000000E+03 0.  0.
         13    1    1    2    0    0 -0.64453862573E+01 -0.10161790813E+02  0.51579619386E+02  0.52964830752E+02  0.10566000000E+00 0. -1.
        994    1    1    2    0    0  0.13033903701E+02  0.88378549747E+01  0.21718551783E+01  0.17193646292E+03  0.17120000000E+03 0.  0.
        998    1    1    2    0    0 -0.65885174438E+01  0.13239358379E+01  0.14462485217E+04  0.14462987063E+04  0.10000000000E+02 0. -1.
</event>
<event>
 5    1  0.1666761E-008  0.3856851E+03  0.7957747E-01  0.3426772E+00
         13   -1    0    0    0    0  0.00000000000E+00  0.00000000000E+00  0.14999999963E+04  0.15000000000E+04  0.10566000000E+00 0.  1.
        994   -1    0    0    0    0 -0.00000000000E+00 -0.00000000000E+00  0.11368683772E-12  0.17120000000E+03  0.17120000000E+03 0.  0.
         13    1    1    2    0    0 -0.21389776391E+01 -0.10028747297E+02  0.43794772378E+02  0.44979375823E+02  0.10566000000E+00 0.  1.
        994    1    1    2    0    0  0.80177029215E+01 -0.60114619409E+01  0.16199741937E+01  0.17150068674E+03  0.17120000000E+03 0.  0.
        998    1    1    2    0    0 -0.58787252824E+01  0.16040209238E+02  0.14545852497E+04  0.14547199374E+04  0.10000000000E+02 0.  1.
</event>
<event>
 5    1  0.1666761E-008  0.3917032E+03  0.7957747E-01  0.3401731E+00
         13   -1    0    0    0    0  0.00000000000E+00  0.00000000000E+00  0.14999999963E+04  0.15000000000E+04  0.10566000000E+00 0.  1.
        994   -1    0    0    0    0 -0.00000000000E+00 -0.00000000000E+00  0.11368683772E-12  0.17120000000E+03  0.17120000000E+03 0.  0.
         13    1    1    2    0    0  0.19199919765E+01  0.27194498795E+02  0.62722717363E+01  0.27974625836E+02  0.10566000000E+00 0.  1.
        994    1    1    2    0    0 -0.31872203968E+01 -0.30039786702E+02  0.26373614447E+02  0.17583388382E+03  0.17120000000E+03 0.  0.
        998    1    1    2    0    0  0.12672284203E+01  0.28452879076E+01  0.14673541101E+04  0.14673914903E+04  0.10000000000E+02 0.  1.
</event>
<event>
 5    1  0.1666761E-008  0.3844386E+03  0.7957747E-01  0.3432057E+00
         13   -1    0    0    0    0  0.00000000000E+00  0.00000000000E+00  0.14999999963E+04  0.15000000000E+04  0.10566000000E+00 0. -1.
        994   -1    0    0    0    0 -0.00000000000E+00 -0.00000000000E+00  0.11368683772E-12  0.17120000000E+03  0.17120000000E+03 0.  0.
         13    1    1    2    0    0 -0.87073278860E+01 -0.89658138771E+01  0.40825073220E+02  0.42695446418E+02  0.10566000000E+00 0. -1.
        994    1    1    2    0    0  0.85230518565E+01  0.15114889903E+01  0.21560127791E+01  0.17143224727E+03  0.17120000000E+03 0.  0.
        998    1    1    2    0    0  0.18427602951E+00  0.74543248868E+01  0.14570189103E+04  0.14570723063E+04  0.10000000000E+02 0. -1.
</event>
<event>
 5    1  0.1666761E-008  0.3713046E+03  0.7957747E-01  0.3489917E+00
         13   -1    0    0    0    0  0.00000000000E+00  0.00000000000E+00  0.14999999963E+04  0.15000000000E+04  0.10566000000E+00 0.  1.
        994   -1    0    0    0    0 -0.00000000000E+00 -0.00000000000E+00  0.11368683772E-12  0.17120000000E+03  0.17120000000E+03 0.  0.
         13    1    1    2    0    0 -0.15429476532E+03  0.72079318181E+02  0.75852015369E+03  0.77740281543E+03  0.10566000000E+00 0.  1.
        994    1    1    2    0    0  0.14883549612E+03 -0.76832475115E+02  0.11235816686E+03  0.26455440234E+03  0.17120000000E+03 0.  0.
        998    1    1    2    0    0  0.54592692031E+01  0.47531569339E+01  0.62912167573E+03  0.62924278223E+03  0.10000000000E+02 0.  1.
</event>
<event>
 5    1  0.1666761E-008  0.3848740E+03  0.7957747E-01  0.3430207E+00
         13   -1    0    0    0    0  0.00000000000E+00  0.00000000000E+00  0.14999999963E+04  0.15000000000E+04  0.10566000000E+00 0. -1.
        994   -1    0    0    0    0 -0.00000000000E+00 -0.00000000000E+00  0.11368683772E-12  0.17120000000E+03  0.17120000000E+03 0.  0.
         13    1    1    2    0    0  0.96609395852E+01  0.66627137930E+01  0.41676256067E+02  0.43297193818E+02  0.10566000000E+00 0. -1.
        994    1    1    2    0    0 -0.30631583174E+01  0.44987977096E+00  0.17242405115E+01  0.17123667346E+03  0.17120000000E+03 0.  0.
        998    1    1    2    0    0 -0.65977812678E+01 -0.71125935640E+01  0.14565994997E+04  0.14566661327E+04  0.10000000000E+02 0. -1.
</event>
<event>
 5    1  0.1666761E-008  0.3746173E+03  0.7957747E-01  0.3474936E+00
         13   -1    0    0    0    0  0.00000000000E+00  0.00000000000E+00  0.14999999963E+04  0.15000000000E+04  0.10566000000E+00 0. -1.
        994   -1    0    0    0    0 -0.00000000000E+00 -0.00000000000E+00  0.11368683772E-12  0.17120000000E+03  0.17120000000E+03 0.  0.
         13    1    1    2    0    0 -0.50063114211E+02 -0.25876412015E+02  0.18691547347E+03  0.19522630328E+03  0.10566000000E+00 0. -1.
        994    1    1    2    0    0  0.61527132874E+02  0.31018845376E+02  0.23210588062E+02  0.18599980711E+03  0.17120000000E+03 0.  0.
        998    1    1    2    0    0 -0.11464018663E+02 -0.51424333611E+01  0.12898739347E+04  0.12899738896E+04  0.10000000000E+02 0. -1.
</event>
<event>
 5    1  0.1666761E-008  0.3831170E+03  0.7957747E-01  0.3437698E+00
         13   -1    0    0    0    0  0.00000000000E+00  0.00000000000E+00  0.14999999963E+04  0.15000000000E+04  0.10566000000E+00 0. -1.
        994   -1    0    0    0    0 -0.00000000000E+00 -0.00000000000E+00  0.11368683772E-12  0.17120000000E+03  0.17120000000E+03 0.  0.
         13    1    1    2    0    0  0.16690666084E+03 -0.29625807843E+02  0.10158001896E+04  0.10298473471E+04  0.10566000000E+00 0. -1.
        994    1    1    2    0    0 -0.18032003034E+03  0.18582079476E+02  0.12019733452E+03  0.27679856619E+03  0.17120000000E+03 0.  0.
        998    1    1    2    0    0  0.13413369493E+02  0.11043728367E+02  0.36400247212E+03  0.36455408670E+03  0.10000000000E+02 0. -1.
</event>
<event>
 5    1  0.1666761E-008  0.3697648E+03  0.7957747E-01  0.3496972E+00
         13   -1    0    0    0    0  0.00000000000E+00  0.00000000000E+00  0.14999999963E+04  0.15000000000E+04  0.10566000000E+00 0. -1.
        994   -1    0    0    0    0 -0.00000000000E+00 -0.00000000000E+00  0.11368683772E-12  0.17120000000E+03  0.17120000000E+03 0.  0.
         13    1    1    2    0    0  0.15547247549E+02  0.10013557943E+02  0.14002890944E+02  0.23196559397E+02  0.10566000000E+00 0. -1.
        994    1    1    2    0    0 -0.15214191362E+02 -0.65075527861E+01  0.10340131012E+02  0.17230838102E+03  0.17120000000E+03 0.  0.
        998    1    1    2    0    0 -0.33305618650E+00 -0.35060051565E+01  0.14756569743E+04  0.14756950596E+04  0.10000000000E+02 0. -1.
</event>
<event>
 5    1  0.1666761E-008  0.3824870E+03  0.7957747E-01  0.3440401E+00
         13   -1    0    0    0    0  0.00000000000E+00  0.00000000000E+00  0.14999999963E+04  0.15000000000E+04  0.10566000000E+00 0. -1.
        994   -1    0    0    0    0 -0.00000000000E+00 -0.00000000000E+00  0.11368683772E-12  0.17120000000E+03  0.17120000000E+03 0.  0.
         13    1    1    2    0    0 -0.17158072592E+01 -0.15958199676E+02  0.43569690983E+02  0.46432071544E+02  0.10566000000E+00 0. -1.
        994    1    1    2    0    0 -0.14066210887E+01  0.11745921452E+02  0.33471164940E+01  0.17164087055E+03  0.17120000000E+03 0.  0.
        998    1    1    2    0    0  0.31224283479E+01  0.42122782242E+01  0.14530831888E+04  0.14531270579E+04  0.10000000000E+02 0. -1.
</event>
<event>
 5    1  0.1666761E-008  0.3812476E+03  0.7957747E-01  0.3445744E+00
         13   -1    0    0    0    0  0.00000000000E+00  0.00000000000E+00  0.14999999963E+04  0.15000000000E+04  0.10566000000E+00 0. -1.
        994   -1    0    0    0    0 -0.00000000000E+00 -0.00000000000E+00  0.11368683772E-12  0.17120000000E+03  0.17120000000E+03 0.  0.
         13    1    1    2    0    0  0.37700650575E+02 -0.16666214819E+02  0.47809750182E+02  0.63125946699E+02  0.10566000000E+00 0. -1.
        994    1    1    2    0    0  0.12873719238E+02  0.89751995164E+01  0.17911341452E+02  0.17284832370E+03  0.17120000000E+03 0.  0.
        998    1    1    2    0    0 -0.50574369813E+02  0.76910153022E+01  0.14342789046E+04  0.14352257296E+04  0.10000000000E+02 0. -1.
</event>
<event>
 5    1  0.1666761E-008  0.3831739E+03  0.7957747E-01  0.3437454E+00
         13   -1    0    0    0    0  0.00000000000E+00  0.00000000000E+00  0.14999999963E+04  0.15000000000E+04  0.10566000000E+00 0.  1.
        994   -1    0    0    0    0 -0.00000000000E+00 -0.00000000000E+00  0.11368683772E-12  0.17120000000E+03  0.17120000000E+03 0.  0.
         13    1    1    2    0    0  0.12160083687E+02  0.20616107532E+02  0.10872697609E+03  0.11133040024E+03  0.10566000000E+00 0.  1.
        994    1    1    2    0    0 -0.16575212711E+02 -0.12734590166E+02  0.39862287479E+01  0.17251735415E+03  0.17120000000E+03 0.  0.
        998    1    1    2    0    0  0.44151290240E+01 -0.78815173658E+01  0.13872867914E+04  0.13873522456E+04  0.10000000000E+02 0.  1.
</event>
<event>
 5    1  0.1666761E-008  0.3810859E+03  0.7957747E-01  0.3446444E+00
         13   -1    0    0    0    0  0.00000000000E+00  0.00000000000E+00  0.14999999963E+04  0.15000000000E+04  0.10566000000E+00 0. -1.
        994   -1    0    0    0    0 -0.00000000000E+00 -0.00000000000E+00  0.11368683772E-12  0.17120000000E+03  0.17120000000E+03 0.  0.
         13    1    1    2    0    0  0.73607428387E+01  0.29989630750E+02  0.14683220597E+03  0.15004421469E+03  0.10566000000E+00 0. -1.
        994    1    1    2    0    0 -0.10468310413E+01 -0.21740095780E+01  0.36053922463E+01  0.17125495913E+03  0.17120000000E+03 0.  0.
        998    1    1    2    0    0 -0.63139117973E+01 -0.27815621172E+02  0.13495623981E+04  0.13499008262E+04  0.10000000000E+02 0. -1.
</event>
<event>
 5    1  0.1666761E-008  0.3819625E+03  0.7957747E-01  0.3442657E+00
         13   -1    0    0    0    0  0.00000000000E+00  0.00000000000E+00  0.14999999963E+04  0.15000000000E+04  0.10566000000E+00 0. -1.
        994   -1    0    0    0    0 -0.00000000000E+00 -0.00000000000E+00  0.11368683772E-12  0.17120000000E+03  0.17120000000E+03 0.  0.
         13    1    1    2    0    0  0.73696806625E+01 -0.14444243544E+02  0.40601582220E+02  0.43720109874E+02  0.10566000000E+00 0. -1.
        994    1    1    2    0    0 -0.70116634810E+01  0.91975651389E+01  0.35901258149E+01  0.17162775892E+03  0.17120000000E+03 0.  0.
        998    1    1    2    0    0 -0.35801718150E+00  0.52466784050E+01  0.14558082882E+04  0.14558521312E+04  0.10000000000E+02 0. -1.
</event>
<event>
 5    1  0.2425063E-008  0.3859822E+03  0.7957747E-01  0.3425517E+00
         13   -1    0    0    0    0  0.00000000000E+00  0.00000000000E+00  0.14999999963E+04  0.15000000000E+04  0.10566000000E+00 0.  1.
        994   -1    0    0    0    0 -0.00000000000E+00 -0.00000000000E+00  0.11368683772E-12  0.17120000000E+03  0.17120000000E+03 0.  0.
         13    1    1    2    0    0  0.44571213022E+01  0.89862138687E+01  0.46226595214E+02  0.47302507747E+02  0.10566000000E+00 0.  1.
        994    1    1    2    0    0  0.65944657207E+00 -0.12164966815E+01  0.11495694040E+01  0.17120945139E+03  0.17120000000E+03 0.  0.
        998    1    1    2    0    0 -0.51165678743E+01 -0.77697171872E+01  0.14526238317E+04  0.14526880409E+04  0.10000000000E+02 0.  1.
</event>
<event>
 5    1  0.1666761E-008  0.3722217E+03  0.7957747E-01  0.3485742E+00
         13   -1    0    0    0    0  0.00000000000E+00  0.00000000000E+00  0.14999999963E+04  0.15000000000E+04  0.10566000000E+00 0.  1.
        994   -1    0    0    0    0 -0.00000000000E+00 -0.00000000000E+00  0.11368683772E-12  0.17120000000E+03  0.17120000000E+03 0.  0.
         13    1    1    2    0    0  0.32693515487E+02  0.46407212586E+01  0.63752593719E+02  0.71796981961E+02  0.10566000000E+00 0.  1.
        994    1    1    2    0    0 -0.22695668216E+02 -0.62653273644E+01  0.10016898100E+02  0.17310149026E+03  0.17120000000E+03 0.  0.
        998    1    1    2    0    0 -0.99978472717E+01  0.16246061059E+01  0.14262305045E+04  0.14263015278E+04  0.10000000000E+02 0.  1.
</event>
<event>
 5    1  0.1666761E-008  0.3741533E+03  0.7957747E-01  0.3477018E+00
         13   -1    0    0    0    0  0.00000000000E+00  0.00000000000E+00  0.14999999963E+04  0.15000000000E+04  0.10566000000E+00 0.  1.
        994   -1    0    0    0    0 -0.00000000000E+00 -0.00000000000E+00  0.11368683772E-12  0.17120000000E+03  0.17120000000E+03 0.  0.
         13    1    1    2    0    0  0.32551411111E+02 -0.17298553105E+03  0.88420781268E+03  0.90155812652E+03  0.10566000000E+00 0.  1.
        994    1    1    2    0    0 -0.87923762863E+02  0.16767130749E+03  0.14121505499E+03  0.29171113655E+03  0.17120000000E+03 0.  0.
        998    1    1    2    0    0  0.55372351753E+02  0.53142235685E+01  0.47457712860E+03  0.47793073693E+03  0.10000000000E+02 0. -1.
</event>
<event>
 5    1  0.1666761E-008  0.3699426E+03  0.7957747E-01  0.3496155E+00
         13   -1    0    0    0    0  0.00000000000E+00  0.00000000000E+00  0.14999999963E+04  0.15000000000E+04  0.10566000000E+00 0. -1.
        994   -1    0    0    0    0 -0.00000000000E+00 -0.00000000000E+00  0.11368683772E-12  0.17120000000E+03  0.17120000000E+03 0.  0.
         13    1    1    2    0    0 -0.51038234237E+02 -0.62929752248E+02  0.47491699338E+03  0.48177922001E+03  0.10566000000E+00 0. -1.
        994    1    1    2    0    0  0.55020079274E+01 -0.10878223482E+02  0.11428038852E+02  0.17201351083E+03  0.17120000000E+03 0.  0.
        998    1    1    2    0    0  0.45536226310E+02  0.73807975731E+02  0.10136549640E+04  0.10174072692E+04  0.10000000000E+02 0. -1.
</event>
<event>
 5    1  0.1666761E-008  0.3802218E+03  0.7957747E-01  0.3450193E+00
         13   -1    0    0    0    0  0.00000000000E+00  0.00000000000E+00  0.14999999963E+04  0.15000000000E+04  0.10566000000E+00 0. -1.
        994   -1    0    0    0    0 -0.00000000000E+00 -0.00000000000E+00  0.11368683772E-12  0.17120000000E+03  0.17120000000E+03 0.  0.
         13    1    1    2    0    0 -0.30147920418E+01 -0.22414630461E+02  0.63892753546E+02  0.67777575565E+02  0.10566000000E+00 0. -1.
        994    1    1    2    0    0  0.17336804613E+02  0.57637062101E+01  0.51369902476E+01  0.17224869745E+03  0.17120000000E+03 0.  0.
        998    1    1    2    0    0 -0.14322012571E+02  0.16650924251E+02  0.14309702525E+04  0.14311737270E+04  0.10000000000E+02 0. -1.
</event>
<event>
 5    1  0.1666761E-008  0.3852570E+03  0.7957747E-01  0.3428583E+00
         13   -1    0    0    0    0  0.00000000000E+00  0.00000000000E+00  0.14999999963E+04  0.15000000000E+04  0.10566000000E+00 0.  1.
        994   -1    0    0    0    0 -0.00000000000E+00 -0.00000000000E+00  0.11368683772E-12  0.17120000000E+03  0.17120000000E+03 0.  0.
         13    1    1    2    0    0 -0.10997153307E+02  0.32483014422E+01  0.42718513460E+02  0.44230887391E+02  0.10566000000E+00 0.  1.
        994    1    1    2    0    0  0.12007433465E+02 -0.27848756438E+01  0.20019856334E+01  0.17165483371E+03  0.17120000000E+03 0.  0.
        998    1    1    2    0    0 -0.10102801585E+01 -0.46342579840E+00  0.14552794972E+04  0.14553142789E+04  0.10000000000E+02 0.  1.
</event>
<event>
 5    1  0.1666761E-008  0.3807922E+03  0.7957747E-01  0.3447717E+00
         13   -1    0    0    0    0  0.00000000000E+00  0.00000000000E+00  0.14999999963E+04  0.15000000000E+04  0.10566000000E+00 0.  1.
        994   -1    0    0    0    0 -0.00000000000E+00 -0.00000000000E+00  0.11368683772E-12  0.17120000000E+03  0.17120000000E+03 0.  0.
         13    1    1    2    0    0 -0.40223317970E+01 -0.36223743984E+02  0.15705962174E+03  0.16123298275E+03  0.10566000000E+00 0.  1.
        994    1    1    2    0    0  0.10704738148E+02  0.38060964361E+02  0.89635250770E+01  0.17593468450E+03  0.17120000000E+03 0.  0.
        998    1    1    2    0    0 -0.66824063514E+01 -0.18372203775E+01  0.13339768495E+04  0.13340323328E+04  0.10000000000E+02 0.  1.
</event>
<event>
 5    1  0.1666761E-008  0.3829284E+03  0.7957747E-01  0.3438506E+00
         13   -1    0    0    0    0  0.00000000000E+00  0.00000000000E+00  0.14999999963E+04  0.15000000000E+04  0.10566000000E+00 0.  1.
        994   -1    0    0    0    0 -0.00000000000E+00 -0.00000000000E+00  0.11368683772E-12  0.17120000000E+03  0.17120000000E+03 0.  0.
         13    1    1    2    0    0  0.16271260925E+02  0.11531970151E+02  0.71499401448E+02  0.74228807340E+02  0.10566000000E+00 0.  1.
        994    1    1    2    0    0 -0.14205120830E+02 -0.12924655351E+02  0.38842912760E+01  0.17231761341E+03  0.17120000000E+03 0.  0.
        998    1    1    2    0    0 -0.20661400947E+01  0.13926852004E+01  0.14246163036E+04  0.14246535792E+04  0.10000000000E+02 0.  1.
</event>
<event>
 5    1  0.1666761E-008  0.3835603E+03  0.7957747E-01  0.3435801E+00
         13   -1    0    0    0    0  0.00000000000E+00  0.00000000000E+00  0.14999999963E+04  0.15000000000E+04  0.10566000000E+00 0.  1.
        994   -1    0    0    0    0 -0.00000000000E+00 -0.00000000000E+00  0.11368683772E-12  0.17120000000E+03  0.17120000000E+03 0.  0.
         13    1    1    2    0    0 -0.11642727957E+02  0.10550338823E+02  0.51631716776E+02  0.53969510882E+02  0.10566000000E+00 0.  1.
        994    1    1    2    0    0  0.80113433544E+01 -0.87310587617E+01  0.28106951494E+01  0.17163261059E+03  0.17120000000E+03 0.  0.
        998    1    1    2    0    0  0.36313846029E+01 -0.18192800616E+01  0.14455575844E+04  0.14455978785E+04  0.10000000000E+02 0.  1.
</event>
<event>
 5    1  0.1666761E-008  0.3849533E+03  0.7957747E-01  0.3429870E+00
         13   -1    0    0    0    0  0.00000000000E+00  0.00000000000E+00  0.14999999963E+04  0.15000000000E+04  0.10566000000E+00 0.  1.
        994   -1    0    0    0    0 -0.00000000000E+00 -0.00000000000E+00  0.11368683772E-12  0.17120000000E+03  0.17120000000E+03 0.  0.
         13    1    1    2    0    0 -0.94043152292E+01 -0.66035339793E+01  0.41729463654E+02  0.43282873135E+02  0.10566000000E+00 0.  1.
        994    1    1    2    0    0  0.30849152401E+00 -0.31304236774E+01  0.16858487842E+01  0.17123719457E+03  0.17120000000E+03 0.  0.
        998    1    1    2    0    0  0.90958237052E+01  0.97339576567E+01  0.14565846838E+04  0.14566799323E+04  0.10000000000E+02 0.  1.
</event>
<event>
 5    1  0.1666761E-008  0.3857261E+03  0.7957747E-01  0.3426599E+00
         13   -1    0    0    0    0  0.00000000000E+00  0.00000000000E+00  0.14999999963E+04  0.15000000000E+04  0.10566000000E+00 0.  1.
        994   -1    0    0    0    0 -0.00000000000E+00 -0.00000000000E+00  0.11368683772E-12  0.17120000000E+03  0.17120000000E+03 0.  0.
         13    1    1    2    0    0 -0.10151125449E+01 -0.99644950937E+01  0.41079883959E+02  0.42283444114E+02  0.10566000000E+00 0.  1.
        994    1    1    2    0    0  0.97188843576E+00  0.91424417706E+00  0.12759073537E+01  0.17120995400E+03  0.17120000000E+03 0.  0.
        998    1    1    2    0    0  0.43224109091E-01  0.90502509167E+01  0.14576442050E+04  0.14577066019E+04  0.10000000000E+02 0.  1.
</event>
<event>
 5    1  0.1666761E-008  0.3838663E+03  0.7957747E-01  0.3434495E+00
         13   -1    0    0    0    0  0.00000000000E+00  0.00000000000E+00  0.14999999963E+04  0.15000000000E+04  0.10566000000E+00 0. -1.
        994   -1    0    0    0    0 -0.00000000000E+00 -0.00000000000E+00  0.11368683772E-12  0.17120000000E+03  0.17120000000E+03 0.  0.
         13    1    1    2    0    0  0.10456396352E+02 -0.17786538197E+02  0.92938991492E+02  0.95201704130E+02  0.10566000000E+00 0. -1.
        994    1    1    2    0    0 -0.12758601708E+02  0.14323606031E+02  0.34094869692E+01  0.17230499763E+03  0.17120000000E+03 0.  0.
        998    1    1    2    0    0  0.23022053563E+01  0.34629321661E+01  0.14036515178E+04  0.14036932982E+04  0.10000000000E+02 0. -1.
</event>
<event>
 5    1  0.1666761E-008  0.3849500E+03  0.7957747E-01  0.3429884E+00
         13   -1    0    0    0    0  0.00000000000E+00  0.00000000000E+00  0.14999999963E+04  0.15000000000E+04  0.10566000000E+00 0. -1.
        994   -1    0    0    0    0 -0.00000000000E+00 -0.00000000000E+00  0.11368683772E-12  0.17120000000E+03  0.17120000000E+03 0.  0.
         13    1    1    2    0    0 -0.22675847972E+01  0.22811543952E+02  0.13099286626E+03  0.13298364807E+03  0.10566000000E+00 0. -1.
        994    1    1    2    0    0 -0.34342240716E+01 -0.36976729996E+02  0.62042066648E+01  0.17529119954E+03  0.17120000000E+03 0.  0.
        998    1    1    2    0    0  0.57018088689E+01  0.14165186043E+02  0.13628029234E+04  0.13629251524E+04  0.10000000000E+02 0. -1.
</event>
<event>
 5    1  0.1666761E-008  0.3838855E+03  0.7957747E-01  0.3434413E+00
         13   -1    0    0    0    0  0.00000000000E+00  0.00000000000E+00  0.14999999963E+04  0.15000000000E+04  0.10566000000E+00 0. -1.
        994   -1    0    0    0    0 -0.00000000000E+00 -0.00000000000E+00  0.11368683772E-12  0.17120000000E+03  0.17120000000E+03 0.  0.
         13    1    1    2    0    0 -0.13536045869E+02 -0.25103613895E+01  0.42190744837E+02  0.44380137066E+02  0.10566000000E+00 0. -1.
        994    1    1    2    0    0  0.12702037654E+02  0.60510369214E+00  0.27183858886E+01  0.17169314935E+03  0.17120000000E+03 0.  0.
        998    1    1    2    0    0  0.83400821530E+00  0.19052576973E+01  0.14550908656E+04  0.14551267136E+04  0.10000000000E+02 0. -1.
</event>
<event>
 5    1  0.1666761E-008  0.3721076E+03  0.7957747E-01  0.3486260E+00
         13   -1    0    0    0    0  0.00000000000E+00  0.00000000000E+00  0.14999999963E+04  0.15000000000E+04  0.10566000000E+00 0. -1.
        994   -1    0    0    0    0 -0.00000000000E+00 -0.00000000000E+00  0.11368683772E-12  0.17120000000E+03  0.17120000000E+03 0.  0.
         13    1    1    2    0    0 -0.28637008303E+01  0.32578197986E+02  0.39105469139E+02  0.50978315459E+02  0.10566000000E+00 0. -1.
        994    1    1    2    0    0  0.38619240051E+00 -0.27991074689E+02  0.14822521223E+02  0.17410570508E+03  0.17120000000E+03 0.  0.
        998    1    1    2    0    0  0.24775084298E+01 -0.45871232963E+01  0.14460720059E+04  0.14461159795E+04  0.10000000000E+02 0. -1.
</event>
<event>
 5    1  0.1666761E-008  0.3842426E+03  0.7957747E-01  0.3432891E+00
         13   -1    0    0    0    0  0.00000000000E+00  0.00000000000E+00  0.14999999963E+04  0.15000000000E+04  0.10566000000E+00 0. -1.
        994   -1    0    0    0    0 -0.00000000000E+00 -0.00000000000E+00  0.11368683772E-12  0.17120000000E+03  0.17120000000E+03 0.  0.
         13    1    1    2    0    0  0.21030453623E+02 -0.41074655953E+01  0.11675927126E+03  0.11870926603E+03  0.10566000000E+00 0. -1.
        994    1    1    2    0    0 -0.80480743994E+01  0.13871350688E+02  0.28549730267E+01  0.17197318611E+03  0.17120000000E+03 0.  0.
        998    1    1    2    0    0 -0.12982379223E+02 -0.97638850929E+01  0.13803857520E+04  0.13805175479E+04  0.10000000000E+02 0. -1.
</event>
<event>
 5    1  0.1666761E-008  0.2128580E+03  0.7957747E-01  0.4818415E+00
         13   -1    0    0    0    0  0.00000000000E+00  0.00000000000E+00  0.14999999963E+04  0.15000000000E+04  0.10566000000E+00 0.  1.
        994   -1    0    0    0    0 -0.00000000000E+00 -0.00000000000E+00  0.11368683772E-12  0.17120000000E+03  0.17120000000E+03 0.  0.
         13    1    1    2    0    0  0.89670818346E+02  0.19197577269E+02  0.34696116138E+02  0.98047102328E+02  0.10566000000E+00 0.  1.
        994    1    1    2    0    0 -0.54340575344E+02  0.11350342669E+02  0.97831684414E+02  0.20484678880E+03  0.17120000000E+03 0.  0.
        998    1    1    2    0    0 -0.35330243003E+02 -0.30547919938E+02  0.13674721957E+04  0.13683061089E+04  0.10000000000E+02 0.  1.
</event>
<event>
 5    1  0.1666761E-008  0.3849689E+03  0.7957747E-01  0.3429804E+00
         13   -1    0    0    0    0  0.00000000000E+00  0.00000000000E+00  0.14999999963E+04  0.15000000000E+04  0.10566000000E+00 0.  1.
        994   -1    0    0    0    0 -0.00000000000E+00 -0.00000000000E+00  0.11368683772E-12  0.17120000000E+03  0.17120000000E+03 0.  0.
         13    1    1    2    0    0  0.14975768053E+02 -0.13645428796E+01  0.66227639892E+02  0.67913526309E+02  0.10566000000E+00 0.  1.
        994    1    1    2    0    0 -0.16120914416E+02 -0.33945076463E+01  0.25387563716E+01  0.17200956906E+03  0.17120000000E+03 0.  0.
        998    1    1    2    0    0  0.11451463636E+01  0.47590505259E+01  0.14312336000E+04  0.14312769046E+04  0.10000000000E+02 0.  1.
</event>
<event>
 5    1  0.1666761E-008  0.3822719E+03  0.7957747E-01  0.3441325E+00
         13   -1    0    0    0    0  0.00000000000E+00  0.00000000000E+00  0.14999999963E+04  0.15000000000E+04  0.10566000000E+00 0. -1.
        994   -1    0    0    0    0 -0.00000000000E+00 -0.00000000000E+00  0.11368683772E-12  0.17120000000E+03  0.17120000000E+03 0.  0.
         13    1    1    2    0    0  0.19210728618E+02 -0.15905688544E+02  0.11517903880E+03  0.11784848393E+03  0.10566000000E+00 0. -1.
        994    1    1    2    0    0 -0.12455061246E+02 -0.17108211624E+02  0.44779603629E+01  0.17256103727E+03  0.17120000000E+03 0.  0.
        998    1    1    2    0    0 -0.67556673721E+01  0.33013900168E+02  0.13803429971E+04  0.13807904788E+04  0.10000000000E+02 0. -1.
</event>
<event>
 5    1  0.1687439E-008  0.3856310E+03  0.7957747E-01  0.3427000E+00
         13   -1    0    0    0    0  0.00000000000E+00  0.00000000000E+00  0.14999999963E+04  0.15000000000E+04  0.10566000000E+00 0.  1.
        994   -1    0    0    0    0 -0.00000000000E+00 -0.00000000000E+00  0.11368683772E-12  0.17120000000E+03  0.17120000000E+03 0.  0.
         13    1    1    2    0    0  0.10853572991E+02  0.13084007318E+00  0.45210174054E+02  0.46495033797E+02  0.10566000000E+00 0.  1.
        994    1    1    2    0    0 -0.64913217571E+01  0.38692756288E+01  0.15046252676E+01  0.17137331312E+03  0.17120000000E+03 0.  0.
        998    1    1    2    0    0 -0.43622512335E+01 -0.40001157019E+01  0.14532851970E+04  0.14533316531E+04  0.10000000000E+02 0.  1.
</event>
<event>
 5    1  0.1666761E-008  0.3791106E+03  0.7957747E-01  0.3455040E+00
         13   -1    0    0    0    0  0.00000000000E+00  0.00000000000E+00  0.14999999963E+04  0.15000000000E+04  0.10566000000E+00 0.  1.
        994   -1    0    0    0    0 -0.00000000000E+00 -0.00000000000E+00  0.11368683772E-12  0.17120000000E+03  0.17120000000E+03 0.  0.
         13    1    1    2    0    0 -0.26562031141E+02 -0.41677655178E+01  0.75819284561E+02  0.80445552040E+02  0.10566000000E+00 0.  1.
        994    1    1    2    0    0  0.18732162661E+02  0.16893825920E+02  0.67190405853E+01  0.17317875383E+03  0.17120000000E+03 0.  0.
        998    1    1    2    0    0  0.78298684795E+01 -0.12726060402E+02  0.14174616711E+04  0.14175756941E+04  0.10000000000E+02 0.  1.
</event>
<event>
 5    1  0.1666761E-008  0.4245724E+03  0.7957747E-01  0.3277426E+00
         13   -1    0    0    0    0  0.00000000000E+00  0.00000000000E+00  0.14999999963E+04  0.15000000000E+04  0.10566000000E+00 0.  1.
        994   -1    0    0    0    0 -0.00000000000E+00 -0.00000000000E+00  0.11368683772E-12  0.17120000000E+03  0.17120000000E+03 0.  0.
         13    1    1    2    0    0 -0.39268158637E+02 -0.78474934979E+02  0.72360526393E+02  0.11373812310E+03  0.10566000000E+00 0.  1.
        994    1    1    2    0    0  0.43050264896E+02  0.75359902659E+02  0.77055324946E+02  0.20683182381E+03  0.17120000000E+03 0.  0.
        998    1    1    2    0    0 -0.37821062591E+01  0.31150323194E+01  0.13505841449E+04  0.13506300531E+04  0.10000000000E+02 0.  1.
</event>
<event>
 5    1  0.1666761E-008  0.3732347E+03  0.7957747E-01  0.3481156E+00
         13   -1    0    0    0    0  0.00000000000E+00  0.00000000000E+00  0.14999999963E+04  0.15000000000E+04  0.10566000000E+00 0. -1.
        994   -1    0    0    0    0 -0.00000000000E+00 -0.00000000000E+00  0.11368683772E-12  0.17120000000E+03  0.17120000000E+03 0.  0.
         13    1    1    2    0    0 -0.35073247401E+02  0.29644750304E+01  0.42261356354E+02  0.54999583639E+02  0.10566000000E+00 0. -1.
        994    1    1    2    0    0  0.40187158419E+02 -0.26938307452E+01  0.18417942100E+02  0.17683587028E+03  0.17120000000E+03 0.  0.
        998    1    1    2    0    0 -0.51139110178E+01 -0.27064428517E+00  0.14393206978E+04  0.14393645461E+04  0.10000000000E+02 0. -1.
</event>
<event>
 5    1  0.1666761E-008  0.3822546E+03  0.7957747E-01  0.3441400E+00
         13   -1    0    0    0    0  0.00000000000E+00  0.00000000000E+00  0.14999999963E+04  0.15000000000E+04  0.10566000000E+00 0. -1.
        994   -1    0    0    0    0 -0.00000000000E+00 -0.00000000000E+00  0.11368683772E-12  0.17120000000E+03  0.17120000000E+03 0.  0.
         13    1    1    2    0    0 -0.12673880826E+02  0.10853486865E+02  0.43866609586E+02  0.46933101676E+02  0.10566000000E+00 0. -1.
        994    1    1    2    0    0  0.14319948355E+02 -0.13425821171E+02  0.42789124280E+01  0.17237477393E+03  0.17120000000E+03 0.  0.
        998    1    1    2    0    0 -0.16460675288E+01  0.25723343059E+01  0.14518544743E+04  0.14518921244E+04  0.10000000000E+02 0. -1.
</event>
<event>
 5    1  0.1666761E-008  0.3852021E+03  0.7957747E-01  0.3428815E+00
         13   -1    0    0    0    0  0.00000000000E+00  0.00000000000E+00  0.14999999963E+04  0.15000000000E+04  0.10566000000E+00 0.  1.
        994   -1    0    0    0    0 -0.00000000000E+00 -0.00000000000E+00  0.11368683772E-12  0.17120000000E+03  0.17120000000E+03 0.  0.
         13    1    1    2    0    0 -0.52319342998E+01 -0.13047111391E+02  0.82646276337E+02  0.83833277453E+02  0.10566000000E+00 0.  1.
        994    1    1    2    0    0  0.25557087853E+02 -0.32151972504E+02  0.70936088985E+01  0.17620066221E+03  0.17120000000E+03 0.  0.
        998    1    1    2    0    0 -0.20325153553E+02  0.45199083894E+02  0.14102601110E+04  0.14111660603E+04  0.10000000000E+02 0.  1.
</event>
<event>
 5    1  0.1666761E-008  0.3860297E+03  0.7957747E-01  0.3425317E+00
         13   -1    0    0    0    0  0.00000000000E+00  0.00000000000E+00  0.14999999963E+04  0.15000000000E+04  0.10566000000E+00 0. -1.
        994   -1    0    0    0    0 -0.00000000000E+00 -0.00000000000E+00  0.11368683772E-12  0.17120000000E+03  0.17120000000E+03 0.  0.
         13    1    1    2    0    0 -0.13550849635E+02  0.21955079072E+01  0.79477170335E+02  0.80654060960E+02  0.10566000000E+00 0. -1.
        994    1    1    2    0    0  0.18662740032E+02  0.61341317310E+01  0.23857656866E+01  0.17233994695E+03  0.17120000000E+03 0.  0.
        998    1    1    2    0    0 -0.51118903974E+01 -0.83296396382E+01  0.14181370603E+04  0.14182059921E+04  0.10000000000E+02 0. -1.
</event>
<event>
 5    1  0.1666761E-008  0.3810063E+03  0.7957747E-01  0.3446789E+00
         13   -1    0    0    0    0  0.00000000000E+00  0.00000000000E+00  0.14999999963E+04  0.15000000000E+04  0.10566000000E+00 0. -1.
        994   -1    0    0    0    0 -0.00000000000E+00 -0.00000000000E+00  0.11368683772E-12  0.17120000000E+03  0.17120000000E+03 0.  0.
         13    1    1    2    0    0 -0.19157817215E+03 -0.12812520914E+03  0.11513690083E+04  0.11742098916E+04  0.10566000000E+00 0. -1.
        994    1    1    2    0    0  0.18190504029E+03  0.13500565056E+03  0.19942954116E+03  0.34698350285E+03  0.17120000000E+03 0.  0.
        998    1    1    2    0    0  0.96731318610E+01 -0.68804414222E+01  0.14920144686E+03  0.15000660552E+03  0.10000000000E+02 0.  1.
</event>
<event>
 5    1  0.1666761E-008  0.3850720E+03  0.7957747E-01  0.3429367E+00
         13   -1    0    0    0    0  0.00000000000E+00  0.00000000000E+00  0.14999999963E+04  0.15000000000E+04  0.10566000000E+00 0.  1.
        994   -1    0    0    0    0 -0.00000000000E+00 -0.00000000000E+00  0.11368683772E-12  0.17120000000E+03  0.17120000000E+03 0.  0.
         13    1    1    2    0    0  0.16277888348E+02 -0.51786967190E+01  0.92928983719E+02  0.94485955189E+02  0.10566000000E+00 0.  1.
        994    1    1    2    0    0 -0.73847677874E+01  0.70045198634E+01  0.19350928499E+01  0.17151321430E+03  0.17120000000E+03 0.  0.
        998    1    1    2    0    0 -0.88931205607E+01 -0.18258231444E+01  0.14051359197E+04  0.14052008305E+04  0.10000000000E+02 0.  1.
</event>
<event>
 5    1  0.1666761E-008  0.3817982E+03  0.7957747E-01  0.3443366E+00
         13   -1    0    0    0    0  0.00000000000E+00  0.00000000000E+00  0.14999999963E+04  0.15000000000E+04  0.10566000000E+00 0.  1.
        994   -1    0    0    0    0 -0.00000000000E+00 -0.00000000000E+00  0.11368683772E-12  0.17120000000E+03  0.17120000000E+03 0.  0.
         13    1    1    2    0    0 -0.11083724991E+02 -0.35848596031E+01  0.19680942371E+02  0.22870304648E+02  0.10566000000E+00 0.  1.
        994    1    1    2    0    0  0.89961439424E+01  0.15444840881E+01  0.35050828288E+01  0.17147898309E+03  0.17120000000E+03 0.  0.
        998    1    1    2    0    0  0.20875810482E+01  0.20403755150E+01  0.14768139711E+04  0.14768507123E+04  0.10000000000E+02 0.  1.
</event>
<event>
 5    1  0.1666761E-008  0.3837861E+03  0.7957747E-01  0.3434837E+00
         13   -1    0    0    0    0  0.00000000000E+00  0.00000000000E+00  0.14999999963E+04  0.15000000000E+04  0.10566000000E+00 0.  1.
        994   -1    0    0    0    0 -0.00000000000E+00 -0.00000000000E+00  0.11368683772E-12  0.17120000000E+03  0.17120000000E+03 0.  0.
         13    1    1    2    0    0 -0.10149746882E+01 -0.10754311971E+02  0.26667617103E+02  0.28772527966E+02  0.10566000000E+00 0.  1.
        994    1    1    2    0    0  0.21567867419E+01 -0.57907939100E+01  0.23601254853E+01  0.17132774211E+03  0.17120000000E+03 0.  0.
        998    1    1    2    0    0 -0.11418120537E+01  0.16545105881E+02  0.14709722537E+04  0.14710997299E+04  0.10000000000E+02 0.  1.
</event>
<event>
 5    1  0.1666761E-008  0.4247962E+03  0.7957747E-01  0.3276644E+00
         13   -1    0    0    0    0  0.00000000000E+00  0.00000000000E+00  0.14999999963E+04  0.15000000000E+04  0.10566000000E+00 0.  1.
        994   -1    0    0    0    0 -0.00000000000E+00 -0.00000000000E+00  0.11368683772E-12  0.17120000000E+03  0.17120000000E+03 0.  0.
         13    1    1    2    0    0  0.33491847592E+02 -0.55639372192E-01 -0.54013003976E+01  0.33924801560E+02  0.10566000000E+00 0.  1.
        994    1    1    2    0    0 -0.56724926538E+02 -0.87461738729E+01  0.58036382079E+02  0.18966252791E+03  0.17120000000E+03 0.  0.
        998    1    1    2    0    0  0.23233078946E+02  0.88018132451E+01  0.14473649146E+04  0.14476126705E+04  0.10000000000E+02 0.  1.
</event>
<event>
 5    1  0.1666761E-008  0.3746059E+03  0.7957747E-01  0.3474987E+00
         13   -1    0    0    0    0  0.00000000000E+00  0.00000000000E+00  0.14999999963E+04  0.15000000000E+04  0.10566000000E+00 0.  1.
        994   -1    0    0    0    0 -0.00000000000E+00 -0.00000000000E+00  0.11368683772E-12  0.17120000000E+03  0.17120000000E+03 0.  0.
         13    1    1    2    0    0 -0.53783044180E+02 -0.22478624594E+02  0.34738834440E+03  0.35224505304E+03  0.10566000000E+00 0.  1.
        994    1    1    2    0    0 -0.36734369101E+01 -0.91694892006E+01  0.72134504878E+01  0.17163638175E+03  0.17120000000E+03 0.  0.
        998    1    1    2    0    0  0.57456481090E+02  0.31648113795E+02  0.11453982014E+04  0.11473185652E+04  0.10000000000E+02 0.  1.
</event>
<event>
 5    1  0.1666761E-008  0.3792612E+03  0.7957747E-01  0.3454382E+00
         13   -1    0    0    0    0  0.00000000000E+00  0.00000000000E+00  0.14999999963E+04  0.15000000000E+04  0.10566000000E+00 0. -1.
        994   -1    0    0    0    0 -0.00000000000E+00 -0.00000000000E+00  0.11368683772E-12  0.17120000000E+03  0.17120000000E+03 0.  0.
         13    1    1    2    0    0 -0.14570354311E+01 -0.50808363219E+02  0.25572040703E+03  0.26072312989E+03  0.10566000000E+00 0. -1.
        994    1    1    2    0    0 -0.84626313386E+01  0.42958599897E+02  0.10957753809E+02  0.17704962525E+03  0.17120000000E+03 0.  0.
        998    1    1    2    0    0  0.99196667696E+01  0.78497633218E+01  0.12333218354E+04  0.12334272449E+04  0.10000000000E+02 0. -1.
</event>
<event>
 5    1  0.1666761E-008  0.3894717E+03  0.7957747E-01  0.3410926E+00
         13   -1    0    0    0    0  0.00000000000E+00  0.00000000000E+00  0.14999999963E+04  0.15000000000E+04  0.10566000000E+00 0.  1.
        994   -1    0    0    0    0 -0.00000000000E+00 -0.00000000000E+00  0.11368683772E-12  0.17120000000E+03  0.17120000000E+03 0.  0.
         13    1    1    2    0    0 -0.11428425729E+02  0.47083606375E+01 -0.64111799812E+01  0.13924509590E+02  0.10566000000E+00 0.  1.
        994    1    1    2    0    0  0.15893798905E+02 -0.48079627051E+01  0.22666576032E+02  0.17349046953E+03  0.17120000000E+03 0.  0.
        998    1    1    2    0    0 -0.44653731760E+01  0.99602067655E-01  0.14837446002E+04  0.14837850209E+04  0.10000000000E+02 0.  1.
</event>
<event>
 5    1  0.1666761E-008  0.3845634E+03  0.7957747E-01  0.3431526E+00
         13   -1    0    0    0    0  0.00000000000E+00  0.00000000000E+00  0.14999999963E+04  0.15000000000E+04  0.10566000000E+00 0. -1.
        994   -1    0    0    0    0 -0.00000000000E+00 -0.00000000000E+00  0.11368683772E-12  0.17120000000E+03  0.17120000000E+03 0.  0.
         13    1    1    2    0    0  0.87300168598E+01  0.55608125553E+01  0.28524687370E+02  0.30344765352E+02  0.10566000000E+00 0. -1.
        994    1    1    2    0    0 -0.67852252305E+01 -0.35247831798E+01  0.20395956205E+01  0.17138279764E+03  0.17120000000E+03 0.  0.
        998    1    1    2    0    0 -0.19447916293E+01 -0.20360293755E+01  0.14694357133E+04  0.14694724370E+04  0.10000000000E+02 0. -1.
</event>
<event>
 5    1  0.1666761E-008  0.3789313E+03  0.7957747E-01  0.3455825E+00
         13   -1    0    0    0    0  0.00000000000E+00  0.00000000000E+00  0.14999999963E+04  0.15000000000E+04  0.10566000000E+00 0.  1.
        994   -1    0    0    0    0 -0.00000000000E+00 -0.00000000000E+00  0.11368683772E-12  0.17120000000E+03  0.17120000000E+03 0.  0.
         13    1    1    2    0    0  0.34115630205E+02 -0.45653559669E+02  0.31601093285E+03  0.32110908517E+03  0.10566000000E+00 0.  1.
        994    1    1    2    0    0 -0.21007095752E+02  0.37348503724E+02  0.10858423318E+02  0.17681502809E+03  0.17120000000E+03 0.  0.
        998    1    1    2    0    0 -0.13108534453E+02  0.83050559448E+01  0.11731306401E+04  0.11732758867E+04  0.10000000000E+02 0.  1.
</event>
<event>
 5    1  0.1666761E-008  0.3856933E+03  0.7957747E-01  0.3426737E+00
         13   -1    0    0    0    0  0.00000000000E+00  0.00000000000E+00  0.14999999963E+04  0.15000000000E+04  0.10566000000E+00 0.  1.
        994   -1    0    0    0    0 -0.00000000000E+00 -0.00000000000E+00  0.11368683772E-12  0.17120000000E+03  0.17120000000E+03 0.  0.
         13    1    1    2    0    0 -0.10189758585E+02 -0.52998482518E+01  0.51401969434E+02  0.52669661070E+02  0.10566000000E+00 0.  1.
        994    1    1    2    0    0  0.68338227654E+01  0.51658112146E+01  0.15271365456E+01  0.17142099896E+03  0.17120000000E+03 0.  0.
        998    1    1    2    0    0  0.33559358198E+01  0.13403703723E+00  0.14470708903E+04  0.14471093400E+04  0.10000000000E+02 0.  1.
</event>
<event>
 5    1  0.1666761E-008  0.3724379E+03  0.7957747E-01  0.3484761E+00
         13   -1    0    0    0    0  0.00000000000E+00  0.00000000000E+00  0.14999999963E+04  0.15000000000E+04  0.10566000000E+00 0. -1.
        994   -1    0    0    0    0 -0.00000000000E+00 -0.00000000000E+00  0.11368683772E-12  0.17120000000E+03  0.17120000000E+03 0.  0.
         13    1    1    2    0    0 -0.37113519225E+02  0.31205237642E+02  0.13198469088E+03  0.14060992126E+03  0.10566000000E+00 0. -1.
        994    1    1    2    0    0  0.38799867175E+02 -0.30031831643E+02  0.16300234043E+02  0.17883645667E+03  0.17120000000E+03 0.  0.
        998    1    1    2    0    0 -0.16863479495E+01 -0.11734059990E+01  0.13517150714E+04  0.13517536221E+04  0.10000000000E+02 0. -1.
</event>
<event>
 5    1  0.1666761E-008  0.3818231E+03  0.7957747E-01  0.3443259E+00
         13   -1    0    0    0    0  0.00000000000E+00  0.00000000000E+00  0.14999999963E+04  0.15000000000E+04  0.10566000000E+00 0. -1.
        994   -1    0    0    0    0 -0.00000000000E+00 -0.00000000000E+00  0.11368683772E-12  0.17120000000E+03  0.17120000000E+03 0.  0.
         13    1    1    2    0    0  0.67878603127E+02  0.16605514450E+03  0.10475867907E+04  0.10628357874E+04  0.10566000000E+00 0. -1.
        994    1    1    2    0    0 -0.77366551895E+02 -0.16576154425E+03  0.12379810869E+03  0.27945998751E+03  0.17120000000E+03 0.  0.
        998    1    1    2    0    0  0.94879487679E+01 -0.29360024180E+00  0.32861509693E+03  0.32890422512E+03  0.10000000000E+02 0.  0.
</event>
<event>
 5    1  0.1666761E-008  0.3708153E+03  0.7957747E-01  0.3492152E+00
         13   -1    0    0    0    0  0.00000000000E+00  0.00000000000E+00  0.14999999963E+04  0.15000000000E+04  0.10566000000E+00 0.  1.
        994   -1    0    0    0    0 -0.00000000000E+00 -0.00000000000E+00  0.11368683772E-12  0.17120000000E+03  0.17120000000E+03 0.  0.
         13    1    1    2    0    0 -0.46521596438E+02  0.55677801816E+02  0.39928082496E+03  0.40581949792E+03  0.10566000000E+00 0.  1.
        994    1    1    2    0    0 -0.16278071878E+01 -0.89496566401E+01  0.91288883336E+01  0.17168436945E+03  0.17120000000E+03 0.  0.
        998    1    1    2    0    0  0.48149403626E+02 -0.46728145176E+02  0.10915902830E+04  0.10936961326E+04  0.10000000000E+02 0.  1.
</event>
<event>
 5    1  0.1666761E-008  0.3793979E+03  0.7957747E-01  0.3453785E+00
         13   -1    0    0    0    0  0.00000000000E+00  0.00000000000E+00  0.14999999963E+04  0.15000000000E+04  0.10566000000E+00 0.  1.
        994   -1    0    0    0    0 -0.00000000000E+00 -0.00000000000E+00  0.11368683772E-12  0.17120000000E+03  0.17120000000E+03 0.  0.
         13    1    1    2    0    0  0.24206733425E+02  0.18449325826E+02  0.12465877190E+03  0.12832055230E+03  0.10566000000E+00 0.  1.
        994    1    1    2    0    0  0.50552990505E+02 -0.49479086541E+02  0.21384567495E+02  0.18646856191E+03  0.17120000000E+03 0.  0.
        998    1    1    2    0    0 -0.74759723930E+02  0.31029760716E+02  0.13539566569E+04  0.13564108858E+04  0.10000000000E+02 0.  1.
</event>
<event>
 5    1  0.1666761E-008  0.3782836E+03  0.7957747E-01  0.3458666E+00
         13   -1    0    0    0    0  0.00000000000E+00  0.00000000000E+00  0.14999999963E+04  0.15000000000E+04  0.10566000000E+00 0.  1.
        994   -1    0    0    0    0 -0.00000000000E+00 -0.00000000000E+00  0.11368683772E-12  0.17120000000E+03  0.17120000000E+03 0.  0.
         13    1    1    2    0    0 -0.27822597981E+02  0.10329601716E+03  0.51407119160E+03  0.52508415070E+03  0.10566000000E+00 0.  1.
        994    1    1    2    0    0  0.64135587870E+02 -0.12498049320E+03  0.74500617984E+02  0.23365204770E+03  0.17120000000E+03 0.  0.
        998    1    1    2    0    0 -0.36312989889E+02  0.21684476038E+02  0.91142818670E+03  0.91246380161E+03  0.10000000000E+02 0.  1.
</event>
<event>
 5    1  0.1666761E-008  0.3851787E+03  0.7957747E-01  0.3428915E+00
         13   -1    0    0    0    0  0.00000000000E+00  0.00000000000E+00  0.14999999963E+04  0.15000000000E+04  0.10566000000E+00 0.  1.
        994   -1    0    0    0    0 -0.00000000000E+00 -0.00000000000E+00  0.11368683772E-12  0.17120000000E+03  0.17120000000E+03 0.  0.
         13    1    1    2    0    0 -0.82379841923E+01 -0.11542410472E+02  0.69830129398E+02  0.71255524409E+02  0.10566000000E+00 0.  1.
        994    1    1    2    0    0  0.21609859657E+01 -0.19887070658E+01  0.15697750840E+01  0.17123238306E+03  0.17120000000E+03 0.  0.
        998    1    1    2    0    0  0.60769982266E+01  0.13531117538E+02  0.14286000918E+04  0.14287120925E+04  0.10000000000E+02 0.  1.
</event>
<event>
 5    1  0.1666761E-008  0.3795880E+03  0.7957747E-01  0.3452954E+00
         13   -1    0    0    0    0  0.00000000000E+00  0.00000000000E+00  0.14999999963E+04  0.15000000000E+04  0.10566000000E+00 0.  1.
        994   -1    0    0    0    0 -0.00000000000E+00 -0.00000000000E+00  0.11368683772E-12  0.17120000000E+03  0.17120000000E+03 0.  0.
         13    1    1    2    0    0 -0.17471330684E+02 -0.11585961995E+02  0.48553211542E+02  0.52885796073E+02  0.10566000000E+00 0.  1.
        994    1    1    2    0    0  0.17547936228E+02  0.27099289260E+01  0.53973171343E+01  0.17220291755E+03  0.17120000000E+03 0.  0.
        998    1    1    2    0    0 -0.76605543704E-01  0.88760330692E+01  0.14460494676E+04  0.14461112864E+04  0.10000000000E+02 0.  1.
</event>
<event>
 5    1  0.1666761E-008  0.3829634E+03  0.7957747E-01  0.3438356E+00
         13   -1    0    0    0    0  0.00000000000E+00  0.00000000000E+00  0.14999999963E+04  0.15000000000E+04  0.10566000000E+00 0.  1.
        994   -1    0    0    0    0 -0.00000000000E+00 -0.00000000000E+00  0.11368683772E-12  0.17120000000E+03  0.17120000000E+03 0.  0.
         13    1    1    2    0    0 -0.78648811708E+01 -0.70725667756E+01  0.20180535495E+02  0.22784703938E+02  0.10566000000E+00 0.  1.
        994    1    1    2    0    0  0.61272510433E+01  0.39626691371E+01  0.28209690707E+01  0.17137865625E+03  0.17120000000E+03 0.  0.
        998    1    1    2    0    0  0.17376301275E+01  0.31098976385E+01  0.14769984917E+04  0.14770366398E+04  0.10000000000E+02 0.  1.
</event>
<event>
 5    1  0.1666761E-008  0.3716587E+03  0.7957747E-01  0.3488302E+00
         13   -1    0    0    0    0  0.00000000000E+00  0.00000000000E+00  0.14999999963E+04  0.15000000000E+04  0.10566000000E+00 0.  1.
        994   -1    0    0    0    0 -0.00000000000E+00 -0.00000000000E+00  0.11368683772E-12  0.17120000000E+03  0.17120000000E+03 0.  0.
         13    1    1    2    0    0 -0.11705968647E+02 -0.33819834817E+01  0.50209249316E+01  0.13179088187E+02  0.10566000000E+00 0.  1.
        994    1    1    2    0    0  0.50134181125E+01  0.14692990710E+01  0.84984924255E+01  0.17149040082E+03  0.17120000000E+03 0.  0.
        998    1    1    2    0    0  0.66925505342E+01  0.19126844107E+01  0.14864805789E+04  0.14865305110E+04  0.10000000000E+02 0.  1.
</event>
<event>
 5    1  0.1666761E-008  0.3761820E+03  0.7957747E-01  0.3467953E+00
         13   -1    0    0    0    0  0.00000000000E+00  0.00000000000E+00  0.14999999963E+04  0.15000000000E+04  0.10566000000E+00 0.  1.
        994   -1    0    0    0    0 -0.00000000000E+00 -0.00000000000E+00  0.11368683772E-12  0.17120000000E+03  0.17120000000E+03 0.  0.
         13    1    1    2    0    0 -0.47561479602E+02 -0.23633205249E+01  0.23050838585E+03  0.23537588393E+03  0.10566000000E+00 0.  1.
        994    1    1    2    0    0 -0.46902267617E+01  0.14814950269E+02  0.68910137368E+01  0.17204187586E+03  0.17120000000E+03 0.  0.
        998    1    1    2    0    0  0.52251706364E+02 -0.12451629744E+02  0.12626005967E+04  0.12637822402E+04  0.10000000000E+02 0.  1.
</event>
<event>
 5    1  0.2063672E-008  0.3858028E+03  0.7957747E-01  0.3426274E+00
         13   -1    0    0    0    0  0.00000000000E+00  0.00000000000E+00  0.14999999963E+04  0.15000000000E+04  0.10566000000E+00 0.  1.
        994   -1    0    0    0    0 -0.00000000000E+00 -0.00000000000E+00  0.11368683772E-12  0.17120000000E+03  0.17120000000E+03 0.  0.
         13    1    1    2    0    0 -0.29516371984E+01 -0.10149306517E+02  0.47104140370E+02  0.48275581705E+02  0.10566000000E+00 0.  1.
        994    1    1    2    0    0 -0.14172150440E+01  0.28156765881E+01  0.12646674400E+01  0.17123368803E+03  0.17120000000E+03 0.  0.
        998    1    1    2    0    0  0.43688522424E+01  0.73336299293E+01  0.14516311885E+04  0.14516907303E+04  0.10000000000E+02 0.  1.
</event>
<event>
 5    1  0.1666761E-008  0.3850261E+03  0.7957747E-01  0.3429561E+00
         13   -1    0    0    0    0  0.00000000000E+00  0.00000000000E+00  0.14999999963E+04  0.15000000000E+04  0.10566000000E+00 0. -1.
        994   -1    0    0    0    0 -0.00000000000E+00 -0.00000000000E+00  0.11368683772E-12  0.17120000000E+03  0.17120000000E+03 0.  0.
         13    1    1    2    0    0  0.58137300357E+01 -0.14286621323E+02  0.71661148713E+02  0.73302376528E+02  0.10566000000E+00 0. -1.
        994    1    1    2    0    0 -0.10126601036E+02  0.11177955441E+02  0.23656056136E+01  0.17187940780E+03  0.17120000000E+03 0.  0.
        998    1    1    2    0    0  0.43128710004E+01  0.31086658817E+01  0.14259732420E+04  0.14260182157E+04  0.10000000000E+02 0. -1.
</event>
<event>
 5    1  0.1928555E-008  0.3859884E+03  0.7957747E-01  0.3425491E+00
         13   -1    0    0    0    0  0.00000000000E+00  0.00000000000E+00  0.14999999963E+04  0.15000000000E+04  0.10566000000E+00 0. -1.
        994   -1    0    0    0    0 -0.00000000000E+00 -0.00000000000E+00  0.11368683772E-12  0.17120000000E+03  0.17120000000E+03 0.  0.
         13    1    1    2    0    0  0.43519699355E+01 -0.91316557177E+01  0.47809070625E+02  0.48867629127E+02  0.10566000000E+00 0. -1.
        994    1    1    2    0    0 -0.55211268389E+01 -0.38632866882E+01  0.12890929498E+01  0.17133741444E+03  0.17120000000E+03 0.  0.
        998    1    1    2    0    0  0.11691569034E+01  0.12994942406E+02  0.14509018327E+04  0.14509949564E+04  0.10000000000E+02 0. -1.
</event>
<event>
 5    1  0.1666761E-008  0.3775939E+03  0.7957747E-01  0.3461703E+00
         13   -1    0    0    0    0  0.00000000000E+00  0.00000000000E+00  0.14999999963E+04  0.15000000000E+04  0.10566000000E+00 0. -1.
        994   -1    0    0    0    0 -0.00000000000E+00 -0.00000000000E+00  0.11368683772E-12  0.17120000000E+03  0.17120000000E+03 0.  0.
         13    1    1    2    0    0  0.56450363803E+02 -0.51756482964E+02  0.42292170129E+03  0.42980013226E+03  0.10566000000E+00 0. -1.
        994    1    1    2    0    0 -0.48435824184E+02  0.49934262647E+02  0.21837886655E+02  0.18608007132E+03  0.17120000000E+03 0.  0.
        998    1    1    2    0    0 -0.80145396194E+01  0.18222203168E+01  0.10552404083E+04  0.10553197964E+04  0.10000000000E+02 0. -1.
</event>
<event>
 5    1  0.1666761E-008  0.3795408E+03  0.7957747E-01  0.3453160E+00
         13   -1    0    0    0    0  0.00000000000E+00  0.00000000000E+00  0.14999999963E+04  0.15000000000E+04  0.10566000000E+00 0.  1.
        994   -1    0    0    0    0 -0.00000000000E+00 -0.00000000000E+00  0.11368683772E-12  0.17120000000E+03  0.17120000000E+03 0.  0.
         13    1    1    2    0    0  0.10171989911E+02  0.18636851797E+02  0.53419431791E+02  0.57484332479E+02  0.10566000000E+00 0.  1.
        994    1    1    2    0    0 -0.90371485204E+00  0.46372446586E+01  0.44398493528E+01  0.17132271595E+03  0.17120000000E+03 0.  0.
        998    1    1    2    0    0 -0.92682750594E+01 -0.23274096456E+02  0.14421407151E+04  0.14423929516E+04  0.10000000000E+02 0.  1.
</event>
<event>
 5    1  0.1666761E-008  0.3782663E+03  0.7957747E-01  0.3458742E+00
         13   -1    0    0    0    0  0.00000000000E+00  0.00000000000E+00  0.14999999963E+04  0.15000000000E+04  0.10566000000E+00 0.  1.
        994   -1    0    0    0    0 -0.00000000000E+00 -0.00000000000E+00  0.11368683772E-12  0.17120000000E+03  0.17120000000E+03 0.  0.
         13    1    1    2    0    0  0.14541801332E+02 -0.14860561844E+02  0.43104332620E+02  0.47857026014E+02  0.10566000000E+00 0.  1.
        994    1    1    2    0    0  0.60300426710E+01  0.57503070234E+01  0.52443280113E+01  0.17148285752E+03  0.17120000000E+03 0.  0.
        998    1    1    2    0    0 -0.20571844003E+02  0.91102548209E+01  0.14516513356E+04  0.14518601165E+04  0.10000000000E+02 0.  1.
</event>
<event>
 5    1  0.1666761E-008  0.3851441E+03  0.7957747E-01  0.3429061E+00
         13   -1    0    0    0    0  0.00000000000E+00  0.00000000000E+00  0.14999999963E+04  0.15000000000E+04  0.10566000000E+00 0.  1.
        994   -1    0    0    0    0 -0.00000000000E+00 -0.00000000000E+00  0.11368683772E-12  0.17120000000E+03  0.17120000000E+03 0.  0.
         13    1    1    2    0    0  0.11757849962E+02  0.56304365100E+01  0.58098996832E+02  0.59543710398E+02  0.10566000000E+00 0.  1.
        994    1    1    2    0    0  0.33681415571E+01 -0.37488849035E+01  0.16421125197E+01  0.17128203364E+03  0.17120000000E+03 0.  0.
        998    1    1    2    0    0 -0.15125991519E+02 -0.18815516065E+01  0.14402588869E+04  0.14403742560E+04  0.10000000000E+02 0.  1.
</event>
<event>
 5    1  0.1666761E-008  0.3754855E+03  0.7957747E-01  0.3471054E+00
         13   -1    0    0    0    0  0.00000000000E+00  0.00000000000E+00  0.14999999963E+04  0.15000000000E+04  0.10566000000E+00 0. -1.
        994   -1    0    0    0    0 -0.00000000000E+00 -0.00000000000E+00  0.11368683772E-12  0.17120000000E+03  0.17120000000E+03 0.  0.
         13    1    1    2    0    0  0.19162196691E+02  0.50082676997E+02  0.20310644793E+03  0.21006595315E+03  0.10566000000E+00 0. -1.
        994    1    1    2    0    0  0.12393083464E+02 -0.54285561191E+02  0.17025284827E+02  0.18083089060E+03  0.17120000000E+03 0.  0.
        998    1    1    2    0    0 -0.31555280155E+02  0.42028841940E+01  0.12798682635E+04  0.12803031563E+04  0.10000000000E+02 0. -1.
</event>
<event>
 5    1  0.1666761E-008  0.3852143E+03  0.7957747E-01  0.3428764E+00
         13   -1    0    0    0    0  0.00000000000E+00  0.00000000000E+00  0.14999999963E+04  0.15000000000E+04  0.10566000000E+00 0.  1.
        994   -1    0    0    0    0 -0.00000000000E+00 -0.00000000000E+00  0.11368683772E-12  0.17120000000E+03  0.17120000000E+03 0.  0.
         13    1    1    2    0    0 -0.11933629905E+02  0.43866796094E+01  0.56307743327E+02  0.57725450221E+02  0.10566000000E+00 0.  1.
        994    1    1    2    0    0 -0.11912185651E+01 -0.42059987018E+00  0.15290354278E+01  0.17121148868E+03  0.17120000000E+03 0.  0.
        998    1    1    2    0    0  0.13124848470E+02 -0.39660797392E+01  0.14421632175E+04  0.14422630611E+04  0.10000000000E+02 0.  1.
</event>
<event>
 5    1  0.1666761E-008  0.3793426E+03  0.7957747E-01  0.3454026E+00
         13   -1    0    0    0    0  0.00000000000E+00  0.00000000000E+00  0.14999999963E+04  0.15000000000E+04  0.10566000000E+00 0.  1.
        994   -1    0    0    0    0 -0.00000000000E+00 -0.00000000000E+00  0.11368683772E-12  0.17120000000E+03  0.17120000000E+03 0.  0.
         13    1    1    2    0    0  0.40085839730E+01 -0.19755496151E+02  0.42561383849E+02  0.47093852388E+02  0.10566000000E+00 0.  1.
        994    1    1    2    0    0  0.26239954964E+00  0.22108414118E+02  0.61048375791E+01  0.17272973071E+03  0.17120000000E+03 0.  0.
        998    1    1    2    0    0 -0.42709835227E+01 -0.23529179673E+01  0.14513337749E+04  0.14513764169E+04  0.10000000000E+02 0.  1.
</event>
<event>
 5    1  0.1666761E-008  0.3771213E+03  0.7957747E-01  0.3463790E+00
         13   -1    0    0    0    0  0.00000000000E+00  0.00000000000E+00  0.14999999963E+04  0.15000000000E+04  0.10566000000E+00 0. -1.
        994   -1    0    0    0    0 -0.00000000000E+00 -0.00000000000E+00  0.11368683772E-12  0.17120000000E+03  0.17120000000E+03 0.  0.
         13    1    1    2    0    0  0.10718048665E+02 -0.64933700776E+01  0.11500991228E+02  0.17009538072E+02  0.10566000000E+00 0. -1.
        994    1    1    2    0    0 -0.10663229657E+02  0.34209901871E+01  0.60167960299E+01  0.17167134145E+03  0.17120000000E+03 0.  0.
        998    1    1    2    0    0 -0.54819007760E-01  0.30723798905E+01  0.14824822090E+04  0.14825191205E+04  0.10000000000E+02 0. -1.
</event>
<event>
 5    1  0.1666761E-008  0.3826555E+03  0.7957747E-01  0.3439677E+00
         13   -1    0    0    0    0  0.00000000000E+00  0.00000000000E+00  0.14999999963E+04  0.15000000000E+04  0.10566000000E+00 0. -1.
        994   -1    0    0    0    0 -0.00000000000E+00 -0.00000000000E+00  0.11368683772E-12  0.17120000000E+03  0.17120000000E+03 0.  0.
         13    1    1    2    0    0 -0.10856536488E+02  0.21041187821E+02  0.10279406995E+03  0.10548567652E+03  0.10566000000E+00 0. -1.
        994    1    1    2    0    0  0.42914159938E+01 -0.80114978394E+01  0.30724069187E+01  0.17146859780E+03  0.17120000000E+03 0.  0.
        998    1    1    2    0    0  0.65651204944E+01 -0.13029689981E+02  0.13941335194E+04  0.13942457257E+04  0.10000000000E+02 0. -1.
</event>
<event>
 5    1  0.1666761E-008  0.3799117E+03  0.7957747E-01  0.3451543E+00
         13   -1    0    0    0    0  0.00000000000E+00  0.00000000000E+00  0.14999999963E+04  0.15000000000E+04  0.10566000000E+00 0. -1.
        994   -1    0    0    0    0 -0.00000000000E+00 -0.00000000000E+00  0.11368683772E-12  0.17120000000E+03  0.17120000000E+03 0.  0.
         13    1    1    2    0    0 -0.20763866284E+02  0.43178771942E+02  0.28606161537E+03  0.29004620915E+03  0.10566000000E+00 0. -1.
        994    1    1    2    0    0 -0.56955822636E+01 -0.28140056511E+02  0.69390112294E+01  0.17372936515E+03  0.17120000000E+03 0.  0.
        998    1    1    2    0    0  0.26459448548E+02 -0.15038715431E+02  0.12069993697E+04  0.12074244257E+04  0.10000000000E+02 0. -1.
</event>
<event>
 5    1  0.1666761E-008  0.3837633E+03  0.7957747E-01  0.3434934E+00
         13   -1    0    0    0    0  0.00000000000E+00  0.00000000000E+00  0.14999999963E+04  0.15000000000E+04  0.10566000000E+00 0.  1.
        994   -1    0    0    0    0 -0.00000000000E+00 -0.00000000000E+00  0.11368683772E-12  0.17120000000E+03  0.17120000000E+03 0.  0.
         13    1    1    2    0    0  0.10233875434E+02  0.60463628651E+01  0.31146016912E+02  0.33337310087E+02  0.10566000000E+00 0.  1.
        994    1    1    2    0    0 -0.29655611230E+01 -0.54126065767E+01  0.23711521483E+01  0.17132761956E+03  0.17120000000E+03 0.  0.
        998    1    1    2    0    0 -0.72683143113E+01 -0.63375628848E+00  0.14664828272E+04  0.14665350703E+04  0.10000000000E+02 0.  1.
</event>
<event>
 5    1  0.1666761E-008  0.3780000E+03  0.7957747E-01  0.3459913E+00
         13   -1    0    0    0    0  0.00000000000E+00  0.00000000000E+00  0.14999999963E+04  0.15000000000E+04  0.10566000000E+00 0. -1.
        994   -1    0    0    0    0 -0.00000000000E+00 -0.00000000000E+00  0.11368683772E-12  0.17120000000E+03  0.17120000000E+03 0.  0.
         13    1    1    2    0    0 -0.10211553564E+02 -0.11780870682E+02  0.22024310023E+02  0.26984183075E+02  0.10566000000E+00 0. -1.
        994    1    1    2    0    0  0.26023600853E+01 -0.13207264303E+01  0.51747947776E+01  0.17130305046E+03  0.17120000000E+03 0.  0.
        998    1    1    2    0    0  0.76091934789E+01  0.13101597113E+02  0.14728008915E+04  0.14729127665E+04  0.10000000000E+02 0. -1.
</event>
<event>
 5    1  0.1666761E-008  0.3757873E+03  0.7957747E-01  0.3469709E+00
         13   -1    0    0    0    0  0.00000000000E+00  0.00000000000E+00  0.14999999963E+04  0.15000000000E+04  0.10566000000E+00 0.  1.
        994   -1    0    0    0    0 -0.00000000000E+00 -0.00000000000E+00  0.11368683772E-12  0.17120000000E+03  0.17120000000E+03 0.  0.
         13    1    1    2    0    0 -0.28543553763E+02  0.21481274142E+02  0.94582498759E+02  0.10110410395E+03  0.10566000000E+00 0.  1.
        994    1    1    2    0    0  0.25572164374E+02 -0.22297837726E+02  0.10187479875E+02  0.17482663957E+03  0.17120000000E+03 0.  0.
        998    1    1    2    0    0  0.29713893885E+01  0.81656358432E+00  0.13952300176E+04  0.13952692565E+04  0.10000000000E+02 0.  1.
</event>
<event>
 5    1  0.1666761E-008  0.4086959E+03  0.7957747E-01  0.3334999E+00
         13   -1    0    0    0    0  0.00000000000E+00  0.00000000000E+00  0.14999999963E+04  0.15000000000E+04  0.10566000000E+00 0. -1.
        994   -1    0    0    0    0 -0.00000000000E+00 -0.00000000000E+00  0.11368683772E-12  0.17120000000E+03  0.17120000000E+03 0.  0.
         13    1    1    2    0    0  0.69622372847E+01 -0.40873255449E+02  0.12935197601E+02  0.43433008876E+02  0.10566000000E+00 0. -1.
        994    1    1    2    0    0 -0.46031804653E+01  0.38195898903E+02  0.39112564516E+02  0.17977582893E+03  0.17120000000E+03 0.  0.
        998    1    1    2    0    0 -0.23590568194E+01  0.26773565466E+01  0.14479522342E+04  0.14479911622E+04  0.10000000000E+02 0. -1.
</event>
<event>
 5    1  0.1666761E-008  0.3815107E+03  0.7957747E-01  0.3444607E+00
         13   -1    0    0    0    0  0.00000000000E+00  0.00000000000E+00  0.14999999963E+04  0.15000000000E+04  0.10566000000E+00 0.  1.
        994   -1    0    0    0    0 -0.00000000000E+00 -0.00000000000E+00  0.11368683772E-12  0.17120000000E+03  0.17120000000E+03 0.  0.
         13    1    1    2    0    0 -0.12716760253E+02  0.49118443059E+01  0.27460520678E+02  0.30658335992E+02  0.10566000000E+00 0.  1.
        994    1    1    2    0    0 -0.11302391556E+02 -0.16026465878E+02  0.46528082006E+01  0.17238236652E+03  0.17120000000E+03 0.  0.
        998    1    1    2    0    0  0.24019151809E+02  0.11114621572E+02  0.14678866674E+04  0.14681592975E+04  0.10000000000E+02 0.  1.
</event>
<event>
 5    1  0.1666761E-008  0.3813595E+03  0.7957747E-01  0.3445260E+00
         13   -1    0    0    0    0  0.00000000000E+00  0.00000000000E+00  0.14999999963E+04  0.15000000000E+04  0.10566000000E+00 0. -1.
        994   -1    0    0    0    0 -0.00000000000E+00 -0.00000000000E+00  0.11368683772E-12  0.17120000000E+03  0.17120000000E+03 0.  0.
         13    1    1    2    0    0  0.21011808972E+02 -0.17681207961E+02  0.12991156420E+03  0.13278232905E+03  0.10566000000E+00 0. -1.
        994    1    1    2    0    0 -0.10418774770E+02 -0.28355344351E+02  0.64913872928E+01  0.17396595796E+03  0.17120000000E+03 0.  0.
        998    1    1    2    0    0 -0.10593034202E+02  0.46036552312E+02  0.13635970448E+04  0.13644517130E+04  0.10000000000E+02 0. -1.
</event>
<event>
 5    1  0.1666761E-008  0.3849088E+03  0.7957747E-01  0.3430059E+00
         13   -1    0    0    0    0  0.00000000000E+00  0.00000000000E+00  0.14999999963E+04  0.15000000000E+04  0.10566000000E+00 0. -1.
        994   -1    0    0    0    0 -0.00000000000E+00 -0.00000000000E+00  0.11368683772E-12  0.17120000000E+03  0.17120000000E+03 0.  0.
         13    1    1    2    0    0  0.69463421682E+01  0.84827564070E+01  0.35187957947E+02  0.36856646270E+02  0.10566000000E+00 0. -1.
        994    1    1    2    0    0 -0.42231690581E+01 -0.98662680831E+01  0.20544129008E+01  0.17154835766E+03  0.17120000000E+03 0.  0.
        998    1    1    2    0    0 -0.27231731101E+01  0.13835116761E+01  0.14627576254E+04  0.14627949961E+04  0.10000000000E+02 0. -1.
</event>
<event>
 5    1  0.1666761E-008  0.3811734E+03  0.7957747E-01  0.3446065E+00
         13   -1    0    0    0    0  0.00000000000E+00  0.00000000000E+00  0.14999999963E+04  0.15000000000E+04  0.10566000000E+00 0.  1.
        994   -1    0    0    0    0 -0.00000000000E+00 -0.00000000000E+00  0.11368683772E-12  0.17120000000E+03  0.17120000000E+03 0.  0.
         13    1    1    2    0    0  0.24716614736E+02  0.61444052315E+01  0.98594955056E+02  0.10183143467E+03  0.10566000000E+00 0.  1.
        994    1    1    2    0    0  0.14231102635E+01 -0.56023677756E+01  0.36532527932E+01  0.17133650523E+03  0.17120000000E+03 0.  0.
        998    1    1    2    0    0 -0.26139725000E+02 -0.54203745591E+00  0.13977517884E+04  0.13980320601E+04  0.10000000000E+02 0.  1.
</event>
<event>
 5    1  0.1666761E-008  0.3799635E+03  0.7957747E-01  0.3451318E+00
         13   -1    0    0    0    0  0.00000000000E+00  0.00000000000E+00  0.14999999963E+04  0.15000000000E+04  0.10566000000E+00 0.  1.
        994   -1    0    0    0    0 -0.00000000000E+00 -0.00000000000E+00  0.11368683772E-12  0.17120000000E+03  0.17120000000E+03 0.  0.
         13    1    1    2    0    0  0.35288137316E+02 -0.34421147353E+02  0.28885939188E+03  0.29303553959E+03  0.10566000000E+00 0.  1.
        994    1    1    2    0    0  0.14962077476E+02  0.66497170907E+02  0.19843429895E+02  0.18533466813E+03  0.17120000000E+03 0.  0.
        998    1    1    2    0    0 -0.50250214792E+02 -0.32076023554E+02  0.11912971745E+04  0.11928297923E+04  0.10000000000E+02 0.  1.
</event>
<event>
 5    1  0.1666761E-008  0.3697494E+03  0.7957747E-01  0.3497043E+00
         13   -1    0    0    0    0  0.00000000000E+00  0.00000000000E+00  0.14999999963E+04  0.15000000000E+04  0.10566000000E+00 0. -1.
        994   -1    0    0    0    0 -0.00000000000E+00 -0.00000000000E+00  0.11368683772E-12  0.17120000000E+03  0.17120000000E+03 0.  0.
         13    1    1    2    0    0 -0.20976174198E+02 -0.32928133065E+02  0.74882170603E+02  0.84448874885E+02  0.10566000000E+00 0. -1.
        994    1    1    2    0    0  0.18093411686E+02  0.31257963777E+02  0.13927724521E+02  0.17552166065E+03  0.17120000000E+03 0.  0.
        998    1    1    2    0    0  0.28827625115E+01  0.16701692881E+01  0.14111901012E+04  0.14112294645E+04  0.10000000000E+02 0. -1.
</event>
<event>
 5    1  0.1666761E-008  0.4028052E+03  0.7957747E-01  0.3357499E+00
         13   -1    0    0    0    0  0.00000000000E+00  0.00000000000E+00  0.14999999963E+04  0.15000000000E+04  0.10566000000E+00 0. -1.
        994   -1    0    0    0    0 -0.00000000000E+00 -0.00000000000E+00  0.11368683772E-12  0.17120000000E+03  0.17120000000E+03 0.  0.
         13    1    1    2    0    0 -0.13556648877E+03 -0.98753929540E+01  0.54166059234E+03  0.55845501584E+03  0.10566000000E+00 0. -1.
        994    1    1    2    0    0 -0.25164032630E+01  0.37910619112E+02  0.35202666287E+02  0.17886367725E+03  0.17120000000E+03 0.  0.
        998    1    1    2    0    0  0.13808289204E+03 -0.28035226158E+02  0.92313673765E+03  0.93388130690E+03  0.10000000000E+02 0. -1.
</event>
<event>
 5    1  0.1666761E-008  0.3841829E+03  0.7957747E-01  0.3433145E+00
         13   -1    0    0    0    0  0.00000000000E+00  0.00000000000E+00  0.14999999963E+04  0.15000000000E+04  0.10566000000E+00 0.  1.
        994   -1    0    0    0    0 -0.00000000000E+00 -0.00000000000E+00  0.11368683772E-12  0.17120000000E+03  0.17120000000E+03 0.  0.
         13    1    1    2    0    0  0.11952131561E+02 -0.42386518712E+01  0.42175878418E+02  0.44041293157E+02  0.10566000000E+00 0.  1.
        994    1    1    2    0    0  0.86343986800E+01  0.70361228658E+00  0.22838827965E+01  0.17143425571E+03  0.17120000000E+03 0.  0.
        998    1    1    2    0    0 -0.20586530241E+02  0.35350395846E+01  0.14555402351E+04  0.14557244511E+04  0.10000000000E+02 0.  1.
</event>
<event>
 5    1  0.1666761E-008  0.2965262E+03  0.7957747E-01  0.3921135E+00
         13   -1    0    0    0    0  0.00000000000E+00  0.00000000000E+00  0.14999999963E+04  0.15000000000E+04  0.10566000000E+00 0.  1.
        994   -1    0    0    0    0 -0.00000000000E+00 -0.00000000000E+00  0.11368683772E-12  0.17120000000E+03  0.17120000000E+03 0.  0.
         13    1    1    2    0    0  0.71701611432E+02  0.12985216796E+03  0.73084013163E+03  0.74574125256E+03  0.10566000000E+00 0.  1.
        994    1    1    2    0    0 -0.96707473426E+02 -0.65627190793E+02  0.64108324030E+02  0.21697599129E+03  0.17120000000E+03 0.  0.
        998    1    1    2    0    0  0.25005861993E+02 -0.64224977169E+02  0.70505154062E+03  0.70848275615E+03  0.10000000000E+02 0. -1.
</event>
<event>
 5    1  0.1666761E-008  0.3699338E+03  0.7957747E-01  0.3496195E+00
         13   -1    0    0    0    0  0.00000000000E+00  0.00000000000E+00  0.14999999963E+04  0.15000000000E+04  0.10566000000E+00 0. -1.
        994   -1    0    0    0    0 -0.00000000000E+00 -0.00000000000E+00  0.11368683772E-12  0.17120000000E+03  0.17120000000E+03 0.  0.
         13    1    1    2    0    0  0.57227527569E+02  0.56993145603E+02  0.25275334531E+03  0.26534406586E+03  0.10566000000E+00 0. -1.
        994    1    1    2    0    0 -0.40056991839E+02 -0.67569106751E+02  0.32792802946E+02  0.19119350069E+03  0.17120000000E+03 0.  0.
        998    1    1    2    0    0 -0.17170535731E+02  0.10575961148E+02  0.12144538480E+04  0.12146624334E+04  0.10000000000E+02 0. -1.
</event>
<event>
 5    1  0.1666761E-008  0.3814656E+03  0.7957747E-01  0.3444802E+00
         13   -1    0    0    0    0  0.00000000000E+00  0.00000000000E+00  0.14999999963E+04  0.15000000000E+04  0.10566000000E+00 0.  1.
        994   -1    0    0    0    0 -0.00000000000E+00 -0.00000000000E+00  0.11368683772E-12  0.17120000000E+03  0.17120000000E+03 0.  0.
         13    1    1    2    0    0 -0.11320609156E+02  0.13589752011E+02  0.45213599023E+02  0.48550162225E+02  0.10566000000E+00 0.  1.
        994    1    1    2    0    0  0.11658120492E+02 -0.28731517113E+01  0.38749051693E+01  0.17166427020E+03  0.17120000000E+03 0.  0.
        998    1    1    2    0    0 -0.33751133544E+00 -0.10716600300E+02  0.14509114921E+04  0.14509855676E+04  0.10000000000E+02 0.  1.
</event>
<event>
 5    1  0.1666761E-008  0.3817737E+03  0.7957747E-01  0.3443471E+00
         13   -1    0    0    0    0  0.00000000000E+00  0.00000000000E+00  0.14999999963E+04  0.15000000000E+04  0.10566000000E+00 0. -1.
        994   -1    0    0    0    0 -0.00000000000E+00 -0.00000000000E+00  0.11368683772E-12  0.17120000000E+03  0.17120000000E+03 0.  0.
         13    1    1    2    0    0 -0.46225819884E+01 -0.92173538573E+01  0.15119958282E+02  0.18301698797E+02  0.10566000000E+00 0. -1.
        994    1    1    2    0    0 -0.28613125034E+01  0.80831782166E+01  0.34848450343E+01  0.17145001903E+03  0.17120000000E+03 0.  0.
        998    1    1    2    0    0  0.74838944918E+01  0.11341756407E+01  0.14813951930E+04  0.14814482822E+04  0.10000000000E+02 0. -1.
</event>
<event>
 5    1  0.1666761E-008  0.3777339E+03  0.7957747E-01  0.3461085E+00
         13   -1    0    0    0    0  0.00000000000E+00  0.00000000000E+00  0.14999999963E+04  0.15000000000E+04  0.10566000000E+00 0. -1.
        994   -1    0    0    0    0 -0.00000000000E+00 -0.00000000000E+00  0.11368683772E-12  0.17120000000E+03  0.17120000000E+03 0.  0.
         13    1    1    2    0    0 -0.16528794924E+02 -0.45189460992E+01  0.25223202716E+02  0.30493328038E+02  0.10566000000E+00 0. -1.
        994    1    1    2    0    0  0.16165526898E+02  0.67258485012E+01  0.63146905546E+01  0.17220881689E+03  0.17120000000E+03 0.  0.
        998    1    1    2    0    0  0.36326802678E+00 -0.22069024020E+01  0.14684621030E+04  0.14684978551E+04  0.10000000000E+02 0. -1.
</event>
<event>
 5    1  0.1666761E-008  0.3843169E+03  0.7957747E-01  0.3432574E+00
         13   -1    0    0    0    0  0.00000000000E+00  0.00000000000E+00  0.14999999963E+04  0.15000000000E+04  0.10566000000E+00 0. -1.
        994   -1    0    0    0    0 -0.00000000000E+00 -0.00000000000E+00  0.11368683772E-12  0.17120000000E+03  0.17120000000E+03 0.  0.
         13    1    1    2    0    0  0.19593531737E+02  0.19329486216E+01  0.10917693799E+03  0.11093808061E+03  0.10566000000E+00 0. -1.
        994    1    1    2    0    0  0.15895791415E+01 -0.61624891193E+00  0.19792243475E+01  0.17121992832E+03  0.17120000000E+03 0.  0.
        998    1    1    2    0    0 -0.21183110879E+02 -0.13166997097E+01  0.13888438339E+04  0.13890419911E+04  0.10000000000E+02 0. -1.
</event>
<event>
 5    1  0.1666761E-008  0.3815669E+03  0.7957747E-01  0.3444364E+00
         13   -1    0    0    0    0  0.00000000000E+00  0.00000000000E+00  0.14999999963E+04  0.15000000000E+04  0.10566000000E+00 0. -1.
        994   -1    0    0    0    0 -0.00000000000E+00 -0.00000000000E+00  0.11368683772E-12  0.17120000000E+03  0.17120000000E+03 0.  0.
         13    1    1    2    0    0 -0.26324866793E+02  0.90036912026E+01  0.10988763895E+03  0.11335505910E+03  0.10566000000E+00 0. -1.
        994    1    1    2    0    0  0.22320023275E+02 -0.90252797000E+01  0.52743307762E+01  0.17296501865E+03  0.17120000000E+03 0.  0.
        998    1    1    2    0    0  0.40048435180E+01  0.21588497343E-01  0.13848380266E+04  0.13848799222E+04  0.10000000000E+02 0. -1.
</event>
<event>
 5    1  0.1666761E-008  0.3034293E+03  0.7957747E-01  0.3871837E+00
         13   -1    0    0    0    0  0.00000000000E+00  0.00000000000E+00  0.14999999963E+04  0.15000000000E+04  0.10566000000E+00 0. -1.
        994   -1    0    0    0    0 -0.00000000000E+00 -0.00000000000E+00  0.11368683772E-12  0.17120000000E+03  0.17120000000E+03 0.  0.
         13    1    1    2    0    0 -0.15029574188E+03 -0.27132178385E+02  0.79348870283E+03  0.80805278158E+03  0.10566000000E+00 0. -1.
        994    1    1    2    0    0  0.90154833055E+02  0.13624514104E+02  0.45550368544E+02  0.19924306106E+03  0.17120000000E+03 0.  0.
        998    1    1    2    0    0  0.60140908824E+02  0.13507664281E+02  0.66096092490E+03  0.66390415736E+03  0.10000000000E+02 0. -1.
</event>
<event>
 5    1  0.1666761E-008  0.3824058E+03  0.7957747E-01  0.3440750E+00
         13   -1    0    0    0    0  0.00000000000E+00  0.00000000000E+00  0.14999999963E+04  0.15000000000E+04  0.10566000000E+00 0. -1.
        994   -1    0    0    0    0 -0.00000000000E+00 -0.00000000000E+00  0.11368683772E-12  0.17120000000E+03  0.17120000000E+03 0.  0.
         13    1    1    2    0    0 -0.10128807946E-01  0.26162231248E+02  0.12360000585E+03  0.12633857311E+03  0.10566000000E+00 0. -1.
        994    1    1    2    0    0  0.67813349959E+01 -0.67011387926E+01  0.32251394349E+01  0.17149557805E+03  0.17120000000E+03 0.  0.
        998    1    1    2    0    0 -0.67712061880E+01 -0.19461092455E+02  0.13731748510E+04  0.13733658488E+04  0.10000000000E+02 0. -1.
</event>
<event>
 5    1  0.1666761E-008  0.3856337E+03  0.7957747E-01  0.3426989E+00
         13   -1    0    0    0    0  0.00000000000E+00  0.00000000000E+00  0.14999999963E+04  0.15000000000E+04  0.10566000000E+00 0. -1.
        994   -1    0    0    0    0 -0.00000000000E+00 -0.00000000000E+00  0.11368683772E-12  0.17120000000E+03  0.17120000000E+03 0.  0.
         13    1    1    2    0    0  0.15339163320E+01 -0.10742280287E+02  0.42522233132E+02  0.43885088124E+02  0.10566000000E+00 0. -1.
        994    1    1    2    0    0 -0.35617276814E+02  0.13497094972E+02  0.60916697688E+01  0.17549162493E+03  0.17120000000E+03 0.  0.
        998    1    1    2    0    0  0.34083360482E+02 -0.27548146852E+01  0.14513860934E+04  0.14518232869E+04  0.10000000000E+02 0. -1.
</event>
<event>
 5    1  0.1666761E-008  0.3794783E+03  0.7957747E-01  0.3453433E+00
         13   -1    0    0    0    0  0.00000000000E+00  0.00000000000E+00  0.14999999963E+04  0.15000000000E+04  0.10566000000E+00 0. -1.
        994   -1    0    0    0    0 -0.00000000000E+00 -0.00000000000E+00  0.11368683772E-12  0.17120000000E+03  0.17120000000E+03 0.  0.
         13    1    1    2    0    0 -0.22146063664E+02  0.55018905579E+02  0.34027189535E+03  0.34540194273E+03  0.10566000000E+00 0. -1.
        994    1    1    2    0    0  0.10035935647E+02 -0.50282853835E+02  0.13251544918E+02  0.17920415407E+03  0.17120000000E+03 0.  0.
        998    1    1    2    0    0  0.12110128017E+02 -0.47360517441E+01  0.11464765560E+04  0.11465939032E+04  0.10000000000E+02 0. -1.
</event>
<event>
 5    1  0.1666761E-008  0.3853174E+03  0.7957747E-01  0.3428327E+00
         13   -1    0    0    0    0  0.00000000000E+00  0.00000000000E+00  0.14999999963E+04  0.15000000000E+04  0.10566000000E+00 0. -1.
        994   -1    0    0    0    0 -0.00000000000E+00 -0.00000000000E+00  0.11368683772E-12  0.17120000000E+03  0.17120000000E+03 0.  0.
         13    1    1    2    0    0  0.14277194903E+02  0.75745107688E+01  0.83319729368E+02  0.84872845915E+02  0.10566000000E+00 0. -1.
        994    1    1    2    0    0 -0.18251240623E+02 -0.68347159064E+01  0.27214626761E+01  0.17232721052E+03  0.17120000000E+03 0.  0.
        998    1    1    2    0    0  0.39740457196E+01 -0.73979486246E+00  0.14139588042E+04  0.14139999436E+04  0.10000000000E+02 0. -1.
</event>
<event>
 5    1  0.1666761E-008  0.3814379E+03  0.7957747E-01  0.3444922E+00
         13   -1    0    0    0    0  0.00000000000E+00  0.00000000000E+00  0.14999999963E+04  0.15000000000E+04  0.10566000000E+00 0.  1.
        994   -1    0    0    0    0 -0.00000000000E+00 -0.00000000000E+00  0.11368683772E-12  0.17120000000E+03  0.17120000000E+03 0.  0.
         13    1    1    2    0    0 -0.13874089532E+02  0.65577642100E+01  0.33017740420E+02  0.36409847270E+02  0.10566000000E+00 0.  1.
        994    1    1    2    0    0  0.12027974166E+02 -0.39445724989E+01  0.39423680732E+01  0.17171259150E+03  0.17120000000E+03 0.  0.
        998    1    1    2    0    0  0.18461153656E+01 -0.26131917111E+01  0.14630398878E+04  0.14630775612E+04  0.10000000000E+02 0.  1.
</event>
<event>
 5    1  0.1666761E-008  0.3799285E+03  0.7957747E-01  0.3451470E+00
         13   -1    0    0    0    0  0.00000000000E+00  0.00000000000E+00  0.14999999963E+04  0.15000000000E+04  0.10566000000E+00 0. -1.
        994   -1    0    0    0    0 -0.00000000000E+00 -0.00000000000E+00  0.11368683772E-12  0.17120000000E+03  0.17120000000E+03 0.  0.
         13    1    1    2    0    0 -0.15926422569E+03 -0.63300038823E+01  0.86198498586E+03  0.87659756419E+03  0.10566000000E+00 0. -1.
        994    1    1    2    0    0  0.17234116411E+03 -0.85300022849E+01  0.11116371123E+03  0.26728458332E+03  0.17120000000E+03 0.  0.
        998    1    1    2    0    0 -0.13076938417E+02  0.14860006167E+02  0.52685129918E+03  0.52731785249E+03  0.10000000000E+02 0. -1.
</event>
<event>
 5    1  0.1666761E-008  0.3806702E+03  0.7957747E-01  0.3448245E+00
         13   -1    0    0    0    0  0.00000000000E+00  0.00000000000E+00  0.14999999963E+04  0.15000000000E+04  0.10566000000E+00 0. -1.
        994   -1    0    0    0    0 -0.00000000000E+00 -0.00000000000E+00  0.11368683772E-12  0.17120000000E+03  0.17120000000E+03 0.  0.
         13    1    1    2    0    0 -0.98685642574E+01 -0.12496691740E+02  0.31899265892E+02  0.35652912833E+02  0.10566000000E+00 0. -1.
        994    1    1    2    0    0  0.10480214534E+02  0.59231311503E+01  0.42787367183E+01  0.17167604949E+03  0.17120000000E+03 0.  0.
        998    1    1    2    0    0 -0.61165027623E+00  0.65735605899E+01  0.14638219937E+04  0.14638710377E+04  0.10000000000E+02 0. -1.
</event>
<event>
 5    1  0.1666761E-008  0.3726400E+03  0.7957747E-01  0.3483845E+00
         13   -1    0    0    0    0  0.00000000000E+00  0.00000000000E+00  0.14999999963E+04  0.15000000000E+04  0.10566000000E+00 0. -1.
        994   -1    0    0    0    0 -0.00000000000E+00 -0.00000000000E+00  0.11368683772E-12  0.17120000000E+03  0.17120000000E+03 0.  0.
         13    1    1    2    0    0 -0.96596671832E+02  0.62686334364E+02  0.44204482425E+03  0.45679769192E+03  0.10566000000E+00 0. -1.
        994    1    1    2    0    0  0.45087171610E+02 -0.11189349071E+03  0.65634023556E+02  0.21947726842E+03  0.17120000000E+03 0.  0.
        998    1    1    2    0    0  0.51509500221E+02  0.49207156343E+02  0.99232114847E+03  0.99492503966E+03  0.10000000000E+02 0. -1.
</event>
<event>
 5    1  0.1666761E-008  0.3831503E+03  0.7957747E-01  0.3437555E+00
         13   -1    0    0    0    0  0.00000000000E+00  0.00000000000E+00  0.14999999963E+04  0.15000000000E+04  0.10566000000E+00 0.  1.
        994   -1    0    0    0    0 -0.00000000000E+00 -0.00000000000E+00  0.11368683772E-12  0.17120000000E+03  0.17120000000E+03 0.  0.
         13    1    1    2    0    0  0.12810593555E+02 -0.17248325875E+02  0.86396128071E+02  0.89027625839E+02  0.10566000000E+00 0.  1.
        994    1    1    2    0    0 -0.98198415263E+01  0.17612747117E+02  0.38977625429E+01  0.17242758103E+03  0.17120000000E+03 0.  0.
        998    1    1    2    0    0 -0.29907520290E+01 -0.36442124182E+00  0.14097061057E+04  0.14097447931E+04  0.10000000000E+02 0.  1.
</event>
<event>
 5    1  0.1666761E-008  0.3847096E+03  0.7957747E-01  0.3430905E+00
         13   -1    0    0    0    0  0.00000000000E+00  0.00000000000E+00  0.14999999963E+04  0.15000000000E+04  0.10566000000E+00 0.  1.
        994   -1    0    0    0    0 -0.00000000000E+00 -0.00000000000E+00  0.11368683772E-12  0.17120000000E+03  0.17120000000E+03 0.  0.
         13    1    1    2    0    0 -0.80409055923E+01  0.67781251326E+01  0.32815796717E+02  0.34459930662E+02  0.10566000000E+00 0.  1.
        994    1    1    2    0    0  0.35846788199E+01  0.14685492208E+02  0.25269696023E+01  0.17188466825E+03  0.17120000000E+03 0.  0.
        998    1    1    2    0    0  0.44562267724E+01 -0.21463617341E+02  0.14646572300E+04  0.14648554011E+04  0.10000000000E+02 0.  1.
</event>
<event>
 5    1  0.1666761E-008  0.3805783E+03  0.7957747E-01  0.3448644E+00
         13   -1    0    0    0    0  0.00000000000E+00  0.00000000000E+00  0.14999999963E+04  0.15000000000E+04  0.10566000000E+00 0.  1.
        994   -1    0    0    0    0 -0.00000000000E+00 -0.00000000000E+00  0.11368683772E-12  0.17120000000E+03  0.17120000000E+03 0.  0.
         13    1    1    2    0    0  0.33568410783E+02  0.13858536246E+02  0.15282764451E+03  0.15708340880E+03  0.10566000000E+00 0.  1.
        994    1    1    2    0    0 -0.35223589236E+02 -0.14330588839E+02  0.86814500209E+01  0.17558722787E+03  0.17120000000E+03 0.  0.
        998    1    1    2    0    0  0.16551784527E+01  0.47205259255E+00  0.13384909017E+04  0.13385293633E+04  0.10000000000E+02 0.  1.
</event>
<event>
 5    1  0.1666761E-008  0.3831067E+03  0.7957747E-01  0.3437742E+00
         13   -1    0    0    0    0  0.00000000000E+00  0.00000000000E+00  0.14999999963E+04  0.15000000000E+04  0.10566000000E+00 0.  1.
        994   -1    0    0    0    0 -0.00000000000E+00 -0.00000000000E+00  0.11368683772E-12  0.17120000000E+03  0.17120000000E+03 0.  0.
         13    1    1    2    0    0  0.11235420800E+02  0.11761375139E+01  0.24317019528E+02  0.26813179273E+02  0.10566000000E+00 0.  1.
        994    1    1    2    0    0 -0.19978713265E+01 -0.55796812072E+01  0.26893073859E+01  0.17132366067E+03  0.17120000000E+03 0.  0.
        998    1    1    2    0    0 -0.92375494733E+01  0.44035436932E+01  0.14729936694E+04  0.14730631601E+04  0.10000000000E+02 0.  1.
</event>
<event>
 5    1  0.1666761E-008  0.3796664E+03  0.7957747E-01  0.3452612E+00
         13   -1    0    0    0    0  0.00000000000E+00  0.00000000000E+00  0.14999999963E+04  0.15000000000E+04  0.10566000000E+00 0. -1.
        994   -1    0    0    0    0 -0.00000000000E+00 -0.00000000000E+00  0.11368683772E-12  0.17120000000E+03  0.17120000000E+03 0.  0.
         13    1    1    2    0    0 -0.10987725275E+02 -0.60748466970E+01  0.17052662154E+02  0.21176362286E+02  0.10566000000E+00 0. -1.
        994    1    1    2    0    0 -0.35600863282E+01 -0.25378118159E+01  0.43656102009E+01  0.17131145104E+03  0.17120000000E+03 0.  0.
        998    1    1    2    0    0  0.14547811603E+02  0.86126585129E+01  0.14785817239E+04  0.14787121867E+04  0.10000000000E+02 0. -1.
</event>
<event>
 5    1  0.1666761E-008  0.3841808E+03  0.7957747E-01  0.3433154E+00
         13   -1    0    0    0    0  0.00000000000E+00  0.00000000000E+00  0.14999999963E+04  0.15000000000E+04  0.10566000000E+00 0.  1.
        994   -1    0    0    0    0 -0.00000000000E+00 -0.00000000000E+00  0.11368683772E-12  0.17120000000E+03  0.17120000000E+03 0.  0.
         13    1    1    2    0    0  0.13011872754E+02 -0.49056169062E+01  0.49956181909E+02  0.51855618643E+02  0.10566000000E+00 0.  1.
        994    1    1    2    0    0  0.28892679667E+01  0.43099499540E+00  0.20655617603E+01  0.17123737960E+03  0.17120000000E+03 0.  0.
        998    1    1    2    0    0 -0.15901140721E+02  0.44746219108E+01  0.14479782526E+04  0.14481070018E+04  0.10000000000E+02 0.  1.
</event>
<event>
 5    1  0.1666761E-008  0.3831191E+03  0.7957747E-01  0.3437689E+00
         13   -1    0    0    0    0  0.00000000000E+00  0.00000000000E+00  0.14999999963E+04  0.15000000000E+04  0.10566000000E+00 0.  1.
        994   -1    0    0    0    0 -0.00000000000E+00 -0.00000000000E+00  0.11368683772E-12  0.17120000000E+03  0.17120000000E+03 0.  0.
         13    1    1    2    0    0 -0.18504636689E+02 -0.81233421107E+01  0.87048770413E+02  0.89363918113E+02  0.10566000000E+00 0.  1.
        994    1    1    2    0    0 -0.47083269540E+01  0.17225495786E+01  0.26500341582E+01  0.17129389423E+03  0.17120000000E+03 0.  0.
        998    1    1    2    0    0  0.23212963643E+02  0.64007925321E+01  0.14103011917E+04  0.14105421877E+04  0.10000000000E+02 0.  1.
</event>
<event>
 5    1  0.1666761E-008  0.3776111E+03  0.7957747E-01  0.3461627E+00
         13   -1    0    0    0    0  0.00000000000E+00  0.00000000000E+00  0.14999999963E+04  0.15000000000E+04  0.10566000000E+00 0.  1.
        994   -1    0    0    0    0 -0.00000000000E+00 -0.00000000000E+00  0.11368683772E-12  0.17120000000E+03  0.17120000000E+03 0.  0.
         13    1    1    2    0    0  0.92672325601E+02 -0.95387209944E+02  0.58626949835E+03  0.60116454953E+03  0.10566000000E+00 0.  1.
        994    1    1    2    0    0 -0.10032180510E+03  0.13927433396E+03  0.11207462332E+03  0.26708044832E+03  0.17120000000E+03 0.  0.
        998    1    1    2    0    0  0.76494794994E+01 -0.43887124020E+02  0.80165587461E+03  0.80295500216E+03  0.10000000000E+02 0.  1.
</event>
<event>
 5    1  0.1666761E-008  0.3767550E+03  0.7957747E-01  0.3465411E+00
         13   -1    0    0    0    0  0.00000000000E+00  0.00000000000E+00  0.14999999963E+04  0.15000000000E+04  0.10566000000E+00 0.  1.
        994   -1    0    0    0    0 -0.00000000000E+00 -0.00000000000E+00  0.11368683772E-12  0.17120000000E+03  0.17120000000E+03 0.  0.
         13    1    1    2    0    0 -0.12009097635E+00 -0.10742488723E+02  0.73785960912E+01  0.13033431249E+02  0.10566000000E+00 0.  1.
        994    1    1    2    0    0 -0.66889980700E+01  0.61337250434E+01  0.60586080528E+01  0.17154740456E+03  0.17120000000E+03 0.  0.
        998    1    1    2    0    0  0.68090890464E+01  0.46087636793E+01  0.14865627921E+04  0.14866191642E+04  0.10000000000E+02 0.  1.
</event>
<event>
 5    1  0.1666761E-008  0.3831178E+03  0.7957747E-01  0.3437694E+00
         13   -1    0    0    0    0  0.00000000000E+00  0.00000000000E+00  0.14999999963E+04  0.15000000000E+04  0.10566000000E+00 0. -1.
        994   -1    0    0    0    0 -0.00000000000E+00 -0.00000000000E+00  0.11368683772E-12  0.17120000000E+03  0.17120000000E+03 0.  0.
         13    1    1    2    0    0 -0.14290507486E+02  0.19361711037E+02  0.12009087993E+03  0.12247826364E+03  0.10566000000E+00 0. -1.
        994    1    1    2    0    0  0.82398417037E+01 -0.12994015461E+00  0.27922244467E+01  0.17142096836E+03  0.17120000000E+03 0.  0.
        998    1    1    2    0    0  0.60506657821E+01 -0.19231770883E+02  0.13771168919E+04  0.13773007680E+04  0.10000000000E+02 0. -1.
</event>
<event>
 5    1  0.1666761E-008  0.3840091E+03  0.7957747E-01  0.3433886E+00
         13   -1    0    0    0    0  0.00000000000E+00  0.00000000000E+00  0.14999999963E+04  0.15000000000E+04  0.10566000000E+00 0. -1.
        994   -1    0    0    0    0 -0.00000000000E+00 -0.00000000000E+00  0.11368683772E-12  0.17120000000E+03  0.17120000000E+03 0.  0.
         13    1    1    2    0    0 -0.15916709375E+02 -0.18878055077E+01  0.61863356716E+02  0.63906114850E+02  0.10566000000E+00 0. -1.
        994    1    1    2    0    0  0.53178763043E+01 -0.10469045932E+01  0.22198447304E+01  0.17130015624E+03  0.17120000000E+03 0.  0.
        998    1    1    2    0    0  0.10598833070E+02  0.29347101009E+01  0.14359167948E+04  0.14359937289E+04  0.10000000000E+02 0. -1.
</event>
<event>
 5    1  0.1666761E-008  0.3854980E+03  0.7957747E-01  0.3427563E+00
         13   -1    0    0    0    0  0.00000000000E+00  0.00000000000E+00  0.14999999963E+04  0.15000000000E+04  0.10566000000E+00 0.  1.
        994   -1    0    0    0    0 -0.00000000000E+00 -0.00000000000E+00  0.11368683772E-12  0.17120000000E+03  0.17120000000E+03 0.  0.
         13    1    1    2    0    0  0.12445595678E+02 -0.72419655956E+01  0.83037815827E+02  0.84277096170E+02  0.10566000000E+00 0.  1.
        994    1    1    2    0    0  0.27678997443E+01 -0.10200757661E+01  0.14116871888E+01  0.17123123163E+03  0.17120000000E+03 0.  0.
        998    1    1    2    0    0 -0.15213495422E+02  0.82620413617E+01  0.14155504933E+04  0.14156916722E+04  0.10000000000E+02 0.  1.
</event>
<event>
 5    1  0.1666761E-008  0.3815932E+03  0.7957747E-01  0.3444251E+00
         13   -1    0    0    0    0  0.00000000000E+00  0.00000000000E+00  0.14999999963E+04  0.15000000000E+04  0.10566000000E+00 0. -1.
        994   -1    0    0    0    0 -0.00000000000E+00 -0.00000000000E+00  0.11368683772E-12  0.17120000000E+03  0.17120000000E+03 0.  0.
         13    1    1    2    0    0 -0.28705073639E+02 -0.11237974734E+02  0.15981623050E+03  0.16276213326E+03  0.10566000000E+00 0. -1.
        994    1    1    2    0    0  0.64493643239E+00  0.31508624115E+01  0.33654878794E+01  0.17126327798E+03  0.17120000000E+03 0.  0.
        998    1    1    2    0    0  0.28060137206E+02  0.80871123226E+01  0.13368182779E+04  0.13371745888E+04  0.10000000000E+02 0. -1.
</event>
<event>
 5    1  0.1666761E-008  0.3835317E+03  0.7957747E-01  0.3435923E+00
         13   -1    0    0    0    0  0.00000000000E+00  0.00000000000E+00  0.14999999963E+04  0.15000000000E+04  0.10566000000E+00 0. -1.
        994   -1    0    0    0    0 -0.00000000000E+00 -0.00000000000E+00  0.11368683772E-12  0.17120000000E+03  0.17120000000E+03 0.  0.
         13    1    1    2    0    0  0.20951416677E+02 -0.97564323911E+01  0.12371504709E+03  0.12585536887E+03  0.10566000000E+00 0. -1.
        994    1    1    2    0    0 -0.58847213930E+00  0.24916532829E+01  0.23825220909E+01  0.17123571779E+03  0.17120000000E+03 0.  0.
        998    1    1    2    0    0 -0.20362944537E+02  0.72647791082E+01  0.13739024271E+04  0.13741089133E+04  0.10000000000E+02 0. -1.
</event>
<event>
 5    1  0.1666761E-008  0.2661494E+03  0.7957747E-01  0.4171875E+00
         13   -1    0    0    0    0  0.00000000000E+00  0.00000000000E+00  0.14999999963E+04  0.15000000000E+04  0.10566000000E+00 0.  1.
        994   -1    0    0    0    0 -0.00000000000E+00 -0.00000000000E+00  0.11368683772E-12  0.17120000000E+03  0.17120000000E+03 0.  0.
         13    1    1    2    0    0  0.15083596511E+03  0.88412841968E+02  0.41080246312E+03  0.44646051770E+03  0.10566000000E+00 0.  1.
        994    1    1    2    0    0 -0.15110141902E+03 -0.81180397682E+02  0.14905287504E+03  0.28451378763E+03  0.17120000000E+03 0.  0.
        998    1    1    2    0    0  0.26545390862E+00 -0.72324442863E+01  0.94014465812E+03  0.94022569467E+03  0.10000000000E+02 0.  1.
</event>
<event>
 5    1  0.1666761E-008  0.3853715E+03  0.7957747E-01  0.3428098E+00
         13   -1    0    0    0    0  0.00000000000E+00  0.00000000000E+00  0.14999999963E+04  0.15000000000E+04  0.10566000000E+00 0.  1.
        994   -1    0    0    0    0 -0.00000000000E+00 -0.00000000000E+00  0.11368683772E-12  0.17120000000E+03  0.17120000000E+03 0.  0.
         13    1    1    2    0    0  0.12195912285E+02 -0.30308077115E+01  0.52283672368E+02  0.53772852185E+02  0.10566000000E+00 0.  1.
        994    1    1    2    0    0 -0.15250002511E+02  0.59612498950E+01  0.23269238141E+01  0.17199695826E+03  0.17120000000E+03 0.  0.
        998    1    1    2    0    0  0.30540902259E+01 -0.29304421835E+01  0.14453894001E+04  0.14454301896E+04  0.10000000000E+02 0.  1.
</event>
<event>
 5    1  0.1666761E-008  0.3844916E+03  0.7957747E-01  0.3431831E+00
         13   -1    0    0    0    0  0.00000000000E+00  0.00000000000E+00  0.14999999963E+04  0.15000000000E+04  0.10566000000E+00 0. -1.
        994   -1    0    0    0    0 -0.00000000000E+00 -0.00000000000E+00  0.11368683772E-12  0.17120000000E+03  0.17120000000E+03 0.  0.
         13    1    1    2    0    0 -0.16436554956E+02  0.27518446709E+01  0.64410728401E+02  0.66531842641E+02  0.10566000000E+00 0. -1.
        994    1    1    2    0    0  0.29064093176E+02 -0.37145510871E+02  0.92451543515E+01  0.17781851245E+03  0.17120000000E+03 0.  0.
        998    1    1    2    0    0 -0.12627538221E+02  0.34393666200E+02  0.14263441135E+04  0.14268496449E+04  0.10000000000E+02 0. -1.
</event>
<event>
 5    1  0.1666761E-008  0.3850921E+03  0.7957747E-01  0.3429282E+00
         13   -1    0    0    0    0  0.00000000000E+00  0.00000000000E+00  0.14999999963E+04  0.15000000000E+04  0.10566000000E+00 0. -1.
        994   -1    0    0    0    0 -0.00000000000E+00 -0.00000000000E+00  0.11368683772E-12  0.17120000000E+03  0.17120000000E+03 0.  0.
         13    1    1    2    0    0  0.15009000128E+02 -0.73152301958E+01  0.84779192620E+02  0.86407785199E+02  0.10566000000E+00 0. -1.
        994    1    1    2    0    0 -0.18137782787E+02 -0.30299237063E+00  0.26670395356E+01  0.17217904654E+03  0.17120000000E+03 0.  0.
        998    1    1    2    0    0  0.31287826587E+01  0.76182225664E+01  0.14125537641E+04  0.14126131683E+04  0.10000000000E+02 0. -1.
</event>
<event>
 5    1  0.1666761E-008  0.3813843E+03  0.7957747E-01  0.3445153E+00
         13   -1    0    0    0    0  0.00000000000E+00  0.00000000000E+00  0.14999999963E+04  0.15000000000E+04  0.10566000000E+00 0. -1.
        994   -1    0    0    0    0 -0.00000000000E+00 -0.00000000000E+00  0.11368683772E-12  0.17120000000E+03  0.17120000000E+03 0.  0.
         13    1    1    2    0    0  0.20455561621E+02  0.31510766838E+02  0.17729011689E+03  0.18122680580E+03  0.10566000000E+00 0. -1.
        994    1    1    2    0    0 -0.27549062608E+02 -0.31183209866E+02  0.92189208403E+01  0.17642497536E+03  0.17120000000E+03 0.  0.
        998    1    1    2    0    0  0.70935009871E+01 -0.32755697240E+00  0.13134909585E+04  0.13135482188E+04  0.10000000000E+02 0. -1.
</event>
<event>
 5    1  0.1666761E-008  0.3792095E+03  0.7957747E-01  0.3454608E+00
         13   -1    0    0    0    0  0.00000000000E+00  0.00000000000E+00  0.14999999963E+04  0.15000000000E+04  0.10566000000E+00 0.  1.
        994   -1    0    0    0    0 -0.00000000000E+00 -0.00000000000E+00  0.11368683772E-12  0.17120000000E+03  0.17120000000E+03 0.  0.
         13    1    1    2    0    0  0.12701685658E+02  0.12894298463E+02  0.34032140671E+02  0.38545992193E+02  0.10566000000E+00 0.  1.
        994    1    1    2    0    0 -0.14157495458E+02 -0.72574479841E+01  0.53815003279E+01  0.17202181773E+03  0.17120000000E+03 0.  0.
        998    1    1    2    0    0  0.14558097996E+01 -0.56368504789E+01  0.14605863553E+04  0.14606321901E+04  0.10000000000E+02 0.  1.
</event>
<event>
 5    1  0.1666761E-008  0.3767802E+03  0.7957747E-01  0.3465299E+00
         13   -1    0    0    0    0  0.00000000000E+00  0.00000000000E+00  0.14999999963E+04  0.15000000000E+04  0.10566000000E+00 0.  1.
        994   -1    0    0    0    0 -0.00000000000E+00 -0.00000000000E+00  0.11368683772E-12  0.17120000000E+03  0.17120000000E+03 0.  0.
         13    1    1    2    0    0  0.13244143977E+02 -0.53014196356E+01  0.15430625975E+02  0.21014941871E+02  0.10566000000E+00 0.  1.
        994    1    1    2    0    0 -0.24820056561E+01 -0.15790665287E+01  0.57966541360E+01  0.17132336385E+03  0.17120000000E+03 0.  0.
        998    1    1    2    0    0 -0.10762138321E+02  0.68804861643E+01  0.14787727162E+04  0.14788616943E+04  0.10000000000E+02 0.  1.
</event>
<event>
 5    1  0.1666761E-008  0.3822251E+03  0.7957747E-01  0.3441527E+00
         13   -1    0    0    0    0  0.00000000000E+00  0.00000000000E+00  0.14999999963E+04  0.15000000000E+04  0.10566000000E+00 0.  1.
        994   -1    0    0    0    0 -0.00000000000E+00 -0.00000000000E+00  0.11368683772E-12  0.17120000000E+03  0.17120000000E+03 0.  0.
         13    1    1    2    0    0 -0.71135115113E+01 -0.13874968495E+02  0.38113116374E+02  0.41179334629E+02  0.10566000000E+00 0.  1.
        994    1    1    2    0    0  0.53660632373E+01  0.17975566279E+02  0.41828407032E+01  0.17227551124E+03  0.17120000000E+03 0.  0.
        998    1    1    2    0    0  0.17474482740E+01 -0.41005977840E+01  0.14577040392E+04  0.14577451541E+04  0.10000000000E+02 0.  1.
</event>
<event>
 5    1  0.1666761E-008  0.3837132E+03  0.7957747E-01  0.3435148E+00
         13   -1    0    0    0    0  0.00000000000E+00  0.00000000000E+00  0.14999999963E+04  0.15000000000E+04  0.10566000000E+00 0.  1.
        994   -1    0    0    0    0 -0.00000000000E+00 -0.00000000000E+00  0.11368683772E-12  0.17120000000E+03  0.17120000000E+03 0.  0.
         13    1    1    2    0    0 -0.14197809431E+02 -0.12115522427E+01  0.44848190716E+02  0.47057592650E+02  0.10566000000E+00 0.  1.
        994    1    1    2    0    0  0.72810837563E+01 -0.13629262327E+02  0.30592897552E+01  0.17192315209E+03  0.17120000000E+03 0.  0.
        998    1    1    2    0    0  0.69167256751E+01  0.14840814570E+02  0.14520925158E+04  0.14522192553E+04  0.10000000000E+02 0.  1.
</event>
<event>
 5    1  0.1666761E-008  0.3859663E+03  0.7957747E-01  0.3425584E+00
         13   -1    0    0    0    0  0.00000000000E+00  0.00000000000E+00  0.14999999963E+04  0.15000000000E+04  0.10566000000E+00 0. -1.
        994   -1    0    0    0    0 -0.00000000000E+00 -0.00000000000E+00  0.11368683772E-12  0.17120000000E+03  0.17120000000E+03 0.  0.
         13    1    1    2    0    0 -0.28902476180E+01  0.11467964895E+02  0.66431508695E+02  0.67476101411E+02  0.10566000000E+00 0. -1.
        994    1    1    2    0    0  0.18575833210E+01  0.28153787680E+01  0.11884271727E+01  0.17123734795E+03  0.17120000000E+03 0.  0.
        998    1    1    2    0    0  0.10326642970E+01 -0.14283343663E+02  0.14323800604E+04  0.14324865506E+04  0.10000000000E+02 0. -1.
</event>
<event>
 5    1  0.1666761E-008  0.3845074E+03  0.7957747E-01  0.3431764E+00
         13   -1    0    0    0    0  0.00000000000E+00  0.00000000000E+00  0.14999999963E+04  0.15000000000E+04  0.10566000000E+00 0.  1.
        994   -1    0    0    0    0 -0.00000000000E+00 -0.00000000000E+00  0.11368683772E-12  0.17120000000E+03  0.17120000000E+03 0.  0.
         13    1    1    2    0    0  0.17006220845E+02  0.23141806071E+01  0.94577019857E+02  0.96121750028E+02  0.10566000000E+00 0.  1.
        994    1    1    2    0    0  0.13813051677E+02  0.47658532751E+01  0.25785109085E+01  0.17184179489E+03  0.17120000000E+03 0.  0.
        998    1    1    2    0    0 -0.30819272522E+02 -0.70800338821E+01  0.14028444655E+04  0.14032364551E+04  0.10000000000E+02 0.  1.
</event>
<event>
 5    1  0.1666761E-008  0.3791804E+03  0.7957747E-01  0.3454735E+00
         13   -1    0    0    0    0  0.00000000000E+00  0.00000000000E+00  0.14999999963E+04  0.15000000000E+04  0.10566000000E+00 0. -1.
        994   -1    0    0    0    0 -0.00000000000E+00 -0.00000000000E+00  0.11368683772E-12  0.17120000000E+03  0.17120000000E+03 0.  0.
         13    1    1    2    0    0  0.63769638387E+01  0.36020754801E+02  0.35385742473E+02  0.50895209780E+02  0.10566000000E+00 0. -1.
        994    1    1    2    0    0 -0.85750363413E+01 -0.32031681954E+02  0.19860315479E+02  0.17550906537E+03  0.17120000000E+03 0.  0.
        998    1    1    2    0    0  0.21980725026E+01 -0.39890728462E+01  0.14447539383E+04  0.14447957248E+04  0.10000000000E+02 0. -1.
</event>
<event>
 5    1  0.1666761E-008  0.3796625E+03  0.7957747E-01  0.3452629E+00
         13   -1    0    0    0    0  0.00000000000E+00  0.00000000000E+00  0.14999999963E+04  0.15000000000E+04  0.10566000000E+00 0. -1.
        994   -1    0    0    0    0 -0.00000000000E+00 -0.00000000000E+00  0.11368683772E-12  0.17120000000E+03  0.17120000000E+03 0.  0.
         13    1    1    2    0    0  0.19623068169E+02  0.51593046677E+02  0.33014937888E+03  0.33473202835E+03  0.10566000000E+00 0. -1.
        994    1    1    2    0    0  0.49879989889E+01 -0.43655263580E+02  0.10792076596E+02  0.17707786731E+03  0.17120000000E+03 0.  0.
        998    1    1    2    0    0 -0.24611067158E+02 -0.79377830970E+01  0.11590585408E+04  0.11593901043E+04  0.10000000000E+02 0. -1.
</event>
<event>
 5    1  0.1666761E-008  0.3785813E+03  0.7957747E-01  0.3457359E+00
         13   -1    0    0    0    0  0.00000000000E+00  0.00000000000E+00  0.14999999963E+04  0.15000000000E+04  0.10566000000E+00 0. -1.
        994   -1    0    0    0    0 -0.00000000000E+00 -0.00000000000E+00  0.11368683772E-12  0.17120000000E+03  0.17120000000E+03 0.  0.
         13    1    1    2    0    0  0.60770274256E+01  0.20587608471E+02  0.42281936675E+02  0.47418912028E+02  0.10566000000E+00 0. -1.
        994    1    1    2    0    0  0.47105769134E+01 -0.39959959231E+02  0.10307975078E+02  0.17616663199E+03  0.17120000000E+03 0.  0.
        998    1    1    2    0    0 -0.10787604339E+02  0.19372350759E+02  0.14474100845E+04  0.14476144560E+04  0.10000000000E+02 0. -1.
</event>
<event>
 5    1  0.1666761E-008  0.3855199E+03  0.7957747E-01  0.3427470E+00
         13   -1    0    0    0    0  0.00000000000E+00  0.00000000000E+00  0.14999999963E+04  0.15000000000E+04  0.10566000000E+00 0.  1.
        994   -1    0    0    0    0 -0.00000000000E+00 -0.00000000000E+00  0.11368683772E-12  0.17120000000E+03  0.17120000000E+03 0.  0.
         13    1    1    2    0    0  0.28177984741E+01  0.14804420135E+02  0.83013548195E+02  0.84370440273E+02  0.10566000000E+00 0.  1.
        994    1    1    2    0    0  0.39568955278E+01 -0.11083563515E+02  0.18270807340E+01  0.17161375419E+03  0.17120000000E+03 0.  0.
        998    1    1    2    0    0 -0.67746940019E+01 -0.37208566202E+01  0.14151593673E+04  0.14152158055E+04  0.10000000000E+02 0.  1.
</event>
<event>
 5    1  0.1666761E-008  0.3812155E+03  0.7957747E-01  0.3445883E+00
         13   -1    0    0    0    0  0.00000000000E+00  0.00000000000E+00  0.14999999963E+04  0.15000000000E+04  0.10566000000E+00 0.  1.
        994   -1    0    0    0    0 -0.00000000000E+00 -0.00000000000E+00  0.11368683772E-12  0.17120000000E+03  0.17120000000E+03 0.  0.
         13    1    1    2    0    0 -0.47059945362E+01 -0.16970256659E+02  0.45318948043E+02  0.48620512250E+02  0.10566000000E+00 0.  1.
        994    1    1    2    0    0  0.84967670751E+00 -0.38045052065E+01  0.35714539083E+01  0.17128161458E+03  0.17120000000E+03 0.  0.
        998    1    1    2    0    0  0.38563178287E+01  0.20774761866E+02  0.14511095943E+04  0.14512978732E+04  0.10000000000E+02 0.  1.
</event>
<event>
 5    1  0.1666761E-008  0.3795924E+03  0.7957747E-01  0.3452935E+00
         13   -1    0    0    0    0  0.00000000000E+00  0.00000000000E+00  0.14999999963E+04  0.15000000000E+04  0.10566000000E+00 0. -1.
        994   -1    0    0    0    0 -0.00000000000E+00 -0.00000000000E+00  0.11368683772E-12  0.17120000000E+03  0.17120000000E+03 0.  0.
         13    1    1    2    0    0 -0.84560408048E+01  0.39503443129E+02  0.17307321435E+03  0.17772556185E+03  0.10566000000E+00 0. -1.
        994    1    1    2    0    0  0.10385404346E+02 -0.33439695432E+02  0.84541339136E+01  0.17494851310E+03  0.17120000000E+03 0.  0.
        998    1    1    2    0    0 -0.19293635414E+01 -0.60637476971E+01  0.13184726480E+04  0.13185259251E+04  0.10000000000E+02 0. -1.
</event>
<event>
 5    1  0.1666761E-008  0.3771416E+03  0.7957747E-01  0.3463700E+00
         13   -1    0    0    0    0  0.00000000000E+00  0.00000000000E+00  0.14999999963E+04  0.15000000000E+04  0.10566000000E+00 0. -1.
        994   -1    0    0    0    0 -0.00000000000E+00 -0.00000000000E+00  0.11368683772E-12  0.17120000000E+03  0.17120000000E+03 0.  0.
         13    1    1    2    0    0  0.14338374267E+02  0.26979002363E+02  0.25731522803E+02  0.39944686442E+02  0.10566000000E+00 0. -1.
        994    1    1    2    0    0 -0.21130657762E+02 -0.11611283832E+02  0.16853260640E+02  0.17370894912E+03  0.17120000000E+03 0.  0.
        998    1    1    2    0    0  0.67922834957E+01 -0.15367718531E+02  0.14574152128E+04  0.14575463644E+04  0.10000000000E+02 0. -1.
</event>
<event>
 5    1  0.1666761E-008  0.4067777E+03  0.7957747E-01  0.3342255E+00
         13   -1    0    0    0    0  0.00000000000E+00  0.00000000000E+00  0.14999999963E+04  0.15000000000E+04  0.10566000000E+00 0. -1.
        994   -1    0    0    0    0 -0.00000000000E+00 -0.00000000000E+00  0.11368683772E-12  0.17120000000E+03  0.17120000000E+03 0.  0.
         13    1    1    2    0    0 -0.82845807687E+02  0.10241728856E+02  0.92031100943E+02  0.12424997210E+03  0.10566000000E+00 0. -1.
        994    1    1    2    0    0  0.87011222307E+02 -0.17765961367E+02  0.64420970879E+02  0.20333736420E+03  0.17120000000E+03 0.  0.
        998    1    1    2    0    0 -0.41654146205E+01  0.75242325110E+01  0.13435479245E+04  0.13436126637E+04  0.10000000000E+02 0. -1.
</event>
<event>
 5    1  0.1666761E-008  0.3837707E+03  0.7957747E-01  0.3434903E+00
         13   -1    0    0    0    0  0.00000000000E+00  0.00000000000E+00  0.14999999963E+04  0.15000000000E+04  0.10566000000E+00 0. -1.
        994   -1    0    0    0    0 -0.00000000000E+00 -0.00000000000E+00  0.11368683772E-12  0.17120000000E+03  0.17120000000E+03 0.  0.
         13    1    1    2    0    0 -0.10480037412E+02 -0.23093308222E+01  0.24595293105E+02  0.26834749858E+02  0.10566000000E+00 0. -1.
        994    1    1    2    0    0  0.12015430288E+02  0.99846368571E-01  0.27185461520E+01  0.17164268417E+03  0.17120000000E+03 0.  0.
        998    1    1    2    0    0 -0.15353928763E+01  0.22094844536E+01  0.14726861570E+04  0.14727225660E+04  0.10000000000E+02 0. -1.
</event>
<event>
 5    1  0.1666761E-008  0.3792778E+03  0.7957747E-01  0.3454309E+00
         13   -1    0    0    0    0  0.00000000000E+00  0.00000000000E+00  0.14999999963E+04  0.15000000000E+04  0.10566000000E+00 0. -1.
        994   -1    0    0    0    0 -0.00000000000E+00 -0.00000000000E+00  0.11368683772E-12  0.17120000000E+03  0.17120000000E+03 0.  0.
         13    1    1    2    0    0 -0.40056753858E+01 -0.20665180407E+02  0.50506558677E+02  0.54717627415E+02  0.10566000000E+00 0. -1.
        994    1    1    2    0    0 -0.88896581448E+01 -0.10633710928E+01  0.47668009338E+01  0.17150020167E+03  0.17120000000E+03 0.  0.
        998    1    1    2    0    0  0.12895333531E+02  0.21728551500E+02  0.14447266367E+04  0.14449821709E+04  0.10000000000E+02 0. -1.
</event>
<event>
 5    1  0.1666761E-008  0.3841127E+03  0.7957747E-01  0.3433444E+00
         13   -1    0    0    0    0  0.00000000000E+00  0.00000000000E+00  0.14999999963E+04  0.15000000000E+04  0.10566000000E+00 0. -1.
        994   -1    0    0    0    0 -0.00000000000E+00 -0.00000000000E+00  0.11368683772E-12  0.17120000000E+03  0.17120000000E+03 0.  0.
         13    1    1    2    0    0  0.94796056905E+02 -0.58959403637E+02  0.47791617075E+03  0.49078139850E+03  0.10566000000E+00 0. -1.
        994    1    1    2    0    0 -0.28456583912E+02 -0.17347334626E+02  0.22701937183E+02  0.17588497701E+03  0.17120000000E+03 0.  0.
        998    1    1    2    0    0 -0.66339472994E+02  0.76306738263E+02  0.99938188834E+03  0.10045336245E+04  0.10000000000E+02 0. -1.
</event>
<event>
 5    1  0.1666761E-008  0.3802991E+03  0.7957747E-01  0.3449857E+00
         13   -1    0    0    0    0  0.00000000000E+00  0.00000000000E+00  0.14999999963E+04  0.15000000000E+04  0.10566000000E+00 0.  1.
        994   -1    0    0    0    0 -0.00000000000E+00 -0.00000000000E+00  0.11368683772E-12  0.17120000000E+03  0.17120000000E+03 0.  0.
         13    1    1    2    0    0  0.74695496885E+01 -0.12102982002E+02  0.23103211330E+02  0.27130165567E+02  0.10566000000E+00 0.  1.
        994    1    1    2    0    0 -0.50165327348E+01  0.20315861048E+02  0.54460256794E+01  0.17256013157E+03  0.17120000000E+03 0.  0.
        998    1    1    2    0    0 -0.24530169537E+01 -0.82128790457E+01  0.14714507593E+04  0.14715097029E+04  0.10000000000E+02 0.  1.
</event>
<event>
 5    1  0.1666761E-008  0.3852512E+03  0.7957747E-01  0.3428608E+00
         13   -1    0    0    0    0  0.00000000000E+00  0.00000000000E+00  0.14999999963E+04  0.15000000000E+04  0.10566000000E+00 0. -1.
        994   -1    0    0    0    0 -0.00000000000E+00 -0.00000000000E+00  0.11368683772E-12  0.17120000000E+03  0.17120000000E+03 0.  0.
         13    1    1    2    0    0  0.44986072227E+01 -0.15792332141E+02  0.98746603433E+02  0.10010263770E+03  0.10566000000E+00 0. -1.
        994    1    1    2    0    0  0.53313451752E+01  0.61419328892E+00  0.16001282788E+01  0.17129156688E+03  0.17120000000E+03 0.  0.
        998    1    1    2    0    0 -0.98299523979E+01  0.15178138852E+02  0.13996532646E+04  0.13998057954E+04  0.10000000000E+02 0. -1.
</event>
<event>
 5    1  0.1666761E-008  0.3833748E+03  0.7957747E-01  0.3436594E+00
         13   -1    0    0    0    0  0.00000000000E+00  0.00000000000E+00  0.14999999963E+04  0.15000000000E+04  0.10566000000E+00 0.  1.
        994   -1    0    0    0    0 -0.00000000000E+00 -0.00000000000E+00  0.11368683772E-12  0.17120000000E+03  0.17120000000E+03 0.  0.
         13    1    1    2    0    0 -0.11475686606E+02 -0.24620215349E+01  0.27024620822E+02  0.29463438831E+02  0.10566000000E+00 0.  1.
        994    1    1    2    0    0  0.11845760908E+02  0.33459139080E+01  0.29402655863E+01  0.17166712659E+03  0.17120000000E+03 0.  0.
        998    1    1    2    0    0 -0.37007430185E+00 -0.88389237305E+00  0.14700351099E+04  0.14700694346E+04  0.10000000000E+02 0.  1.
</event>
<event>
 5    1  0.1666761E-008  0.3848444E+03  0.7957747E-01  0.3430332E+00
         13   -1    0    0    0    0  0.00000000000E+00  0.00000000000E+00  0.14999999963E+04  0.15000000000E+04  0.10566000000E+00 0.  1.
        994   -1    0    0    0    0 -0.00000000000E+00 -0.00000000000E+00  0.11368683772E-12  0.17120000000E+03  0.17120000000E+03 0.  0.
         13    1    1    2    0    0  0.11728316805E+02 -0.88884484640E+01  0.65539430042E+02  0.67171318175E+02  0.10566000000E+00 0.  1.
        994    1    1    2    0    0 -0.12132854155E+01  0.54660726958E+01  0.18105620754E+01  0.17130110375E+03  0.17120000000E+03 0.  0.
        998    1    1    2    0    0 -0.10515031390E+02  0.34223757682E+01  0.14326500042E+04  0.14327275781E+04  0.10000000000E+02 0.  1.
</event>
<event>
 5    1  0.1666761E-008  0.3840785E+03  0.7957747E-01  0.3433590E+00
         13   -1    0    0    0    0  0.00000000000E+00  0.00000000000E+00  0.14999999963E+04  0.15000000000E+04  0.10566000000E+00 0. -1.
        994   -1    0    0    0    0 -0.00000000000E+00 -0.00000000000E+00  0.11368683772E-12  0.17120000000E+03  0.17120000000E+03 0.  0.
         13    1    1    2    0    0 -0.16704110109E+02  0.18929916108E+02  0.15214926130E+03  0.15422962717E+03  0.10566000000E+00 0. -1.
        994    1    1    2    0    0  0.80568647303E+01 -0.13280688884E+02  0.28846563748E+01  0.17192745857E+03  0.17120000000E+03 0.  0.
        998    1    1    2    0    0  0.86472453790E+01 -0.56492272238E+01  0.13449660786E+04  0.13450429143E+04  0.10000000000E+02 0. -1.
</event>
<event>
 5    1  0.1666761E-008  0.3853007E+03  0.7957747E-01  0.3428398E+00
         13   -1    0    0    0    0  0.00000000000E+00  0.00000000000E+00  0.14999999963E+04  0.15000000000E+04  0.10566000000E+00 0.  1.
        994   -1    0    0    0    0 -0.00000000000E+00 -0.00000000000E+00  0.11368683772E-12  0.17120000000E+03  0.17120000000E+03 0.  0.
         13    1    1    2    0    0  0.80496413809E+01  0.91555523494E+01  0.49177616654E+02  0.50666261052E+02  0.10566000000E+00 0.  1.
        994    1    1    2    0    0 -0.66008242602E+01 -0.10205870085E+02  0.19664340740E+01  0.17164217876E+03  0.17120000000E+03 0.  0.
        998    1    1    2    0    0 -0.14488171207E+01  0.10503177358E+01  0.14488559456E+04  0.14488915602E+04  0.10000000000E+02 0.  1.
</event>
<event>
 5    1  0.1666761E-008  0.3799837E+03  0.7957747E-01  0.3451230E+00
         13   -1    0    0    0    0  0.00000000000E+00  0.00000000000E+00  0.14999999963E+04  0.15000000000E+04  0.10566000000E+00 0. -1.
        994   -1    0    0    0    0 -0.00000000000E+00 -0.00000000000E+00  0.11368683772E-12  0.17120000000E+03  0.17120000000E+03 0.  0.
         13    1    1    2    0    0 -0.75801037522E+01  0.36433792703E+02  0.15338934028E+03  0.15783909560E+03  0.10566000000E+00 0. -1.
        994    1    1    2    0    0 -0.84544185339E+00 -0.35087290146E+02  0.82705149896E+01  0.17495620629E+03  0.17120000000E+03 0.  0.
        998    1    1    2    0    0  0.84255456056E+01 -0.13465025572E+01  0.13383401410E+04  0.13384046981E+04  0.10000000000E+02 0. -1.
</event>
<event>
 5    1  0.1666761E-008  0.3837325E+03  0.7957747E-01  0.3435066E+00
         13   -1    0    0    0    0  0.00000000000E+00  0.00000000000E+00  0.14999999963E+04  0.15000000000E+04  0.10566000000E+00 0.  1.
        994   -1    0    0    0    0 -0.00000000000E+00 -0.00000000000E+00  0.11368683772E-12  0.17120000000E+03  0.17120000000E+03 0.  0.
         13    1    1    2    0    0  0.22396650522E+02 -0.28369801039E+01  0.10655406076E+03  0.10891940800E+03  0.10566000000E+00 0.  1.
        994    1    1    2    0    0 -0.20700992882E+02  0.76098292687E+01  0.38687380999E+01  0.17265818180E+03  0.17120000000E+03 0.  0.
        998    1    1    2    0    0 -0.16956576402E+01 -0.47728491649E+01  0.13895771974E+04  0.13896224102E+04  0.10000000000E+02 0.  1.
</event>
<event>
 5    1  0.1666761E-008  0.4040582E+03  0.7957747E-01  0.3352658E+00
         13   -1    0    0    0    0  0.00000000000E+00  0.00000000000E+00  0.14999999963E+04  0.15000000000E+04  0.10566000000E+00 0.  1.
        994   -1    0    0    0    0 -0.00000000000E+00 -0.00000000000E+00  0.11368683772E-12  0.17120000000E+03  0.17120000000E+03 0.  0.
         13    1    1    2    0    0 -0.10185741819E+03  0.44293399949E+02  0.15839741225E+03  0.19345953141E+03  0.10566000000E+00 0.  1.
        994    1    1    2    0    0  0.12099507735E+03 -0.56993141128E+02  0.10572617659E+03  0.24161020528E+03  0.17120000000E+03 0.  0.
        998    1    1    2    0    0 -0.19137659157E+02  0.12699741179E+02  0.12358764074E+04  0.12361302633E+04  0.10000000000E+02 0.  1.
</event>
<event>
 5    1  0.1666761E-008  0.3833059E+03  0.7957747E-01  0.3436889E+00
         13   -1    0    0    0    0  0.00000000000E+00  0.00000000000E+00  0.14999999963E+04  0.15000000000E+04  0.10566000000E+00 0.  1.
        994   -1    0    0    0    0 -0.00000000000E+00 -0.00000000000E+00  0.11368683772E-12  0.17120000000E+03  0.17120000000E+03 0.  0.
         13    1    1    2    0    0 -0.50172469471E+01 -0.16687698147E+02  0.64323117512E+02  0.66641778539E+02  0.10566000000E+00 0.  1.
        994    1    1    2    0    0  0.11549655015E+01 -0.24111447964E-01  0.24780057791E+01  0.17122182991E+03  0.17120000000E+03 0.  0.
        998    1    1    2    0    0  0.38622814456E+01  0.16711809595E+02  0.14331988730E+04  0.14333363915E+04  0.10000000000E+02 0.  1.
</event>
<event>
 5    1  0.1833414E-008  0.3860976E+03  0.7957747E-01  0.3425030E+00
         13   -1    0    0    0    0  0.00000000000E+00  0.00000000000E+00  0.14999999963E+04  0.15000000000E+04  0.10566000000E+00 0. -1.
        994   -1    0    0    0    0 -0.00000000000E+00 -0.00000000000E+00  0.11368683772E-12  0.17120000000E+03  0.17120000000E+03 0.  0.
         13    1    1    2    0    0 -0.11002368203E+02 -0.28090702209E+01  0.60708934731E+02  0.61761872557E+02  0.10566000000E+00 0. -1.
        994    1    1    2    0    0  0.74234406138E+01 -0.31776278695E+01  0.12998776301E+01  0.17139525802E+03  0.17120000000E+03 0.  0.
        998    1    1    2    0    0  0.35789275890E+01  0.59866980904E+01  0.14379911839E+04  0.14380428694E+04  0.10000000000E+02 0. -1.
</event>
<event>
 5    1  0.1666761E-008  0.3787719E+03  0.7957747E-01  0.3456523E+00
         13   -1    0    0    0    0  0.00000000000E+00  0.00000000000E+00  0.14999999963E+04  0.15000000000E+04  0.10566000000E+00 0.  1.
        994   -1    0    0    0    0 -0.00000000000E+00 -0.00000000000E+00  0.11368683772E-12  0.17120000000E+03  0.17120000000E+03 0.  0.
         13    1    1    2    0    0 -0.67852886182E+01  0.11290899295E+02  0.16223577991E+02  0.20898329967E+02  0.10566000000E+00 0.  1.
        994    1    1    2    0    0  0.63555466764E+01 -0.64490411448E+01  0.50295803085E+01  0.17151303094E+03  0.17120000000E+03 0.  0.
        998    1    1    2    0    0  0.42974194172E+00 -0.48418581507E+01  0.14787468380E+04  0.14787886391E+04  0.10000000000E+02 0.  1.
</event>
<event>
 5    1  0.1666761E-008  0.3822567E+03  0.7957747E-01  0.3441391E+00
         13   -1    0    0    0    0  0.00000000000E+00  0.00000000000E+00  0.14999999963E+04  0.15000000000E+04  0.10566000000E+00 0. -1.
        994   -1    0    0    0    0 -0.00000000000E+00 -0.00000000000E+00  0.11368683772E-12  0.17120000000E+03  0.17120000000E+03 0.  0.
         13    1    1    2    0    0 -0.14569714531E+02 -0.63909308170E+01  0.40122722419E+02  0.43162073590E+02  0.10566000000E+00 0. -1.
        994    1    1    2    0    0  0.14596396169E+02  0.99162277478E+01  0.40322075572E+01  0.17215424785E+03  0.17120000000E+03 0.  0.
        998    1    1    2    0    0 -0.26681637867E-01 -0.35252969307E+01  0.14558450663E+04  0.14558836786E+04  0.10000000000E+02 0.  0.
</event>
<event>
 5    1  0.1666761E-008  0.3856892E+03  0.7957747E-01  0.3426754E+00
         13   -1    0    0    0    0  0.00000000000E+00  0.00000000000E+00  0.14999999963E+04  0.15000000000E+04  0.10566000000E+00 0.  1.
        994   -1    0    0    0    0 -0.00000000000E+00 -0.00000000000E+00  0.11368683772E-12  0.17120000000E+03  0.17120000000E+03 0.  0.
         13    1    1    2    0    0  0.67129493963E+00  0.11111001221E+02  0.48665315362E+02  0.49922230202E+02  0.10566000000E+00 0.  1.
        994    1    1    2    0    0 -0.13533145205E+01 -0.65776793162E+01  0.14363224522E+01  0.17133767930E+03  0.17120000000E+03 0.  0.
        998    1    1    2    0    0  0.68201958088E+00 -0.45333219049E+01  0.14498983585E+04  0.14499400905E+04  0.10000000000E+02 0.  1.
</event>
<event>
 5    1  0.1666761E-008  0.4340830E+03  0.7957747E-01  0.3244916E+00
         13   -1    0    0    0    0  0.00000000000E+00  0.00000000000E+00  0.14999999963E+04  0.15000000000E+04  0.10566000000E+00 0. -1.
        994   -1    0    0    0    0 -0.00000000000E+00 -0.00000000000E+00  0.11368683772E-12  0.17120000000E+03  0.17120000000E+03 0.  0.
         13    1    1    2    0    0  0.12482424516E+02  0.48322598453E+02  0.61167015804E+01  0.50282299523E+02  0.10566000000E+00 0. -1.
        994    1    1    2    0    0 -0.10336973512E+02 -0.52836130210E+02  0.63316848441E+02  0.19030757466E+03  0.17120000000E+03 0.  0.
        998    1    1    2    0    0 -0.21454510032E+01  0.45135317563E+01  0.14305664463E+04  0.14306101258E+04  0.10000000000E+02 0. -1.
</event>
<event>
 5    1  0.1666761E-008  0.3744750E+03  0.7957747E-01  0.3475574E+00
         13   -1    0    0    0    0  0.00000000000E+00  0.00000000000E+00  0.14999999963E+04  0.15000000000E+04  0.10566000000E+00 0. -1.
        994   -1    0    0    0    0 -0.00000000000E+00 -0.00000000000E+00  0.11368683772E-12  0.17120000000E+03  0.17120000000E+03 0.  0.
         13    1    1    2    0    0  0.63583411985E+01 -0.64110280824E+02  0.37695269289E+03  0.38241848864E+03  0.10566000000E+00 0. -1.
        994    1    1    2    0    0 -0.17516727330E+02  0.87251814977E+01  0.82537318370E+01  0.17251240134E+03  0.17120000000E+03 0.  0.
        998    1    1    2    0    0  0.11158386132E+02  0.55385099327E+02  0.11147935716E+04  0.11162691100E+04  0.10000000000E+02 0. -1.
</event>
<event>
 5    1  0.1666761E-008  0.3712926E+03  0.7957747E-01  0.3489971E+00
         13   -1    0    0    0    0  0.00000000000E+00  0.00000000000E+00  0.14999999963E+04  0.15000000000E+04  0.10566000000E+00 0. -1.
        994   -1    0    0    0    0 -0.00000000000E+00 -0.00000000000E+00  0.11368683772E-12  0.17120000000E+03  0.17120000000E+03 0.  0.
         13    1    1    2    0    0  0.94341617787E+01  0.21613302989E+02  0.28384651055E+02  0.36903087325E+02  0.10566000000E+00 0. -1.
        994    1    1    2    0    0 -0.10327093415E+02 -0.19709603257E+02  0.10301180447E+02  0.17294701974E+03  0.17120000000E+03 0.  0.
        998    1    1    2    0    0  0.89293163626E+00 -0.19036997320E+01  0.14613141648E+04  0.14613498929E+04  0.10000000000E+02 0. -1.
</event>
<event>
 5    1  0.1666761E-008  0.3767541E+03  0.7957747E-01  0.3465415E+00
         13   -1    0    0    0    0  0.00000000000E+00  0.00000000000E+00  0.14999999963E+04  0.15000000000E+04  0.10566000000E+00 0.  1.
        994   -1    0    0    0    0 -0.00000000000E+00 -0.00000000000E+00  0.11368683772E-12  0.17120000000E+03  0.17120000000E+03 0.  0.
         13    1    1    2    0    0 -0.25221773774E+02  0.42416989224E+02  0.21263111309E+03  0.21828270720E+03  0.10566000000E+00 0.  1.
        994    1    1    2    0    0  0.70517283510E+01 -0.25685806171E+02  0.81819048441E+01  0.17345279207E+03  0.17120000000E+03 0.  0.
        998    1    1    2    0    0  0.18170045423E+02 -0.16731183053E+02  0.12791869783E+04  0.12794645007E+04  0.10000000000E+02 0.  1.
</event>
<event>
 5    1  0.1666761E-008  0.3820600E+03  0.7957747E-01  0.3442238E+00
         13   -1    0    0    0    0  0.00000000000E+00  0.00000000000E+00  0.14999999963E+04  0.15000000000E+04  0.10566000000E+00 0.  1.
        994   -1    0    0    0    0 -0.00000000000E+00 -0.00000000000E+00  0.11368683772E-12  0.17120000000E+03  0.17120000000E+03 0.  0.
         13    1    1    2    0    0  0.74247592092E+01 -0.76391288135E+01  0.17440558615E+02  0.20436917262E+02  0.10566000000E+00 0.  1.
        994    1    1    2    0    0 -0.71305097486E+01 -0.70399853780E+01  0.34303171139E+01  0.17152729415E+03  0.17120000000E+03 0.  0.
        998    1    1    2    0    0 -0.29424946065E+00  0.14679114191E+02  0.14791291206E+04  0.14792357886E+04  0.10000000000E+02 0.  1.
</event>
<event>
 5    1  0.1666761E-008  0.3826344E+03  0.7957747E-01  0.3439768E+00
         13   -1    0    0    0    0  0.00000000000E+00  0.00000000000E+00  0.14999999963E+04  0.15000000000E+04  0.10566000000E+00 0. -1.
        994   -1    0    0    0    0 -0.00000000000E+00 -0.00000000000E+00  0.11368683772E-12  0.17120000000E+03  0.17120000000E+03 0.  0.
         13    1    1    2    0    0  0.18503421766E+02  0.17592350475E+02  0.12872386918E+03  0.13123152469E+03  0.10566000000E+00 0. -1.
        994    1    1    2    0    0  0.29411968480E+01 -0.28297344241E+01  0.28644211001E+01  0.17127259835E+03  0.17120000000E+03 0.  0.
        998    1    1    2    0    0 -0.21444618614E+02 -0.14762616050E+02  0.13684117060E+04  0.13686958770E+04  0.10000000000E+02 0. -1.
</event>
<event>
 5    1  0.1666761E-008  0.3718696E+03  0.7957747E-01  0.3487343E+00
         13   -1    0    0    0    0  0.00000000000E+00  0.00000000000E+00  0.14999999963E+04  0.15000000000E+04  0.10566000000E+00 0.  1.
        994   -1    0    0    0    0 -0.00000000000E+00 -0.00000000000E+00  0.11368683772E-12  0.17120000000E+03  0.17120000000E+03 0.  0.
         13    1    1    2    0    0 -0.23100790688E+02 -0.14961122131E+01  0.28751790847E+02  0.36912891016E+02  0.10566000000E+00 0.  1.
        994    1    1    2    0    0  0.17477891422E+02  0.46731714828E+01  0.94204106894E+01  0.17241084466E+03  0.17120000000E+03 0.  0.
        998    1    1    2    0    0  0.56228992665E+01 -0.31770592697E+01  0.14618277947E+04  0.14618762643E+04  0.10000000000E+02 0.  1.
</event>
<event>
 5    1  0.1666761E-008  0.3850966E+03  0.7957747E-01  0.3429263E+00
         13   -1    0    0    0    0  0.00000000000E+00  0.00000000000E+00  0.14999999963E+04  0.15000000000E+04  0.10566000000E+00 0. -1.
        994   -1    0    0    0    0 -0.00000000000E+00 -0.00000000000E+00  0.11368683772E-12  0.17120000000E+03  0.17120000000E+03 0.  0.
         13    1    1    2    0    0 -0.49698694940E+01 -0.13652121760E+02  0.78308920601E+02  0.79645327804E+02  0.10566000000E+00 0. -1.
        994    1    1    2    0    0 -0.13095901214E+02 -0.82529218788E+01  0.23703283386E+01  0.17191472248E+03  0.17120000000E+03 0.  0.
        998    1    1    2    0    0  0.18065770708E+02  0.21905043639E+02  0.14193207473E+04  0.14196399497E+04  0.10000000000E+02 0. -1.
</event>
<event>
 5    1  0.1666761E-008  0.3820139E+03  0.7957747E-01  0.3442436E+00
         13   -1    0    0    0    0  0.00000000000E+00  0.00000000000E+00  0.14999999963E+04  0.15000000000E+04  0.10566000000E+00 0. -1.
        994   -1    0    0    0    0 -0.00000000000E+00 -0.00000000000E+00  0.11368683772E-12  0.17120000000E+03  0.17120000000E+03 0.  0.
         13    1    1    2    0    0 -0.43043967354E+01  0.14154633407E+02  0.34738931606E+02  0.37758257525E+02  0.10566000000E+00 0. -1.
        994    1    1    2    0    0 -0.20106448810E+01 -0.44198770419E+01  0.31982713596E+01  0.17129870678E+03  0.17120000000E+03 0.  0.
        998    1    1    2    0    0  0.63150416164E+01 -0.97347563655E+01  0.14620627933E+04  0.14621430357E+04  0.10000000000E+02 0. -1.
</event>
<event>
 5    1  0.1666761E-008  0.3849536E+03  0.7957747E-01  0.3429869E+00
         13   -1    0    0    0    0  0.00000000000E+00  0.00000000000E+00  0.14999999963E+04  0.15000000000E+04  0.10566000000E+00 0.  1.
        994   -1    0    0    0    0 -0.00000000000E+00 -0.00000000000E+00  0.11368683772E-12  0.17120000000E+03  0.17120000000E+03 0.  0.
         13    1    1    2    0    0 -0.15623392171E+01  0.11650378839E+02  0.45381589315E+02  0.46879334933E+02  0.10566000000E+00 0.  1.
        994    1    1    2    0    0  0.11107101128E+02  0.94612572133E+01  0.23537039614E+01  0.17183673358E+03  0.17120000000E+03 0.  0.
        998    1    1    2    0    0 -0.95447619110E+01 -0.21111636052E+02  0.14522647030E+04  0.14524839315E+04  0.10000000000E+02 0.  1.
</event>
<event>
 5    1  0.1666761E-008  0.3740519E+03  0.7957747E-01  0.3477474E+00
         13   -1    0    0    0    0  0.00000000000E+00  0.00000000000E+00  0.14999999963E+04  0.15000000000E+04  0.10566000000E+00 0.  1.
        994   -1    0    0    0    0 -0.00000000000E+00 -0.00000000000E+00  0.11368683772E-12  0.17120000000E+03  0.17120000000E+03 0.  0.
         13    1    1    2    0    0 -0.40683322293E+02  0.28306214416E+02  0.15682603171E+03  0.16447124330E+03  0.10566000000E+00 0.  1.
        994    1    1    2    0    0  0.38349877885E+02 -0.21875901273E+02  0.13842835524E+02  0.17734241536E+03  0.17120000000E+03 0.  0.
        998    1    1    2    0    0  0.23334444081E+01 -0.64303131433E+01  0.13293311290E+04  0.13293863413E+04  0.10000000000E+02 0.  1.
</event>
<event>
 5    1  0.1666761E-008  0.3853256E+03  0.7957747E-01  0.3428293E+00
         13   -1    0    0    0    0  0.00000000000E+00  0.00000000000E+00  0.14999999963E+04  0.15000000000E+04  0.10566000000E+00 0.  1.
        994   -1    0    0    0    0 -0.00000000000E+00 -0.00000000000E+00  0.11368683772E-12  0.17120000000E+03  0.17120000000E+03 0.  0.
         13    1    1    2    0    0  0.86301239812E+01 -0.53128689171E+01  0.36267990038E+02  0.37657454528E+02  0.10566000000E+00 0.  1.
        994    1    1    2    0    0  0.19434986327E+01  0.22037627320E+01  0.14969450835E+01  0.17123175699E+03  0.17120000000E+03 0.  0.
        998    1    1    2    0    0 -0.10573622614E+02  0.31091061851E+01  0.14622350612E+04  0.14623107885E+04  0.10000000000E+02 0.  1.
</event>
<event>
 5    1  0.1666761E-008  0.3856585E+03  0.7957747E-01  0.3426884E+00
         13   -1    0    0    0    0  0.00000000000E+00  0.00000000000E+00  0.14999999963E+04  0.15000000000E+04  0.10566000000E+00 0. -1.
        994   -1    0    0    0    0 -0.00000000000E+00 -0.00000000000E+00  0.11368683772E-12  0.17120000000E+03  0.17120000000E+03 0.  0.
         13    1    1    2    0    0  0.93963877654E+01  0.50532535694E+01  0.42781756236E+02  0.44092145619E+02  0.10566000000E+00 0. -1.
        994    1    1    2    0    0 -0.14195534891E+02  0.14208952828E+01  0.19717724146E+01  0.17180471484E+03  0.17120000000E+03 0.  0.
        998    1    1    2    0    0  0.47991471260E+01 -0.64741488522E+01  0.14552464676E+04  0.14553031395E+04  0.10000000000E+02 0. -1.
</event>
<event>
 5    1  0.1666761E-008  0.3822778E+03  0.7957747E-01  0.3441300E+00
         13   -1    0    0    0    0  0.00000000000E+00  0.00000000000E+00  0.14999999963E+04  0.15000000000E+04  0.10566000000E+00 0.  1.
        994   -1    0    0    0    0 -0.00000000000E+00 -0.00000000000E+00  0.11368683772E-12  0.17120000000E+03  0.17120000000E+03 0.  0.
         13    1    1    2    0    0  0.34447518372E+01  0.18324068371E+02  0.58423864036E+02  0.61326966743E+02  0.10566000000E+00 0.  1.
        994    1    1    2    0    0  0.22671228166E+02 -0.12286256105E+02  0.51970708003E+01  0.17320908238E+03  0.17120000000E+03 0.  0.
        998    1    1    2    0    0 -0.26115980003E+02 -0.60378122658E+01  0.14363790614E+04  0.14366639509E+04  0.10000000000E+02 0.  1.
</event>
<event>
 5    1  0.1666761E-008  0.3772104E+03  0.7957747E-01  0.3463396E+00
         13   -1    0    0    0    0  0.00000000000E+00  0.00000000000E+00  0.14999999963E+04  0.15000000000E+04  0.10566000000E+00 0. -1.
        994   -1    0    0    0    0 -0.00000000000E+00 -0.00000000000E+00  0.11368683772E-12  0.17120000000E+03  0.17120000000E+03 0.  0.
         13    1    1    2    0    0  0.87198344518E+01  0.30327003199E+02  0.27650967674E+02  0.41956522893E+02  0.10566000000E+00 0. -1.
        994    1    1    2    0    0 -0.24251613272E+02 -0.16831109537E+02  0.17935229119E+02  0.17464976220E+03  0.17120000000E+03 0.  0.
        998    1    1    2    0    0  0.15531778821E+02 -0.13495893662E+02  0.14544137995E+04  0.14545937149E+04  0.10000000000E+02 0. -1.
</event>
<event>
 5    1  0.1666761E-008  0.3770783E+03  0.7957747E-01  0.3463980E+00
         13   -1    0    0    0    0  0.00000000000E+00  0.00000000000E+00  0.14999999963E+04  0.15000000000E+04  0.10566000000E+00 0. -1.
        994   -1    0    0    0    0 -0.00000000000E+00 -0.00000000000E+00  0.11368683772E-12  0.17120000000E+03  0.17120000000E+03 0.  0.
         13    1    1    2    0    0 -0.60054709548E+02 -0.50655508299E+02  0.21269500213E+03  0.22674153514E+03  0.10566000000E+00 0. -1.
        994    1    1    2    0    0  0.26565420417E+02  0.30152161373E+02  0.20543437969E+02  0.17704899672E+03  0.17120000000E+03 0.  0.
        998    1    1    2    0    0  0.33489289130E+02  0.20503346926E+02  0.12667615562E+04  0.12674094681E+04  0.10000000000E+02 0. -1.
</event>
<event>
 5    1  0.1666761E-008  0.3692845E+03  0.7957747E-01  0.3499186E+00
         13   -1    0    0    0    0  0.00000000000E+00  0.00000000000E+00  0.14999999963E+04  0.15000000000E+04  0.10566000000E+00 0.  1.
        994   -1    0    0    0    0 -0.00000000000E+00 -0.00000000000E+00  0.11368683772E-12  0.17120000000E+03  0.17120000000E+03 0.  0.
         13    1    1    2    0    0 -0.26195828876E+02  0.13191012909E+02  0.37239098884E+02  0.47402383082E+02  0.10566000000E+00 0.  1.
        994    1    1    2    0    0  0.23514478317E+02  0.19574493865E+02  0.13832328497E+02  0.17446164281E+03  0.17120000000E+03 0.  0.
        998    1    1    2    0    0  0.26813505591E+01 -0.32765506775E+02  0.14489285689E+04  0.14493359741E+04  0.10000000000E+02 0.  1.
</event>
<event>
 5    1  0.1666761E-008  0.2914275E+03  0.7957747E-01  0.3959186E+00
         13   -1    0    0    0    0  0.00000000000E+00  0.00000000000E+00  0.14999999963E+04  0.15000000000E+04  0.10566000000E+00 0.  1.
        994   -1    0    0    0    0 -0.00000000000E+00 -0.00000000000E+00  0.11368683772E-12  0.17120000000E+03  0.17120000000E+03 0.  0.
         13    1    1    2    0    0 -0.15654244598E+03 -0.78371393108E+02  0.60239160952E+03  0.62731433511E+03  0.10566000000E+00 0.  1.
        994    1    1    2    0    0  0.15364207182E+03  0.70166737627E+02  0.12477423164E+03  0.27093782716E+03  0.17120000000E+03 0.  0.
        998    1    1    2    0    0  0.29003741653E+01  0.82046554814E+01  0.77283415511E+03  0.77294783773E+03  0.10000000000E+02 0.  1.
</event>
<event>
 5    1  0.1666761E-008  0.3732802E+03  0.7957747E-01  0.3480950E+00
         13   -1    0    0    0    0  0.00000000000E+00  0.00000000000E+00  0.14999999963E+04  0.15000000000E+04  0.10566000000E+00 0.  1.
        994   -1    0    0    0    0 -0.00000000000E+00 -0.00000000000E+00  0.11368683772E-12  0.17120000000E+03  0.17120000000E+03 0.  0.
         13    1    1    2    0    0  0.79122479304E+00 -0.38852337721E+02  0.96191207988E+02  0.10374434848E+03  0.10566000000E+00 0.  1.
        994    1    1    2    0    0 -0.23326544910E+02  0.26172845607E+02  0.11778609997E+02  0.17514942534E+03  0.17120000000E+03 0.  0.
        998    1    1    2    0    0  0.22535320117E+02  0.12679492114E+02  0.13920301783E+04  0.13923062262E+04  0.10000000000E+02 0.  1.
</event>
<event>
 5    1  0.1666761E-008  0.3718464E+03  0.7957747E-01  0.3487448E+00
         13   -1    0    0    0    0  0.00000000000E+00  0.00000000000E+00  0.14999999963E+04  0.15000000000E+04  0.10566000000E+00 0.  1.
        994   -1    0    0    0    0 -0.00000000000E+00 -0.00000000000E+00  0.11368683772E-12  0.17120000000E+03  0.17120000000E+03 0.  0.
         13    1    1    2    0    0  0.15994712049E+01  0.20754335509E+02  0.12865069593E+02  0.24470838364E+02  0.10566000000E+00 0.  1.
        994    1    1    2    0    0 -0.33543637226E+01 -0.19224490514E+02  0.13259611287E+02  0.17281808378E+03  0.17120000000E+03 0.  0.
        998    1    1    2    0    0  0.17548925177E+01 -0.15298449949E+01  0.14738753154E+04  0.14739110779E+04  0.10000000000E+02 0.  1.
</event>
<event>
 5    1  0.1666761E-008  0.3821352E+03  0.7957747E-01  0.3441914E+00
         13   -1    0    0    0    0  0.00000000000E+00  0.00000000000E+00  0.14999999963E+04  0.15000000000E+04  0.10566000000E+00 0.  1.
        994   -1    0    0    0    0 -0.00000000000E+00 -0.00000000000E+00  0.11368683772E-12  0.17120000000E+03  0.17120000000E+03 0.  0.
         13    1    1    2    0    0  0.76309488669E+00 -0.10122175406E+02  0.16180884572E+02  0.19101647529E+02  0.10566000000E+00 0.  1.
        994    1    1    2    0    0  0.21339196140E+02 -0.47652412967E+01  0.46477355023E+01  0.17265315016E+03  0.17120000000E+03 0.  0.
        998    1    1    2    0    0 -0.22102291026E+02  0.14887416703E+02  0.14791713762E+04  0.14794452023E+04  0.10000000000E+02 0.  1.
</event>
<event>
 5    1  0.1666761E-008  0.3851024E+03  0.7957747E-01  0.3429238E+00
         13   -1    0    0    0    0  0.00000000000E+00  0.00000000000E+00  0.14999999963E+04  0.15000000000E+04  0.10566000000E+00 0. -1.
        994   -1    0    0    0    0 -0.00000000000E+00 -0.00000000000E+00  0.11368683772E-12  0.17120000000E+03  0.17120000000E+03 0.  0.
         13    1    1    2    0    0  0.42253780000E+01 -0.11716736319E+02  0.43554706655E+02  0.45300765612E+02  0.10566000000E+00 0. -1.
        994    1    1    2    0    0 -0.18567628684E+02  0.26657338841E+02  0.50566244238E+01  0.17432836832E+03  0.17120000000E+03 0.  0.
        998    1    1    2    0    0  0.14342250684E+02 -0.14940602522E+02  0.14513886652E+04  0.14515708661E+04  0.10000000000E+02 0. -1.
</event>
<event>
 5    1  0.1666761E-008  0.3808967E+03  0.7957747E-01  0.3447263E+00
         13   -1    0    0    0    0  0.00000000000E+00  0.00000000000E+00  0.14999999963E+04  0.15000000000E+04  0.10566000000E+00 0. -1.
        994   -1    0    0    0    0 -0.00000000000E+00 -0.00000000000E+00  0.11368683772E-12  0.17120000000E+03  0.17120000000E+03 0.  0.
         13    1    1    2    0    0  0.13962379166E+02  0.25170368955E+02  0.10443280353E+03  0.10832689934E+03  0.10566000000E+00 0. -1.
        994    1    1    2    0    0 -0.22538006976E+02 -0.20800439621E+02  0.68226574702E+01  0.17405921033E+03  0.17120000000E+03 0.  0.
        998    1    1    2    0    0  0.85756278107E+01 -0.43699293341E+01  0.13887445353E+04  0.13888138903E+04  0.10000000000E+02 0. -1.
</event>
<event>
 5    1  0.1666761E-008  0.3774207E+03  0.7957747E-01  0.3462467E+00
         13   -1    0    0    0    0  0.00000000000E+00  0.00000000000E+00  0.14999999963E+04  0.15000000000E+04  0.10566000000E+00 0. -1.
        994   -1    0    0    0    0 -0.00000000000E+00 -0.00000000000E+00  0.11368683772E-12  0.17120000000E+03  0.17120000000E+03 0.  0.
         13    1    1    2    0    0 -0.14986940195E+02  0.20467722944E+02  0.56542464877E+02  0.61972554872E+02  0.10566000000E+00 0. -1.
        994    1    1    2    0    0  0.79514985806E+01 -0.17713888942E+02  0.67130345601E+01  0.17242828371E+03  0.17120000000E+03 0.  0.
        998    1    1    2    0    0  0.70354416144E+01 -0.27538340019E+01  0.14367444968E+04  0.14367991614E+04  0.10000000000E+02 0. -1.
</event>
<event>
 5    1  0.1666761E-008  0.3325632E+03  0.7957747E-01  0.3687879E+00
         13   -1    0    0    0    0  0.00000000000E+00  0.00000000000E+00  0.14999999963E+04  0.15000000000E+04  0.10566000000E+00 0.  1.
        994   -1    0    0    0    0 -0.00000000000E+00 -0.00000000000E+00  0.11368683772E-12  0.17120000000E+03  0.17120000000E+03 0.  0.
         13    1    1    2    0    0 -0.51006581895E+01 -0.21467210297E+03  0.87573690185E+03  0.90167913414E+03  0.10566000000E+00 0.  1.
        994    1    1    2    0    0  0.30905506648E+02  0.19485576969E+03  0.16492491092E+03  0.30892327133E+03  0.17120000000E+03 0.  0.
        998    1    1    2    0    0 -0.25804848458E+02  0.19816333281E+02  0.45933818350E+03  0.46059759454E+03  0.10000000000E+02 0. -1.
</event>
<event>
 5    1  0.2037161E-008  0.3861346E+03  0.7957747E-01  0.3424874E+00
         13   -1    0    0    0    0  0.00000000000E+00  0.00000000000E+00  0.14999999963E+04  0.15000000000E+04  0.10566000000E+00 0. -1.
        994   -1    0    0    0    0 -0.00000000000E+00 -0.00000000000E+00  0.11368683772E-12  0.17120000000E+03  0.17120000000E+03 0.  0.
         13    1    1    2    0    0  0.11316982073E+01 -0.11463148078E+02  0.63880363252E+02  0.64910680769E+02  0.10566000000E+00 0. -1.
        994    1    1    2    0    0 -0.58179625179E+01  0.53903611189E+01  0.12740173160E+01  0.17138835375E+03  0.17120000000E+03 0.  0.
        998    1    1    2    0    0  0.46862643105E+01  0.60727869592E+01  0.14348456157E+04  0.14349009655E+04  0.10000000000E+02 0. -1.
</event>
<event>
 5    1  0.1666761E-008  0.3783683E+03  0.7957747E-01  0.3458294E+00
         13   -1    0    0    0    0  0.00000000000E+00  0.00000000000E+00  0.14999999963E+04  0.15000000000E+04  0.10566000000E+00 0. -1.
        994   -1    0    0    0    0 -0.00000000000E+00 -0.00000000000E+00  0.11368683772E-12  0.17120000000E+03  0.17120000000E+03 0.  0.
         13    1    1    2    0    0 -0.73464451241E+01  0.13609806655E+02  0.23005768111E+02  0.27721356813E+02  0.10566000000E+00 0. -1.
        994    1    1    2    0    0 -0.41985025975E+00  0.58994116644E+01  0.50766593778E+01  0.17137733748E+03  0.17120000000E+03 0.  0.
        998    1    1    2    0    0  0.77662953838E+01 -0.19509218320E+02  0.14719175688E+04  0.14721013057E+04  0.10000000000E+02 0. -1.
</event>
<event>
 5    1  0.1666761E-008  0.3725338E+03  0.7957747E-01  0.3484327E+00
         13   -1    0    0    0    0  0.00000000000E+00  0.00000000000E+00  0.14999999963E+04  0.15000000000E+04  0.10566000000E+00 0. -1.
        994   -1    0    0    0    0 -0.00000000000E+00 -0.00000000000E+00  0.11368683772E-12  0.17120000000E+03  0.17120000000E+03 0.  0.
         13    1    1    2    0    0 -0.12687719697E+02  0.44434224557E+02  0.12082621286E+03  0.12936136757E+03  0.10566000000E+00 0. -1.
        994    1    1    2    0    0  0.97748366794E+01 -0.46926818009E+02  0.15867837933E+02  0.17849062149E+03  0.17120000000E+03 0.  0.
        998    1    1    2    0    0  0.29128830178E+01  0.24925934522E+01  0.13633059455E+04  0.13633480109E+04  0.10000000000E+02 0. -1.
</event>
<event>
 5    1  0.1666761E-008  0.3793081E+03  0.7957747E-01  0.3454177E+00
         13   -1    0    0    0    0  0.00000000000E+00  0.00000000000E+00  0.14999999963E+04  0.15000000000E+04  0.10566000000E+00 0. -1.
        994   -1    0    0    0    0 -0.00000000000E+00 -0.00000000000E+00  0.11368683772E-12  0.17120000000E+03  0.17120000000E+03 0.  0.
         13    1    1    2    0    0  0.31886516446E+02  0.74176308159E+02  0.46478865996E+03  0.47174928110E+03  0.10566000000E+00 0. -1.
        994    1    1    2    0    0 -0.36461902665E+02 -0.78326146606E+02  0.29913644733E+02  0.19408431603E+03  0.17120000000E+03 0.  0.
        998    1    1    2    0    0  0.45753862191E+01  0.41498384469E+01  0.10052976916E+04  0.10053664029E+04  0.10000000000E+02 0. -1.
</event>
<event>
 5    1  0.1666761E-008  0.3850136E+03  0.7957747E-01  0.3429615E+00
         13   -1    0    0    0    0  0.00000000000E+00  0.00000000000E+00  0.14999999963E+04  0.15000000000E+04  0.10566000000E+00 0.  1.
        994   -1    0    0    0    0 -0.00000000000E+00 -0.00000000000E+00  0.11368683772E-12  0.17120000000E+03  0.17120000000E+03 0.  0.
         13    1    1    2    0    0 -0.33978213643E+01  0.10085324884E+02  0.34773592422E+02  0.36365819969E+02  0.10566000000E+00 0.  1.
        994    1    1    2    0    0  0.25382170621E+02  0.93733433632E+00  0.37478017231E+01  0.17311446849E+03  0.17120000000E+03 0.  0.
        998    1    1    2    0    0 -0.21984349257E+02 -0.11022659220E+02  0.14614786021E+04  0.14617197115E+04  0.10000000000E+02 0.  1.
</event>
<event>
 5    1  0.1666761E-008  0.3816619E+03  0.7957747E-01  0.3443954E+00
         13   -1    0    0    0    0  0.00000000000E+00  0.00000000000E+00  0.14999999963E+04  0.15000000000E+04  0.10566000000E+00 0. -1.
        994   -1    0    0    0    0 -0.00000000000E+00 -0.00000000000E+00  0.11368683772E-12  0.17120000000E+03  0.17120000000E+03 0.  0.
         13    1    1    2    0    0 -0.75314317168E+00  0.10832839119E+02  0.16171410513E+02  0.19479304660E+02  0.10566000000E+00 0. -1.
        994    1    1    2    0    0 -0.78554005924E+01 -0.16355564458E+02  0.43918473949E+01  0.17221480811E+03  0.17120000000E+03 0.  0.
        998    1    1    2    0    0  0.86085437641E+01  0.55227253386E+01  0.14794367384E+04  0.14795058872E+04  0.10000000000E+02 0. -1.
</event>
<event>
 5    1  0.1666761E-008  0.3824541E+03  0.7957747E-01  0.3440542E+00
         13   -1    0    0    0    0  0.00000000000E+00  0.00000000000E+00  0.14999999963E+04  0.15000000000E+04  0.10566000000E+00 0.  1.
        994   -1    0    0    0    0 -0.00000000000E+00 -0.00000000000E+00  0.11368683772E-12  0.17120000000E+03  0.17120000000E+03 0.  0.
         13    1    1    2    0    0  0.32159909751E+02  0.59072486525E+01  0.15656311673E+03  0.15994116439E+03  0.10566000000E+00 0.  1.
        994    1    1    2    0    0 -0.40884184881E+02 -0.28511798559E+01  0.84892490632E+01  0.17624174633E+03  0.17120000000E+03 0.  0.
        998    1    1    2    0    0  0.87242751299E+01 -0.30560687966E+01  0.13349476305E+04  0.13350170893E+04  0.10000000000E+02 0.  1.
</event>
<event>
 5    1  0.1666761E-008  0.3731636E+03  0.7957747E-01  0.3481477E+00
         13   -1    0    0    0    0  0.00000000000E+00  0.00000000000E+00  0.14999999963E+04  0.15000000000E+04  0.10566000000E+00 0.  1.
        994   -1    0    0    0    0 -0.00000000000E+00 -0.00000000000E+00  0.11368683772E-12  0.17120000000E+03  0.17120000000E+03 0.  0.
         13    1    1    2    0    0 -0.96076916013E+02 -0.39230834231E+02  0.50554181615E+03  0.51608368623E+03  0.10566000000E+00 0.  1.
        994    1    1    2    0    0  0.88695064339E+02  0.32459224468E+02  0.38779911123E+02  0.19933323154E+03  0.17120000000E+03 0.  0.
        998    1    1    2    0    0  0.73818516740E+01  0.67716097629E+01  0.95567826900E+03  0.95578308223E+03  0.10000000000E+02 0.  1.
</event>
<event>
 5    1  0.1666761E-008  0.3857548E+03  0.7957747E-01  0.3426477E+00
         13   -1    0    0    0    0  0.00000000000E+00  0.00000000000E+00  0.14999999963E+04  0.15000000000E+04  0.10566000000E+00 0. -1.
        994   -1    0    0    0    0 -0.00000000000E+00 -0.00000000000E+00  0.11368683772E-12  0.17120000000E+03  0.17120000000E+03 0.  0.
         13    1    1    2    0    0  0.21481766941E+01  0.11450637611E+02  0.54707612327E+02  0.55934477519E+02  0.10566000000E+00 0. -1.
        994    1    1    2    0    0  0.23263662827E+01 -0.77410035429E+01  0.14702047710E+01  0.17139701461E+03  0.17120000000E+03 0.  0.
        998    1    1    2    0    0 -0.44745429768E+01 -0.37096340686E+01  0.14438221792E+04  0.14438685079E+04  0.10000000000E+02 0. -1.
</event>
<event>
 5    1  0.1666761E-008  0.3859694E+03  0.7957747E-01  0.3425571E+00
         13   -1    0    0    0    0  0.00000000000E+00  0.00000000000E+00  0.14999999963E+04  0.15000000000E+04  0.10566000000E+00 0. -1.
        994   -1    0    0    0    0 -0.00000000000E+00 -0.00000000000E+00  0.11368683772E-12  0.17120000000E+03  0.17120000000E+03 0.  0.
         13    1    1    2    0    0 -0.11120420393E+02  0.50517708889E+01  0.65528357728E+02  0.66657039909E+02  0.10566000000E+00 0. -1.
        994    1    1    2    0    0  0.73232716480E+01 -0.39573897183E+01  0.13767950725E+01  0.17140777930E+03  0.17120000000E+03 0.  0.
        998    1    1    2    0    0  0.37971487447E+01 -0.10943811706E+01  0.14330948435E+04  0.14331351808E+04  0.10000000000E+02 0. -1.
</event>
<event>
 5    1  0.1666761E-008  0.3761608E+03  0.7957747E-01  0.3468048E+00
         13   -1    0    0    0    0  0.00000000000E+00  0.00000000000E+00  0.14999999963E+04  0.15000000000E+04  0.10566000000E+00 0.  1.
        994   -1    0    0    0    0 -0.00000000000E+00 -0.00000000000E+00  0.11368683772E-12  0.17120000000E+03  0.17120000000E+03 0.  0.
         13    1    1    2    0    0 -0.10365752967E+02  0.31510931107E+02  0.33501886765E+02  0.47146316873E+02  0.10566000000E+00 0.  1.
        994    1    1    2    0    0  0.17958347759E+02 -0.12695241711E+02  0.15964294550E+02  0.17334350324E+03  0.17120000000E+03 0.  0.
        998    1    1    2    0    0 -0.75925947921E+01 -0.18815689396E+02  0.14505338150E+04  0.14507101799E+04  0.10000000000E+02 0.  1.
</event>
<event>
 5    1  0.1666761E-008  0.3697768E+03  0.7957747E-01  0.3496917E+00
         13   -1    0    0    0    0  0.00000000000E+00  0.00000000000E+00  0.14999999963E+04  0.15000000000E+04  0.10566000000E+00 0. -1.
        994   -1    0    0    0    0 -0.00000000000E+00 -0.00000000000E+00  0.11368683772E-12  0.17120000000E+03  0.17120000000E+03 0.  0.
         13    1    1    2    0    0 -0.86312897592E+01  0.88581410877E+01  0.38677499128E+01  0.12959030823E+02  0.10566000000E+00 0. -1.
        994    1    1    2    0    0 -0.10785078060E+02 -0.17249515718E+02  0.10819159216E+02  0.17274361901E+03  0.17120000000E+03 0.  0.
        998    1    1    2    0    0  0.19416367819E+02  0.83913746306E+01  0.14853130871E+04  0.14854973502E+04  0.10000000000E+02 0. -1.
</event>
<event>
 5    1  0.1666761E-008  0.3719918E+03  0.7957747E-01  0.3486787E+00
         13   -1    0    0    0    0  0.00000000000E+00  0.00000000000E+00  0.14999999963E+04  0.15000000000E+04  0.10566000000E+00 0.  1.
        994   -1    0    0    0    0 -0.00000000000E+00 -0.00000000000E+00  0.11368683772E-12  0.17120000000E+03  0.17120000000E+03 0.  0.
         13    1    1    2    0    0  0.25634808905E+02 -0.63481249600E+02  0.34923790465E+03  0.35588500627E+03  0.10566000000E+00 0.  1.
        994    1    1    2    0    0 -0.52822748109E+00  0.12780250834E+02  0.87937151987E+01  0.17190224915E+03  0.17120000000E+03 0.  0.
        998    1    1    2    0    0 -0.25106581423E+02  0.50700998767E+02  0.11419683764E+04  0.11434127446E+04  0.10000000000E+02 0.  1.
</event>
<event>
 5    1  0.1666761E-008  0.3858705E+03  0.7957747E-01  0.3425989E+00
         13   -1    0    0    0    0  0.00000000000E+00  0.00000000000E+00  0.14999999963E+04  0.15000000000E+04  0.10566000000E+00 0.  1.
        994   -1    0    0    0    0 -0.00000000000E+00 -0.00000000000E+00  0.11368683772E-12  0.17120000000E+03  0.17120000000E+03 0.  0.
         13    1    1    2    0    0 -0.97805174865E+01 -0.86148541541E+01  0.71641092306E+02  0.72817109975E+02  0.10566000000E+00 0.  1.
        994    1    1    2    0    0  0.82355163444E+01  0.34597859081E+01  0.14603066567E+01  0.17143910389E+03  0.17120000000E+03 0.  0.
        998    1    1    2    0    0  0.15450011421E+01  0.51550682460E+01  0.14268985973E+04  0.14269437861E+04  0.10000000000E+02 0.  1.
</event>
<event>
 5    1  0.1666761E-008  0.3803778E+03  0.7957747E-01  0.3449515E+00
         13   -1    0    0    0    0  0.00000000000E+00  0.00000000000E+00  0.14999999963E+04  0.15000000000E+04  0.10566000000E+00 0.  1.
        994   -1    0    0    0    0 -0.00000000000E+00 -0.00000000000E+00  0.11368683772E-12  0.17120000000E+03  0.17120000000E+03 0.  0.
         13    1    1    2    0    0  0.73714626731E+01  0.10585031628E+02  0.18999502053E+02  0.22964616234E+02  0.10566000000E+00 0.  1.
        994    1    1    2    0    0 -0.87435227742E+01 -0.15810044378E+02  0.50330823559E+01  0.17222421029E+03  0.17120000000E+03 0.  0.
        998    1    1    2    0    0  0.13720601011E+01  0.52250127492E+01  0.14759674119E+04  0.14760111735E+04  0.10000000000E+02 0.  1.
</event>
<event>
 5    1  0.1666761E-008  0.3726674E+03  0.7957747E-01  0.3483721E+00
         13   -1    0    0    0    0  0.00000000000E+00  0.00000000000E+00  0.14999999963E+04  0.15000000000E+04  0.10566000000E+00 0.  1.
        994   -1    0    0    0    0 -0.00000000000E+00 -0.00000000000E+00  0.11368683772E-12  0.17120000000E+03  0.17120000000E+03 0.  0.
         13    1    1    2    0    0 -0.33366862919E+02 -0.11182324799E+03  0.66540470067E+03  0.67555992567E+03  0.10566000000E+00 0.  1.
        994    1    1    2    0    0  0.40167081692E+02  0.42921008911E+02  0.24652942332E+02  0.18268227890E+03  0.17120000000E+03 0.  0.
        998    1    1    2    0    0 -0.68002187722E+01  0.68902239080E+02  0.80994235328E+03  0.81295779543E+03  0.10000000000E+02 0.  1.
</event>
<event>
 5    1  0.1666761E-008  0.3710164E+03  0.7957747E-01  0.3491233E+00
         13   -1    0    0    0    0  0.00000000000E+00  0.00000000000E+00  0.14999999963E+04  0.15000000000E+04  0.10566000000E+00 0. -1.
        994   -1    0    0    0    0 -0.00000000000E+00 -0.00000000000E+00  0.11368683772E-12  0.17120000000E+03  0.17120000000E+03 0.  0.
         13    1    1    2    0    0 -0.53493138507E+02 -0.75644659209E+02  0.36245664780E+03  0.37411022845E+03  0.10566000000E+00 0. -1.
        994    1    1    2    0    0  0.71038353612E+02  0.65519375596E+02  0.41640678868E+02  0.20095427937E+03  0.17120000000E+03 0.  0.
        998    1    1    2    0    0 -0.17545215105E+02  0.10125283612E+02  0.10959026696E+04  0.10961354922E+04  0.10000000000E+02 0. -1.
</event>
<event>
 5    1  0.1666761E-008  0.3803961E+03  0.7957747E-01  0.3449436E+00
         13   -1    0    0    0    0  0.00000000000E+00  0.00000000000E+00  0.14999999963E+04  0.15000000000E+04  0.10566000000E+00 0. -1.
        994   -1    0    0    0    0 -0.00000000000E+00 -0.00000000000E+00  0.11368683772E-12  0.17120000000E+03  0.17120000000E+03 0.  0.
         13    1    1    2    0    0  0.44928849309E+02  0.11547654327E+03  0.68091688076E+03  0.69209915707E+03  0.10566000000E+00 0. -1.
        994    1    1    2    0    0 -0.11637671492E+02 -0.16237643026E+03  0.98171178816E+02  0.25582916341E+03  0.17120000000E+03 0.  0.
        998    1    1    2    0    0 -0.33291177817E+02  0.46899886992E+02  0.72091193670E+03  0.72327167952E+03  0.10000000000E+02 0.  1.
</event>
<event>
 5    1  0.1666761E-008  0.3687848E+03  0.7957747E-01  0.3501494E+00
         13   -1    0    0    0    0  0.00000000000E+00  0.00000000000E+00  0.14999999963E+04  0.15000000000E+04  0.10566000000E+00 0.  1.
        994   -1    0    0    0    0 -0.00000000000E+00 -0.00000000000E+00  0.11368683772E-12  0.17120000000E+03  0.17120000000E+03 0.  0.
         13    1    1    2    0    0  0.40460551619E+02 -0.14796448303E+02  0.82122866594E+02  0.92737088057E+02  0.10566000000E+00 0.  1.
        994    1    1    2    0    0 -0.45454972491E+02  0.78904299058E+00  0.17527257427E+02  0.17799837602E+03  0.17120000000E+03 0.  0.
        998    1    1    2    0    0  0.49944208719E+01  0.14007405312E+02  0.14003498723E+04  0.14004645359E+04  0.10000000000E+02 0.  1.
</event>
<event>
 5    1  0.2607410E-008  0.3863320E+03  0.7957747E-01  0.3424042E+00
         13   -1    0    0    0    0  0.00000000000E+00  0.00000000000E+00  0.14999999963E+04  0.15000000000E+04  0.10566000000E+00 0.  1.
        994   -1    0    0    0    0 -0.00000000000E+00 -0.00000000000E+00  0.11368683772E-12  0.17120000000E+03  0.17120000000E+03 0.  0.
         13    1    1    2    0    0 -0.63647474287E+01 -0.77942628068E+01  0.54836293602E+02  0.55752047519E+02  0.10566000000E+00 0.  1.
        994    1    1    2    0    0  0.47554353711E+01 -0.51408720530E+00  0.10451627235E+01  0.17126999392E+03  0.17120000000E+03 0.  0.
        998    1    1    2    0    0  0.16093120577E+01  0.83083500121E+01  0.14441185400E+04  0.14441779586E+04  0.10000000000E+02 0.  1.
</event>
<event>
 5    1  0.1666761E-008  0.3732469E+03  0.7957747E-01  0.3481101E+00
         13   -1    0    0    0    0  0.00000000000E+00  0.00000000000E+00  0.14999999963E+04  0.15000000000E+04  0.10566000000E+00 0. -1.
        994   -1    0    0    0    0 -0.00000000000E+00 -0.00000000000E+00  0.11368683772E-12  0.17120000000E+03  0.17120000000E+03 0.  0.
         13    1    1    2    0    0 -0.88633741554E+01  0.41017577137E+02  0.13313448690E+03  0.13959156064E+03  0.10566000000E+00 0. -1.
        994    1    1    2    0    0 -0.17039325181E+02  0.51473241890E+01  0.86658881404E+01  0.17234085751E+03  0.17120000000E+03 0.  0.
        998    1    1    2    0    0  0.25902699336E+02 -0.46164901326E+02  0.13581996212E+04  0.13592675818E+04  0.10000000000E+02 0. -1.
</event>
<event>
 5    1  0.1666761E-008  0.3750289E+03  0.7957747E-01  0.3473094E+00
         13   -1    0    0    0    0  0.00000000000E+00  0.00000000000E+00  0.14999999963E+04  0.15000000000E+04  0.10566000000E+00 0. -1.
        994   -1    0    0    0    0 -0.00000000000E+00 -0.00000000000E+00  0.11368683772E-12  0.17120000000E+03  0.17120000000E+03 0.  0.
         13    1    1    2    0    0  0.89701187435E+02 -0.60653928292E+01  0.27683643982E+03  0.29106960954E+03  0.10566000000E+00 0. -1.
        994    1    1    2    0    0 -0.65274670780E+02 -0.18675464396E+02  0.30214709259E+02  0.18663312748E+03  0.17120000000E+03 0.  0.
        998    1    1    2    0    0 -0.24426516655E+02  0.24740857225E+02  0.11929488472E+04  0.11934972630E+04  0.10000000000E+02 0. -1.
</event>
<event>
 5    1  0.1666761E-008  0.2319121E+03  0.7957747E-01  0.4546222E+00
         13   -1    0    0    0    0  0.00000000000E+00  0.00000000000E+00  0.14999999963E+04  0.15000000000E+04  0.10566000000E+00 0. -1.
        994   -1    0    0    0    0 -0.00000000000E+00 -0.00000000000E+00  0.11368683772E-12  0.17120000000E+03  0.17120000000E+03 0.  0.
         13    1    1    2    0    0 -0.13817822616E+03 -0.67238525357E+02  0.21265098841E+03  0.26236367034E+03  0.10566000000E+00 0. -1.
        994    1    1    2    0    0  0.95863377744E+02  0.12060632994E+03  0.16247213618E+03  0.28185512068E+03  0.17120000000E+03 0.  0.
        998    1    1    2    0    0  0.42314848414E+02 -0.53367804587E+02  0.11248768717E+04  0.11269812090E+04  0.10000000000E+02 0. -1.
</event>
<event>
 5    1  0.1666761E-008  0.3723814E+03  0.7957747E-01  0.3485017E+00
         13   -1    0    0    0    0  0.00000000000E+00  0.00000000000E+00  0.14999999963E+04  0.15000000000E+04  0.10566000000E+00 0. -1.
        994   -1    0    0    0    0 -0.00000000000E+00 -0.00000000000E+00  0.11368683772E-12  0.17120000000E+03  0.17120000000E+03 0.  0.
         13    1    1    2    0    0 -0.13304623320E+02  0.62787741437E+02  0.32040311223E+03  0.32676823433E+03  0.10566000000E+00 0. -1.
        994    1    1    2    0    0  0.33513676466E+01 -0.53851993610E+01  0.81676074088E+01  0.17151204578E+03  0.17120000000E+03 0.  0.
        998    1    1    2    0    0  0.99532556735E+01 -0.57402542076E+02  0.11714292766E+04  0.11729197199E+04  0.10000000000E+02 0. -1.
</event>
<event>
 5    1  0.1666761E-008  0.3854966E+03  0.7957747E-01  0.3427569E+00
         13   -1    0    0    0    0  0.00000000000E+00  0.00000000000E+00  0.14999999963E+04  0.15000000000E+04  0.10566000000E+00 0.  1.
        994   -1    0    0    0    0 -0.00000000000E+00 -0.00000000000E+00  0.11368683772E-12  0.17120000000E+03  0.17120000000E+03 0.  0.
         13    1    1    2    0    0 -0.82286492066E+01 -0.11719749011E+02  0.73951389325E+02  0.75325177277E+02  0.10566000000E+00 0.  1.
        994    1    1    2    0    0  0.19171658202E+01  0.11371022606E+02  0.18204987821E+01  0.17159758126E+03  0.17120000000E+03 0.  0.
        998    1    1    2    0    0  0.63114833864E+01  0.34872640435E+00  0.14242281082E+04  0.14242772415E+04  0.10000000000E+02 0.  1.
</event>
<event>
 5    1  0.1666761E-008  0.3779659E+03  0.7957747E-01  0.3460063E+00
         13   -1    0    0    0    0  0.00000000000E+00  0.00000000000E+00  0.14999999963E+04  0.15000000000E+04  0.10566000000E+00 0.  1.
        994   -1    0    0    0    0 -0.00000000000E+00 -0.00000000000E+00  0.11368683772E-12  0.17120000000E+03  0.17120000000E+03 0.  0.
         13    1    1    2    0    0  0.56168040578E+00  0.47559306366E+02  0.28309612869E+03  0.28706381233E+03  0.10566000000E+00 0.  1.
        994    1    1    2    0    0 -0.37098336047E+02  0.16108812413E+01  0.98182138092E+01  0.17545574598E+03  0.17120000000E+03 0.  0.
        998    1    1    2    0    0  0.36536655641E+02 -0.49170187608E+02  0.12070856538E+04  0.12086804417E+04  0.10000000000E+02 0.  1.
</event>
<event>
 5    1  0.1666761E-008  0.3842309E+03  0.7957747E-01  0.3432941E+00
         13   -1    0    0    0    0  0.00000000000E+00  0.00000000000E+00  0.14999999963E+04  0.15000000000E+04  0.10566000000E+00 0. -1.
        994   -1    0    0    0    0 -0.00000000000E+00 -0.00000000000E+00  0.11368683772E-12  0.17120000000E+03  0.17120000000E+03 0.  0.
         13    1    1    2    0    0  0.21757964312E+02 -0.10716147761E+02  0.14329950280E+03  0.14533755021E+03  0.10566000000E+00 0. -1.
        994    1    1    2    0    0 -0.15310423093E+02  0.68699665750E+01  0.29414202685E+01  0.17204562607E+03  0.17120000000E+03 0.  0.
        998    1    1    2    0    0 -0.64475412182E+01  0.38461811864E+01  0.13537590732E+04  0.13538168237E+04  0.10000000000E+02 0. -1.
</event>
<event>
 5    1  0.1666761E-008  0.3858236E+03  0.7957747E-01  0.3426187E+00
         13   -1    0    0    0    0  0.00000000000E+00  0.00000000000E+00  0.14999999963E+04  0.15000000000E+04  0.10566000000E+00 0. -1.
        994   -1    0    0    0    0 -0.00000000000E+00 -0.00000000000E+00  0.11368683772E-12  0.17120000000E+03  0.17120000000E+03 0.  0.
         13    1    1    2    0    0 -0.64051299439E+01 -0.82951085885E+01  0.44942450112E+02  0.46148342356E+02  0.10566000000E+00 0. -1.
        994    1    1    2    0    0  0.36374242292E+01  0.79240296968E+01  0.14711612049E+01  0.17142819318E+03  0.17120000000E+03 0.  0.
        998    1    1    2    0    0  0.27677057147E+01  0.37107889166E+00  0.14535863850E+04  0.14536234645E+04  0.10000000000E+02 0. -1.
</event>
<event>
 5    1  0.1666761E-008  0.3722675E+03  0.7957747E-01  0.3485534E+00
         13   -1    0    0    0    0  0.00000000000E+00  0.00000000000E+00  0.14999999963E+04  0.15000000000E+04  0.10566000000E+00 0.  1.
        994   -1    0    0    0    0 -0.00000000000E+00 -0.00000000000E+00  0.11368683772E-12  0.17120000000E+03  0.17120000000E+03 0.  0.
         13    1    1    2    0    0 -0.18864240009E+02 -0.49494196584E+02  0.14678357028E+03  0.15604795005E+03  0.10566000000E+00 0.  1.
        994    1    1    2    0    0 -0.29435861226E+02  0.81235551740E+02  0.34153920247E+02  0.19478607512E+03  0.17120000000E+03 0.  0.
        998    1    1    2    0    0  0.48300101235E+02 -0.31741355156E+02  0.13190625058E+04  0.13203659748E+04  0.10000000000E+02 0.  1.
</event>
<event>
 5    1  0.1666761E-008  0.3848978E+03  0.7957747E-01  0.3430106E+00
         13   -1    0    0    0    0  0.00000000000E+00  0.00000000000E+00  0.14999999963E+04  0.15000000000E+04  0.10566000000E+00 0.  1.
        994   -1    0    0    0    0 -0.00000000000E+00 -0.00000000000E+00  0.11368683772E-12  0.17120000000E+03  0.17120000000E+03 0.  0.
         13    1    1    2    0    0 -0.10417447995E+02 -0.15266500997E+01  0.33017345190E+02  0.34655593065E+02  0.10566000000E+00 0.  1.
        994    1    1    2    0    0  0.60145024744E+01 -0.47451493504E+01  0.18739801085E+01  0.17138156985E+03  0.17120000000E+03 0.  0.
        998    1    1    2    0    0  0.44029455207E+01  0.62717994501E+01  0.14651086710E+04  0.14651628371E+04  0.10000000000E+02 0.  1.
</event>
<event>
 5    1  0.1666761E-008  0.3753277E+03  0.7957747E-01  0.3471758E+00
         13   -1    0    0    0    0  0.00000000000E+00  0.00000000000E+00  0.14999999963E+04  0.15000000000E+04  0.10566000000E+00 0. -1.
        994   -1    0    0    0    0 -0.00000000000E+00 -0.00000000000E+00  0.11368683772E-12  0.17120000000E+03  0.17120000000E+03 0.  0.
         13    1    1    2    0    0 -0.10716396933E+03 -0.17781785162E+02  0.38858354814E+03  0.40348171366E+03  0.10566000000E+00 0. -1.
        994    1    1    2    0    0  0.15845305884E+03  0.69012041818E+02  0.11581330938E+03  0.26942939038E+03  0.17120000000E+03 0.  0.
        998    1    1    2    0    0 -0.51289089504E+02 -0.51230256656E+02  0.99560313876E+03  0.99828889596E+03  0.10000000000E+02 0. -1.
</event>
<event>
 5    1  0.1666761E-008  0.3800160E+03  0.7957747E-01  0.3451089E+00
         13   -1    0    0    0    0  0.00000000000E+00  0.00000000000E+00  0.14999999963E+04  0.15000000000E+04  0.10566000000E+00 0. -1.
        994   -1    0    0    0    0 -0.00000000000E+00 -0.00000000000E+00  0.11368683772E-12  0.17120000000E+03  0.17120000000E+03 0.  0.
         13    1    1    2    0    0 -0.58436053120E+01 -0.16992717965E+02  0.39441120160E+02  0.43341819417E+02  0.10566000000E+00 0. -1.
        994    1    1    2    0    0  0.26957002055E+01 -0.34548996824E+01  0.41892678776E+01  0.17130730602E+03  0.17120000000E+03 0.  0.
        998    1    1    2    0    0  0.31479051066E+01  0.20447617647E+02  0.14563696082E+04  0.14565508746E+04  0.10000000000E+02 0. -1.
</event>
<event>
 5    1  0.1666761E-008  0.3817842E+03  0.7957747E-01  0.3443426E+00
         13   -1    0    0    0    0  0.00000000000E+00  0.00000000000E+00  0.14999999963E+04  0.15000000000E+04  0.10566000000E+00 0. -1.
        994   -1    0    0    0    0 -0.00000000000E+00 -0.00000000000E+00  0.11368683772E-12  0.17120000000E+03  0.17120000000E+03 0.  0.
         13    1    1    2    0    0  0.19082640831E+02 -0.18721705719E+02  0.10257397784E+03  0.10600038462E+03  0.10566000000E+00 0. -1.
        994    1    1    2    0    0 -0.20523009138E+02  0.18354798369E+02  0.57586416331E+01  0.17349551718E+03  0.17120000000E+03 0.  0.
        998    1    1    2    0    0  0.14403683068E+01  0.36690735019E+00  0.13916673768E+04  0.13917040982E+04  0.10000000000E+02 0. -1.
</event>
<event>
 5    1  0.1666761E-008  0.3780817E+03  0.7957747E-01  0.3459554E+00
         13   -1    0    0    0    0  0.00000000000E+00  0.00000000000E+00  0.14999999963E+04  0.15000000000E+04  0.10566000000E+00 0. -1.
        994   -1    0    0    0    0 -0.00000000000E+00 -0.00000000000E+00  0.11368683772E-12  0.17120000000E+03  0.17120000000E+03 0.  0.
         13    1    1    2    0    0 -0.35632774211E+02  0.17745569136E+02  0.14853805075E+03  0.15377959392E+03  0.10566000000E+00 0. -1.
        994    1    1    2    0    0  0.28627829547E+02 -0.78988892178E+01  0.80774362496E+01  0.17394433032E+03  0.17120000000E+03 0.  0.
        998    1    1    2    0    0  0.70049446636E+01 -0.98466799178E+01  0.13433845093E+04  0.13434760758E+04  0.10000000000E+02 0. -1.
</event>
<event>
 5    1  0.1666761E-008  0.3737155E+03  0.7957747E-01  0.3478988E+00
         13   -1    0    0    0    0  0.00000000000E+00  0.00000000000E+00  0.14999999963E+04  0.15000000000E+04  0.10566000000E+00 0.  1.
        994   -1    0    0    0    0 -0.00000000000E+00 -0.00000000000E+00  0.11368683772E-12  0.17120000000E+03  0.17120000000E+03 0.  0.
         13    1    1    2    0    0 -0.87324431342E+02 -0.88313912310E+01  0.23942077486E+03  0.25500170270E+03  0.10566000000E+00 0.  1.
        994    1    1    2    0    0  0.92371418778E+02  0.10275177847E+02  0.44182084468E+02  0.19974872934E+03  0.17120000000E+03 0.  0.
        998    1    1    2    0    0 -0.50469874365E+01 -0.14437866164E+01  0.12163971370E+04  0.12164495680E+04  0.10000000000E+02 0.  1.
</event>
<event>
 5    1  0.1666761E-008  0.3830434E+03  0.7957747E-01  0.3438013E+00
         13   -1    0    0    0    0  0.00000000000E+00  0.00000000000E+00  0.14999999963E+04  0.15000000000E+04  0.10566000000E+00 0. -1.
        994   -1    0    0    0    0 -0.00000000000E+00 -0.00000000000E+00  0.11368683772E-12  0.17120000000E+03  0.17120000000E+03 0.  0.
         13    1    1    2    0    0  0.25580571791E+01  0.10193987928E+02  0.20015433868E+02  0.22607295357E+02  0.10566000000E+00 0. -1.
        994    1    1    2    0    0 -0.39600148921E+01 -0.10328697746E+02  0.30097799257E+01  0.17158339806E+03  0.17120000000E+03 0.  0.
        998    1    1    2    0    0  0.14019577130E+01  0.13470981811E+00  0.14769747825E+04  0.14770093066E+04  0.10000000000E+02 0. -1.
</event>
<event>
 5    1  0.1666761E-008  0.3853457E+03  0.7957747E-01  0.3428207E+00
         13   -1    0    0    0    0  0.00000000000E+00  0.00000000000E+00  0.14999999963E+04  0.15000000000E+04  0.10566000000E+00 0. -1.
        994   -1    0    0    0    0 -0.00000000000E+00 -0.00000000000E+00  0.11368683772E-12  0.17120000000E+03  0.17120000000E+03 0.  0.
         13    1    1    2    0    0  0.12274836942E+02  0.13638468527E+01  0.54821481579E+02  0.56195531021E+02  0.10566000000E+00 0. -1.
        994    1    1    2    0    0 -0.92564993714E+00 -0.13547594084E+01  0.14674364054E+01  0.17121415120E+03  0.17120000000E+03 0.  0.
        998    1    1    2    0    0 -0.11349187005E+02 -0.90874442929E-02  0.14437110783E+04  0.14437903178E+04  0.10000000000E+02 0. -1.
</event>
<event>
 5    1  0.1666761E-008  0.3843783E+03  0.7957747E-01  0.3432313E+00
         13   -1    0    0    0    0  0.00000000000E+00  0.00000000000E+00  0.14999999963E+04  0.15000000000E+04  0.10566000000E+00 0.  1.
        994   -1    0    0    0    0 -0.00000000000E+00 -0.00000000000E+00  0.11368683772E-12  0.17120000000E+03  0.17120000000E+03 0.  0.
         13    1    1    2    0    0 -0.11381372515E+02  0.11600711555E+02  0.71356455270E+02  0.73183789337E+02  0.10566000000E+00 0.  1.
        994    1    1    2    0    0  0.75579833769E+01  0.39991470823E+01  0.21800711321E+01  0.17142727029E+03  0.17120000000E+03 0.  0.
        998    1    1    2    0    0  0.38233891379E+01 -0.15599858638E+02  0.14264634699E+04  0.14265889404E+04  0.10000000000E+02 0.  1.
</event>
<event>
 5    1  0.1666761E-008  0.3833485E+03  0.7957747E-01  0.3436707E+00
         13   -1    0    0    0    0  0.00000000000E+00  0.00000000000E+00  0.14999999963E+04  0.15000000000E+04  0.10566000000E+00 0. -1.
        994   -1    0    0    0    0 -0.00000000000E+00 -0.00000000000E+00  0.11368683772E-12  0.17120000000E+03  0.17120000000E+03 0.  0.
         13    1    1    2    0    0  0.10423172216E+02  0.10869677163E+02  0.44068555268E+02  0.46570818417E+02  0.10566000000E+00 0. -1.
        994    1    1    2    0    0 -0.12529547647E+02 -0.12258569690E+02  0.34688695777E+01  0.17212999492E+03  0.17120000000E+03 0.  0.
        998    1    1    2    0    0  0.21063754308E+01  0.13888925268E+01  0.14524625714E+04  0.14524991867E+04  0.10000000000E+02 0. -1.
</event>
<event>
 5    1  0.1666761E-008  0.3848581E+03  0.7957747E-01  0.3430274E+00
         13   -1    0    0    0    0  0.00000000000E+00  0.00000000000E+00  0.14999999963E+04  0.15000000000E+04  0.10566000000E+00 0. -1.
        994   -1    0    0    0    0 -0.00000000000E+00 -0.00000000000E+00  0.11368683772E-12  0.17120000000E+03  0.17120000000E+03 0.  0.
         13    1    1    2    0    0 -0.87703319797E+02 -0.14139449136E+02  0.22867225581E+03  0.24532184588E+03  0.10566000000E+00 0. -1.
        994    1    1    2    0    0  0.32423319383E+02 -0.30929541670E+02  0.26466497682E+02  0.17893524999E+03  0.17120000000E+03 0.  0.
        998    1    1    2    0    0  0.55280000415E+02  0.45068990806E+02  0.12448612428E+04  0.12469429041E+04  0.10000000000E+02 0. -1.
</event>
<event>
 5    1  0.1666761E-008  0.3793234E+03  0.7957747E-01  0.3454110E+00
         13   -1    0    0    0    0  0.00000000000E+00  0.00000000000E+00  0.14999999963E+04  0.15000000000E+04  0.10566000000E+00 0.  1.
        994   -1    0    0    0    0 -0.00000000000E+00 -0.00000000000E+00  0.11368683772E-12  0.17120000000E+03  0.17120000000E+03 0.  0.
         13    1    1    2    0    0  0.14580570079E+02  0.20695178417E+01  0.23357480043E+02  0.27612659523E+02  0.10566000000E+00 0.  1.
        994    1    1    2    0    0  0.51254905483E+01  0.22401137686E+01  0.45799129374E+01  0.17135257327E+03  0.17120000000E+03 0.  0.
        998    1    1    2    0    0 -0.19706060628E+02 -0.43096316103E+01  0.14720626033E+04  0.14722347672E+04  0.10000000000E+02 0.  1.
</event>
<event>
 5    1  0.1666761E-008  0.3808683E+03  0.7957747E-01  0.3447386E+00
         13   -1    0    0    0    0  0.00000000000E+00  0.00000000000E+00  0.14999999963E+04  0.15000000000E+04  0.10566000000E+00 0.  1.
        994   -1    0    0    0    0 -0.00000000000E+00 -0.00000000000E+00  0.11368683772E-12  0.17120000000E+03  0.17120000000E+03 0.  0.
         13    1    1    2    0    0  0.27802486463E+02  0.96598818510E+00  0.10147891717E+03  0.10522306392E+03  0.10566000000E+00 0.  1.
        994    1    1    2    0    0 -0.20963311647E+02  0.10019537973E+02  0.54970414654E+01  0.17285690337E+03  0.17120000000E+03 0.  0.
        998    1    1    2    0    0 -0.68391748152E+01 -0.10985526158E+02  0.13930240376E+04  0.13931200327E+04  0.10000000000E+02 0.  1.
</event>
<event>
 5    1  0.2848909E-008  0.3860891E+03  0.7957747E-01  0.3425066E+00
         13   -1    0    0    0    0  0.00000000000E+00  0.00000000000E+00  0.14999999963E+04  0.15000000000E+04  0.10566000000E+00 0.  1.
        994   -1    0    0    0    0 -0.00000000000E+00 -0.00000000000E+00  0.11368683772E-12  0.17120000000E+03  0.17120000000E+03 0.  0.
         13    1    1    2    0    0  0.11809251612E+02  0.21405341105E+01  0.67827211962E+02  0.68880927378E+02  0.10566000000E+00 0.  1.
        994    1    1    2    0    0 -0.69678871783E+01  0.30958365729E+01  0.12809172326E+01  0.17137449170E+03  0.17120000000E+03 0.  0.
        998    1    1    2    0    0 -0.48413644339E+01 -0.52363706834E+01  0.14308918671E+04  0.14309445809E+04  0.10000000000E+02 0.  1.
</event>
<event>
 5    1  0.1666761E-008  0.3837445E+03  0.7957747E-01  0.3435015E+00
         13   -1    0    0    0    0  0.00000000000E+00  0.00000000000E+00  0.14999999963E+04  0.15000000000E+04  0.10566000000E+00 0. -1.
        994   -1    0    0    0    0 -0.00000000000E+00 -0.00000000000E+00  0.11368683772E-12  0.17120000000E+03  0.17120000000E+03 0.  0.
         13    1    1    2    0    0 -0.16484987255E+02  0.16764197162E+01  0.54538122643E+02  0.56999852397E+02  0.10566000000E+00 0. -1.
        994    1    1    2    0    0  0.34285989474E+02  0.23090699481E+02  0.79176145738E+01  0.17629758392E+03  0.17120000000E+03 0.  0.
        998    1    1    2    0    0 -0.17801002219E+02 -0.24767119197E+02  0.14375442591E+04  0.14379025637E+04  0.10000000000E+02 0. -1.
</event>
<event>
 5    1  0.1666761E-008  0.3830298E+03  0.7957747E-01  0.3438071E+00
         13   -1    0    0    0    0  0.00000000000E+00  0.00000000000E+00  0.14999999963E+04  0.15000000000E+04  0.10566000000E+00 0.  1.
        994   -1    0    0    0    0 -0.00000000000E+00 -0.00000000000E+00  0.11368683772E-12  0.17120000000E+03  0.17120000000E+03 0.  0.
         13    1    1    2    0    0 -0.16850104856E+02 -0.15924646258E+02  0.10406506308E+03  0.10661645703E+03  0.10566000000E+00 0.  1.
        994    1    1    2    0    0  0.12363166456E+02  0.37112196183E+01  0.31631382762E+01  0.17171507354E+03  0.17120000000E+03 0.  0.
        998    1    1    2    0    0  0.44869384007E+01  0.12213426639E+02  0.13927717949E+04  0.13928684694E+04  0.10000000000E+02 0.  1.
</event>
<event>
 5    1  0.1666761E-008  0.3773248E+03  0.7957747E-01  0.3462890E+00
         13   -1    0    0    0    0  0.00000000000E+00  0.00000000000E+00  0.14999999963E+04  0.15000000000E+04  0.10566000000E+00 0. -1.
        994   -1    0    0    0    0 -0.00000000000E+00 -0.00000000000E+00  0.11368683772E-12  0.17120000000E+03  0.17120000000E+03 0.  0.
         13    1    1    2    0    0 -0.66887385704E+02  0.37307463226E+02  0.39550676305E+03  0.40285404300E+03  0.10566000000E+00 0. -1.
        994    1    1    2    0    0  0.70003732935E+02 -0.29667629235E+02  0.25241745538E+02  0.18901660395E+03  0.17120000000E+03 0.  0.
        998    1    1    2    0    0 -0.31163472302E+01 -0.76398339903E+01  0.10792514877E+04  0.10793293531E+04  0.10000000000E+02 0. -1.
</event>
<event>
 5    1  0.1666761E-008  0.3821714E+03  0.7957747E-01  0.3441758E+00
         13   -1    0    0    0    0  0.00000000000E+00  0.00000000000E+00  0.14999999963E+04  0.15000000000E+04  0.10566000000E+00 0.  1.
        994   -1    0    0    0    0 -0.00000000000E+00 -0.00000000000E+00  0.11368683772E-12  0.17120000000E+03  0.17120000000E+03 0.  0.
         13    1    1    2    0    0 -0.17856512695E+02 -0.19068549459E+02  0.10555910599E+03  0.10874373842E+03  0.10566000000E+00 0.  1.
        994    1    1    2    0    0  0.10317395607E+02  0.24266370479E+02  0.53522540237E+01  0.17330144838E+03  0.17120000000E+03 0.  0.
        998    1    1    2    0    0  0.75391170884E+01 -0.51978210207E+01  0.13890886363E+04  0.13891548132E+04  0.10000000000E+02 0.  1.
</event>
<event>
 5    1  0.1666761E-008  0.3828157E+03  0.7957747E-01  0.3438989E+00
         13   -1    0    0    0    0  0.00000000000E+00  0.00000000000E+00  0.14999999963E+04  0.15000000000E+04  0.10566000000E+00 0. -1.
        994   -1    0    0    0    0 -0.00000000000E+00 -0.00000000000E+00  0.11368683772E-12  0.17120000000E+03  0.17120000000E+03 0.  0.
         13    1    1    2    0    0 -0.69024507506E+02 -0.79910748131E+02  0.28429488405E+03  0.30327166462E+03  0.10566000000E+00 0. -1.
        994    1    1    2    0    0  0.32435427780E+02  0.76612169286E+02  0.43688750590E+02  0.19529369776E+03  0.17120000000E+03 0.  0.
        998    1    1    2    0    0  0.36589079727E+02  0.32985788447E+01  0.11720163616E+04  0.11726346376E+04  0.10000000000E+02 0. -1.
</event>
<event>
 5    1  0.1666761E-008  0.3773141E+03  0.7957747E-01  0.3462938E+00
         13   -1    0    0    0    0  0.00000000000E+00  0.00000000000E+00  0.14999999963E+04  0.15000000000E+04  0.10566000000E+00 0.  1.
        994   -1    0    0    0    0 -0.00000000000E+00 -0.00000000000E+00  0.11368683772E-12  0.17120000000E+03  0.17120000000E+03 0.  0.
         13    1    1    2    0    0  0.28961739964E+02 -0.17112836402E+02  0.10577202966E+03  0.11099263477E+03  0.10566000000E+00 0.  1.
        994    1    1    2    0    0  0.28446105036E+00  0.21921401216E+02  0.71179628297E+01  0.17274470801E+03  0.17120000000E+03 0.  0.
        998    1    1    2    0    0 -0.29246201014E+02 -0.48085648147E+01  0.13871100038E+04  0.13874626572E+04  0.10000000000E+02 0.  1.
</event>
<event>
 5    1  0.1666761E-008  0.4304405E+03  0.7957747E-01  0.3257201E+00
         13   -1    0    0    0    0  0.00000000000E+00  0.00000000000E+00  0.14999999963E+04  0.15000000000E+04  0.10566000000E+00 0. -1.
        994   -1    0    0    0    0 -0.00000000000E+00 -0.00000000000E+00  0.11368683772E-12  0.17120000000E+03  0.17120000000E+03 0.  0.
         13    1    1    2    0    0  0.11925692132E+03  0.47003186450E+02  0.15300575477E+03  0.19960532301E+03  0.10566000000E+00 0. -1.
        994    1    1    2    0    0 -0.10738160384E+03 -0.26595481108E+02  0.10491018100E+03  0.22924596951E+03  0.17120000000E+03 0.  0.
        998    1    1    2    0    0 -0.11875317473E+02 -0.20407705342E+02  0.12420840605E+04  0.12423487075E+04  0.10000000000E+02 0. -1.
</event>
<event>
 5    1  0.1666761E-008  0.3828436E+03  0.7957747E-01  0.3438869E+00
         13   -1    0    0    0    0  0.00000000000E+00  0.00000000000E+00  0.14999999963E+04  0.15000000000E+04  0.10566000000E+00 0. -1.
        994   -1    0    0    0    0 -0.00000000000E+00 -0.00000000000E+00  0.11368683772E-12  0.17120000000E+03  0.17120000000E+03 0.  0.
         13    1    1    2    0    0 -0.10355030554E+02 -0.36311162140E+01  0.21496947651E+02  0.24135898265E+02  0.10566000000E+00 0. -1.
        994    1    1    2    0    0  0.76292560389E+01 -0.94062676113E+01  0.31904742216E+01  0.17165751526E+03  0.17120000000E+03 0.  0.
        998    1    1    2    0    0  0.27257745151E+01  0.13037383825E+02  0.14753125744E+04  0.14754065865E+04  0.10000000000E+02 0. -1.
</event>
<event>
 5    1  0.1666761E-008  0.3837786E+03  0.7957747E-01  0.3434869E+00
         13   -1    0    0    0    0  0.00000000000E+00  0.00000000000E+00  0.14999999963E+04  0.15000000000E+04  0.10566000000E+00 0. -1.
        994   -1    0    0    0    0 -0.00000000000E+00 -0.00000000000E+00  0.11368683772E-12  0.17120000000E+03  0.17120000000E+03 0.  0.
         13    1    1    2    0    0  0.12584184049E+02  0.16636366590E+02  0.98680412602E+02  0.10086111925E+03  0.10566000000E+00 0. -1.
        994    1    1    2    0    0 -0.15434126971E+01 -0.11568392554E+02  0.26876027592E+01  0.17161839365E+03  0.17120000000E+03 0.  0.
        998    1    1    2    0    0 -0.11040771352E+02 -0.50679740356E+01  0.13986319809E+04  0.13987204871E+04  0.10000000000E+02 0. -1.
</event>
<event>
 5    1  0.1666761E-008  0.3722283E+03  0.7957747E-01  0.3485712E+00
         13   -1    0    0    0    0  0.00000000000E+00  0.00000000000E+00  0.14999999963E+04  0.15000000000E+04  0.10566000000E+00 0. -1.
        994   -1    0    0    0    0 -0.00000000000E+00 -0.00000000000E+00  0.11368683772E-12  0.17120000000E+03  0.17120000000E+03 0.  0.
         13    1    1    2    0    0 -0.27955374688E+02 -0.78966557634E+01  0.47767349156E+02  0.55906984855E+02  0.10566000000E+00 0. -1.
        994    1    1    2    0    0  0.31541363555E+02 -0.12401211459E+02  0.12060529144E+02  0.17493868647E+03  0.17120000000E+03 0.  0.
        998    1    1    2    0    0 -0.35859888671E+01  0.20297867222E+02  0.14401721180E+04  0.14403543287E+04  0.10000000000E+02 0. -1.
</event>
<event>
 5    1  0.1666761E-008  0.3837554E+03  0.7957747E-01  0.3434968E+00
         13   -1    0    0    0    0  0.00000000000E+00  0.00000000000E+00  0.14999999963E+04  0.15000000000E+04  0.10566000000E+00 0.  1.
        994   -1    0    0    0    0 -0.00000000000E+00 -0.00000000000E+00  0.11368683772E-12  0.17120000000E+03  0.17120000000E+03 0.  0.
         13    1    1    2    0    0 -0.33272206921E+01 -0.14152628472E+02  0.44590738192E+02  0.46901091530E+02  0.10566000000E+00 0.  1.
        994    1    1    2    0    0 -0.25183553723E+02  0.25451600599E+02  0.64939671391E+01  0.17502458959E+03  0.17120000000E+03 0.  0.
        998    1    1    2    0    0  0.28510774415E+02 -0.11298972127E+02  0.14489152909E+04  0.14492743189E+04  0.10000000000E+02 0.  1.
</event>
<event>
 5    1  0.1666761E-008  0.3817880E+03  0.7957747E-01  0.3443410E+00
         13   -1    0    0    0    0  0.00000000000E+00  0.00000000000E+00  0.14999999963E+04  0.15000000000E+04  0.10566000000E+00 0. -1.
        994   -1    0    0    0    0 -0.00000000000E+00 -0.00000000000E+00  0.11368683772E-12  0.17120000000E+03  0.17120000000E+03 0.  0.
         13    1    1    2    0    0  0.63371386610E+01 -0.17277045148E+02  0.49319447638E+02  0.52640998231E+02  0.10566000000E+00 0. -1.
        994    1    1    2    0    0  0.14128905276E+02  0.28226920077E+02  0.65516092057E+01  0.17420892217E+03  0.17120000000E+03 0.  0.
        998    1    1    2    0    0 -0.20466043937E+02 -0.10949874929E+02  0.14441289394E+04  0.14443500796E+04  0.10000000000E+02 0. -1.
</event>
<event>
 5    1  0.1666761E-008  0.3831275E+03  0.7957747E-01  0.3437653E+00
         13   -1    0    0    0    0  0.00000000000E+00  0.00000000000E+00  0.14999999963E+04  0.15000000000E+04  0.10566000000E+00 0.  1.
        994   -1    0    0    0    0 -0.00000000000E+00 -0.00000000000E+00  0.11368683772E-12  0.17120000000E+03  0.17120000000E+03 0.  0.
         13    1    1    2    0    0  0.50661963968E+01  0.90175666120E+01  0.19903212178E+02  0.22430601253E+02  0.10566000000E+00 0.  1.
        994    1    1    2    0    0 -0.66162661789E+00 -0.84604085372E+01  0.28009841164E+01  0.17143308250E+03  0.17120000000E+03 0.  0.
        998    1    1    2    0    0 -0.44045697789E+01 -0.55715807486E+00  0.14772958000E+04  0.14773363162E+04  0.10000000000E+02 0.  1.
</event>
<event>
 5    1  0.1666761E-008  0.3845740E+03  0.7957747E-01  0.3431481E+00
         13   -1    0    0    0    0  0.00000000000E+00  0.00000000000E+00  0.14999999963E+04  0.15000000000E+04  0.10566000000E+00 0. -1.
        994   -1    0    0    0    0 -0.00000000000E+00 -0.00000000000E+00  0.11368683772E-12  0.17120000000E+03  0.17120000000E+03 0.  0.
         13    1    1    2    0    0  0.19371780761E+02  0.39680848035E+01  0.11067258141E+03  0.11242527753E+03  0.10566000000E+00 0. -1.
        994    1    1    2    0    0 -0.48061595331E+01 -0.12089430116E+02  0.23993669519E+01  0.17171036792E+03  0.17120000000E+03 0.  0.
        998    1    1    2    0    0 -0.14565621228E+02  0.81213453124E+01  0.13869280479E+04  0.13870643545E+04  0.10000000000E+02 0. -1.
</event>
<event>
 5    1  0.1666761E-008  0.3858991E+03  0.7957747E-01  0.3425868E+00
         13   -1    0    0    0    0  0.00000000000E+00  0.00000000000E+00  0.14999999963E+04  0.15000000000E+04  0.10566000000E+00 0.  1.
        994   -1    0    0    0    0 -0.00000000000E+00 -0.00000000000E+00  0.11368683772E-12  0.17120000000E+03  0.17120000000E+03 0.  0.
         13    1    1    2    0    0 -0.14047169150E+02 -0.33952051329E+01  0.86430853265E+02  0.87630781915E+02  0.10566000000E+00 0.  1.
        994    1    1    2    0    0  0.10878774174E+02  0.10335248843E+02  0.19230681130E+01  0.17186710938E+03  0.17120000000E+03 0.  0.
        998    1    1    2    0    0  0.31683949762E+01 -0.69400437096E+01  0.14116460749E+04  0.14117021087E+04  0.10000000000E+02 0.  1.
</event>
<event>
 5    1  0.1666761E-008  0.3819302E+03  0.7957747E-01  0.3442797E+00
         13   -1    0    0    0    0  0.00000000000E+00  0.00000000000E+00  0.14999999963E+04  0.15000000000E+04  0.10566000000E+00 0.  1.
        994   -1    0    0    0    0 -0.00000000000E+00 -0.00000000000E+00  0.11368683772E-12  0.17120000000E+03  0.17120000000E+03 0.  0.
         13    1    1    2    0    0  0.36242237528E+02 -0.96691735221E+01  0.19320231710E+03  0.19680990624E+03  0.10566000000E+00 0.  1.
        994    1    1    2    0    0 -0.34873104072E+02  0.20580317791E+02  0.86277384820E+01  0.17613506391E+03  0.17120000000E+03 0.  0.
        998    1    1    2    0    0 -0.13691334558E+01 -0.10911144268E+02  0.12981699407E+04  0.12982550298E+04  0.10000000000E+02 0.  1.
</event>
<event>
 5    1  0.3015700E-008  0.3861978E+03  0.7957747E-01  0.3424608E+00
         13   -1    0    0    0    0  0.00000000000E+00  0.00000000000E+00  0.14999999963E+04  0.15000000000E+04  0.10566000000E+00 0. -1.
        994   -1    0    0    0    0 -0.00000000000E+00 -0.00000000000E+00  0.11368683772E-12  0.17120000000E+03  0.17120000000E+03 0.  0.
         13    1    1    2    0    0  0.11361442697E+02 -0.41517874336E+01  0.72526594469E+02  0.73528482837E+02  0.10566000000E+00 0. -1.
        994    1    1    2    0    0 -0.62147645376E+01  0.20199850842E+01  0.11765314520E+01  0.17132871290E+03  0.17120000000E+03 0.  0.
        998    1    1    2    0    0 -0.51466781595E+01  0.21318023494E+01  0.14262968704E+04  0.14263428043E+04  0.10000000000E+02 0. -1.
</event>
<event>
 5    1  0.1801547E-008  0.3860566E+03  0.7957747E-01  0.3425203E+00
         13   -1    0    0    0    0  0.00000000000E+00  0.00000000000E+00  0.14999999963E+04  0.15000000000E+04  0.10566000000E+00 0. -1.
        994   -1    0    0    0    0 -0.00000000000E+00 -0.00000000000E+00  0.11368683772E-12  0.17120000000E+03  0.17120000000E+03 0.  0.
         13    1    1    2    0    0 -0.25362422118E+01  0.10042463690E+02  0.50524401492E+02  0.51575283923E+02  0.10566000000E+00 0. -1.
        994    1    1    2    0    0  0.21699571315E+01 -0.22880032945E+01  0.11390322735E+01  0.17123282707E+03  0.17120000000E+03 0.  0.
        998    1    1    2    0    0  0.36628508028E+00 -0.77544603952E+01  0.14483365625E+04  0.14483918890E+04  0.10000000000E+02 0. -1.
</event>
<event>
 5    1  0.1666761E-008  0.3861579E+03  0.7957747E-01  0.3424776E+00
         13   -1    0    0    0    0  0.00000000000E+00  0.00000000000E+00  0.14999999963E+04  0.15000000000E+04  0.10566000000E+00 0.  1.
        994   -1    0    0    0    0 -0.00000000000E+00 -0.00000000000E+00  0.11368683772E-12  0.17120000000E+03  0.17120000000E+03 0.  0.
         13    1    1    2    0    0  0.44234724137E+01 -0.10298746295E+02  0.59009586517E+02  0.60064746302E+02  0.10566000000E+00 0.  1.
        994    1    1    2    0    0  0.19469091577E+02  0.20931269816E+02  0.37382605832E+01  0.17361042070E+03  0.17120000000E+03 0.  0.
        998    1    1    2    0    0 -0.23892563991E+02 -0.10632523521E+02  0.14372521492E+04  0.14375248330E+04  0.10000000000E+02 0.  1.
</event>
<event>
 5    1  0.1666761E-008  0.3852026E+03  0.7957747E-01  0.3428813E+00
         13   -1    0    0    0    0  0.00000000000E+00  0.00000000000E+00  0.14999999963E+04  0.15000000000E+04  0.10566000000E+00 0.  1.
        994   -1    0    0    0    0 -0.00000000000E+00 -0.00000000000E+00  0.11368683772E-12  0.17120000000E+03  0.17120000000E+03 0.  0.
         13    1    1    2    0    0  0.51080819776E+01 -0.90334503092E+01  0.34554749248E+02  0.36079600685E+02  0.10566000000E+00 0.  1.
        994    1    1    2    0    0 -0.22498984044E+01  0.10657974544E+02  0.19196315778E+01  0.17155692772E+03  0.17120000000E+03 0.  0.
        998    1    1    2    0    0 -0.28581835732E+01 -0.16245242351E+01  0.14635256155E+04  0.14635634716E+04  0.10000000000E+02 0.  1.
</event>
<event>
 5    1  0.1812613E-008  0.3862549E+03  0.7957747E-01  0.3424367E+00
         13   -1    0    0    0    0  0.00000000000E+00  0.00000000000E+00  0.14999999963E+04  0.15000000000E+04  0.10566000000E+00 0. -1.
        994   -1    0    0    0    0 -0.00000000000E+00 -0.00000000000E+00  0.11368683772E-12  0.17120000000E+03  0.17120000000E+03 0.  0.
         13    1    1    2    0    0  0.22141964827E+01 -0.10001207108E+02  0.56406508717E+02  0.57329156626E+02  0.10566000000E+00 0. -1.
        994    1    1    2    0    0  0.65781430209E+00 -0.15423083024E+01  0.10175813617E+01  0.17121123476E+03  0.17120000000E+03 0.  0.
        998    1    1    2    0    0 -0.28720107848E+01  0.11543515410E+02  0.14425759062E+04  0.14426596086E+04  0.10000000000E+02 0. -1.
</event>
<event>
 5    1  0.1666761E-008  0.3845996E+03  0.7957747E-01  0.3431372E+00
         13   -1    0    0    0    0  0.00000000000E+00  0.00000000000E+00  0.14999999963E+04  0.15000000000E+04  0.10566000000E+00 0.  1.
        994   -1    0    0    0    0 -0.00000000000E+00 -0.00000000000E+00  0.11368683772E-12  0.17120000000E+03  0.17120000000E+03 0.  0.
         13    1    1    2    0    0  0.25794914250E+01  0.22708948440E+02  0.13675957353E+03  0.13865620156E+03  0.10566000000E+00 0.  1.
        994    1    1    2    0    0 -0.14140893220E+02 -0.17645070968E+02  0.35146011410E+01  0.17272262681E+03  0.17120000000E+03 0.  0.
        998    1    1    2    0    0  0.11561401795E+02 -0.50638774719E+01  0.13597258216E+04  0.13598211716E+04  0.10000000000E+02 0.  1.
</event>
<event>
 5    1  0.1666761E-008  0.3862453E+03  0.7957747E-01  0.3424408E+00
         13   -1    0    0    0    0  0.00000000000E+00  0.00000000000E+00  0.14999999963E+04  0.15000000000E+04  0.10566000000E+00 0.  1.
        994   -1    0    0    0    0 -0.00000000000E+00 -0.00000000000E+00  0.11368683772E-12  0.17120000000E+03  0.17120000000E+03 0.  0.
         13    1    1    2    0    0  0.92230249048E+01 -0.39300309998E+01  0.54293116157E+02  0.55211076408E+02  0.10566000000E+00 0.  1.
        994    1    1    2    0    0 -0.25516370908E+01 -0.13601216358E+02  0.16406229782E+01  0.17176622364E+03  0.17120000000E+03 0.  0.
        998    1    1    2    0    0 -0.66713878140E+01  0.17531247358E+02  0.14440662571E+04  0.14442227000E+04  0.10000000000E+02 0.  1.
</event>
<event>
 5    1  0.1666761E-008  0.3788587E+03  0.7957747E-01  0.3456143E+00
         13   -1    0    0    0    0  0.00000000000E+00  0.00000000000E+00  0.14999999963E+04  0.15000000000E+04  0.10566000000E+00 0. -1.
        994   -1    0    0    0    0 -0.00000000000E+00 -0.00000000000E+00  0.11368683772E-12  0.17120000000E+03  0.17120000000E+03 0.  0.
         13    1    1    2    0    0  0.20507651271E+02 -0.48363277753E+02  0.23342718608E+03  0.23926519337E+03  0.10566000000E+00 0. -1.
        994    1    1    2    0    0 -0.17739011315E+02  0.57932268594E+02  0.17128367942E+02  0.18241063910E+03  0.17120000000E+03 0.  0.
        998    1    1    2    0    0 -0.27686399555E+01 -0.95689908408E+01  0.12494444423E+04  0.12495241675E+04  0.10000000000E+02 0. -1.
</event>
<event>
 5    1  0.1666761E-008  0.3786240E+03  0.7957747E-01  0.3457172E+00
         13   -1    0    0    0    0  0.00000000000E+00  0.00000000000E+00  0.14999999963E+04  0.15000000000E+04  0.10566000000E+00 0. -1.
        994   -1    0    0    0    0 -0.00000000000E+00 -0.00000000000E+00  0.11368683772E-12  0.17120000000E+03  0.17120000000E+03 0.  0.
         13    1    1    2    0    0  0.10741595940E+02 -0.12022745171E+02  0.24862743288E+02  0.29632675422E+02  0.10566000000E+00 0. -1.
        994    1    1    2    0    0 -0.57314931886E+01  0.10836871963E+02  0.53341950671E+01  0.17172123178E+03  0.17120000000E+03 0.  0.
        998    1    1    2    0    0 -0.50101027515E+01  0.11858732083E+01  0.14698030579E+04  0.14698460928E+04  0.10000000000E+02 0. -1.
</event>
<event>
 5    1  0.1666761E-008  0.3813006E+03  0.7957747E-01  0.3445515E+00
         13   -1    0    0    0    0  0.00000000000E+00  0.00000000000E+00  0.14999999963E+04  0.15000000000E+04  0.10566000000E+00 0.  1.
        994   -1    0    0    0    0 -0.00000000000E+00 -0.00000000000E+00  0.11368683772E-12  0.17120000000E+03  0.17120000000E+03 0.  0.
         13    1    1    2    0    0  0.28658698811E+02  0.34671418793E+02  0.20152723498E+03  0.20648647873E+03  0.10566000000E+00 0.  1.
        994    1    1    2    0    0 -0.77673348114E+02 -0.34429972986E+02  0.27891054005E+02  0.19314741246E+03  0.17120000000E+03 0.  0.
        998    1    1    2    0    0  0.49014649303E+02 -0.24144580664E+00  0.12705817073E+04  0.12715661088E+04  0.10000000000E+02 0.  1.
</event>
<event>
 5    1  0.1666761E-008  0.3776394E+03  0.7957747E-01  0.3461502E+00
         13   -1    0    0    0    0  0.00000000000E+00  0.00000000000E+00  0.14999999963E+04  0.15000000000E+04  0.10566000000E+00 0.  1.
        994   -1    0    0    0    0 -0.00000000000E+00 -0.00000000000E+00  0.11368683772E-12  0.17120000000E+03  0.17120000000E+03 0.  0.
         13    1    1    2    0    0  0.10001202977E+02 -0.18638359751E+02  0.42837347318E+02  0.47775119094E+02  0.10566000000E+00 0.  1.
        994    1    1    2    0    0  0.52607344592E+01 -0.65508590994E+01  0.55673856488E+01  0.17149642814E+03  0.17120000000E+03 0.  0.
        998    1    1    2    0    0 -0.15261937436E+02  0.25189218850E+02  0.14515952633E+04  0.14519284528E+04  0.10000000000E+02 0.  1.
</event>
<event>
 5    1  0.1666761E-008  0.3858679E+03  0.7957747E-01  0.3426000E+00
         13   -1    0    0    0    0  0.00000000000E+00  0.00000000000E+00  0.14999999963E+04  0.15000000000E+04  0.10566000000E+00 0. -1.
        994   -1    0    0    0    0 -0.00000000000E+00 -0.00000000000E+00  0.11368683772E-12  0.17120000000E+03  0.17120000000E+03 0.  0.
         13    1    1    2    0    0 -0.87553535969E+01  0.60909003515E+01  0.51306435280E+02  0.52403403982E+02  0.10566000000E+00 0. -1.
        994    1    1    2    0    0 -0.48435084499E+01 -0.11114105490E+01  0.12808502648E+01  0.17127689682E+03  0.17120000000E+03 0.  0.
        998    1    1    2    0    0  0.13598862047E+02 -0.49794898025E+01  0.14474127107E+04  0.14475196992E+04  0.10000000000E+02 0. -1.
</event>
<event>
 5    1  0.1666761E-008  0.3796824E+03  0.7957747E-01  0.3452543E+00
         13   -1    0    0    0    0  0.00000000000E+00  0.00000000000E+00  0.14999999963E+04  0.15000000000E+04  0.10566000000E+00 0. -1.
        994   -1    0    0    0    0 -0.00000000000E+00 -0.00000000000E+00  0.11368683772E-12  0.17120000000E+03  0.17120000000E+03 0.  0.
         13    1    1    2    0    0 -0.83607120438E+02  0.13934200496E+02  0.20257905134E+03  0.21959643835E+03  0.10566000000E+00 0. -1.
        994    1    1    2    0    0  0.67420877645E+02 -0.12921655631E+02  0.33413488154E+02  0.18745251430E+03  0.17120000000E+03 0.  0.
        998    1    1    2    0    0  0.16186242793E+02 -0.10125448646E+01  0.12640074568E+04  0.12641510473E+04  0.10000000000E+02 0. -1.
</event>
<event>
 5    1  0.1666761E-008  0.3720632E+03  0.7957747E-01  0.3486462E+00
         13   -1    0    0    0    0  0.00000000000E+00  0.00000000000E+00  0.14999999963E+04  0.15000000000E+04  0.10566000000E+00 0. -1.
        994   -1    0    0    0    0 -0.00000000000E+00 -0.00000000000E+00  0.11368683772E-12  0.17120000000E+03  0.17120000000E+03 0.  0.
         13    1    1    2    0    0  0.13352798432E+02  0.65779101983E+01  0.97773873058E+01  0.17809396259E+02  0.10566000000E+00 0. -1.
        994    1    1    2    0    0 -0.12973596936E+02 -0.50040628485E+01  0.88587105586E+01  0.17199206847E+03  0.17120000000E+03 0.  0.
        998    1    1    2    0    0 -0.37920149614E+00 -0.15738473498E+01  0.14813638984E+04  0.14813985353E+04  0.10000000000E+02 0. -1.
</event>
<event>
 5    1  0.1666761E-008  0.3763052E+03  0.7957747E-01  0.3467406E+00
         13   -1    0    0    0    0  0.00000000000E+00  0.00000000000E+00  0.14999999963E+04  0.15000000000E+04  0.10566000000E+00 0. -1.
        994   -1    0    0    0    0 -0.00000000000E+00 -0.00000000000E+00  0.11368683772E-12  0.17120000000E+03  0.17120000000E+03 0.  0.
         13    1    1    2    0    0  0.13691275426E+02  0.20337265721E+02  0.44960968838E+02  0.51210890274E+02  0.10566000000E+00 0. -1.
        994    1    1    2    0    0 -0.17294290344E+02 -0.29996797535E+02  0.10078178370E+02  0.17495688046E+03  0.17120000000E+03 0.  0.
        998    1    1    2    0    0  0.36030149180E+01  0.96595318144E+01  0.14449608491E+04  0.14450322293E+04  0.10000000000E+02 0. -1.
</event>
<event>
 5    1  0.1666761E-008  0.3854529E+03  0.7957747E-01  0.3427754E+00
         13   -1    0    0    0    0  0.00000000000E+00  0.00000000000E+00  0.14999999963E+04  0.15000000000E+04  0.10566000000E+00 0.  1.
        994   -1    0    0    0    0 -0.00000000000E+00 -0.00000000000E+00  0.11368683772E-12  0.17120000000E+03  0.17120000000E+03 0.  0.
         13    1    1    2    0    0  0.10053587493E+02  0.22923870314E+01  0.39190713987E+02  0.40524719452E+02  0.10566000000E+00 0.  1.
        994    1    1    2    0    0 -0.14641818613E+01  0.31747922228E+01  0.14455761517E+01  0.17124179637E+03  0.17120000000E+03 0.  0.
        998    1    1    2    0    0 -0.85894056313E+01 -0.54671792542E+01  0.14593637061E+04  0.14594334842E+04  0.10000000000E+02 0.  1.
</event>
<event>
 5    1  0.1666761E-008  0.3814138E+03  0.7957747E-01  0.3445025E+00
         13   -1    0    0    0    0  0.00000000000E+00  0.00000000000E+00  0.14999999963E+04  0.15000000000E+04  0.10566000000E+00 0.  1.
        994   -1    0    0    0    0 -0.00000000000E+00 -0.00000000000E+00  0.11368683772E-12  0.17120000000E+03  0.17120000000E+03 0.  0.
         13    1    1    2    0    0  0.12321637366E+01 -0.14844658053E+02  0.31329500457E+02  0.34690501050E+02  0.10566000000E+00 0.  1.
        994    1    1    2    0    0  0.11740610405E+01  0.83780376921E+01  0.36593265213E+01  0.17144795305E+03  0.17120000000E+03 0.  0.
        998    1    1    2    0    0 -0.24062247771E+01  0.64666203605E+01  0.14650111693E+04  0.14650615459E+04  0.10000000000E+02 0.  1.
</event>
<event>
 5    1  0.1666761E-008  0.3849771E+03  0.7957747E-01  0.3429769E+00
         13   -1    0    0    0    0  0.00000000000E+00  0.00000000000E+00  0.14999999963E+04  0.15000000000E+04  0.10566000000E+00 0.  1.
        994   -1    0    0    0    0 -0.00000000000E+00 -0.00000000000E+00  0.11368683772E-12  0.17120000000E+03  0.17120000000E+03 0.  0.
         13    1    1    2    0    0  0.21161206229E+02 -0.16006162241E+02  0.15854272508E+03  0.16074763052E+03  0.10566000000E+00 0.  1.
        994    1    1    2    0    0 -0.50821635306E+02  0.13919905724E+02  0.10827341231E+02  0.17945270605E+03  0.17120000000E+03 0.  0.
        998    1    1    2    0    0  0.29660429077E+02  0.20862565171E+01  0.13306299300E+04  0.13309996634E+04  0.10000000000E+02 0.  1.
</event>
<event>
 5    1  0.1666761E-008  0.3837241E+03  0.7957747E-01  0.3435101E+00
         13   -1    0    0    0    0  0.00000000000E+00  0.00000000000E+00  0.14999999963E+04  0.15000000000E+04  0.10566000000E+00 0.  1.
        994   -1    0    0    0    0 -0.00000000000E+00 -0.00000000000E+00  0.11368683772E-12  0.17120000000E+03  0.17120000000E+03 0.  0.
         13    1    1    2    0    0  0.27705871662E+02 -0.14980209565E+01  0.15469266588E+03  0.15716135477E+03  0.10566000000E+00 0.  1.
        994    1    1    2    0    0 -0.27169861532E+02  0.81618135201E+01  0.49271916108E+01  0.17360453275E+03  0.17120000000E+03 0.  0.
        998    1    1    2    0    0 -0.53601012993E+00 -0.66637925636E+01  0.13403801388E+04  0.13404341125E+04  0.10000000000E+02 0.  1.
</event>
<event>
 5    1  0.1666761E-008  0.3771868E+03  0.7957747E-01  0.3463500E+00
         13   -1    0    0    0    0  0.00000000000E+00  0.00000000000E+00  0.14999999963E+04  0.15000000000E+04  0.10566000000E+00 0. -1.
        994   -1    0    0    0    0 -0.00000000000E+00 -0.00000000000E+00  0.11368683772E-12  0.17120000000E+03  0.17120000000E+03 0.  0.
         13    1    1    2    0    0 -0.11121995211E+02 -0.13177685991E+01  0.99407416571E+01  0.14975473291E+02  0.10566000000E+00 0. -1.
        994    1    1    2    0    0 -0.47794105566E+02 -0.29985508396E+02  0.16378276099E+02  0.18100026290E+03  0.17120000000E+03 0.  0.
        998    1    1    2    0    0  0.58916100777E+02  0.31303276995E+02  0.14736809785E+04  0.14752242638E+04  0.10000000000E+02 0. -1.
</event>
<event>
 5    1  0.1666761E-008  0.3837087E+03  0.7957747E-01  0.3435167E+00
         13   -1    0    0    0    0  0.00000000000E+00  0.00000000000E+00  0.14999999963E+04  0.15000000000E+04  0.10566000000E+00 0.  1.
        994   -1    0    0    0    0 -0.00000000000E+00 -0.00000000000E+00  0.11368683772E-12  0.17120000000E+03  0.17120000000E+03 0.  0.
         13    1    1    2    0    0  0.12604229404E+02  0.99172562940E+00  0.35197768095E+02  0.37399788255E+02  0.10566000000E+00 0.  1.
        994    1    1    2    0    0 -0.33677709063E+01 -0.66283170594E+01  0.24551885948E+01  0.17137894975E+03  0.17120000000E+03 0.  0.
        998    1    1    2    0    0 -0.92364584977E+01  0.56365914300E+01  0.14623470396E+04  0.14624212620E+04  0.10000000000E+02 0.  1.
</event>
<event>
 5    1  0.1666761E-008  0.3820786E+03  0.7957747E-01  0.3442157E+00
         13   -1    0    0    0    0  0.00000000000E+00  0.00000000000E+00  0.14999999963E+04  0.15000000000E+04  0.10566000000E+00 0.  1.
        994   -1    0    0    0    0 -0.00000000000E+00 -0.00000000000E+00  0.11368683772E-12  0.17120000000E+03  0.17120000000E+03 0.  0.
         13    1    1    2    0    0 -0.17436155182E+02  0.21656257791E+02  0.11877737414E+03  0.12198806819E+03  0.10566000000E+00 0.  1.
        994    1    1    2    0    0  0.21984262356E+02 -0.12993853982E+02  0.52557427070E+01  0.17317393240E+03  0.17120000000E+03 0.  0.
        998    1    1    2    0    0 -0.45481071739E+01 -0.86624038092E+01  0.13759668794E+04  0.13760379994E+04  0.10000000000E+02 0.  0.
</event>
<event>
 5    1  0.1666761E-008  0.3824530E+03  0.7957747E-01  0.3440547E+00
         13   -1    0    0    0    0  0.00000000000E+00  0.00000000000E+00  0.14999999963E+04  0.15000000000E+04  0.10566000000E+00 0.  1.
        994   -1    0    0    0    0 -0.00000000000E+00 -0.00000000000E+00  0.11368683772E-12  0.17120000000E+03  0.17120000000E+03 0.  0.
         13    1    1    2    0    0  0.10989916789E+02  0.72176451707E+01  0.28973928657E+02  0.31817799714E+02  0.10566000000E+00 0.  1.
        994    1    1    2    0    0 -0.35016974465E+01 -0.71606661050E+01  0.31107204895E+01  0.17141369142E+03  0.17120000000E+03 0.  0.
        998    1    1    2    0    0 -0.74882193420E+01 -0.56979065695E-01  0.14679153471E+04  0.14679685089E+04  0.10000000000E+02 0.  1.
</event>
<event>
 5    1  0.2383057E-008  0.3860801E+03  0.7957747E-01  0.3425104E+00
         13   -1    0    0    0    0  0.00000000000E+00  0.00000000000E+00  0.14999999963E+04  0.15000000000E+04  0.10566000000E+00 0. -1.
        994   -1    0    0    0    0 -0.00000000000E+00 -0.00000000000E+00  0.11368683772E-12  0.17120000000E+03  0.17120000000E+03 0.  0.
         13    1    1    2    0    0 -0.76140180116E+01  0.87817870553E+01  0.64951163784E+02  0.65983012171E+02  0.10566000000E+00 0. -1.
        994    1    1    2    0    0  0.54319778686E+00 -0.32216402158E+01  0.11298249482E+01  0.17123489870E+03  0.17120000000E+03 0.  0.
        998    1    1    2    0    0  0.70708202247E+01 -0.55601468394E+01  0.14339190075E+04  0.14339820891E+04  0.10000000000E+02 0. -1.
</event>
<event>
 5    1  0.1666761E-008  0.3763183E+03  0.7957747E-01  0.3467348E+00
         13   -1    0    0    0    0  0.00000000000E+00  0.00000000000E+00  0.14999999963E+04  0.15000000000E+04  0.10566000000E+00 0. -1.
        994   -1    0    0    0    0 -0.00000000000E+00 -0.00000000000E+00  0.11368683772E-12  0.17120000000E+03  0.17120000000E+03 0.  0.
         13    1    1    2    0    0  0.98147305292E+02 -0.62418229192E+01  0.41130995344E+03  0.42290394046E+03  0.10566000000E+00 0. -1.
        994    1    1    2    0    0 -0.13425822010E+03 -0.15050443717E+02  0.70504516654E+02  0.22919884901E+03  0.17120000000E+03 0.  0.
        998    1    1    2    0    0  0.36110914804E+02  0.21292266636E+02  0.10181855262E+04  0.10190972105E+04  0.10000000000E+02 0. -1.
</event>
<event>
 5    1  0.1666761E-008  0.3728104E+03  0.7957747E-01  0.3483074E+00
         13   -1    0    0    0    0  0.00000000000E+00  0.00000000000E+00  0.14999999963E+04  0.15000000000E+04  0.10566000000E+00 0. -1.
        994   -1    0    0    0    0 -0.00000000000E+00 -0.00000000000E+00  0.11368683772E-12  0.17120000000E+03  0.17120000000E+03 0.  0.
         13    1    1    2    0    0 -0.39081650151E+02  0.17755617388E+01  0.58143301635E+02  0.70079830815E+02  0.10566000000E+00 0. -1.
        994    1    1    2    0    0  0.19226189063E+02  0.41822933447E+01  0.13800662538E+02  0.17287867483E+03  0.17120000000E+03 0.  0.
        998    1    1    2    0    0  0.19855461088E+02 -0.59578550835E+01  0.14280560321E+04  0.14282414944E+04  0.10000000000E+02 0. -1.
</event>
<event>
 5    1  0.1666761E-008  0.3853079E+03  0.7957747E-01  0.3428368E+00
         13   -1    0    0    0    0  0.00000000000E+00  0.00000000000E+00  0.14999999963E+04  0.15000000000E+04  0.10566000000E+00 0. -1.
        994   -1    0    0    0    0 -0.00000000000E+00 -0.00000000000E+00  0.11368683772E-12  0.17120000000E+03  0.17120000000E+03 0.  0.
         13    1    1    2    0    0  0.14746827003E+02  0.62549209588E+01  0.94531189233E+02  0.95878828970E+02  0.10566000000E+00 0. -1.
        994    1    1    2    0    0 -0.19355130414E+02  0.37022154159E+02  0.72323340605E+01  0.17637178807E+03  0.17120000000E+03 0.  0.
        998    1    1    2    0    0  0.46083034108E+01 -0.43277075118E+02  0.13982364730E+04  0.13989493830E+04  0.10000000000E+02 0. -1.
</event>
<event>
 5    1  0.1666761E-008  0.3858040E+03  0.7957747E-01  0.3426270E+00
         13   -1    0    0    0    0  0.00000000000E+00  0.00000000000E+00  0.14999999963E+04  0.15000000000E+04  0.10566000000E+00 0.  1.
        994   -1    0    0    0    0 -0.00000000000E+00 -0.00000000000E+00  0.11368683772E-12  0.17120000000E+03  0.17120000000E+03 0.  0.
         13    1    1    2    0    0 -0.28263737633E+01 -0.10563397014E+02  0.50974336154E+02  0.52134133306E+02  0.10566000000E+00 0.  1.
        994    1    1    2    0    0 -0.47588001409E+01  0.24816836286E+01  0.13259963749E+01  0.17128923842E+03  0.17120000000E+03 0.  0.
        998    1    1    2    0    0  0.75851739042E+01  0.80817133857E+01  0.14476996637E+04  0.14477766283E+04  0.10000000000E+02 0.  1.
</event>
<event>
 5    1  0.1666761E-008  0.3778062E+03  0.7957747E-01  0.3460767E+00
         13   -1    0    0    0    0  0.00000000000E+00  0.00000000000E+00  0.14999999963E+04  0.15000000000E+04  0.10566000000E+00 0.  1.
        994   -1    0    0    0    0 -0.00000000000E+00 -0.00000000000E+00  0.11368683772E-12  0.17120000000E+03  0.17120000000E+03 0.  0.
         13    1    1    2    0    0  0.62881001579E+01 -0.24017837063E+02  0.64125194114E+02  0.68763714159E+02  0.10566000000E+00 0.  1.
        994    1    1    2    0    0  0.29214816667E+02 -0.84532155538E+01  0.83656345043E+01  0.17408155045E+03  0.17120000000E+03 0.  0.
        998    1    1    2    0    0 -0.35502916825E+02  0.32471052617E+02  0.14275091677E+04  0.14283547354E+04  0.10000000000E+02 0.  1.
</event>
<event>
 5    1  0.1666761E-008  0.3850529E+03  0.7957747E-01  0.3429448E+00
         13   -1    0    0    0    0  0.00000000000E+00  0.00000000000E+00  0.14999999963E+04  0.15000000000E+04  0.10566000000E+00 0.  1.
        994   -1    0    0    0    0 -0.00000000000E+00 -0.00000000000E+00  0.11368683772E-12  0.17120000000E+03  0.17120000000E+03 0.  0.
         13    1    1    2    0    0  0.14354702732E+02  0.85699263886E+01  0.61546162556E+02  0.63776503653E+02  0.10566000000E+00 0.  1.
        994    1    1    2    0    0 -0.50001238106E+02 -0.53637627267E+02  0.19488671619E+02  0.18726015912E+03  0.17120000000E+03 0.  0.
        998    1    1    2    0    0  0.35646535375E+02  0.45067700879E+02  0.14189651621E+04  0.14201633372E+04  0.10000000000E+02 0.  1.
</event>
<event>
 5    1  0.1666761E-008  0.3813628E+03  0.7957747E-01  0.3445246E+00
         13   -1    0    0    0    0  0.00000000000E+00  0.00000000000E+00  0.14999999963E+04  0.15000000000E+04  0.10566000000E+00 0.  1.
        994   -1    0    0    0    0 -0.00000000000E+00 -0.00000000000E+00  0.11368683772E-12  0.17120000000E+03  0.17120000000E+03 0.  0.
         13    1    1    2    0    0  0.61499241776E+01 -0.12923588984E+02  0.28399606725E+02  0.31802351262E+02  0.10566000000E+00 0.  1.
        994    1    1    2    0    0  0.12794369272E+02  0.16802091213E+02  0.49324747671E+01  0.17256817627E+03  0.17120000000E+03 0.  0.
        998    1    1    2    0    0 -0.18944293449E+02 -0.38785022286E+01  0.14666679148E+04  0.14668294725E+04  0.10000000000E+02 0.  1.
</event>
<event>
 5    1  0.1666761E-008  0.3782902E+03  0.7957747E-01  0.3458637E+00
         13   -1    0    0    0    0  0.00000000000E+00  0.00000000000E+00  0.14999999963E+04  0.15000000000E+04  0.10566000000E+00 0. -1.
        994   -1    0    0    0    0 -0.00000000000E+00 -0.00000000000E+00  0.11368683772E-12  0.17120000000E+03  0.17120000000E+03 0.  0.
         13    1    1    2    0    0 -0.42740333295E+01  0.23510367939E+02  0.48204808146E+02  0.53802597093E+02  0.10566000000E+00 0. -1.
        994    1    1    2    0    0  0.34104045410E+02 -0.49371276809E+02  0.17200638020E+02  0.18222489082E+03  0.17120000000E+03 0.  0.
        998    1    1    2    0    0 -0.29830012081E+02  0.25860908870E+02  0.14345945501E+04  0.14351725121E+04  0.10000000000E+02 0. -1.
</event>
<event>
 5    1  0.1666761E-008  0.3686714E+03  0.7957747E-01  0.3502019E+00
         13   -1    0    0    0    0  0.00000000000E+00  0.00000000000E+00  0.14999999963E+04  0.15000000000E+04  0.10566000000E+00 0. -1.
        994   -1    0    0    0    0 -0.00000000000E+00 -0.00000000000E+00  0.11368683772E-12  0.17120000000E+03  0.17120000000E+03 0.  0.
         13    1    1    2    0    0  0.10974811255E+02  0.96822555465E+02  0.40471669817E+03  0.41628196054E+03  0.10566000000E+00 0. -1.
        994    1    1    2    0    0 -0.89371327619E+01 -0.76390857797E+02  0.30804294968E+02  0.19019405902E+03  0.17120000000E+03 0.  0.
        998    1    1    2    0    0 -0.20376784935E+01 -0.20431697667E+02  0.10644790031E+04  0.10647239804E+04  0.10000000000E+02 0. -1.
</event>
<event>
 5    1  0.1666761E-008  0.3864940E+03  0.7957747E-01  0.3423360E+00
         13   -1    0    0    0    0  0.00000000000E+00  0.00000000000E+00  0.14999999963E+04  0.15000000000E+04  0.10566000000E+00 0. -1.
        994   -1    0    0    0    0 -0.00000000000E+00 -0.00000000000E+00  0.11368683772E-12  0.17120000000E+03  0.17120000000E+03 0.  0.
         13    1    1    2    0    0 -0.10199375664E+03 -0.80379294583E+02  0.32680211639E+03  0.35165777658E+03  0.10566000000E+00 0. -1.
        994    1    1    2    0    0  0.74199811040E+02  0.10749048237E+03  0.86427098449E+02  0.23203210792E+03  0.17120000000E+03 0.  0.
        998    1    1    2    0    0  0.27793945600E+02 -0.27111187790E+02  0.10867707814E+04  0.10875101155E+04  0.10000000000E+02 0. -1.
</event>
<event>
 5    1  0.1666761E-008  0.3845730E+03  0.7957747E-01  0.3431485E+00
         13   -1    0    0    0    0  0.00000000000E+00  0.00000000000E+00  0.14999999963E+04  0.15000000000E+04  0.10566000000E+00 0. -1.
        994   -1    0    0    0    0 -0.00000000000E+00 -0.00000000000E+00  0.11368683772E-12  0.17120000000E+03  0.17120000000E+03 0.  0.
         13    1    1    2    0    0  0.12271710045E+02  0.81111467833E+01  0.66646932830E+02  0.68251083429E+02  0.10566000000E+00 0. -1.
        994    1    1    2    0    0  0.21210752448E+02 -0.12647267281E+02  0.38532221166E+01  0.17301484535E+03  0.17120000000E+03 0.  0.
        998    1    1    2    0    0 -0.33482462493E+02  0.45361204981E+01  0.14294998413E+04  0.14299340712E+04  0.10000000000E+02 0. -1.
</event>
<event>
 5    1  0.1666761E-008  0.3842459E+03  0.7957747E-01  0.3432877E+00
         13   -1    0    0    0    0  0.00000000000E+00  0.00000000000E+00  0.14999999963E+04  0.15000000000E+04  0.10566000000E+00 0.  1.
        994   -1    0    0    0    0 -0.00000000000E+00 -0.00000000000E+00  0.11368683772E-12  0.17120000000E+03  0.17120000000E+03 0.  0.
         13    1    1    2    0    0 -0.10032744812E+02 -0.31487980474E+01  0.26638672315E+02  0.28639150203E+02  0.10566000000E+00 0.  1.
        994    1    1    2    0    0  0.94309453523E+01  0.69033645715E+01  0.24554303915E+01  0.17161604911E+03  0.17120000000E+03 0.  0.
        998    1    1    2    0    0  0.60179945955E+00 -0.37545665241E+01  0.14709058936E+04  0.14709448007E+04  0.10000000000E+02 0.  1.
</event>
<event>
 5    1  0.1666761E-008  0.3843276E+03  0.7957747E-01  0.3432529E+00
         13   -1    0    0    0    0  0.00000000000E+00  0.00000000000E+00  0.14999999963E+04  0.15000000000E+04  0.10566000000E+00 0.  1.
        994   -1    0    0    0    0 -0.00000000000E+00 -0.00000000000E+00  0.11368683772E-12  0.17120000000E+03  0.17120000000E+03 0.  0.
         13    1    1    2    0    0 -0.89996392294E+01  0.15940426753E+02  0.91878785513E+02  0.93684647102E+02  0.10566000000E+00 0.  1.
        994    1    1    2    0    0 -0.48944401418E+02 -0.34064646672E+02  0.13773443446E+02  0.18181062215E+03  0.17120000000E+03 0.  0.
        998    1    1    2    0    0  0.57944040648E+02  0.18124219919E+02  0.13943477673E+04  0.13957047307E+04  0.10000000000E+02 0.  1.
</event>
<event>
 5    1  0.1666761E-008  0.3849773E+03  0.7957747E-01  0.3429769E+00
         13   -1    0    0    0    0  0.00000000000E+00  0.00000000000E+00  0.14999999963E+04  0.15000000000E+04  0.10566000000E+00 0.  1.
        994   -1    0    0    0    0 -0.00000000000E+00 -0.00000000000E+00  0.11368683772E-12  0.17120000000E+03  0.17120000000E+03 0.  0.
         13    1    1    2    0    0  0.13962672658E+02  0.59623271588E+01  0.64439349547E+02  0.66203825471E+02  0.10566000000E+00 0.  1.
        994    1    1    2    0    0 -0.24070246460E+02 -0.44938639400E+01  0.36158293666E+01  0.17298001561E+03  0.17120000000E+03 0.  0.
        998    1    1    2    0    0  0.10107573802E+02 -0.14684632188E+01  0.14319448174E+04  0.14320161589E+04  0.10000000000E+02 0.  1.
</event>
<event>
 5    1  0.1666761E-008  0.3844522E+03  0.7957747E-01  0.3431999E+00
         13   -1    0    0    0    0  0.00000000000E+00  0.00000000000E+00  0.14999999963E+04  0.15000000000E+04  0.10566000000E+00 0. -1.
        994   -1    0    0    0    0 -0.00000000000E+00 -0.00000000000E+00  0.11368683772E-12  0.17120000000E+03  0.17120000000E+03 0.  0.
         13    1    1    2    0    0  0.58925471304E+01 -0.22080896613E+02  0.13325802005E+03  0.13520354721E+03  0.10566000000E+00 0. -1.
        994    1    1    2    0    0 -0.93688034623E+01  0.15496369396E+02  0.29833834654E+01  0.17218087153E+03  0.17120000000E+03 0.  0.
        998    1    1    2    0    0  0.34762563319E+01  0.65845272170E+01  0.13637585928E+04  0.13638155813E+04  0.10000000000E+02 0. -1.
</event>
<event>
 5    1  0.1666761E-008  0.3809286E+03  0.7957747E-01  0.3447125E+00
         13   -1    0    0    0    0  0.00000000000E+00  0.00000000000E+00  0.14999999963E+04  0.15000000000E+04  0.10566000000E+00 0.  1.
        994   -1    0    0    0    0 -0.00000000000E+00 -0.00000000000E+00  0.11368683772E-12  0.17120000000E+03  0.17120000000E+03 0.  0.
         13    1    1    2    0    0 -0.54641061096E+02 -0.23588543772E+02  0.94748788104E+02  0.11189016474E+03  0.10566000000E+00 0.  1.
        994    1    1    2    0    0  0.59150635500E+02  0.35001776516E+01  0.29717190516E+02  0.18358540338E+03  0.17120000000E+03 0.  0.
        998    1    1    2    0    0 -0.45095744039E+01  0.20088366120E+02  0.13755340177E+04  0.13757244319E+04  0.10000000000E+02 0.  1.
</event>
<event>
 5    1  0.1666761E-008  0.3843701E+03  0.7957747E-01  0.3432348E+00
         13   -1    0    0    0    0  0.00000000000E+00  0.00000000000E+00  0.14999999963E+04  0.15000000000E+04  0.10566000000E+00 0.  1.
        994   -1    0    0    0    0 -0.00000000000E+00 -0.00000000000E+00  0.11368683772E-12  0.17120000000E+03  0.17120000000E+03 0.  0.
         13    1    1    2    0    0 -0.16359527828E+02  0.49680698887E+01  0.78855441101E+02  0.80687716689E+02  0.10566000000E+00 0.  1.
        994    1    1    2    0    0  0.25580645319E+01 -0.25848266485E+01  0.19867568756E+01  0.17125014518E+03  0.17120000000E+03 0.  0.
        998    1    1    2    0    0  0.13801463296E+02 -0.23832432402E+01  0.14191577983E+04  0.14192621381E+04  0.10000000000E+02 0.  1.
</event>
<event>
 5    1  0.1666761E-008  0.3823877E+03  0.7957747E-01  0.3440828E+00
         13   -1    0    0    0    0  0.00000000000E+00  0.00000000000E+00  0.14999999963E+04  0.15000000000E+04  0.10566000000E+00 0. -1.
        994   -1    0    0    0    0 -0.00000000000E+00 -0.00000000000E+00  0.11368683772E-12  0.17120000000E+03  0.17120000000E+03 0.  0.
         13    1    1    2    0    0 -0.14137494301E+02 -0.65458985948E+01  0.42577967473E+02  0.45338857635E+02  0.10566000000E+00 0. -1.
        994    1    1    2    0    0 -0.25895075876E+01 -0.81943670350E+00  0.29571669716E+01  0.17124707841E+03  0.17120000000E+03 0.  0.
        998    1    1    2    0    0  0.16727001889E+02  0.73653352983E+01  0.14544648618E+04  0.14546140640E+04  0.10000000000E+02 0. -1.
</event>
<event>
 5    1  0.1666761E-008  0.3705787E+03  0.7957747E-01  0.3493235E+00
         13   -1    0    0    0    0  0.00000000000E+00  0.00000000000E+00  0.14999999963E+04  0.15000000000E+04  0.10566000000E+00 0.  1.
        994   -1    0    0    0    0 -0.00000000000E+00 -0.00000000000E+00  0.11368683772E-12  0.17120000000E+03  0.17120000000E+03 0.  0.
         13    1    1    2    0    0  0.71364413559E+02  0.56957199202E+02  0.34571685448E+03  0.35757119109E+03  0.10566000000E+00 0.  1.
        994    1    1    2    0    0 -0.45550437270E+02 -0.42593235786E+02  0.24995932425E+02  0.18391101845E+03  0.17120000000E+03 0.  0.
        998    1    1    2    0    0 -0.25813976289E+02 -0.14363963416E+02  0.11292872094E+04  0.11297177905E+04  0.10000000000E+02 0.  1.
</event>
<event>
 5    1  0.1666761E-008  0.3836182E+03  0.7957747E-01  0.3435554E+00
         13   -1    0    0    0    0  0.00000000000E+00  0.00000000000E+00  0.14999999963E+04  0.15000000000E+04  0.10566000000E+00 0.  1.
        994   -1    0    0    0    0 -0.00000000000E+00 -0.00000000000E+00  0.11368683772E-12  0.17120000000E+03  0.17120000000E+03 0.  0.
         13    1    1    2    0    0  0.88883272185E+01 -0.67770926498E+01  0.26673353153E+02  0.28920758600E+02  0.10566000000E+00 0.  1.
        994    1    1    2    0    0 -0.77238779613E+01 -0.53637824980E+01  0.26098978813E+01  0.17147792867E+03  0.17120000000E+03 0.  0.
        998    1    1    2    0    0 -0.11644492572E+01  0.12140875148E+02  0.14707167452E+04  0.14708013127E+04  0.10000000000E+02 0.  1.
</event>
<event>
 5    1  0.1666761E-008  0.3734782E+03  0.7957747E-01  0.3480057E+00
         13   -1    0    0    0    0  0.00000000000E+00  0.00000000000E+00  0.14999999963E+04  0.15000000000E+04  0.10566000000E+00 0.  1.
        994   -1    0    0    0    0 -0.00000000000E+00 -0.00000000000E+00  0.11368683772E-12  0.17120000000E+03  0.17120000000E+03 0.  0.
         13    1    1    2    0    0 -0.18080020254E+02  0.42289123787E+02  0.15957574408E+03  0.16607132921E+03  0.10566000000E+00 0.  1.
        994    1    1    2    0    0  0.16582774883E+02  0.59878697103E+01  0.85250432777E+01  0.17231645124E+03  0.17120000000E+03 0.  0.
        998    1    1    2    0    0  0.14972453705E+01 -0.48276993497E+02  0.13318992089E+04  0.13328122195E+04  0.10000000000E+02 0.  1.
</event>
<event>
 5    1  0.1666761E-008  0.3799017E+03  0.7957747E-01  0.3451587E+00
         13   -1    0    0    0    0  0.00000000000E+00  0.00000000000E+00  0.14999999963E+04  0.15000000000E+04  0.10566000000E+00 0.  1.
        994   -1    0    0    0    0 -0.00000000000E+00 -0.00000000000E+00  0.11368683772E-12  0.17120000000E+03  0.17120000000E+03 0.  0.
         13    1    1    2    0    0 -0.65717279012E+01 -0.76612095118E+01  0.10379345989E+02  0.14478388239E+02  0.10566000000E+00 0.  1.
        994    1    1    2    0    0  0.37424570110E+00  0.64772016108E+01  0.43235435028E+01  0.17137744084E+03  0.17120000000E+03 0.  0.
        998    1    1    2    0    0  0.61974822001E+01  0.11840079010E+01  0.14852971068E+04  0.14853441709E+04  0.10000000000E+02 0.  1.
</event>
<event>
 5    1  0.1666761E-008  0.3856292E+03  0.7957747E-01  0.3427008E+00
         13   -1    0    0    0    0  0.00000000000E+00  0.00000000000E+00  0.14999999963E+04  0.15000000000E+04  0.10566000000E+00 0. -1.
        994   -1    0    0    0    0 -0.00000000000E+00 -0.00000000000E+00  0.11368683772E-12  0.17120000000E+03  0.17120000000E+03 0.  0.
         13    1    1    2    0    0  0.95430173364E+01 -0.80431333199E+01  0.63244720697E+02  0.64464463339E+02  0.10566000000E+00 0. -1.
        994    1    1    2    0    0  0.10600112420E+01  0.51650736847E+00  0.13226313255E+01  0.17120916961E+03  0.17120000000E+03 0.  0.
        998    1    1    2    0    0 -0.10603028578E+02  0.75266259514E+01  0.14354326443E+04  0.14355263671E+04  0.10000000000E+02 0. -1.
</event>
<event>
 5    1  0.1666761E-008  0.3838139E+03  0.7957747E-01  0.3434718E+00
         13   -1    0    0    0    0  0.00000000000E+00  0.00000000000E+00  0.14999999963E+04  0.15000000000E+04  0.10566000000E+00 0. -1.
        994   -1    0    0    0    0 -0.00000000000E+00 -0.00000000000E+00  0.11368683772E-12  0.17120000000E+03  0.17120000000E+03 0.  0.
         13    1    1    2    0    0 -0.11381205979E+01  0.12860062384E+02  0.35124050272E+02  0.37421739598E+02  0.10566000000E+00 0. -1.
        994    1    1    2    0    0 -0.17590082500E+02 -0.22707011063E+02  0.49485712299E+01  0.17366331711E+03  0.17120000000E+03 0.  0.
        998    1    1    2    0    0  0.18728203098E+02  0.98469486789E+01  0.14599273748E+04  0.14601149433E+04  0.10000000000E+02 0. -1.
</event>
<event>
 5    1  0.1666761E-008  0.3796858E+03  0.7957747E-01  0.3452528E+00
         13   -1    0    0    0    0  0.00000000000E+00  0.00000000000E+00  0.14999999963E+04  0.15000000000E+04  0.10566000000E+00 0. -1.
        994   -1    0    0    0    0 -0.00000000000E+00 -0.00000000000E+00  0.11368683772E-12  0.17120000000E+03  0.17120000000E+03 0.  0.
         13    1    1    2    0    0 -0.15348895146E+02  0.18141264798E+01  0.25017925088E+02  0.29407267415E+02  0.10566000000E+00 0. -1.
        994    1    1    2    0    0  0.25304724814E+02 -0.29672768840E+00  0.64378899950E+01  0.17317997451E+03  0.17120000000E+03 0.  0.
        998    1    1    2    0    0 -0.99558296677E+01 -0.15173987914E+01  0.14685441812E+04  0.14686127581E+04  0.10000000000E+02 0. -1.
</event>
<event>
 5    1  0.1666761E-008  0.3851082E+03  0.7957747E-01  0.3429213E+00
         13   -1    0    0    0    0  0.00000000000E+00  0.00000000000E+00  0.14999999963E+04  0.15000000000E+04  0.10566000000E+00 0.  1.
        994   -1    0    0    0    0 -0.00000000000E+00 -0.00000000000E+00  0.11368683772E-12  0.17120000000E+03  0.17120000000E+03 0.  0.
         13    1    1    2    0    0  0.13718624049E+02  0.47440950345E+01  0.74321249573E+02  0.75725599276E+02  0.10566000000E+00 0.  1.
        994    1    1    2    0    0  0.34542154649E+01  0.65082038283E+01  0.17549272982E+01  0.17136746509E+03  0.17120000000E+03 0.  0.
        998    1    1    2    0    0 -0.17172839514E+02 -0.11252298863E+02  0.14239238194E+04  0.14241069356E+04  0.10000000000E+02 0.  1.
</event>
<event>
 5    1  0.1666761E-008  0.3692035E+03  0.7957747E-01  0.3499559E+00
         13   -1    0    0    0    0  0.00000000000E+00  0.00000000000E+00  0.14999999963E+04  0.15000000000E+04  0.10566000000E+00 0.  1.
        994   -1    0    0    0    0 -0.00000000000E+00 -0.00000000000E+00  0.11368683772E-12  0.17120000000E+03  0.17120000000E+03 0.  0.
         13    1    1    2    0    0 -0.39614373905E+02 -0.78889730931E+02  0.47840094023E+03  0.48647750106E+03  0.10566000000E+00 0.  1.
        994    1    1    2    0    0 -0.65571263516E+01  0.39063587709E+02  0.15145490951E+02  0.17637399379E+03  0.17120000000E+03 0.  0.
        998    1    1    2    0    0  0.46171500257E+02  0.39826143222E+02  0.10064535651E+04  0.10083485051E+04  0.10000000000E+02 0.  1.
</event>
<event>
 5    1  0.1666761E-008  0.3718861E+03  0.7957747E-01  0.3487267E+00
         13   -1    0    0    0    0  0.00000000000E+00  0.00000000000E+00  0.14999999963E+04  0.15000000000E+04  0.10566000000E+00 0.  1.
        994   -1    0    0    0    0 -0.00000000000E+00 -0.00000000000E+00  0.11368683772E-12  0.17120000000E+03  0.17120000000E+03 0.  0.
         13    1    1    2    0    0  0.13326922852E+02  0.40144279380E+02  0.89565529527E+02  0.99051326508E+02  0.10566000000E+00 0.  1.
        994    1    1    2    0    0  0.39205461757E+02  0.34346865367E+02  0.21562686107E+02  0.18025305774E+03  0.17120000000E+03 0.  0.
        998    1    1    2    0    0 -0.52532384610E+02 -0.74491144747E+02  0.13888717806E+04  0.13918956158E+04  0.10000000000E+02 0.  1.
</event>
<event>
 5    1  0.1666761E-008  0.3821348E+03  0.7957747E-01  0.3441916E+00
         13   -1    0    0    0    0  0.00000000000E+00  0.00000000000E+00  0.14999999963E+04  0.15000000000E+04  0.10566000000E+00 0. -1.
        994   -1    0    0    0    0 -0.00000000000E+00 -0.00000000000E+00  0.11368683772E-12  0.17120000000E+03  0.17120000000E+03 0.  0.
         13    1    1    2    0    0 -0.11747006650E+02  0.15637086424E+02  0.59618137018E+02  0.62744275138E+02  0.10566000000E+00 0. -1.
        994    1    1    2    0    0  0.13193863566E+02 -0.14432199096E+02  0.43296786137E+01  0.17236749265E+03  0.17120000000E+03 0.  0.
        998    1    1    2    0    0 -0.14468569159E+01 -0.12048873284E+01  0.14360521806E+04  0.14360882322E+04  0.10000000000E+02 0. -1.
</event>
<event>
 5    1  0.1666761E-008  0.3769925E+03  0.7957747E-01  0.3464359E+00
         13   -1    0    0    0    0  0.00000000000E+00  0.00000000000E+00  0.14999999963E+04  0.15000000000E+04  0.10566000000E+00 0.  1.
        994   -1    0    0    0    0 -0.00000000000E+00 -0.00000000000E+00  0.11368683772E-12  0.17120000000E+03  0.17120000000E+03 0.  0.
         13    1    1    2    0    0 -0.20052600492E+02  0.24074694085E+02  0.89199278614E+02  0.94542160707E+02  0.10566000000E+00 0.  1.
        994    1    1    2    0    0  0.48646593652E+01 -0.54464812892E+01  0.58391728425E+01  0.17145513993E+03  0.17120000000E+03 0.  0.
        998    1    1    2    0    0  0.15187941127E+02 -0.18628212795E+02  0.14049615448E+04  0.14052026994E+04  0.10000000000E+02 0.  1.
</event>
<event>
 5    1  0.1666761E-008  0.3851427E+03  0.7957747E-01  0.3429067E+00
         13   -1    0    0    0    0  0.00000000000E+00  0.00000000000E+00  0.14999999963E+04  0.15000000000E+04  0.10566000000E+00 0. -1.
        994   -1    0    0    0    0 -0.00000000000E+00 -0.00000000000E+00  0.11368683772E-12  0.17120000000E+03  0.17120000000E+03 0.  0.
         13    1    1    2    0    0  0.79544708424E-01 -0.11934733766E+02  0.45354247487E+02  0.46898434159E+02  0.10566000000E+00 0. -1.
        994    1    1    2    0    0  0.15958517675E+01  0.92682957435E+01  0.18501167325E+01  0.17146810485E+03  0.17120000000E+03 0.  0.
        998    1    1    2    0    0 -0.16753964759E+01  0.26664380228E+01  0.14527956321E+04  0.14528334610E+04  0.10000000000E+02 0. -1.
</event>
<event>
 5    1  0.1666761E-008  0.3853785E+03  0.7957747E-01  0.3428069E+00
         13   -1    0    0    0    0  0.00000000000E+00  0.00000000000E+00  0.14999999963E+04  0.15000000000E+04  0.10566000000E+00 0. -1.
        994   -1    0    0    0    0 -0.00000000000E+00 -0.00000000000E+00  0.11368683772E-12  0.17120000000E+03  0.17120000000E+03 0.  0.
         13    1    1    2    0    0  0.10196219089E+02 -0.53733431864E+01  0.48612077285E+02  0.49959793061E+02  0.10566000000E+00 0. -1.
        994    1    1    2    0    0  0.40573197935E+00 -0.14557193073E+01  0.14498448596E+01  0.17121280848E+03  0.17120000000E+03 0.  0.
        998    1    1    2    0    0 -0.10601951068E+02  0.68290624936E+01  0.14499380741E+04  0.14500273985E+04  0.10000000000E+02 0. -1.
</event>
<event>
 5    1  0.1666761E-008  0.3811575E+03  0.7957747E-01  0.3446134E+00
         13   -1    0    0    0    0  0.00000000000E+00  0.00000000000E+00  0.14999999963E+04  0.15000000000E+04  0.10566000000E+00 0.  1.
        994   -1    0    0    0    0 -0.00000000000E+00 -0.00000000000E+00  0.11368683772E-12  0.17120000000E+03  0.17120000000E+03 0.  0.
         13    1    1    2    0    0  0.10455129719E+02 -0.67346822184E+01  0.19978391200E+02  0.23533230994E+02  0.10566000000E+00 0.  1.
        994    1    1    2    0    0 -0.10290742043E+02  0.11916823731E+02  0.43760225719E+01  0.17197819523E+03  0.17120000000E+03 0.  0.
        998    1    1    2    0    0 -0.16438767566E+00 -0.51821415127E+01  0.14756455825E+04  0.14756885738E+04  0.10000000000E+02 0.  1.
</event>
<event>
 5    1  0.1666761E-008  0.3742141E+03  0.7957747E-01  0.3476745E+00
         13   -1    0    0    0    0  0.00000000000E+00  0.00000000000E+00  0.14999999963E+04  0.15000000000E+04  0.10566000000E+00 0.  1.
        994   -1    0    0    0    0 -0.00000000000E+00 -0.00000000000E+00  0.11368683772E-12  0.17120000000E+03  0.17120000000E+03 0.  0.
         13    1    1    2    0    0  0.56433727351E+02 -0.42662437711E+02  0.16660507189E+03  0.18100306715E+03  0.10566000000E+00 0.  1.
        994    1    1    2    0    0 -0.60394124046E+02  0.34833742008E+02  0.30640129899E+02  0.18737421744E+03  0.17120000000E+03 0.  0.
        998    1    1    2    0    0  0.39603966942E+01  0.78286957031E+01  0.13027547945E+04  0.13028227154E+04  0.10000000000E+02 0.  1.
</event>
<event>
 5    1  0.1666761E-008  0.3823086E+03  0.7957747E-01  0.3441168E+00
         13   -1    0    0    0    0  0.00000000000E+00  0.00000000000E+00  0.14999999963E+04  0.15000000000E+04  0.10566000000E+00 0.  1.
        994   -1    0    0    0    0 -0.00000000000E+00 -0.00000000000E+00  0.11368683772E-12  0.17120000000E+03  0.17120000000E+03 0.  0.
         13    1    1    2    0    0  0.21402234196E+02 -0.30390086997E+02  0.21534224373E+03  0.21852667140E+03  0.10566000000E+00 0.  1.
        994    1    1    2    0    0 -0.15328722447E+02  0.25469908460E+02  0.59095670419E+01  0.17386215503E+03  0.17120000000E+03 0.  0.
        998    1    1    2    0    0 -0.60735117494E+01  0.49201785373E+01  0.12787481855E+04  0.12788111736E+04  0.10000000000E+02 0.  1.
</event>
<event>
 5    1  0.1666761E-008  0.3796067E+03  0.7957747E-01  0.3452873E+00
         13   -1    0    0    0    0  0.00000000000E+00  0.00000000000E+00  0.14999999963E+04  0.15000000000E+04  0.10566000000E+00 0. -1.
        994   -1    0    0    0    0 -0.00000000000E+00 -0.00000000000E+00  0.11368683772E-12  0.17120000000E+03  0.17120000000E+03 0.  0.
         13    1    1    2    0    0 -0.18517642298E+02 -0.94573743809E+01  0.49581594868E+02  0.53765144101E+02  0.10566000000E+00 0. -1.
        994    1    1    2    0    0  0.67397193869E+01  0.67715199150E+00  0.44854003311E+01  0.17139265203E+03  0.17120000000E+03 0.  0.
        998    1    1    2    0    0  0.11777922912E+02  0.87802223894E+01  0.14459330011E+04  0.14460422039E+04  0.10000000000E+02 0. -1.
</event>
<event>
 5    1  0.1666761E-008  0.3701741E+03  0.7957747E-01  0.3495091E+00
         13   -1    0    0    0    0  0.00000000000E+00  0.00000000000E+00  0.14999999963E+04  0.15000000000E+04  0.10566000000E+00 0.  1.
        994   -1    0    0    0    0 -0.00000000000E+00 -0.00000000000E+00  0.11368683772E-12  0.17120000000E+03  0.17120000000E+03 0.  0.
         13    1    1    2    0    0  0.22253968144E+02  0.19620256009E+02  0.44599661617E+02  0.53566169589E+02  0.10566000000E+00 0.  1.
        994    1    1    2    0    0 -0.12857287439E+02 -0.12719861709E+02  0.10309208748E+02  0.17246108114E+03  0.17120000000E+03 0.  0.
        998    1    1    2    0    0 -0.93966807053E+01 -0.69003942998E+01  0.14450911259E+04  0.14451727493E+04  0.10000000000E+02 0.  1.
</event>
<event>
 5    1  0.1666761E-008  0.3843599E+03  0.7957747E-01  0.3432391E+00
         13   -1    0    0    0    0  0.00000000000E+00  0.00000000000E+00  0.14999999963E+04  0.15000000000E+04  0.10566000000E+00 0.  1.
        994   -1    0    0    0    0 -0.00000000000E+00 -0.00000000000E+00  0.11368683772E-12  0.17120000000E+03  0.17120000000E+03 0.  0.
         13    1    1    2    0    0 -0.37468582238E+01 -0.99326815205E+01  0.29562862478E+02  0.31411321377E+02  0.10566000000E+00 0.  1.
        994    1    1    2    0    0 -0.92088613072E+01  0.11024818121E+01  0.22317846061E+01  0.17146556347E+03  0.17120000000E+03 0.  0.
        998    1    1    2    0    0  0.12955719531E+02  0.88301997084E+01  0.14682053492E+04  0.14683231152E+04  0.10000000000E+02 0.  1.
</event>
<event>
 5    1  0.1666761E-008  0.3831251E+03  0.7957747E-01  0.3437663E+00
         13   -1    0    0    0    0  0.00000000000E+00  0.00000000000E+00  0.14999999963E+04  0.15000000000E+04  0.10566000000E+00 0. -1.
        994   -1    0    0    0    0 -0.00000000000E+00 -0.00000000000E+00  0.11368683772E-12  0.17120000000E+03  0.17120000000E+03 0.  0.
         13    1    1    2    0    0 -0.14096412388E+02  0.10260976401E+02  0.60913706271E+02  0.63359981492E+02  0.10566000000E+00 0. -1.
        994    1    1    2    0    0  0.44836535321E+01  0.22605093689E+00  0.26305742610E+01  0.17127905350E+03  0.17120000000E+03 0.  0.
        998    1    1    2    0    0  0.96127588559E+01 -0.10487027338E+02  0.14364557157E+04  0.14365609650E+04  0.10000000000E+02 0. -1.
</event>
<event>
 5    1  0.1666761E-008  0.3834774E+03  0.7957747E-01  0.3436155E+00
         13   -1    0    0    0    0  0.00000000000E+00  0.00000000000E+00  0.14999999963E+04  0.15000000000E+04  0.10566000000E+00 0.  1.
        994   -1    0    0    0    0 -0.00000000000E+00 -0.00000000000E+00  0.11368683772E-12  0.17120000000E+03  0.17120000000E+03 0.  0.
         13    1    1    2    0    0  0.13025736826E+02  0.35022476937E+01  0.38828734332E+02  0.41104955086E+02  0.10566000000E+00 0.  1.
        994    1    1    2    0    0  0.39511701458E+00 -0.21205493099E+01  0.24033359175E+01  0.17123045544E+03  0.17120000000E+03 0.  0.
        998    1    1    2    0    0 -0.13420853840E+02 -0.13816983838E+01  0.14587679260E+04  0.14588645895E+04  0.10000000000E+02 0.  1.
</event>
<event>
 5    1  0.1666761E-008  0.3861572E+03  0.7957747E-01  0.3424779E+00
         13   -1    0    0    0    0  0.00000000000E+00  0.00000000000E+00  0.14999999963E+04  0.15000000000E+04  0.10566000000E+00 0.  1.
        994   -1    0    0    0    0 -0.00000000000E+00 -0.00000000000E+00  0.11368683772E-12  0.17120000000E+03  0.17120000000E+03 0.  0.
         13    1    1    2    0    0  0.76631952051E+01  0.89206103276E+01  0.71027435349E+02  0.71994510802E+02  0.10566000000E+00 0.  1.
        994    1    1    2    0    0 -0.19274548679E+01  0.21050131620E+01  0.10833907537E+01  0.17122721717E+03  0.17120000000E+03 0.  0.
        998    1    1    2    0    0 -0.57357403372E+01 -0.11025623490E+02  0.14278891702E+04  0.14279782720E+04  0.10000000000E+02 0.  1.
</event>
<event>
 5    1  0.1666761E-008  0.3848192E+03  0.7957747E-01  0.3430439E+00
         13   -1    0    0    0    0  0.00000000000E+00  0.00000000000E+00  0.14999999963E+04  0.15000000000E+04  0.10566000000E+00 0.  1.
        994   -1    0    0    0    0 -0.00000000000E+00 -0.00000000000E+00  0.11368683772E-12  0.17120000000E+03  0.17120000000E+03 0.  0.
         13    1    1    2    0    0 -0.79324246683E+01 -0.95152723015E+01  0.45445329178E+02  0.47103639735E+02  0.10566000000E+00 0.  1.
        994    1    1    2    0    0  0.26660622656E+01  0.30227561594E+01  0.17733952887E+01  0.17125661994E+03  0.17120000000E+03 0.  0.
        998    1    1    2    0    0  0.52663624027E+01  0.64925161422E+01  0.14527812718E+04  0.14528397403E+04  0.10000000000E+02 0.  1.
</event>
<event>
 5    1  0.1666761E-008  0.3827455E+03  0.7957747E-01  0.3439290E+00
         13   -1    0    0    0    0  0.00000000000E+00  0.00000000000E+00  0.14999999963E+04  0.15000000000E+04  0.10566000000E+00 0. -1.
        994   -1    0    0    0    0 -0.00000000000E+00 -0.00000000000E+00  0.11368683772E-12  0.17120000000E+03  0.17120000000E+03 0.  0.
         13    1    1    2    0    0  0.51768563085E+01 -0.37587556437E+02  0.21799280127E+03  0.22127018961E+03  0.10566000000E+00 0. -1.
        994    1    1    2    0    0 -0.69425437488E+01  0.41076794136E+02  0.85244895411E+01  0.17640183914E+03  0.17120000000E+03 0.  0.
        998    1    1    2    0    0  0.17656874403E+01 -0.34892376990E+01  0.12734827055E+04  0.12735279712E+04  0.10000000000E+02 0. -1.
</event>
<event>
 5    1  0.1666761E-008  0.3846491E+03  0.7957747E-01  0.3431162E+00
         13   -1    0    0    0    0  0.00000000000E+00  0.00000000000E+00  0.14999999963E+04  0.15000000000E+04  0.10566000000E+00 0.  1.
        994   -1    0    0    0    0 -0.00000000000E+00 -0.00000000000E+00  0.11368683772E-12  0.17120000000E+03  0.17120000000E+03 0.  0.
         13    1    1    2    0    0  0.11347163636E+02  0.28768608276E+01  0.37748814998E+02  0.39522381616E+02  0.10566000000E+00 0.  1.
        994    1    1    2    0    0 -0.84638901488E+01  0.28241523254E+01  0.20665937758E+01  0.17144481352E+03  0.17120000000E+03 0.  0.
        998    1    1    2    0    0 -0.28832734870E+01 -0.57010131530E+01  0.14601845875E+04  0.14602328049E+04  0.10000000000E+02 0.  1.
</event>
<event>
 5    1  0.1666761E-008  0.3776689E+03  0.7957747E-01  0.3461372E+00
         13   -1    0    0    0    0  0.00000000000E+00  0.00000000000E+00  0.14999999963E+04  0.15000000000E+04  0.10566000000E+00 0. -1.
        994   -1    0    0    0    0 -0.00000000000E+00 -0.00000000000E+00  0.11368683772E-12  0.17120000000E+03  0.17120000000E+03 0.  0.
         13    1    1    2    0    0 -0.74470116137E+01 -0.31372579909E+02  0.95989214154E+02  0.10126024467E+03  0.10566000000E+00 0. -1.
        994    1    1    2    0    0  0.19701671579E+01  0.19647768454E+02  0.66291935848E+01  0.17246246714E+03  0.17120000000E+03 0.  0.
        998    1    1    2    0    0  0.54768444558E+01  0.11724811455E+02  0.13973815885E+04  0.13974772882E+04  0.10000000000E+02 0. -1.
</event>
<event>
 5    1  0.1666761E-008  0.3746762E+03  0.7957747E-01  0.3474672E+00
         13   -1    0    0    0    0  0.00000000000E+00  0.00000000000E+00  0.14999999963E+04  0.15000000000E+04  0.10566000000E+00 0. -1.
        994   -1    0    0    0    0 -0.00000000000E+00 -0.00000000000E+00  0.11368683772E-12  0.17120000000E+03  0.17120000000E+03 0.  0.
         13    1    1    2    0    0 -0.44969709587E+02 -0.39484288647E+01  0.15410087737E+03  0.16057694866E+03  0.10566000000E+00 0. -1.
        994    1    1    2    0    0  0.16803127665E+02  0.30803818656E+01  0.78388205431E+01  0.17222868797E+03  0.17120000000E+03 0.  0.
        998    1    1    2    0    0  0.28166581922E+02  0.86804699904E+00  0.13380602984E+04  0.13383943634E+04  0.10000000000E+02 0. -1.
</event>
<event>
 5    1  0.1666761E-008  0.3856910E+03  0.7957747E-01  0.3426747E+00
         13   -1    0    0    0    0  0.00000000000E+00  0.00000000000E+00  0.14999999963E+04  0.15000000000E+04  0.10566000000E+00 0.  1.
        994   -1    0    0    0    0 -0.00000000000E+00 -0.00000000000E+00  0.11368683772E-12  0.17120000000E+03  0.17120000000E+03 0.  0.
         13    1    1    2    0    0 -0.26517937431E+01 -0.96873665136E+01  0.40499450941E+02  0.41726415741E+02  0.10566000000E+00 0.  1.
        994    1    1    2    0    0 -0.14692558459E+00  0.20310780034E+01  0.13010886550E+01  0.17121705434E+03  0.17120000000E+03 0.  0.
        998    1    1    2    0    0  0.27987193277E+01  0.76562885102E+01  0.14581994567E+04  0.14582565299E+04  0.10000000000E+02 0.  1.
</event>
<event>
 5    1  0.1666761E-008  0.3842433E+03  0.7957747E-01  0.3432888E+00
         13   -1    0    0    0    0  0.00000000000E+00  0.00000000000E+00  0.14999999963E+04  0.15000000000E+04  0.10566000000E+00 0.  1.
        994   -1    0    0    0    0 -0.00000000000E+00 -0.00000000000E+00  0.11368683772E-12  0.17120000000E+03  0.17120000000E+03 0.  0.
         13    1    1    2    0    0 -0.11797407510E+02  0.12543733452E+02  0.80122393478E+02  0.81952017508E+02  0.10566000000E+00 0.  1.
        994    1    1    2    0    0 -0.12003495852E+01  0.16985274866E+01  0.20205381470E+01  0.17122455551E+03  0.17120000000E+03 0.  0.
        998    1    1    2    0    0  0.12997757096E+02 -0.14242260939E+02  0.14178570647E+04  0.14180234270E+04  0.10000000000E+02 0.  1.
</event>
<event>
 5    1  0.1666761E-008  0.3826604E+03  0.7957747E-01  0.3439656E+00
         13   -1    0    0    0    0  0.00000000000E+00  0.00000000000E+00  0.14999999963E+04  0.15000000000E+04  0.10566000000E+00 0. -1.
        994   -1    0    0    0    0 -0.00000000000E+00 -0.00000000000E+00  0.11368683772E-12  0.17120000000E+03  0.17120000000E+03 0.  0.
         13    1    1    2    0    0  0.99137192658E+02 -0.41423693494E+02  0.33109261755E+03  0.34808969808E+03  0.10566000000E+00 0. -1.
        994    1    1    2    0    0 -0.58003579216E+02  0.10942273510E+02  0.30658683214E+02  0.18366693608E+03  0.17120000000E+03 0.  0.
        998    1    1    2    0    0 -0.41133613442E+02  0.30481419984E+02  0.11382486955E+04  0.11394433658E+04  0.10000000000E+02 0. -1.
</event>
<event>
 5    1  0.1666761E-008  0.3777095E+03  0.7957747E-01  0.3461193E+00
         13   -1    0    0    0    0  0.00000000000E+00  0.00000000000E+00  0.14999999963E+04  0.15000000000E+04  0.10566000000E+00 0.  1.
        994   -1    0    0    0    0 -0.00000000000E+00 -0.00000000000E+00  0.11368683772E-12  0.17120000000E+03  0.17120000000E+03 0.  0.
         13    1    1    2    0    0 -0.30570343745E+02 -0.96607718610E+01  0.10644149724E+03  0.11116510212E+03  0.10566000000E+00 0.  1.
        994    1    1    2    0    0 -0.54836884113E+01  0.56708266570E+01  0.55034966883E+01  0.17146999035E+03  0.17120000000E+03 0.  0.
        998    1    1    2    0    0  0.36054032156E+02  0.39899452041E+01  0.13880550023E+04  0.13885649075E+04  0.10000000000E+02 0.  1.
</event>
<event>
 5    1  0.1666761E-008  0.3824174E+03  0.7957747E-01  0.3440700E+00
         13   -1    0    0    0    0  0.00000000000E+00  0.00000000000E+00  0.14999999963E+04  0.15000000000E+04  0.10566000000E+00 0. -1.
        994   -1    0    0    0    0 -0.00000000000E+00 -0.00000000000E+00  0.11368683772E-12  0.17120000000E+03  0.17120000000E+03 0.  0.
         13    1    1    2    0    0  0.10047973839E+02 -0.38002849756E+02  0.22845273459E+03  0.23180992531E+03  0.10566000000E+00 0. -1.
        994    1    1    2    0    0 -0.12852879104E+02  0.36402370384E+02  0.78761568964E+01  0.17567527691E+03  0.17120000000E+03 0.  0.
        998    1    1    2    0    0  0.28049052652E+01  0.16004793715E+01  0.12636711048E+04  0.12637147978E+04  0.10000000000E+02 0.  1.
</event>
<event>
 5    1  0.1666761E-008  0.3787911E+03  0.7957747E-01  0.3456439E+00
         13   -1    0    0    0    0  0.00000000000E+00  0.00000000000E+00  0.14999999963E+04  0.15000000000E+04  0.10566000000E+00 0.  1.
        994   -1    0    0    0    0 -0.00000000000E+00 -0.00000000000E+00  0.11368683772E-12  0.17120000000E+03  0.17120000000E+03 0.  0.
         13    1    1    2    0    0  0.42206476554E+01 -0.17236653858E+02  0.30797906862E+02  0.35544877746E+02  0.10566000000E+00 0.  1.
        994    1    1    2    0    0 -0.68188242015E+00  0.17582820686E+02  0.57845274663E+01  0.17219907463E+03  0.17120000000E+03 0.  0.
        998    1    1    2    0    0 -0.35387652353E+01 -0.34616682837E+00  0.14634175620E+04  0.14634560476E+04  0.10000000000E+02 0.  1.
</event>
<event>
 5    1  0.1666761E-008  0.3887210E+03  0.7957747E-01  0.3414042E+00
         13   -1    0    0    0    0  0.00000000000E+00  0.00000000000E+00  0.14999999963E+04  0.15000000000E+04  0.10566000000E+00 0.  1.
        994   -1    0    0    0    0 -0.00000000000E+00 -0.00000000000E+00  0.11368683772E-12  0.17120000000E+03  0.17120000000E+03 0.  0.
         13    1    1    2    0    0  0.49302917850E+02 -0.18061382202E+01  0.51639489923E+02  0.71419100578E+02  0.10566000000E+00 0.  1.
        994    1    1    2    0    0 -0.22230449906E+02 -0.16800416350E+02  0.24114595732E+02  0.17512110273E+03  0.17120000000E+03 0.  0.
        998    1    1    2    0    0 -0.27072467944E+02  0.18606554570E+02  0.14242459106E+04  0.14246597967E+04  0.10000000000E+02 0.  1.
</event>
<event>
 5    1  0.1666761E-008  0.3822281E+03  0.7957747E-01  0.3441514E+00
         13   -1    0    0    0    0  0.00000000000E+00  0.00000000000E+00  0.14999999963E+04  0.15000000000E+04  0.10566000000E+00 0. -1.
        994   -1    0    0    0    0 -0.00000000000E+00 -0.00000000000E+00  0.11368683772E-12  0.17120000000E+03  0.17120000000E+03 0.  0.
         13    1    1    2    0    0  0.19070849472E+02  0.11244821182E+01  0.57829428486E+02  0.60903330966E+02  0.10566000000E+00 0. -1.
        994    1    1    2    0    0 -0.19221563546E+02  0.33764382187E+01  0.42775710276E+01  0.17236184744E+03  0.17120000000E+03 0.  0.
        998    1    1    2    0    0  0.15071407339E+00 -0.45009203370E+01  0.14378929968E+04  0.14379348216E+04  0.10000000000E+02 0. -1.
</event>
<event>
 5    1  0.1666761E-008  0.3480553E+03  0.7957747E-01  0.3603253E+00
         13   -1    0    0    0    0  0.00000000000E+00  0.00000000000E+00  0.14999999963E+04  0.15000000000E+04  0.10566000000E+00 0.  1.
        994   -1    0    0    0    0 -0.00000000000E+00 -0.00000000000E+00  0.11368683772E-12  0.17120000000E+03  0.17120000000E+03 0.  0.
         13    1    1    2    0    0  0.15417517162E+03  0.99689089132E+02  0.11066928750E+04  0.11218186256E+04  0.10566000000E+00 0.  1.
        994    1    1    2    0    0 -0.99609083391E+02 -0.12196091198E+03  0.10546814423E+03  0.25540047571E+03  0.17120000000E+03 0.  0.
        998    1    1    2    0    0 -0.54566088231E+02  0.22271822850E+02  0.28783897706E+03  0.29398089868E+03  0.10000000000E+02 0.  1.
</event>
<event>
 5    1  0.1666761E-008  0.3797336E+03  0.7957747E-01  0.3452319E+00
         13   -1    0    0    0    0  0.00000000000E+00  0.00000000000E+00  0.14999999963E+04  0.15000000000E+04  0.10566000000E+00 0. -1.
        994   -1    0    0    0    0 -0.00000000000E+00 -0.00000000000E+00  0.11368683772E-12  0.17120000000E+03  0.17120000000E+03 0.  0.
         13    1    1    2    0    0 -0.32751999774E+02  0.15349556134E+02  0.18134436029E+03  0.18491644204E+03  0.10566000000E+00 0. -1.
        994    1    1    2    0    0 -0.13172204047E+01  0.62038880987E+01  0.44022668120E+01  0.17137398650E+03  0.17120000000E+03 0.  0.
        998    1    1    2    0    0  0.34069220179E+02 -0.21553444233E+02  0.13142533692E+04  0.13149095715E+04  0.10000000000E+02 0. -1.
</event>
<event>
 5    1  0.1666761E-008  0.3755794E+03  0.7957747E-01  0.3470636E+00
         13   -1    0    0    0    0  0.00000000000E+00  0.00000000000E+00  0.14999999963E+04  0.15000000000E+04  0.10566000000E+00 0.  1.
        994   -1    0    0    0    0 -0.00000000000E+00 -0.00000000000E+00  0.11368683772E-12  0.17120000000E+03  0.17120000000E+03 0.  0.
         13    1    1    2    0    0 -0.58334124747E+01 -0.22564536624E+02  0.39544731703E+02  0.45901895208E+02  0.10566000000E+00 0.  1.
        994    1    1    2    0    0 -0.44933385001E+01  0.21386924280E+02  0.80034381621E+01  0.17277466725E+03  0.17120000000E+03 0.  0.
        998    1    1    2    0    0  0.10326750975E+02  0.11776123440E+01  0.14524518264E+04  0.14525234375E+04  0.10000000000E+02 0.  1.
</event>
<event>
 5    1  0.1666761E-008  0.3859741E+03  0.7957747E-01  0.3425552E+00
         13   -1    0    0    0    0  0.00000000000E+00  0.00000000000E+00  0.14999999963E+04  0.15000000000E+04  0.10566000000E+00 0. -1.
        994   -1    0    0    0    0 -0.00000000000E+00 -0.00000000000E+00  0.11368683772E-12  0.17120000000E+03  0.17120000000E+03 0.  0.
         13    1    1    2    0    0 -0.86180191529E+01  0.73040556083E+01  0.54617620089E+02  0.55773784798E+02  0.10566000000E+00 0. -1.
        994    1    1    2    0    0  0.78663284618E+01 -0.91072591541E+01  0.16222189203E+01  0.17163010484E+03  0.17120000000E+03 0.  0.
        998    1    1    2    0    0  0.75169069120E+00  0.18032035458E+01  0.14437601573E+04  0.14437961104E+04  0.10000000000E+02 0. -1.
</event>
<event>
 5    1  0.1666761E-008  0.3854930E+03  0.7957747E-01  0.3427584E+00
         13   -1    0    0    0    0  0.00000000000E+00  0.00000000000E+00  0.14999999963E+04  0.15000000000E+04  0.10566000000E+00 0. -1.
        994   -1    0    0    0    0 -0.00000000000E+00 -0.00000000000E+00  0.11368683772E-12  0.17120000000E+03  0.17120000000E+03 0.  0.
         13    1    1    2    0    0  0.78644035659E+01 -0.66815426089E+01  0.36883835534E+02  0.38300396118E+02  0.10566000000E+00 0. -1.
        994    1    1    2    0    0 -0.16924431455E+02  0.39087973335E+01  0.23768484673E+01  0.17209533545E+03  0.17120000000E+03 0.  0.
        998    1    1    2    0    0  0.90600278892E+01  0.27727452754E+01  0.14607393123E+04  0.14608042684E+04  0.10000000000E+02 0. -1.
</event>
<event>
 5    1  0.1666761E-008  0.3753702E+03  0.7957747E-01  0.3471569E+00
         13   -1    0    0    0    0  0.00000000000E+00  0.00000000000E+00  0.14999999963E+04  0.15000000000E+04  0.10566000000E+00 0.  1.
        994   -1    0    0    0    0 -0.00000000000E+00 -0.00000000000E+00  0.11368683772E-12  0.17120000000E+03  0.17120000000E+03 0.  0.
         13    1    1    2    0    0  0.22229960693E+02  0.27532126349E+02  0.88969269055E+02  0.95748269613E+02  0.10566000000E+00 0.  1.
        994    1    1    2    0    0 -0.24707821328E+02 -0.26167548791E+02  0.10898585435E+02  0.17528102068E+03  0.17120000000E+03 0.  0.
        998    1    1    2    0    0  0.24778606348E+01 -0.13645775588E+01  0.14001321418E+04  0.14001707097E+04  0.10000000000E+02 0.  1.
</event>
<event>
 5    1  0.1666761E-008  0.3898228E+03  0.7957747E-01  0.3409472E+00
         13   -1    0    0    0    0  0.00000000000E+00  0.00000000000E+00  0.14999999963E+04  0.15000000000E+04  0.10566000000E+00 0.  1.
        994   -1    0    0    0    0 -0.00000000000E+00 -0.00000000000E+00  0.11368683772E-12  0.17120000000E+03  0.17120000000E+03 0.  0.
         13    1    1    2    0    0  0.17174647909E+02 -0.70741617699E+02  0.11748599967E+03  0.13821112939E+03  0.10566000000E+00 0.  1.
        994    1    1    2    0    0  0.20732526809E+02  0.47627908227E+02  0.32046117067E+02  0.18175436426E+03  0.17120000000E+03 0.  0.
        998    1    1    2    0    0 -0.37907174718E+02  0.23113709472E+02  0.13504678795E+04  0.13512345063E+04  0.10000000000E+02 0.  1.
</event>
<event>
 5    1  0.1666761E-008  0.3794649E+03  0.7957747E-01  0.3453492E+00
         13   -1    0    0    0    0  0.00000000000E+00  0.00000000000E+00  0.14999999963E+04  0.15000000000E+04  0.10566000000E+00 0.  1.
        994   -1    0    0    0    0 -0.00000000000E+00 -0.00000000000E+00  0.11368683772E-12  0.17120000000E+03  0.17120000000E+03 0.  0.
         13    1    1    2    0    0 -0.15436213407E+03 -0.11699295063E+02  0.85996618578E+03  0.87378852922E+03  0.10566000000E+00 0.  1.
        994    1    1    2    0    0  0.16475493981E+03 -0.58044197430E+01  0.10156019862E+03  0.25846043300E+03  0.17120000000E+03 0.  0.
        998    1    1    2    0    0 -0.10392805738E+02  0.17503714806E+02  0.53847361188E+03  0.53895103778E+03  0.10000000000E+02 0.  0.
</event>
<event>
 5    1  0.1666761E-008  0.3845936E+03  0.7957747E-01  0.3431398E+00
         13   -1    0    0    0    0  0.00000000000E+00  0.00000000000E+00  0.14999999963E+04  0.15000000000E+04  0.10566000000E+00 0. -1.
        994   -1    0    0    0    0 -0.00000000000E+00 -0.00000000000E+00  0.11368683772E-12  0.17120000000E+03  0.17120000000E+03 0.  0.
         13    1    1    2    0    0  0.16072661497E+02  0.69032994872E+01  0.81721819824E+02  0.83573039856E+02  0.10566000000E+00 0. -1.
        994    1    1    2    0    0 -0.10813293735E+02 -0.10932425617E+02  0.26110331926E+01  0.17190899553E+03  0.17120000000E+03 0.  0.
        998    1    1    2    0    0 -0.52593677627E+01  0.40291261293E+01  0.14156671433E+04  0.14157179646E+04  0.10000000000E+02 0. -1.
</event>
<event>
 5    1  0.1666761E-008  0.3830003E+03  0.7957747E-01  0.3438198E+00
         13   -1    0    0    0    0  0.00000000000E+00  0.00000000000E+00  0.14999999963E+04  0.15000000000E+04  0.10566000000E+00 0. -1.
        994   -1    0    0    0    0 -0.00000000000E+00 -0.00000000000E+00  0.11368683772E-12  0.17120000000E+03  0.17120000000E+03 0.  0.
         13    1    1    2    0    0  0.12460641832E+02  0.22153018019E+02  0.99446087780E+02  0.10264287282E+03  0.10566000000E+00 0. -1.
        994    1    1    2    0    0 -0.16196379099E+02 -0.47794874595E+02  0.11102133458E+02  0.17882776658E+03  0.17120000000E+03 0.  0.
        998    1    1    2    0    0  0.37357372669E+01  0.25641856576E+02  0.13894517750E+04  0.13897293606E+04  0.10000000000E+02 0. -1.
</event>
<event>
 5    1  0.1666761E-008  0.3822396E+03  0.7957747E-01  0.3441464E+00
         13   -1    0    0    0    0  0.00000000000E+00  0.00000000000E+00  0.14999999963E+04  0.15000000000E+04  0.10566000000E+00 0.  1.
        994   -1    0    0    0    0 -0.00000000000E+00 -0.00000000000E+00  0.11368683772E-12  0.17120000000E+03  0.17120000000E+03 0.  0.
         13    1    1    2    0    0 -0.10428366678E+02  0.17089916347E+01  0.17180821680E+02  0.20170852278E+02  0.10566000000E+00 0.  1.
        994    1    1    2    0    0  0.95567290520E+01 -0.11506536661E+02  0.37496177443E+01  0.17189308040E+03  0.17120000000E+03 0.  0.
        998    1    1    2    0    0  0.87163762601E+00  0.97975450259E+01  0.14790695569E+04  0.14791360673E+04  0.10000000000E+02 0.  1.
</event>
<event>
 5    1  0.1666761E-008  0.3816628E+03  0.7957747E-01  0.3443950E+00
         13   -1    0    0    0    0  0.00000000000E+00  0.00000000000E+00  0.14999999963E+04  0.15000000000E+04  0.10566000000E+00 0. -1.
        994   -1    0    0    0    0 -0.00000000000E+00 -0.00000000000E+00  0.11368683772E-12  0.17120000000E+03  0.17120000000E+03 0.  0.
         13    1    1    2    0    0  0.17316155281E+02 -0.16545653157E+02  0.86077569330E+02  0.89347450875E+02  0.10566000000E+00 0. -1.
        994    1    1    2    0    0 -0.11701011634E+02  0.88327762476E+01  0.40110002923E+01  0.17187338285E+03  0.17120000000E+03 0.  0.
        998    1    1    2    0    0 -0.56151436473E+01  0.77128769094E+01  0.14099114267E+04  0.14099791663E+04  0.10000000000E+02 0. -1.
</event>
<event>
 5    1  0.1666761E-008  0.3859138E+03  0.7957747E-01  0.3425806E+00
         13   -1    0    0    0    0  0.00000000000E+00  0.00000000000E+00  0.14999999963E+04  0.15000000000E+04  0.10566000000E+00 0. -1.
        994   -1    0    0    0    0 -0.00000000000E+00 -0.00000000000E+00  0.11368683772E-12  0.17120000000E+03  0.17120000000E+03 0.  0.
         13    1    1    2    0    0 -0.72881408066E+01  0.10077214814E+02  0.68507881644E+02  0.69627640102E+02  0.10566000000E+00 0. -1.
        994    1    1    2    0    0  0.14743160006E+02  0.51193340021E+01  0.19761808515E+01  0.17192124255E+03  0.17120000000E+03 0.  0.
        998    1    1    2    0    0 -0.74550191990E+01 -0.15196548816E+02  0.14295159338E+04  0.14296511174E+04  0.10000000000E+02 0. -1.
</event>
<event>
 5    1  0.1666761E-008  0.3846139E+03  0.7957747E-01  0.3431311E+00
         13   -1    0    0    0    0  0.00000000000E+00  0.00000000000E+00  0.14999999963E+04  0.15000000000E+04  0.10566000000E+00 0. -1.
        994   -1    0    0    0    0 -0.00000000000E+00 -0.00000000000E+00  0.11368683772E-12  0.17120000000E+03  0.17120000000E+03 0.  0.
         13    1    1    2    0    0  0.32279533717E+01 -0.22046650773E+02  0.12540535236E+03  0.12736949422E+03  0.10566000000E+00 0. -1.
        994    1    1    2    0    0 -0.47666962440E+01  0.23217867899E+02  0.36739747288E+01  0.17287200141E+03  0.17120000000E+03 0.  0.
        998    1    1    2    0    0  0.15387428723E+01 -0.11712171260E+01  0.13709206692E+04  0.13709585044E+04  0.10000000000E+02 0. -1.
</event>
<event>
 5    1  0.1666761E-008  0.3835494E+03  0.7957747E-01  0.3435848E+00
         13   -1    0    0    0    0  0.00000000000E+00  0.00000000000E+00  0.14999999963E+04  0.15000000000E+04  0.10566000000E+00 0.  1.
        994   -1    0    0    0    0 -0.00000000000E+00 -0.00000000000E+00  0.11368683772E-12  0.17120000000E+03  0.17120000000E+03 0.  0.
         13    1    1    2    0    0  0.78929202391E+01 -0.17879182977E+02  0.61790940436E+02  0.64808138824E+02  0.10566000000E+00 0.  1.
        994    1    1    2    0    0 -0.33884137256E+02  0.56125838545E+02  0.16686086204E+02  0.18408180242E+03  0.17120000000E+03 0.  0.
        998    1    1    2    0    0  0.25991217017E+02 -0.38246655568E+02  0.14215229696E+04  0.14223100588E+04  0.10000000000E+02 0.  1.
</event>
<event>
 5    1  0.1666761E-008  0.3832209E+03  0.7957747E-01  0.3437253E+00
         13   -1    0    0    0    0  0.00000000000E+00  0.00000000000E+00  0.14999999963E+04  0.15000000000E+04  0.10566000000E+00 0. -1.
        994   -1    0    0    0    0 -0.00000000000E+00 -0.00000000000E+00  0.11368683772E-12  0.17120000000E+03  0.17120000000E+03 0.  0.
         13    1    1    2    0    0  0.26589806481E+01  0.18365016825E+02  0.65276778406E+02  0.67863193147E+02  0.10566000000E+00 0. -1.
        994    1    1    2    0    0  0.26099238500E+01 -0.19718055463E+02  0.38256881899E+01  0.17239399440E+03  0.17120000000E+03 0.  0.
        998    1    1    2    0    0 -0.52689044981E+01  0.13530386383E+01  0.14308975297E+04  0.14309428125E+04  0.10000000000E+02 0. -1.
</event>
<event>
 5    1  0.1666761E-008  0.3781280E+03  0.7957747E-01  0.3459350E+00
         13   -1    0    0    0    0  0.00000000000E+00  0.00000000000E+00  0.14999999963E+04  0.15000000000E+04  0.10566000000E+00 0.  1.
        994   -1    0    0    0    0 -0.00000000000E+00 -0.00000000000E+00  0.11368683772E-12  0.17120000000E+03  0.17120000000E+03 0.  0.
         13    1    1    2    0    0 -0.14826112638E+03  0.91180383292E+02  0.84295387238E+03  0.86073600251E+03  0.10566000000E+00 0.  1.
        994    1    1    2    0    0  0.15536445440E+03 -0.10285447930E+03  0.13246731307E+03  0.28561195115E+03  0.17120000000E+03 0.  0.
        998    1    1    2    0    0 -0.71033280258E+01  0.11674096008E+02  0.52457881083E+03  0.52485204635E+03  0.10000000000E+02 0.  1.
</event>
<event>
 5    1  0.1666761E-008  0.3718193E+03  0.7957747E-01  0.3487571E+00
         13   -1    0    0    0    0  0.00000000000E+00  0.00000000000E+00  0.14999999963E+04  0.15000000000E+04  0.10566000000E+00 0.  1.
        994   -1    0    0    0    0 -0.00000000000E+00 -0.00000000000E+00  0.11368683772E-12  0.17120000000E+03  0.17120000000E+03 0.  0.
         13    1    1    2    0    0 -0.13778007761E+02 -0.14326180150E+01  0.88131147273E+01  0.16418527567E+02  0.10566000000E+00 0.  1.
        994    1    1    2    0    0 -0.47815498824E+02 -0.28982490480E+01  0.16247666184E+02  0.17851652145E+03  0.17120000000E+03 0.  0.
        998    1    1    2    0    0  0.61593506584E+02  0.43308670629E+01  0.14749392154E+04  0.14762649510E+04  0.10000000000E+02 0.  1.
</event>
<event>
 5    1  0.1666761E-008  0.3823483E+03  0.7957747E-01  0.3440997E+00
         13   -1    0    0    0    0  0.00000000000E+00  0.00000000000E+00  0.14999999963E+04  0.15000000000E+04  0.10566000000E+00 0.  1.
        994   -1    0    0    0    0 -0.00000000000E+00 -0.00000000000E+00  0.11368683772E-12  0.17120000000E+03  0.17120000000E+03 0.  0.
         13    1    1    2    0    0  0.47939246081E+01 -0.14811764429E+02  0.41562838634E+02  0.44383001228E+02  0.10566000000E+00 0.  1.
        994    1    1    2    0    0  0.19604860327E+00  0.11246398676E+01  0.29567539150E+01  0.17122933640E+03  0.17120000000E+03 0.  0.
        998    1    1    2    0    0 -0.49899732114E+01  0.13687124562E+02  0.14554804037E+04  0.14555876624E+04  0.10000000000E+02 0.  1.
</event>
<event>
 5    1  0.1666761E-008  0.3819571E+03  0.7957747E-01  0.3442681E+00
         13   -1    0    0    0    0  0.00000000000E+00  0.00000000000E+00  0.14999999963E+04  0.15000000000E+04  0.10566000000E+00 0.  1.
        994   -1    0    0    0    0 -0.00000000000E+00 -0.00000000000E+00  0.11368683772E-12  0.17120000000E+03  0.17120000000E+03 0.  0.
         13    1    1    2    0    0 -0.37212264194E+01 -0.20120104187E+02  0.63595862246E+02  0.66806518974E+02  0.10566000000E+00 0.  1.
        994    1    1    2    0    0  0.87196710679E+01  0.18009770184E+02  0.44794260166E+01  0.17242357653E+03  0.17120000000E+03 0.  0.
        998    1    1    2    0    0 -0.49984446485E+01  0.21103340029E+01  0.14319247080E+04  0.14319699045E+04  0.10000000000E+02 0.  1.
</event>
<event>
 5    1  0.1666761E-008  0.3700850E+03  0.7957747E-01  0.3495500E+00
         13   -1    0    0    0    0  0.00000000000E+00  0.00000000000E+00  0.14999999963E+04  0.15000000000E+04  0.10566000000E+00 0.  1.
        994   -1    0    0    0    0 -0.00000000000E+00 -0.00000000000E+00  0.11368683772E-12  0.17120000000E+03  0.17120000000E+03 0.  0.
         13    1    1    2    0    0 -0.18465012080E+02  0.44962781337E+01  0.15436925607E+02  0.24484342433E+02  0.10566000000E+00 0.  1.
        994    1    1    2    0    0  0.17261738161E+02 -0.22046121163E+01  0.10272065526E+02  0.17238846611E+03  0.17120000000E+03 0.  0.
        998    1    1    2    0    0  0.12032739189E+01 -0.22916660175E+01  0.14742910051E+04  0.14743271915E+04  0.10000000000E+02 0.  1.
</event>
<event>
 5    1  0.1666761E-008  0.3794357E+03  0.7957747E-01  0.3453619E+00
         13   -1    0    0    0    0  0.00000000000E+00  0.00000000000E+00  0.14999999963E+04  0.15000000000E+04  0.10566000000E+00 0.  1.
        994   -1    0    0    0    0 -0.00000000000E+00 -0.00000000000E+00  0.11368683772E-12  0.17120000000E+03  0.17120000000E+03 0.  0.
         13    1    1    2    0    0 -0.21364162650E+02 -0.55489639881E+02  0.30597365202E+03  0.31169763310E+03  0.10566000000E+00 0.  1.
        994    1    1    2    0    0  0.21864734047E+02  0.60058245127E+02  0.18223503219E+02  0.18364802061E+03  0.17120000000E+03 0.  0.
        998    1    1    2    0    0 -0.50057139714E+00 -0.45686052466E+01  0.11758028410E+04  0.11758543463E+04  0.10000000000E+02 0.  1.
</event>
<event>
 5    1  0.1666761E-008  0.3749521E+03  0.7957747E-01  0.3473437E+00
         13   -1    0    0    0    0  0.00000000000E+00  0.00000000000E+00  0.14999999963E+04  0.15000000000E+04  0.10566000000E+00 0. -1.
        994   -1    0    0    0    0 -0.00000000000E+00 -0.00000000000E+00  0.11368683772E-12  0.17120000000E+03  0.17120000000E+03 0.  0.
         13    1    1    2    0    0 -0.55920850945E+02 -0.27134218639E+02  0.34831833355E+03  0.35382068911E+03  0.10566000000E+00 0. -1.
        994    1    1    2    0    0  0.42125423488E+02 -0.44396148573E+02  0.19545755794E+02  0.18285799376E+03  0.17120000000E+03 0.  0.
        998    1    1    2    0    0  0.13795427456E+02  0.71530367212E+02  0.11321359069E+04  0.11345213171E+04  0.10000000000E+02 0. -1.
</event>
<event>
 5    1  0.1666761E-008  0.3828035E+03  0.7957747E-01  0.3439041E+00
         13   -1    0    0    0    0  0.00000000000E+00  0.00000000000E+00  0.14999999963E+04  0.15000000000E+04  0.10566000000E+00 0.  1.
        994   -1    0    0    0    0 -0.00000000000E+00 -0.00000000000E+00  0.11368683772E-12  0.17120000000E+03  0.17120000000E+03 0.  0.
         13    1    1    2    0    0 -0.53007375289E+01 -0.10776245803E+02  0.25246401485E+02  0.27957418407E+02  0.10566000000E+00 0.  1.
        994    1    1    2    0    0  0.35191598592E+01  0.10714582137E+02  0.31459635896E+01  0.17159989465E+03  0.17120000000E+03 0.  0.
        998    1    1    2    0    0  0.17815776697E+01  0.61663666395E-01  0.14716076312E+04  0.14716426869E+04  0.10000000000E+02 0.  1.
</event>
<event>
 5    1  0.1666761E-008  0.3736460E+03  0.7957747E-01  0.3479300E+00
         13   -1    0    0    0    0  0.00000000000E+00  0.00000000000E+00  0.14999999963E+04  0.15000000000E+04  0.10566000000E+00 0. -1.
        994   -1    0    0    0    0 -0.00000000000E+00 -0.00000000000E+00  0.11368683772E-12  0.17120000000E+03  0.17120000000E+03 0.  0.
         13    1    1    2    0    0 -0.60396441517E+01  0.11288847202E+02  0.31124760736E+00  0.12807162517E+02  0.10566000000E+00 0. -1.
        994    1    1    2    0    0  0.78240615339E+01 -0.19148025213E+02  0.14396401081E+02  0.17304496286E+03  0.17120000000E+03 0.  0.
        998    1    1    2    0    0 -0.17844173821E+01  0.78591780106E+01  0.14852923476E+04  0.14853478746E+04  0.10000000000E+02 0. -1.
</event>
<event>
 5    1  0.1666761E-008  0.3829937E+03  0.7957747E-01  0.3438226E+00
         13   -1    0    0    0    0  0.00000000000E+00  0.00000000000E+00  0.14999999963E+04  0.15000000000E+04  0.10566000000E+00 0.  1.
        994   -1    0    0    0    0 -0.00000000000E+00 -0.00000000000E+00  0.11368683772E-12  0.17120000000E+03  0.17120000000E+03 0.  0.
         13    1    1    2    0    0  0.15780045998E+02  0.51243791704E+01  0.51394559271E+02  0.54006305191E+02  0.10566000000E+00 0.  1.
        994    1    1    2    0    0 -0.95568432823E+01 -0.81685398815E+01  0.31528848008E+01  0.17168995014E+03  0.17120000000E+03 0.  0.
        998    1    1    2    0    0 -0.62232027160E+01  0.30441607111E+01  0.14454525522E+04  0.14455037447E+04  0.10000000000E+02 0.  1.
</event>
<event>
 5    1  0.1666761E-008  0.3837468E+03  0.7957747E-01  0.3435004E+00
         13   -1    0    0    0    0  0.00000000000E+00  0.00000000000E+00  0.14999999963E+04  0.15000000000E+04  0.10566000000E+00 0.  1.
        994   -1    0    0    0    0 -0.00000000000E+00 -0.00000000000E+00  0.11368683772E-12  0.17120000000E+03  0.17120000000E+03 0.  0.
         13    1    1    2    0    0 -0.39984333847E+01 -0.28809354586E+02  0.17341614015E+03  0.17583837810E+03  0.10566000000E+00 0.  1.
        994    1    1    2    0    0  0.25897839879E+02  0.23443132866E+02  0.62934706380E+01  0.17484086010E+03  0.17120000000E+03 0.  0.
        998    1    1    2    0    0 -0.21899406495E+02  0.53662217199E+01  0.13202903855E+04  0.13205207618E+04  0.10000000000E+02 0.  1.
</event>
<event>
 5    1  0.1666761E-008  0.3855644E+03  0.7957747E-01  0.3427282E+00
         13   -1    0    0    0    0  0.00000000000E+00  0.00000000000E+00  0.14999999963E+04  0.15000000000E+04  0.10566000000E+00 0. -1.
        994   -1    0    0    0    0 -0.00000000000E+00 -0.00000000000E+00  0.11368683772E-12  0.17120000000E+03  0.17120000000E+03 0.  0.
         13    1    1    2    0    0 -0.99412359267E+01  0.10700376795E+02  0.72597828661E+02  0.74052563262E+02  0.10566000000E+00 0. -1.
        994    1    1    2    0    0  0.96174022896E+01 -0.21382849947E+02  0.31568010568E+01  0.17282686739E+03  0.17120000000E+03 0.  0.
        998    1    1    2    0    0  0.32383363710E+00  0.10682473152E+02  0.14242453666E+04  0.14243205693E+04  0.10000000000E+02 0. -1.
</event>
<event>
 5    1  0.1666761E-008  0.3365587E+03  0.7957747E-01  0.3665276E+00
         13   -1    0    0    0    0  0.00000000000E+00  0.00000000000E+00  0.14999999963E+04  0.15000000000E+04  0.10566000000E+00 0.  1.
        994   -1    0    0    0    0 -0.00000000000E+00 -0.00000000000E+00  0.11368683772E-12  0.17120000000E+03  0.17120000000E+03 0.  0.
         13    1    1    2    0    0  0.15219160449E+03  0.10856727675E+03  0.98382610602E+03  0.10014304550E+04  0.10566000000E+00 0.  1.
        994    1    1    2    0    0 -0.11616597398E+03 -0.94198718742E+02  0.94481245812E+02  0.24617895510E+03  0.17120000000E+03 0.  0.
        998    1    1    2    0    0 -0.36025630517E+02 -0.14368558005E+02  0.42169264445E+03  0.42359058995E+03  0.10000000000E+02 0.  1.
</event>
<event>
 5    1  0.1666761E-008  0.3818075E+03  0.7957747E-01  0.3443326E+00
         13   -1    0    0    0    0  0.00000000000E+00  0.00000000000E+00  0.14999999963E+04  0.15000000000E+04  0.10566000000E+00 0. -1.
        994   -1    0    0    0    0 -0.00000000000E+00 -0.00000000000E+00  0.11368683772E-12  0.17120000000E+03  0.17120000000E+03 0.  0.
         13    1    1    2    0    0  0.38411948900E+02  0.92948937290E+01  0.22904187124E+03  0.23242646754E+03  0.10566000000E+00 0. -1.
        994    1    1    2    0    0 -0.28327610798E+02 -0.44541491586E+01  0.59608331625E+01  0.17368726064E+03  0.17120000000E+03 0.  0.
        998    1    1    2    0    0 -0.10084338102E+02 -0.48407445704E+01  0.12649972919E+04  0.12650862718E+04  0.10000000000E+02 0. -1.
</event>
<event>
 5    1  0.1666761E-008  0.2972925E+03  0.7957747E-01  0.3915540E+00
         13   -1    0    0    0    0  0.00000000000E+00  0.00000000000E+00  0.14999999963E+04  0.15000000000E+04  0.10566000000E+00 0.  1.
        994   -1    0    0    0    0 -0.00000000000E+00 -0.00000000000E+00  0.11368683772E-12  0.17120000000E+03  0.17120000000E+03 0.  0.
         13    1    1    2    0    0 -0.14217018316E+03 -0.48103944409E+02  0.76016119563E+03  0.77483637302E+03  0.10566000000E+00 0.  1.
        994    1    1    2    0    0  0.12911825470E+03 -0.58148544939E+02  0.93342140459E+02  0.24098749378E+03  0.17120000000E+03 0.  0.
        998    1    1    2    0    0  0.13051928464E+02  0.10625248935E+03  0.64649666019E+03  0.65537613320E+03  0.10000000000E+02 0. -1.
</event>
<event>
 5    1  0.1666761E-008  0.3776352E+03  0.7957747E-01  0.3461520E+00
         13   -1    0    0    0    0  0.00000000000E+00  0.00000000000E+00  0.14999999963E+04  0.15000000000E+04  0.10566000000E+00 0. -1.
        994   -1    0    0    0    0 -0.00000000000E+00 -0.00000000000E+00  0.11368683772E-12  0.17120000000E+03  0.17120000000E+03 0.  0.
         13    1    1    2    0    0 -0.63116218159E+02 -0.10149985662E+02  0.13699071630E+03  0.15117257264E+03  0.10566000000E+00 0. -1.
        994    1    1    2    0    0  0.31901290474E+02 -0.17258858310E+02  0.19774983858E+02  0.17611374311E+03  0.17120000000E+03 0.  0.
        998    1    1    2    0    0  0.31214927684E+02  0.27408843972E+02  0.13432342961E+04  0.13439136843E+04  0.10000000000E+02 0. -1.
</event>
<event>
 5    1  0.1666761E-008  0.3853788E+03  0.7957747E-01  0.3428067E+00
         13   -1    0    0    0    0  0.00000000000E+00  0.00000000000E+00  0.14999999963E+04  0.15000000000E+04  0.10566000000E+00 0. -1.
        994   -1    0    0    0    0 -0.00000000000E+00 -0.00000000000E+00  0.11368683772E-12  0.17120000000E+03  0.17120000000E+03 0.  0.
         13    1    1    2    0    0  0.73311122522E+01  0.77714746762E+01  0.41203267231E+02  0.42565965513E+02  0.10566000000E+00 0. -1.
        994    1    1    2    0    0  0.97098271890E+00 -0.92297566539E+00  0.14481059873E+01  0.17121136558E+03  0.17120000000E+03 0.  0.
        998    1    1    2    0    0 -0.83020949711E+01 -0.68484990108E+01  0.14573486231E+04  0.14574226689E+04  0.10000000000E+02 0. -1.
</event>
<event>
 5    1  0.1666761E-008  0.3828887E+03  0.7957747E-01  0.3438676E+00
         13   -1    0    0    0    0  0.00000000000E+00  0.00000000000E+00  0.14999999963E+04  0.15000000000E+04  0.10566000000E+00 0. -1.
        994   -1    0    0    0    0 -0.00000000000E+00 -0.00000000000E+00  0.11368683772E-12  0.17120000000E+03  0.17120000000E+03 0.  0.
         13    1    1    2    0    0  0.16344409724E+02  0.20187253856E+02  0.12412056574E+03  0.12680926998E+03  0.10566000000E+00 0. -1.
        994    1    1    2    0    0 -0.14667088682E+02 -0.97198983363E+01  0.37078536503E+01  0.17214176743E+03  0.17120000000E+03 0.  0.
        998    1    1    2    0    0 -0.16773210413E+01 -0.10467355520E+02  0.13721715769E+04  0.13722489626E+04  0.10000000000E+02 0. -1.
</event>
<event>
 5    1  0.1666761E-008  0.3711319E+03  0.7957747E-01  0.3490705E+00
         13   -1    0    0    0    0  0.00000000000E+00  0.00000000000E+00  0.14999999963E+04  0.15000000000E+04  0.10566000000E+00 0.  1.
        994   -1    0    0    0    0 -0.00000000000E+00 -0.00000000000E+00  0.11368683772E-12  0.17120000000E+03  0.17120000000E+03 0.  0.
         13    1    1    2    0    0 -0.22845677124E+02  0.26014885253E+02  0.66118610095E+02  0.74634984980E+02  0.10566000000E+00 0.  1.
        994    1    1    2    0    0  0.64980473623E+01 -0.22343707054E+02  0.10545803558E+02  0.17309569561E+03  0.17120000000E+03 0.  0.
        998    1    1    2    0    0  0.16347629762E+02 -0.36711781984E+01  0.14233355826E+04  0.14234693194E+04  0.10000000000E+02 0. -1.
</event>
<event>
 5    1  0.1666761E-008  0.3830207E+03  0.7957747E-01  0.3438110E+00
         13   -1    0    0    0    0  0.00000000000E+00  0.00000000000E+00  0.14999999963E+04  0.15000000000E+04  0.10566000000E+00 0. -1.
        994   -1    0    0    0    0 -0.00000000000E+00 -0.00000000000E+00  0.11368683772E-12  0.17120000000E+03  0.17120000000E+03 0.  0.
         13    1    1    2    0    0 -0.11112334451E+02 -0.59128844530E+01  0.28194143948E+02  0.30876643220E+02  0.10566000000E+00 0. -1.
        994    1    1    2    0    0  0.87229038592E+01  0.27165561996E+02  0.53151084843E+01  0.17364258461E+03  0.17120000000E+03 0.  0.
        998    1    1    2    0    0  0.23894305914E+01 -0.21252677543E+02  0.14664907438E+04  0.14666807722E+04  0.10000000000E+02 0. -1.
</event>
<event>
 5    1  0.1666761E-008  0.3834627E+03  0.7957747E-01  0.3436218E+00
         13   -1    0    0    0    0  0.00000000000E+00  0.00000000000E+00  0.14999999963E+04  0.15000000000E+04  0.10566000000E+00 0.  1.
        994   -1    0    0    0    0 -0.00000000000E+00 -0.00000000000E+00  0.11368683772E-12  0.17120000000E+03  0.17120000000E+03 0.  0.
         13    1    1    2    0    0  0.14232919415E+02  0.10442210998E+02  0.63877499298E+02  0.66271878245E+02  0.10566000000E+00 0.  1.
        994    1    1    2    0    0 -0.15643492637E+02 -0.90373474846E+00  0.32072293896E+01  0.17194552021E+03  0.17120000000E+03 0.  0.
        998    1    1    2    0    0  0.14105732223E+01 -0.95384762499E+01  0.14329152676E+04  0.14329826015E+04  0.10000000000E+02 0.  1.
</event>
<event>
 5    1  0.1666761E-008  0.3821413E+03  0.7957747E-01  0.3441888E+00
         13   -1    0    0    0    0  0.00000000000E+00  0.00000000000E+00  0.14999999963E+04  0.15000000000E+04  0.10566000000E+00 0. -1.
        994   -1    0    0    0    0 -0.00000000000E+00 -0.00000000000E+00  0.11368683772E-12  0.17120000000E+03  0.17120000000E+03 0.  0.
         13    1    1    2    0    0 -0.89217217957E+01 -0.29020808970E+02  0.17946215000E+03  0.18201230431E+03  0.10566000000E+00 0. -1.
        994    1    1    2    0    0  0.20148745424E+02 -0.94138815399E+01  0.46996121114E+01  0.17270240144E+03  0.17120000000E+03 0.  0.
        998    1    1    2    0    0 -0.11227023628E+02  0.38434690510E+02  0.13158382342E+04  0.13164852943E+04  0.10000000000E+02 0. -1.
</event>
<event>
 5    1  0.1666761E-008  0.3802432E+03  0.7957747E-01  0.3450100E+00
         13   -1    0    0    0    0  0.00000000000E+00  0.00000000000E+00  0.14999999963E+04  0.15000000000E+04  0.10566000000E+00 0. -1.
        994   -1    0    0    0    0 -0.00000000000E+00 -0.00000000000E+00  0.11368683772E-12  0.17120000000E+03  0.17120000000E+03 0.  0.
         13    1    1    2    0    0 -0.13957021708E+01  0.11935871246E+02  0.16190170890E+02  0.20162981041E+02  0.10566000000E+00 0. -1.
        994    1    1    2    0    0  0.53971773639E+01 -0.10685940013E+02  0.44893134265E+01  0.17167676830E+03  0.17120000000E+03 0.  0.
        998    1    1    2    0    0 -0.40014751931E+01 -0.12499312336E+01  0.14793205120E+04  0.14793602507E+04  0.10000000000E+02 0. -1.
</event>
<event>
 5    1  0.1666761E-008  0.3846657E+03  0.7957747E-01  0.3431091E+00
         13   -1    0    0    0    0  0.00000000000E+00  0.00000000000E+00  0.14999999963E+04  0.15000000000E+04  0.10566000000E+00 0.  1.
        994   -1    0    0    0    0 -0.00000000000E+00 -0.00000000000E+00  0.11368683772E-12  0.17120000000E+03  0.17120000000E+03 0.  0.
         13    1    1    2    0    0  0.22599867005E+02 -0.43798955118E+01  0.12335828583E+03  0.12548790907E+03  0.10566000000E+00 0.  1.
        994    1    1    2    0    0 -0.36691675846E+02  0.10893424906E+01  0.62449742278E+01  0.17520246986E+03  0.17120000000E+03 0.  0.
        998    1    1    2    0    0  0.14091808841E+02  0.32905530212E+01  0.13703967362E+04  0.13705096211E+04  0.10000000000E+02 0.  1.
</event>
<event>
 5    1  0.1666761E-008  0.3832943E+03  0.7957747E-01  0.3436939E+00
         13   -1    0    0    0    0  0.00000000000E+00  0.00000000000E+00  0.14999999963E+04  0.15000000000E+04  0.10566000000E+00 0.  1.
        994   -1    0    0    0    0 -0.00000000000E+00 -0.00000000000E+00  0.11368683772E-12  0.17120000000E+03  0.17120000000E+03 0.  0.
         13    1    1    2    0    0 -0.62218600655E+01 -0.99504179400E+01  0.26843024814E+02  0.29296441850E+02  0.10566000000E+00 0.  1.
        994    1    1    2    0    0  0.11076059132E+02  0.38612825631E+01  0.29344982202E+01  0.17162645445E+03  0.17120000000E+03 0.  0.
        998    1    1    2    0    0 -0.48541990661E+01  0.60891353769E+01  0.14702224732E+04  0.14702771037E+04  0.10000000000E+02 0.  1.
</event>
<event>
 5    1  0.1666761E-008  0.3589658E+03  0.7957747E-01  0.3548192E+00
         13   -1    0    0    0    0  0.00000000000E+00  0.00000000000E+00  0.14999999963E+04  0.15000000000E+04  0.10566000000E+00 0. -1.
        994   -1    0    0    0    0 -0.00000000000E+00 -0.00000000000E+00  0.11368683772E-12  0.17120000000E+03  0.17120000000E+03 0.  0.
         13    1    1    2    0    0  0.25888496239E+03  0.37891633454E+02  0.97697985308E+03  0.10114083469E+04  0.10566000000E+00 0. -1.
        994    1    1    2    0    0 -0.24867380886E+03 -0.32991447274E+02  0.27014729102E+03  0.40646783102E+03  0.17120000000E+03 0.  0.
        998    1    1    2    0    0 -0.10211153534E+02 -0.49001861803E+01  0.25287285217E+03  0.25332382211E+03  0.10000000000E+02 0. -1.
</event>
<event>
 5    1  0.1666761E-008  0.3784054E+03  0.7957747E-01  0.3458131E+00
         13   -1    0    0    0    0  0.00000000000E+00  0.00000000000E+00  0.14999999963E+04  0.15000000000E+04  0.10566000000E+00 0.  1.
        994   -1    0    0    0    0 -0.00000000000E+00 -0.00000000000E+00  0.11368683772E-12  0.17120000000E+03  0.17120000000E+03 0.  0.
         13    1    1    2    0    0  0.67575782430E+02  0.36432386192E+02  0.15391832288E+03  0.17200193725E+03  0.10566000000E+00 0.  1.
        994    1    1    2    0    0 -0.11054391992E+02 -0.18139302975E+03  0.14639874657E+03  0.28942643939E+03  0.17120000000E+03 0.  0.
        998    1    1    2    0    0 -0.56521390438E+02  0.14496064355E+03  0.11996829268E+04  0.12097716234E+04  0.10000000000E+02 0.  1.
</event>
<event>
 5    1  0.1666761E-008  0.3842075E+03  0.7957747E-01  0.3433040E+00
         13   -1    0    0    0    0  0.00000000000E+00  0.00000000000E+00  0.14999999963E+04  0.15000000000E+04  0.10566000000E+00 0. -1.
        994   -1    0    0    0    0 -0.00000000000E+00 -0.00000000000E+00  0.11368683772E-12  0.17120000000E+03  0.17120000000E+03 0.  0.
         13    1    1    2    0    0 -0.18365622308E+01 -0.21893601384E+02  0.11098842864E+03  0.11314214598E+03  0.10566000000E+00 0. -1.
        994    1    1    2    0    0  0.19384167905E+01  0.22863197170E+02  0.37618935317E+01  0.17277174273E+03  0.17120000000E+03 0.  0.
        998    1    1    2    0    0 -0.10185455974E+00 -0.96959578596E+00  0.13852496741E+04  0.13852861113E+04  0.10000000000E+02 0.  0.
</event>
<event>
 5    1  0.1666761E-008  0.3815299E+03  0.7957747E-01  0.3444524E+00
         13   -1    0    0    0    0  0.00000000000E+00  0.00000000000E+00  0.14999999963E+04  0.15000000000E+04  0.10566000000E+00 0.  1.
        994   -1    0    0    0    0 -0.00000000000E+00 -0.00000000000E+00  0.11368683772E-12  0.17120000000E+03  0.17120000000E+03 0.  0.
         13    1    1    2    0    0 -0.15878669342E+02 -0.41340894571E+02  0.24147271199E+03  0.24550006824E+03  0.10566000000E+00 0.  1.
        994    1    1    2    0    0  0.10709644059E+02  0.45759212387E+02  0.10743970111E+02  0.17785801890E+03  0.17120000000E+03 0.  0.
        998    1    1    2    0    0  0.51690252829E+01 -0.44183178159E+01  0.12477833142E+04  0.12478419129E+04  0.10000000000E+02 0.  1.
</event>
<event>
 5    1  0.1666761E-008  0.3745984E+03  0.7957747E-01  0.3475021E+00
         13   -1    0    0    0    0  0.00000000000E+00  0.00000000000E+00  0.14999999963E+04  0.15000000000E+04  0.10566000000E+00 0.  1.
        994   -1    0    0    0    0 -0.00000000000E+00 -0.00000000000E+00  0.11368683772E-12  0.17120000000E+03  0.17120000000E+03 0.  0.
         13    1    1    2    0    0  0.78470812205E+01 -0.89406522492E+01  0.71142853963E+01  0.13861319095E+02  0.10566000000E+00 0.  1.
        994    1    1    2    0    0 -0.59864917954E+01  0.80940752180E+01  0.72301836164E+01  0.17164809260E+03  0.17120000000E+03 0.  0.
        998    1    1    2    0    0 -0.18605894251E+01  0.84657703119E+00  0.14856555273E+04  0.14856905883E+04  0.10000000000E+02 0.  1.
</event>
<event>
 5    1  0.1666761E-008  0.3767123E+03  0.7957747E-01  0.3465600E+00
         13   -1    0    0    0    0  0.00000000000E+00  0.00000000000E+00  0.14999999963E+04  0.15000000000E+04  0.10566000000E+00 0.  1.
        994   -1    0    0    0    0 -0.00000000000E+00 -0.00000000000E+00  0.11368683772E-12  0.17120000000E+03  0.17120000000E+03 0.  0.
         13    1    1    2    0    0 -0.11208220356E+02 -0.23951459012E+01  0.86080038814E+01  0.14334218580E+02  0.10566000000E+00 0.  1.
        994    1    1    2    0    0  0.12640376213E+02  0.20936234780E+01  0.63570335872E+01  0.17179643258E+03  0.17120000000E+03 0.  0.
        998    1    1    2    0    0 -0.14321558568E+01  0.30152242326E+00  0.14850349588E+04  0.14850693488E+04  0.10000000000E+02 0.  1.
</event>
<event>
 5    1  0.1666761E-008  0.4250762E+03  0.7957747E-01  0.3275668E+00
         13   -1    0    0    0    0  0.00000000000E+00  0.00000000000E+00  0.14999999963E+04  0.15000000000E+04  0.10566000000E+00 0.  1.
        994   -1    0    0    0    0 -0.00000000000E+00 -0.00000000000E+00  0.11368683772E-12  0.17120000000E+03  0.17120000000E+03 0.  0.
         13    1    1    2    0    0 -0.34577009648E+02 -0.78175050035E+01 -0.34727764917E+01  0.35619577780E+02  0.10566000000E+00 0.  1.
        994    1    1    2    0    0  0.43015017990E+02  0.15583512846E+02  0.52910139783E+02  0.18493799106E+03  0.17120000000E+03 0.  0.
        998    1    1    2    0    0 -0.84380083427E+01 -0.77660078422E+01  0.14505626330E+04  0.14506424312E+04  0.10000000000E+02 0.  1.
</event>
<event>
 5    1  0.1666761E-008  0.3752409E+03  0.7957747E-01  0.3472146E+00
         13   -1    0    0    0    0  0.00000000000E+00  0.00000000000E+00  0.14999999963E+04  0.15000000000E+04  0.10566000000E+00 0.  1.
        994   -1    0    0    0    0 -0.00000000000E+00 -0.00000000000E+00  0.11368683772E-12  0.17120000000E+03  0.17120000000E+03 0.  0.
         13    1    1    2    0    0  0.37070479865E+02 -0.41706513383E+02  0.29441976802E+03  0.29966091620E+03  0.10566000000E+00 0.  1.
        994    1    1    2    0    0 -0.15642898795E+02 -0.88904039800E+01  0.76553938876E+01  0.17231304252E+03  0.17120000000E+03 0.  0.
        998    1    1    2    0    0 -0.21427581070E+02  0.50596917363E+02  0.11979248344E+04  0.11992260413E+04  0.10000000000E+02 0.  1.
</event>
<event>
 5    1  0.1666761E-008  0.3738479E+03  0.7957747E-01  0.3478391E+00
         13   -1    0    0    0    0  0.00000000000E+00  0.00000000000E+00  0.14999999963E+04  0.15000000000E+04  0.10566000000E+00 0. -1.
        994   -1    0    0    0    0 -0.00000000000E+00 -0.00000000000E+00  0.11368683772E-12  0.17120000000E+03  0.17120000000E+03 0.  0.
         13    1    1    2    0    0  0.14401501671E+01  0.12463622555E+02 -0.81149408321E-01  0.12547257428E+02  0.10566000000E+00 0. -1.
        994    1    1    2    0    0  0.19317542965E+02 -0.25090500608E+02  0.16549674485E+02  0.17488862860E+03  0.17120000000E+03 0.  0.
        998    1    1    2    0    0 -0.20757693132E+02  0.12626878053E+02  0.14835314712E+04  0.14837641140E+04  0.10000000000E+02 0. -1.
</event>
<event>
 5    1  0.1666761E-008  0.3828105E+03  0.7957747E-01  0.3439011E+00
         13   -1    0    0    0    0  0.00000000000E+00  0.00000000000E+00  0.14999999963E+04  0.15000000000E+04  0.10566000000E+00 0.  1.
        994   -1    0    0    0    0 -0.00000000000E+00 -0.00000000000E+00  0.11368683772E-12  0.17120000000E+03  0.17120000000E+03 0.  0.
         13    1    1    2    0    0 -0.69284938175E+00 -0.12969510425E+02  0.30403806240E+02  0.33061924307E+02  0.10566000000E+00 0.  1.
        994    1    1    2    0    0  0.48802573054E+01  0.54311712470E+01  0.28976894343E+01  0.17138013635E+03  0.17120000000E+03 0.  0.
        998    1    1    2    0    0 -0.41874079237E+01  0.75383391776E+01  0.14666985006E+04  0.14667579393E+04  0.10000000000E+02 0.  1.
</event>
<event>
 5    1  0.1666761E-008  0.3861691E+03  0.7957747E-01  0.3424729E+00
         13   -1    0    0    0    0  0.00000000000E+00  0.00000000000E+00  0.14999999963E+04  0.15000000000E+04  0.10566000000E+00 0. -1.
        994   -1    0    0    0    0 -0.00000000000E+00 -0.00000000000E+00  0.11368683772E-12  0.17120000000E+03  0.17120000000E+03 0.  0.
         13    1    1    2    0    0 -0.85774969901E+01 -0.54988650300E+01  0.51338559344E+02  0.52339944696E+02  0.10566000000E+00 0. -1.
        994    1    1    2    0    0  0.48302343151E+01 -0.10976250403E+01  0.11311820322E+01  0.17127537919E+03  0.17120000000E+03 0.  0.
        998    1    1    2    0    0  0.37472626750E+01  0.65964900703E+01  0.14475302549E+04  0.14475846761E+04  0.10000000000E+02 0. -1.
</event>
<event>
 5    1  0.1666761E-008  0.3949890E+03  0.7957747E-01  0.3388382E+00
         13   -1    0    0    0    0  0.00000000000E+00  0.00000000000E+00  0.14999999963E+04  0.15000000000E+04  0.10566000000E+00 0.  1.
        994   -1    0    0    0    0 -0.00000000000E+00 -0.00000000000E+00  0.11368683772E-12  0.17120000000E+03  0.17120000000E+03 0.  0.
         13    1    1    2    0    0  0.62318667325E+02  0.13076644843E+03  0.43440745223E+03  0.45792283853E+03  0.10566000000E+00 0.  1.
        994    1    1    2    0    0  0.61784886406E+01 -0.93625677628E+02  0.59457333569E+02  0.20407977790E+03  0.17120000000E+03 0.  0.
        998    1    1    2    0    0 -0.68497155966E+02 -0.37140770803E+02  0.10061352105E+04  0.10091973836E+04  0.10000000000E+02 0.  1.
</event>
<event>
 5    1  0.2278302E-008  0.3861234E+03  0.7957747E-01  0.3424922E+00
         13   -1    0    0    0    0  0.00000000000E+00  0.00000000000E+00  0.14999999963E+04  0.15000000000E+04  0.10566000000E+00 0.  1.
        994   -1    0    0    0    0 -0.00000000000E+00 -0.00000000000E+00  0.11368683772E-12  0.17120000000E+03  0.17120000000E+03 0.  0.
         13    1    1    2    0    0  0.34377134259E+01 -0.10877208833E+02  0.66326078019E+02  0.67300009918E+02  0.10566000000E+00 0.  1.
        994    1    1    2    0    0 -0.52368187386E+01 -0.36637828389E+01  0.12072715079E+01  0.17132351000E+03  0.17120000000E+03 0.  0.
        998    1    1    2    0    0  0.17991053128E+01  0.14540991672E+02  0.14324666468E+04  0.14325764801E+04  0.10000000000E+02 0.  1.
</event>
<event>
 5    1  0.1666761E-008  0.3315301E+03  0.7957747E-01  0.3693817E+00
         13   -1    0    0    0    0  0.00000000000E+00  0.00000000000E+00  0.14999999963E+04  0.15000000000E+04  0.10566000000E+00 0. -1.
        994   -1    0    0    0    0 -0.00000000000E+00 -0.00000000000E+00  0.11368683772E-12  0.17120000000E+03  0.17120000000E+03 0.  0.
         13    1    1    2    0    0 -0.10811516943E+03  0.20737896100E+03  0.78072709579E+03  0.81500290343E+03  0.10566000000E+00 0. -1.
        994    1    1    2    0    0  0.13194117343E+03 -0.19790506396E+03  0.24740640838E+03  0.38352869318E+03  0.17120000000E+03 0.  0.
        998    1    1    2    0    0 -0.23826004000E+02 -0.94738970363E+01  0.47186649211E+03  0.47266840339E+03  0.10000000000E+02 0. -1.
</event>
<event>
 5    1  0.1666761E-008  0.3742279E+03  0.7957747E-01  0.3476683E+00
         13   -1    0    0    0    0  0.00000000000E+00  0.00000000000E+00  0.14999999963E+04  0.15000000000E+04  0.10566000000E+00 0. -1.
        994   -1    0    0    0    0 -0.00000000000E+00 -0.00000000000E+00  0.11368683772E-12  0.17120000000E+03  0.17120000000E+03 0.  0.
         13    1    1    2    0    0  0.49870611891E+02  0.23348157322E+02  0.26737864607E+03  0.27299004729E+03  0.10566000000E+00 0. -1.
        994    1    1    2    0    0 -0.38041541126E+01  0.99119711364E+01  0.74600107020E+01  0.17169103215E+03  0.17120000000E+03 0.  0.
        998    1    1    2    0    0 -0.46066457778E+02 -0.33260128458E+02  0.12251613395E+04  0.12265189206E+04  0.10000000000E+02 0. -1.
</event>
<event>
 5    1  0.1666761E-008  0.3696364E+03  0.7957747E-01  0.3497564E+00
         13   -1    0    0    0    0  0.00000000000E+00  0.00000000000E+00  0.14999999963E+04  0.15000000000E+04  0.10566000000E+00 0.  1.
        994   -1    0    0    0    0 -0.00000000000E+00 -0.00000000000E+00  0.11368683772E-12  0.17120000000E+03  0.17120000000E+03 0.  0.
         13    1    1    2    0    0 -0.12775769832E+02 -0.29485161466E+02  0.51154955122E+02  0.60410559003E+02  0.10566000000E+00 0.  1.
        994    1    1    2    0    0  0.10992900688E+02  0.17098947887E+02  0.10891090110E+02  0.17274626980E+03  0.17120000000E+03 0.  0.
        998    1    1    2    0    0  0.17828691440E+01  0.12386213579E+02  0.14379539510E+04  0.14380431712E+04  0.10000000000E+02 0.  1.
</event>
<event>
 5    1  0.1666761E-008  0.3858285E+03  0.7957747E-01  0.3426166E+00
         13   -1    0    0    0    0  0.00000000000E+00  0.00000000000E+00  0.14999999963E+04  0.15000000000E+04  0.10566000000E+00 0. -1.
        994   -1    0    0    0    0 -0.00000000000E+00 -0.00000000000E+00  0.11368683772E-12  0.17120000000E+03  0.17120000000E+03 0.  0.
         13    1    1    2    0    0 -0.10445767056E+02  0.40702552233E+01  0.49364513901E+02  0.50621610244E+02  0.10566000000E+00 0. -1.
        994    1    1    2    0    0  0.14584681457E+02 -0.60688704637E+01  0.20382453330E+01  0.17193934560E+03  0.17120000000E+03 0.  0.
        998    1    1    2    0    0 -0.41389144012E+01  0.19986152405E+01  0.14485972370E+04  0.14486390442E+04  0.10000000000E+02 0. -1.
</event>
<event>
 5    1  0.1666761E-008  0.3804959E+03  0.7957747E-01  0.3449002E+00
         13   -1    0    0    0    0  0.00000000000E+00  0.00000000000E+00  0.14999999963E+04  0.15000000000E+04  0.10566000000E+00 0.  1.
        994   -1    0    0    0    0 -0.00000000000E+00 -0.00000000000E+00  0.11368683772E-12  0.17120000000E+03  0.17120000000E+03 0.  0.
         13    1    1    2    0    0  0.18328783097E+03  0.15683253245E+02  0.10072352569E+04  0.10238961213E+04  0.10566000000E+00 0.  1.
        994    1    1    2    0    0 -0.18743638995E+03 -0.60524023119E+01  0.13188445002E+03  0.28613280135E+03  0.17120000000E+03 0.  0.
        998    1    1    2    0    0  0.41485589734E+01 -0.96308509332E+01  0.36088028940E+03  0.36117107734E+03  0.10000000000E+02 0.  0.
</event>
<event>
 5    1  0.1666761E-008  0.3695041E+03  0.7957747E-01  0.3498173E+00
         13   -1    0    0    0    0  0.00000000000E+00  0.00000000000E+00  0.14999999963E+04  0.15000000000E+04  0.10566000000E+00 0.  1.
        994   -1    0    0    0    0 -0.00000000000E+00 -0.00000000000E+00  0.11368683772E-12  0.17120000000E+03  0.17120000000E+03 0.  0.
         13    1    1    2    0    0  0.20168364171E+02 -0.91231735790E+00  0.14305694950E+02  0.24743874158E+02  0.10566000000E+00 0.  1.
        994    1    1    2    0    0 -0.18896481762E+02  0.14215042342E+01  0.11931034955E+02  0.17265829633E+03  0.17120000000E+03 0.  0.
        998    1    1    2    0    0 -0.12718824091E+01 -0.50918687626E+00  0.14737632664E+04  0.14737978295E+04  0.10000000000E+02 0.  1.
</event>
<event>
 5    1  0.1666761E-008  0.3806264E+03  0.7957747E-01  0.3448435E+00
         13   -1    0    0    0    0  0.00000000000E+00  0.00000000000E+00  0.14999999963E+04  0.15000000000E+04  0.10566000000E+00 0. -1.
        994   -1    0    0    0    0 -0.00000000000E+00 -0.00000000000E+00  0.11368683772E-12  0.17120000000E+03  0.17120000000E+03 0.  0.
         13    1    1    2    0    0 -0.26615389417E+02  0.17306148593E+01  0.90293416050E+02  0.94150337905E+02  0.10566000000E+00 0. -1.
        994    1    1    2    0    0  0.19921028529E+02  0.73718219820E+00  0.51440798113E+01  0.17243344331E+03  0.17120000000E+03 0.  0.
        998    1    1    2    0    0  0.66943608882E+01 -0.24677970575E+01  0.14045625004E+04  0.14046162188E+04  0.10000000000E+02 0. -1.
</event>
<event>
 5    1  0.1666761E-008  0.3835157E+03  0.7957747E-01  0.3435992E+00
         13   -1    0    0    0    0  0.00000000000E+00  0.00000000000E+00  0.14999999963E+04  0.15000000000E+04  0.10566000000E+00 0.  1.
        994   -1    0    0    0    0 -0.00000000000E+00 -0.00000000000E+00  0.11368683772E-12  0.17120000000E+03  0.17120000000E+03 0.  0.
         13    1    1    2    0    0  0.69682041797E+02 -0.27497007884E+02  0.13489028382E+03  0.15429540572E+03  0.10566000000E+00 0.  1.
        994    1    1    2    0    0 -0.74736922067E+02  0.14664800542E+02  0.39890614848E+02  0.19157600332E+03  0.17120000000E+03 0.  0.
        998    1    1    2    0    0  0.50548802699E+01  0.12832207342E+02  0.13252190976E+04  0.13253285910E+04  0.10000000000E+02 0.  1.
</event>
<event>
 5    1  0.1666761E-008  0.3836570E+03  0.7957747E-01  0.3435388E+00
         13   -1    0    0    0    0  0.00000000000E+00  0.00000000000E+00  0.14999999963E+04  0.15000000000E+04  0.10566000000E+00 0. -1.
        994   -1    0    0    0    0 -0.00000000000E+00 -0.00000000000E+00  0.11368683772E-12  0.17120000000E+03  0.17120000000E+03 0.  0.
         13    1    1    2    0    0 -0.27812069098E+02  0.39090922096E+01  0.16028467241E+03  0.16272670206E+03  0.10566000000E+00 0. -1.
        994    1    1    2    0    0  0.24049215365E+02 -0.41676011045E+01  0.42685906108E+01  0.17298379844E+03  0.17120000000E+03 0.  0.
        998    1    1    2    0    0  0.37628537331E+01  0.25850889486E+00  0.13354467333E+04  0.13354894995E+04  0.10000000000E+02 0. -1.
</event>
<event>
 5    1  0.1666761E-008  0.3832242E+03  0.7957747E-01  0.3437239E+00
         13   -1    0    0    0    0  0.00000000000E+00  0.00000000000E+00  0.14999999963E+04  0.15000000000E+04  0.10566000000E+00 0. -1.
        994   -1    0    0    0    0 -0.00000000000E+00 -0.00000000000E+00  0.11368683772E-12  0.17120000000E+03  0.17120000000E+03 0.  0.
         13    1    1    2    0    0 -0.90339855404E+01  0.62468302879E+01  0.23084544314E+02  0.25564489699E+02  0.10566000000E+00 0. -1.
        994    1    1    2    0    0  0.66801358843E+01 -0.42342669093E+01  0.27213080007E+01  0.17140419700E+03  0.17120000000E+03 0.  0.
        998    1    1    2    0    0  0.23538496561E+01 -0.20125633787E+01  0.14741941440E+04  0.14742313133E+04  0.10000000000E+02 0. -1.
</event>
<event>
 5    1  0.1666761E-008  0.3705654E+03  0.7957747E-01  0.3493296E+00
         13   -1    0    0    0    0  0.00000000000E+00  0.00000000000E+00  0.14999999963E+04  0.15000000000E+04  0.10566000000E+00 0. -1.
        994   -1    0    0    0    0 -0.00000000000E+00 -0.00000000000E+00  0.11368683772E-12  0.17120000000E+03  0.17120000000E+03 0.  0.
         13    1    1    2    0    0 -0.83159184430E+02  0.16200586371E+01  0.19209414089E+03  0.20932807903E+03  0.10566000000E+00 0. -1.
        994    1    1    2    0    0  0.18219929024E+03  0.47788989398E+02  0.14355396778E+03  0.29222859295E+03  0.17120000000E+03 0.  0.
        998    1    1    2    0    0 -0.99040105808E+02 -0.49409048035E+02  0.11643518876E+04  0.11696433280E+04  0.10000000000E+02 0. -1.
</event>
<event>
 5    1  0.1666761E-008  0.3832449E+03  0.7957747E-01  0.3437150E+00
         13   -1    0    0    0    0  0.00000000000E+00  0.00000000000E+00  0.14999999963E+04  0.15000000000E+04  0.10566000000E+00 0. -1.
        994   -1    0    0    0    0 -0.00000000000E+00 -0.00000000000E+00  0.11368683772E-12  0.17120000000E+03  0.17120000000E+03 0.  0.
         13    1    1    2    0    0 -0.16092068351E+02 -0.90049314391E+00  0.50295949799E+02  0.52815331884E+02  0.10566000000E+00 0. -1.
        994    1    1    2    0    0  0.14405058536E+02 -0.13058792423E+01  0.31962656790E+01  0.17183965534E+03  0.17120000000E+03 0.  0.
        998    1    1    2    0    0  0.16870098152E+01  0.22063723862E+01  0.14465077808E+04  0.14465450128E+04  0.10000000000E+02 0. -1.
</event>
<event>
 5    1  0.1666761E-008  0.3860542E+03  0.7957747E-01  0.3425214E+00
         13   -1    0    0    0    0  0.00000000000E+00  0.00000000000E+00  0.14999999963E+04  0.15000000000E+04  0.10566000000E+00 0. -1.
        994   -1    0    0    0    0 -0.00000000000E+00 -0.00000000000E+00  0.11368683772E-12  0.17120000000E+03  0.17120000000E+03 0.  0.
         13    1    1    2    0    0  0.10973291148E+02  0.53626035430E+01  0.68903733062E+02  0.69977898149E+02  0.10566000000E+00 0. -1.
        994    1    1    2    0    0 -0.51204151320E+01 -0.49641096806E+01  0.12743820023E+01  0.17135321732E+03  0.17120000000E+03 0.  0.
        998    1    1    2    0    0 -0.58528760157E+01 -0.39849386244E+00  0.14298218812E+04  0.14298688845E+04  0.10000000000E+02 0. -1.
</event>
<event>
 5    1  0.1666761E-008  0.3840400E+03  0.7957747E-01  0.3433754E+00
         13   -1    0    0    0    0  0.00000000000E+00  0.00000000000E+00  0.14999999963E+04  0.15000000000E+04  0.10566000000E+00 0. -1.
        994   -1    0    0    0    0 -0.00000000000E+00 -0.00000000000E+00  0.11368683772E-12  0.17120000000E+03  0.17120000000E+03 0.  0.
         13    1    1    2    0    0  0.19686290059E+02 -0.77917638263E+01  0.12216237252E+03  0.12398353933E+03  0.10566000000E+00 0. -1.
        994    1    1    2    0    0  0.58892640574E+01  0.19637657207E+01  0.22346755062E+01  0.17132709529E+03  0.17120000000E+03 0.  0.
        998    1    1    2    0    0 -0.25575554116E+02  0.58279981056E+01  0.13756029483E+04  0.13758893654E+04  0.10000000000E+02 0. -1.
</event>
<event>
 5    1  0.1666761E-008  0.3770230E+03  0.7957747E-01  0.3464224E+00
         13   -1    0    0    0    0  0.00000000000E+00  0.00000000000E+00  0.14999999963E+04  0.15000000000E+04  0.10566000000E+00 0.  1.
        994   -1    0    0    0    0 -0.00000000000E+00 -0.00000000000E+00  0.11368683772E-12  0.17120000000E+03  0.17120000000E+03 0.  0.
         13    1    1    2    0    0  0.39091728104E+02 -0.79660786477E+02  0.49974979640E+03  0.50756662053E+03  0.10566000000E+00 0.  1.
        994    1    1    2    0    0 -0.97316116208E+02  0.54539376907E+02  0.48885500115E+02  0.21010521704E+03  0.17120000000E+03 0.  0.
        998    1    1    2    0    0  0.58224388105E+02  0.25121409570E+02  0.95136469977E+03  0.95352816243E+03  0.10000000000E+02 0.  1.
</event>
<event>
 5    1  0.1666761E-008  0.3860109E+03  0.7957747E-01  0.3425396E+00
         13   -1    0    0    0    0  0.00000000000E+00  0.00000000000E+00  0.14999999963E+04  0.15000000000E+04  0.10566000000E+00 0.  1.
        994   -1    0    0    0    0 -0.00000000000E+00 -0.00000000000E+00  0.11368683772E-12  0.17120000000E+03  0.17120000000E+03 0.  0.
         13    1    1    2    0    0  0.41742621413E+01 -0.10353845816E+02  0.58114823069E+02  0.59177448508E+02  0.10566000000E+00 0.  1.
        994    1    1    2    0    0  0.14547676272E+01  0.27191206882E+01  0.11602536864E+01  0.17123170312E+03  0.17120000000E+03 0.  0.
        998    1    1    2    0    0 -0.56290297685E+01  0.76347251273E+01  0.14407249195E+04  0.14407908484E+04  0.10000000000E+02 0.  1.
</event>
<event>
 5    1  0.1666761E-008  0.3855493E+03  0.7957747E-01  0.3427346E+00
         13   -1    0    0    0    0  0.00000000000E+00  0.00000000000E+00  0.14999999963E+04  0.15000000000E+04  0.10566000000E+00 0. -1.
        994   -1    0    0    0    0 -0.00000000000E+00 -0.00000000000E+00  0.11368683772E-12  0.17120000000E+03  0.17120000000E+03 0.  0.
         13    1    1    2    0    0  0.70546021605E+01  0.19434007236E+02  0.12313698894E+03  0.12486063134E+03  0.10566000000E+00 0. -1.
        994    1    1    2    0    0  0.98246359510E+00 -0.43813313590E+02  0.76880680835E+01  0.17688730331E+03  0.17120000000E+03 0.  0.
        998    1    1    2    0    0 -0.80370657556E+01  0.24379306354E+02  0.13691749393E+04  0.13694520653E+04  0.10000000000E+02 0. -1.
</event>
<event>
 5    1  0.1666761E-008  0.3842422E+03  0.7957747E-01  0.3432893E+00
         13   -1    0    0    0    0  0.00000000000E+00  0.00000000000E+00  0.14999999963E+04  0.15000000000E+04  0.10566000000E+00 0.  1.
        994   -1    0    0    0    0 -0.00000000000E+00 -0.00000000000E+00  0.11368683772E-12  0.17120000000E+03  0.17120000000E+03 0.  0.
         13    1    1    2    0    0 -0.14585673313E+02  0.12559147479E+02  0.10379384101E+03  0.10556347212E+03  0.10566000000E+00 0.  1.
        994    1    1    2    0    0 -0.46632565301E+01  0.83146182704E+00  0.20808250921E+01  0.17127815717E+03  0.17120000000E+03 0.  0.
        998    1    1    2    0    0  0.19248929843E+02 -0.13390609306E+02  0.13941253302E+04  0.13943583707E+04  0.10000000000E+02 0.  1.
</event>
<event>
 5    1  0.1666761E-008  0.3851004E+03  0.7957747E-01  0.3429246E+00
         13   -1    0    0    0    0  0.00000000000E+00  0.00000000000E+00  0.14999999963E+04  0.15000000000E+04  0.10566000000E+00 0.  1.
        994   -1    0    0    0    0 -0.00000000000E+00 -0.00000000000E+00  0.11368683772E-12  0.17120000000E+03  0.17120000000E+03 0.  0.
         13    1    1    2    0    0 -0.13315021138E+02  0.32847063549E+01  0.62881489475E+02  0.64359707631E+02  0.10566000000E+00 0.  1.
        994    1    1    2    0    0  0.38451471872E+00 -0.87631666733E+00  0.15832928087E+01  0.17120999562E+03  0.17120000000E+03 0.  0.
        998    1    1    2    0    0  0.12930506419E+02 -0.24083896876E+01  0.14355352140E+04  0.14356302968E+04  0.10000000000E+02 0.  1.
</event>
<event>
 5    1  0.1666761E-008  0.3860458E+03  0.7957747E-01  0.3425249E+00
         13   -1    0    0    0    0  0.00000000000E+00  0.00000000000E+00  0.14999999963E+04  0.15000000000E+04  0.10566000000E+00 0. -1.
        994   -1    0    0    0    0 -0.00000000000E+00 -0.00000000000E+00  0.11368683772E-12  0.17120000000E+03  0.17120000000E+03 0.  0.
         13    1    1    2    0    0 -0.91603029912E+01 -0.82699497289E+01  0.68075713733E+02  0.69185382732E+02  0.10566000000E+00 0. -1.
        994    1    1    2    0    0  0.67850364758E+01  0.82601699560E+01  0.14864309526E+01  0.17153983970E+03  0.17120000000E+03 0.  0.
        998    1    1    2    0    0  0.23752665153E+01  0.97797728318E-02  0.14304378516E+04  0.14304747776E+04  0.10000000000E+02 0. -1.
</event>
<event>
 5    1  0.1666761E-008  0.3855745E+03  0.7957747E-01  0.3427239E+00
         13   -1    0    0    0    0  0.00000000000E+00  0.00000000000E+00  0.14999999963E+04  0.15000000000E+04  0.10566000000E+00 0.  1.
        994   -1    0    0    0    0 -0.00000000000E+00 -0.00000000000E+00  0.11368683772E-12  0.17120000000E+03  0.17120000000E+03 0.  0.
         13    1    1    2    0    0 -0.69990048672E+01  0.81676809378E+01  0.44739570053E+02  0.46014534373E+02  0.10566000000E+00 0.  1.
        994    1    1    2    0    0  0.13452933293E+00 -0.15324353914E+01  0.13529518665E+01  0.17121225697E+03  0.17120000000E+03 0.  0.
        998    1    1    2    0    0  0.68644755343E+01 -0.66352455464E+01  0.14539074744E+04  0.14539732087E+04  0.10000000000E+02 0.  1.
</event>
<event>
 5    1  0.1666761E-008  0.3714273E+03  0.7957747E-01  0.3489357E+00
         13   -1    0    0    0    0  0.00000000000E+00  0.00000000000E+00  0.14999999963E+04  0.15000000000E+04  0.10566000000E+00 0. -1.
        994   -1    0    0    0    0 -0.00000000000E+00 -0.00000000000E+00  0.11368683772E-12  0.17120000000E+03  0.17120000000E+03 0.  0.
         13    1    1    2    0    0 -0.53032451961E+01 -0.26490454754E+02  0.26003312115E+02  0.37497360009E+02  0.10566000000E+00 0. -1.
        994    1    1    2    0    0  0.15484369837E+02  0.22698123108E+02  0.14352665319E+02  0.17398393461E+03  0.17120000000E+03 0.  0.
        998    1    1    2    0    0 -0.10181124641E+02  0.37923316460E+01  0.14596440188E+04  0.14597187054E+04  0.10000000000E+02 0. -1.
</event>
<event>
 5    1  0.1666761E-008  0.3794932E+03  0.7957747E-01  0.3453368E+00
         13   -1    0    0    0    0  0.00000000000E+00  0.00000000000E+00  0.14999999963E+04  0.15000000000E+04  0.10566000000E+00 0.  1.
        994   -1    0    0    0    0 -0.00000000000E+00 -0.00000000000E+00  0.11368683772E-12  0.17120000000E+03  0.17120000000E+03 0.  0.
         13    1    1    2    0    0 -0.44013525753E+02  0.11750833468E+03  0.41876704958E+03  0.43716272959E+03  0.10566000000E+00 0.  1.
        994    1    1    2    0    0  0.32140659749E+02 -0.91197132576E+02  0.50699691626E+02  0.20305131797E+03  0.17120000000E+03 0.  0.
        998    1    1    2    0    0  0.11872866004E+02 -0.26311202108E+02  0.10305332551E+04  0.10309859524E+04  0.10000000000E+02 0.  1.
</event>
<event>
 5    1  0.1666761E-008  0.3791852E+03  0.7957747E-01  0.3454714E+00
         13   -1    0    0    0    0  0.00000000000E+00  0.00000000000E+00  0.14999999963E+04  0.15000000000E+04  0.10566000000E+00 0. -1.
        994   -1    0    0    0    0 -0.00000000000E+00 -0.00000000000E+00  0.11368683772E-12  0.17120000000E+03  0.17120000000E+03 0.  0.
         13    1    1    2    0    0  0.26513672483E+02  0.23234828117E+02  0.15275775636E+03  0.15677300584E+03  0.10566000000E+00 0. -1.
        994    1    1    2    0    0 -0.17004179692E+02  0.16654392269E+02  0.64462289807E+01  0.17296677362E+03  0.17120000000E+03 0.  0.
        998    1    1    2    0    0 -0.95094927907E+01 -0.39889220386E+02  0.13407960109E+04  0.13414602205E+04  0.10000000000E+02 0. -1.
</event>
<event>
 5    1  0.1666761E-008  0.3769116E+03  0.7957747E-01  0.3464718E+00
         13   -1    0    0    0    0  0.00000000000E+00  0.00000000000E+00  0.14999999963E+04  0.15000000000E+04  0.10566000000E+00 0.  1.
        994   -1    0    0    0    0 -0.00000000000E+00 -0.00000000000E+00  0.11368683772E-12  0.17120000000E+03  0.17120000000E+03 0.  0.
         13    1    1    2    0    0  0.91226466168E+02 -0.32169052116E+02  0.52333064844E+03  0.53219554189E+03  0.10566000000E+00 0.  1.
        994    1    1    2    0    0 -0.87927397960E+02  0.42639439364E+02  0.38664885271E+02  0.20088245930E+03  0.17120000000E+03 0.  0.
        998    1    1    2    0    0 -0.32990682079E+01 -0.10470387247E+02  0.93800446257E+03  0.93812199881E+03  0.10000000000E+02 0.  1.
</event>
<event>
 5    1  0.1666761E-008  0.3808958E+03  0.7957747E-01  0.3447267E+00
         13   -1    0    0    0    0  0.00000000000E+00  0.00000000000E+00  0.14999999963E+04  0.15000000000E+04  0.10566000000E+00 0.  1.
        994   -1    0    0    0    0 -0.00000000000E+00 -0.00000000000E+00  0.11368683772E-12  0.17120000000E+03  0.17120000000E+03 0.  0.
         13    1    1    2    0    0 -0.16922149605E+02 -0.20468284860E+02  0.90781879271E+02  0.94586841582E+02  0.10566000000E+00 0.  1.
        994    1    1    2    0    0  0.21474540059E+02  0.13727111293E+02  0.58497518508E+01  0.17318559135E+03  0.17120000000E+03 0.  0.
        998    1    1    2    0    0 -0.45523904543E+01  0.67411735667E+01  0.14033683652E+04  0.14034275671E+04  0.10000000000E+02 0.  1.
</event>
<event>
 5    1  0.1666761E-008  0.3853820E+03  0.7957747E-01  0.3428054E+00
         13   -1    0    0    0    0  0.00000000000E+00  0.00000000000E+00  0.14999999963E+04  0.15000000000E+04  0.10566000000E+00 0.  1.
        994   -1    0    0    0    0 -0.00000000000E+00 -0.00000000000E+00  0.11368683772E-12  0.17120000000E+03  0.17120000000E+03 0.  0.
         13    1    1    2    0    0 -0.10399642988E+02 -0.81165484309E+01  0.59758881426E+02  0.61197761446E+02  0.10566000000E+00 0.  1.
        994    1    1    2    0    0  0.80775285369E+01  0.75419287908E+01  0.18418214213E+01  0.17156619557E+03  0.17120000000E+03 0.  0.
        998    1    1    2    0    0  0.23221144506E+01  0.57461964005E+00  0.14383992934E+04  0.14384360430E+04  0.10000000000E+02 0.  1.
</event>
<event>
 5    1  0.1666761E-008  0.3836597E+03  0.7957747E-01  0.3435376E+00
         13   -1    0    0    0    0  0.00000000000E+00  0.00000000000E+00  0.14999999963E+04  0.15000000000E+04  0.10566000000E+00 0. -1.
        994   -1    0    0    0    0 -0.00000000000E+00 -0.00000000000E+00  0.11368683772E-12  0.17120000000E+03  0.17120000000E+03 0.  0.
         13    1    1    2    0    0  0.16917993347E+03  0.81307344828E+02  0.10903896715E+04  0.11064277569E+04  0.10566000000E+00 0. -1.
        994    1    1    2    0    0 -0.17227420411E+03 -0.92264181898E+02  0.14074860023E+03  0.29548382211E+03  0.17120000000E+03 0.  0.
        998    1    1    2    0    0  0.30942706370E+01  0.10956837071E+02  0.26886172450E+03  0.26928842101E+03  0.10000000000E+02 0.  1.
</event>
<event>
 5    1  0.1666761E-008  0.3825068E+03  0.7957747E-01  0.3440315E+00
         13   -1    0    0    0    0  0.00000000000E+00  0.00000000000E+00  0.14999999963E+04  0.15000000000E+04  0.10566000000E+00 0. -1.
        994   -1    0    0    0    0 -0.00000000000E+00 -0.00000000000E+00  0.11368683772E-12  0.17120000000E+03  0.17120000000E+03 0.  0.
         13    1    1    2    0    0  0.13462370490E+02 -0.27668857709E+01  0.31590005594E+02  0.34450409192E+02  0.10566000000E+00 0. -1.
        994    1    1    2    0    0 -0.10838574682E+02  0.56675911384E+01  0.33691627899E+01  0.17166941355E+03  0.17120000000E+03 0.  0.
        998    1    1    2    0    0 -0.26237958077E+01 -0.29007053675E+01  0.14650408279E+04  0.14650801773E+04  0.10000000000E+02 0. -1.
</event>
<event>
 5    1  0.1666761E-008  0.3829714E+03  0.7957747E-01  0.3438322E+00
         13   -1    0    0    0    0  0.00000000000E+00  0.00000000000E+00  0.14999999963E+04  0.15000000000E+04  0.10566000000E+00 0. -1.
        994   -1    0    0    0    0 -0.00000000000E+00 -0.00000000000E+00  0.11368683772E-12  0.17120000000E+03  0.17120000000E+03 0.  0.
         13    1    1    2    0    0 -0.40038744405E+02  0.33950485572E+02  0.86174656384E+02  0.10090500033E+03  0.10566000000E+00 0. -1.
        994    1    1    2    0    0 -0.77831057833E+01  0.44312450661E+02  0.25421504699E+02  0.17882914449E+03  0.17120000000E+03 0.  0.
        998    1    1    2    0    0  0.47821850188E+02 -0.78262936232E+02  0.13884038352E+04  0.13914658552E+04  0.10000000000E+02 0. -1.
</event>
<event>
 5    1  0.1666761E-008  0.3856545E+03  0.7957747E-01  0.3426901E+00
         13   -1    0    0    0    0  0.00000000000E+00  0.00000000000E+00  0.14999999963E+04  0.15000000000E+04  0.10566000000E+00 0.  1.
        994   -1    0    0    0    0 -0.00000000000E+00 -0.00000000000E+00  0.11368683772E-12  0.17120000000E+03  0.17120000000E+03 0.  0.
         13    1    1    2    0    0  0.11699006258E+02 -0.23669982484E+01  0.56580517585E+02  0.57825907363E+02  0.10566000000E+00 0.  1.
        994    1    1    2    0    0 -0.37306788223E+01 -0.74059862029E+00  0.13530106899E+01  0.17124759002E+03  0.17120000000E+03 0.  0.
        998    1    1    2    0    0 -0.79683274361E+01  0.31075968687E+01  0.14420664680E+04  0.14421265026E+04  0.10000000000E+02 0.  1.
</event>
<event>
 5    1  0.1666761E-008  0.3787217E+03  0.7957747E-01  0.3456743E+00
         13   -1    0    0    0    0  0.00000000000E+00  0.00000000000E+00  0.14999999963E+04  0.15000000000E+04  0.10566000000E+00 0.  1.
        994   -1    0    0    0    0 -0.00000000000E+00 -0.00000000000E+00  0.11368683772E-12  0.17120000000E+03  0.17120000000E+03 0.  0.
         13    1    1    2    0    0  0.28421176543E+02 -0.22817716036E+02  0.13502624306E+03  0.13985888931E+03  0.10566000000E+00 0.  1.
        994    1    1    2    0    0 -0.21307537644E+02  0.12747958560E+02  0.68522929595E+01  0.17312687696E+03  0.17120000000E+03 0.  0.
        998    1    1    2    0    0 -0.71136388989E+01  0.10069757476E+02  0.13581214603E+04  0.13582142337E+04  0.10000000000E+02 0.  1.
</event>
<event>
 5    1  0.1666761E-008  0.3755230E+03  0.7957747E-01  0.3470887E+00
         13   -1    0    0    0    0  0.00000000000E+00  0.00000000000E+00  0.14999999963E+04  0.15000000000E+04  0.10566000000E+00 0. -1.
        994   -1    0    0    0    0 -0.00000000000E+00 -0.00000000000E+00  0.11368683772E-12  0.17120000000E+03  0.17120000000E+03 0.  0.
         13    1    1    2    0    0  0.38739284875E+02 -0.55178952103E+02  0.25707526942E+03  0.26576898664E+03  0.10566000000E+00 0. -1.
        994    1    1    2    0    0 -0.46626141236E+02  0.71627052707E+02  0.31613826955E+02  0.19394150092E+03  0.17120000000E+03 0.  0.
        998    1    1    2    0    0  0.78868563612E+01 -0.16448100605E+02  0.12113108999E+04  0.12114895124E+04  0.10000000000E+02 0. -1.
</event>
<event>
 5    1  0.1666761E-008  0.3822398E+03  0.7957747E-01  0.3441463E+00
         13   -1    0    0    0    0  0.00000000000E+00  0.00000000000E+00  0.14999999963E+04  0.15000000000E+04  0.10566000000E+00 0. -1.
        994   -1    0    0    0    0 -0.00000000000E+00 -0.00000000000E+00  0.11368683772E-12  0.17120000000E+03  0.17120000000E+03 0.  0.
         13    1    1    2    0    0  0.26380200760E+02 -0.20450234716E+01  0.12230817098E+03  0.12513751222E+03  0.10566000000E+00 0. -1.
        994    1    1    2    0    0 -0.77917867086E+01 -0.50210688251E+01  0.32919314812E+01  0.17148236027E+03  0.17120000000E+03 0.  0.
        998    1    1    2    0    0 -0.18588414052E+02  0.70660922967E+01  0.13743998938E+04  0.13745801275E+04  0.10000000000E+02 0. -1.
</event>
<event>
 5    1  0.1666761E-008  0.3838751E+03  0.7957747E-01  0.3434457E+00
         13   -1    0    0    0    0  0.00000000000E+00  0.00000000000E+00  0.14999999963E+04  0.15000000000E+04  0.10566000000E+00 0. -1.
        994   -1    0    0    0    0 -0.00000000000E+00 -0.00000000000E+00  0.11368683772E-12  0.17120000000E+03  0.17120000000E+03 0.  0.
         13    1    1    2    0    0 -0.11779804708E+02  0.52712365595E+01  0.36632465869E+02  0.38839393063E+02  0.10566000000E+00 0. -1.
        994    1    1    2    0    0  0.97089725297E+01 -0.12524977000E+02  0.30190516663E+01  0.17195840738E+03  0.17120000000E+03 0.  0.
        998    1    1    2    0    0  0.20708321787E+01  0.72537404409E+01  0.14603484787E+04  0.14604021996E+04  0.10000000000E+02 0. -1.
</event>
<event>
 5    1  0.1666761E-008  0.3831721E+03  0.7957747E-01  0.3437462E+00
         13   -1    0    0    0    0  0.00000000000E+00  0.00000000000E+00  0.14999999963E+04  0.15000000000E+04  0.10566000000E+00 0. -1.
        994   -1    0    0    0    0 -0.00000000000E+00 -0.00000000000E+00  0.11368683772E-12  0.17120000000E+03  0.17120000000E+03 0.  0.
         13    1    1    2    0    0  0.90408570234E+01  0.10500712915E+02  0.37675584838E+02  0.40143030832E+02  0.10566000000E+00 0. -1.
        994    1    1    2    0    0 -0.46768651519E+01 -0.23700904516E+01  0.26313419912E+01  0.17130047973E+03  0.17120000000E+03 0.  0.
        998    1    1    2    0    0 -0.43639918715E+01 -0.81306224637E+01  0.14596930694E+04  0.14597564894E+04  0.10000000000E+02 0. -1.
</event>
<event>
 5    1  0.1666761E-008  0.3854962E+03  0.7957747E-01  0.3427571E+00
         13   -1    0    0    0    0  0.00000000000E+00  0.00000000000E+00  0.14999999963E+04  0.15000000000E+04  0.10566000000E+00 0. -1.
        994   -1    0    0    0    0 -0.00000000000E+00 -0.00000000000E+00  0.11368683772E-12  0.17120000000E+03  0.17120000000E+03 0.  0.
         13    1    1    2    0    0 -0.56095109069E+01 -0.13848440917E+02  0.87394103815E+02  0.88662204316E+02  0.10566000000E+00 0. -1.
        994    1    1    2    0    0 -0.52220047042E+01  0.26068625796E+01  0.14958646074E+01  0.17130599136E+03  0.17120000000E+03 0.  0.
        998    1    1    2    0    0  0.10831515611E+02  0.11241578338E+02  0.14111100279E+04  0.14112318043E+04  0.10000000000E+02 0. -1.
</event>
<event>
 5    1  0.1666761E-008  0.3789410E+03  0.7957747E-01  0.3455782E+00
         13   -1    0    0    0    0  0.00000000000E+00  0.00000000000E+00  0.14999999963E+04  0.15000000000E+04  0.10566000000E+00 0.  1.
        994   -1    0    0    0    0 -0.00000000000E+00 -0.00000000000E+00  0.11368683772E-12  0.17120000000E+03  0.17120000000E+03 0.  0.
         13    1    1    2    0    0  0.43014425654E+02  0.13036608372E+02  0.19122989894E+03  0.19644103284E+03  0.10566000000E+00 0.  1.
        994    1    1    2    0    0 -0.43937447686E+02 -0.44794193291E+01  0.11240126068E+02  0.17716191730E+03  0.17120000000E+03 0.  0.
        998    1    1    2    0    0  0.92302203165E+00 -0.85571890430E+01  0.12975299713E+04  0.12975970499E+04  0.10000000000E+02 0.  1.
</event>
<event>
 5    1  0.1666761E-008  0.3838071E+03  0.7957747E-01  0.3434747E+00
         13   -1    0    0    0    0  0.00000000000E+00  0.00000000000E+00  0.14999999963E+04  0.15000000000E+04  0.10566000000E+00 0.  1.
        994   -1    0    0    0    0 -0.00000000000E+00 -0.00000000000E+00  0.11368683772E-12  0.17120000000E+03  0.17120000000E+03 0.  0.
         13    1    1    2    0    0 -0.15159922839E+02 -0.56681139210E+01  0.63894275315E+02  0.65912368779E+02  0.10566000000E+00 0.  1.
        994    1    1    2    0    0 -0.48665845155E+01 -0.32886231503E+01  0.23374603225E+01  0.17131667288E+03  0.17120000000E+03 0.  0.
        998    1    1    2    0    0  0.20026507354E+02  0.89567370713E+01  0.14337682606E+04  0.14339709583E+04  0.10000000000E+02 0.  1.
</event>
<event>
 5    1  0.1666761E-008  0.3844280E+03  0.7957747E-01  0.3432102E+00
         13   -1    0    0    0    0  0.00000000000E+00  0.00000000000E+00  0.14999999963E+04  0.15000000000E+04  0.10566000000E+00 0. -1.
        994   -1    0    0    0    0 -0.00000000000E+00 -0.00000000000E+00  0.11368683772E-12  0.17120000000E+03  0.17120000000E+03 0.  0.
         13    1    1    2    0    0 -0.12090921901E+02  0.35465156633E+01  0.40940084235E+02  0.42835380551E+02  0.10566000000E+00 0. -1.
        994    1    1    2    0    0  0.10492904779E+02  0.24680059955E+01  0.22972998369E+01  0.17155439281E+03  0.17120000000E+03 0.  0.
        998    1    1    2    0    0  0.15980171217E+01 -0.60145216588E+01  0.14567626122E+04  0.14568102266E+04  0.10000000000E+02 0. -1.
</event>
<event>
 5    1  0.1666761E-008  0.3766182E+03  0.7957747E-01  0.3466017E+00
         13   -1    0    0    0    0  0.00000000000E+00  0.00000000000E+00  0.14999999963E+04  0.15000000000E+04  0.10566000000E+00 0. -1.
        994   -1    0    0    0    0 -0.00000000000E+00 -0.00000000000E+00  0.11368683772E-12  0.17120000000E+03  0.17120000000E+03 0.  0.
         13    1    1    2    0    0 -0.23290655396E+01  0.90085273260E+02  0.45931750673E+03  0.46807410114E+03  0.10566000000E+00 0. -1.
        994    1    1    2    0    0  0.44597748277E+02 -0.95818381642E+02  0.44598799397E+02  0.20607914577E+03  0.17120000000E+03 0.  0.
        998    1    1    2    0    0 -0.42268682738E+02  0.57331083821E+01  0.99608369015E+03  0.99704675309E+03  0.10000000000E+02 0. -1.
</event>
<event>
 5    1  0.1666761E-008  0.3810909E+03  0.7957747E-01  0.3446422E+00
         13   -1    0    0    0    0  0.00000000000E+00  0.00000000000E+00  0.14999999963E+04  0.15000000000E+04  0.10566000000E+00 0. -1.
        994   -1    0    0    0    0 -0.00000000000E+00 -0.00000000000E+00  0.11368683772E-12  0.17120000000E+03  0.17120000000E+03 0.  0.
         13    1    1    2    0    0  0.30463690263E+02 -0.40647533804E+02  0.30547164886E+03  0.30966626850E+03  0.10566000000E+00 0. -1.
        994    1    1    2    0    0 -0.23891584897E+02  0.38761318017E+02  0.10520283793E+02  0.17746369762E+03  0.17120000000E+03 0.  0.
        998    1    1    2    0    0 -0.65721053664E+01  0.18862157870E+01  0.11840080636E+04  0.11840700339E+04  0.10000000000E+02 0. -1.
</event>
<event>
 5    1  0.1666761E-008  0.3812870E+03  0.7957747E-01  0.3445574E+00
         13   -1    0    0    0    0  0.00000000000E+00  0.00000000000E+00  0.14999999963E+04  0.15000000000E+04  0.10566000000E+00 0. -1.
        994   -1    0    0    0    0 -0.00000000000E+00 -0.00000000000E+00  0.11368683772E-12  0.17120000000E+03  0.17120000000E+03 0.  0.
         13    1    1    2    0    0 -0.52511935981E+02 -0.14989505866E+02  0.79134611363E+02  0.96148253163E+02  0.10566000000E+00 0. -1.
        994    1    1    2    0    0  0.48313027693E+02  0.64449448938E+01  0.25735973821E+02  0.17985401388E+03  0.17120000000E+03 0.  0.
        998    1    1    2    0    0  0.41989082884E+01  0.85445609723E+01  0.13951294111E+04  0.13951977330E+04  0.10000000000E+02 0. -1.
</event>
<event>
 5    1  0.1666761E-008  0.3795726E+03  0.7957747E-01  0.3453021E+00
         13   -1    0    0    0    0  0.00000000000E+00  0.00000000000E+00  0.14999999963E+04  0.15000000000E+04  0.10566000000E+00 0.  1.
        994   -1    0    0    0    0 -0.00000000000E+00 -0.00000000000E+00  0.11368683772E-12  0.17120000000E+03  0.17120000000E+03 0.  0.
         13    1    1    2    0    0 -0.82143145187E+01  0.11969885779E+02  0.21895972355E+02  0.26271617727E+02  0.10566000000E+00 0.  1.
        994    1    1    2    0    0  0.13200147383E+02 -0.13825973337E+02  0.55732089157E+01  0.17235400224E+03  0.17120000000E+03 0.  0.
        998    1    1    2    0    0 -0.49858328641E+01  0.18560875586E+01  0.14725308150E+04  0.14725743800E+04  0.10000000000E+02 0.  1.
</event>
<event>
 5    1  0.1666761E-008  0.3721835E+03  0.7957747E-01  0.3485916E+00
         13   -1    0    0    0    0  0.00000000000E+00  0.00000000000E+00  0.14999999963E+04  0.15000000000E+04  0.10566000000E+00 0.  1.
        994   -1    0    0    0    0 -0.00000000000E+00 -0.00000000000E+00  0.11368683772E-12  0.17120000000E+03  0.17120000000E+03 0.  0.
         13    1    1    2    0    0  0.55433626407E+02 -0.42482589813E+01  0.18965958024E+03  0.19764033541E+03  0.10566000000E+00 0.  1.
        994    1    1    2    0    0 -0.30859224024E+02 -0.46984530488E+01  0.11483404225E+02  0.17440090522E+03  0.17120000000E+03 0.  0.
        998    1    1    2    0    0 -0.24574402383E+02  0.89467120301E+01  0.12988570118E+04  0.12991587594E+04  0.10000000000E+02 0.  1.
</event>
<event>
 5    1  0.1666761E-008  0.3834358E+03  0.7957747E-01  0.3436333E+00
         13   -1    0    0    0    0  0.00000000000E+00  0.00000000000E+00  0.14999999963E+04  0.15000000000E+04  0.10566000000E+00 0.  1.
        994   -1    0    0    0    0 -0.00000000000E+00 -0.00000000000E+00  0.11368683772E-12  0.17120000000E+03  0.17120000000E+03 0.  0.
         13    1    1    2    0    0  0.60248638195E+01  0.12334329314E+02  0.38879292021E+02  0.41231604089E+02  0.10566000000E+00 0.  1.
        994    1    1    2    0    0 -0.47245965169E+01 -0.47378090572E+01  0.25567246387E+01  0.17134977528E+03  0.17120000000E+03 0.  0.
        998    1    1    2    0    0 -0.13002673026E+01 -0.75965202571E+01  0.14585639796E+04  0.14586186206E+04  0.10000000000E+02 0.  1.
</event>
<event>
 5    1  0.1666761E-008  0.3688681E+03  0.7957747E-01  0.3501109E+00
         13   -1    0    0    0    0  0.00000000000E+00  0.00000000000E+00  0.14999999963E+04  0.15000000000E+04  0.10566000000E+00 0.  1.
        994   -1    0    0    0    0 -0.00000000000E+00 -0.00000000000E+00  0.11368683772E-12  0.17120000000E+03  0.17120000000E+03 0.  0.
         13    1    1    2    0    0  0.82368831032E+01  0.30488382054E+02  0.44361602822E+02  0.54455033307E+02  0.10566000000E+00 0.  1.
        994    1    1    2    0    0 -0.60996035449E+01 -0.19170375296E+02  0.11752057338E+02  0.17277806372E+03  0.17120000000E+03 0.  0.
        998    1    1    2    0    0 -0.21372795583E+01 -0.11318006758E+02  0.14438863361E+04  0.14439669030E+04  0.10000000000E+02 0.  1.
</event>
<event>
 5    1  0.1666761E-008  0.4008777E+03  0.7957747E-01  0.3365003E+00
         13   -1    0    0    0    0  0.00000000000E+00  0.00000000000E+00  0.14999999963E+04  0.15000000000E+04  0.10566000000E+00 0.  1.
        994   -1    0    0    0    0 -0.00000000000E+00 -0.00000000000E+00  0.11368683772E-12  0.17120000000E+03  0.17120000000E+03 0.  0.
         13    1    1    2    0    0  0.10458925835E+03  0.58587933872E+02  0.22321490756E+03  0.25337001614E+03  0.10566000000E+00 0.  1.
        994    1    1    2    0    0 -0.11559703279E+03 -0.19804312005E+01  0.83033652763E+02  0.22264461275E+03  0.17120000000E+03 0.  0.
        998    1    1    2    0    0  0.11007774435E+02 -0.56607502672E+02  0.11937514360E+04  0.11951853711E+04  0.10000000000E+02 0.  1.
</event>
<event>
 5    1  0.1666761E-008  0.3849555E+03  0.7957747E-01  0.3429861E+00
         13   -1    0    0    0    0  0.00000000000E+00  0.00000000000E+00  0.14999999963E+04  0.15000000000E+04  0.10566000000E+00 0.  1.
        994   -1    0    0    0    0 -0.00000000000E+00 -0.00000000000E+00  0.11368683772E-12  0.17120000000E+03  0.17120000000E+03 0.  0.
         13    1    1    2    0    0 -0.96967275806E+01  0.64793613401E+01  0.40927504159E+02  0.42556790409E+02  0.10566000000E+00 0.  1.
        994    1    1    2    0    0  0.99754783602E+01 -0.47748047804E-01  0.19796294659E+01  0.17150181160E+03  0.17120000000E+03 0.  0.
        998    1    1    2    0    0 -0.27875077963E+00 -0.64316132923E+01  0.14570928627E+04  0.14571413980E+04  0.10000000000E+02 0.  1.
</event>
<event>
 5    1  0.1666761E-008  0.3807792E+03  0.7957747E-01  0.3447773E+00
         13   -1    0    0    0    0  0.00000000000E+00  0.00000000000E+00  0.14999999963E+04  0.15000000000E+04  0.10566000000E+00 0.  1.
        994   -1    0    0    0    0 -0.00000000000E+00 -0.00000000000E+00  0.11368683772E-12  0.17120000000E+03  0.17120000000E+03 0.  0.
         13    1    1    2    0    0 -0.16838976591E+02  0.24823208410E+02  0.11340106946E+03  0.11730113609E+03  0.10566000000E+00 0.  1.
        994    1    1    2    0    0  0.13850774891E+02 -0.22685022175E+02  0.60994637521E+01  0.17335829272E+03  0.17120000000E+03 0.  0.
        998    1    1    2    0    0  0.29882016995E+01 -0.21381862351E+01  0.13804994631E+04  0.13805405712E+04  0.10000000000E+02 0.  1.
</event>
<event>
 5    1  0.1666761E-008  0.3829052E+03  0.7957747E-01  0.3438605E+00
         13   -1    0    0    0    0  0.00000000000E+00  0.00000000000E+00  0.14999999963E+04  0.15000000000E+04  0.10566000000E+00 0. -1.
        994   -1    0    0    0    0 -0.00000000000E+00 -0.00000000000E+00  0.11368683772E-12  0.17120000000E+03  0.17120000000E+03 0.  0.
         13    1    1    2    0    0 -0.42653360289E+01 -0.12152707396E+02  0.30525460429E+02  0.33131499919E+02  0.10566000000E+00 0. -1.
        994    1    1    2    0    0  0.26822889744E+01  0.43479751825E+01  0.27601920349E+01  0.17129844781E+03  0.17120000000E+03 0.  0.
        998    1    1    2    0    0  0.15830470545E+01  0.78047322132E+01  0.14667143438E+04  0.14667700523E+04  0.10000000000E+02 0. -1.
</event>
<event>
 5    1  0.1666761E-008  0.3756907E+03  0.7957747E-01  0.3470139E+00
         13   -1    0    0    0    0  0.00000000000E+00  0.00000000000E+00  0.14999999963E+04  0.15000000000E+04  0.10566000000E+00 0.  1.
        994   -1    0    0    0    0 -0.00000000000E+00 -0.00000000000E+00  0.11368683772E-12  0.17120000000E+03  0.17120000000E+03 0.  0.
         13    1    1    2    0    0  0.89264828703E+02  0.58867717497E+02  0.53225592146E+03  0.54289040781E+03  0.10566000000E+00 0.  1.
        994    1    1    2    0    0 -0.92897757538E+02 -0.62766742156E+02  0.50220321434E+02  0.21071587022E+03  0.17120000000E+03 0.  0.
        998    1    1    2    0    0  0.36329288345E+01  0.38990246589E+01  0.91752375339E+03  0.91759372197E+03  0.10000000000E+02 0. -1.
</event>
<event>
 5    1  0.1666761E-008  0.3752830E+03  0.7957747E-01  0.3471958E+00
         13   -1    0    0    0    0  0.00000000000E+00  0.00000000000E+00  0.14999999963E+04  0.15000000000E+04  0.10566000000E+00 0.  1.
        994   -1    0    0    0    0 -0.00000000000E+00 -0.00000000000E+00  0.11368683772E-12  0.17120000000E+03  0.17120000000E+03 0.  0.
         13    1    1    2    0    0  0.30067211700E+02  0.64011342723E+02  0.31239280711E+03  0.32029793367E+03  0.10566000000E+00 0.  1.
        994    1    1    2    0    0 -0.28977386491E+02 -0.59705638182E+02  0.21640795993E+02  0.18488433197E+03  0.17120000000E+03 0.  0.
        998    1    1    2    0    0 -0.10898252082E+01 -0.43057045415E+01  0.11659663932E+04  0.11660177344E+04  0.10000000000E+02 0.  0.
</event>
<event>
 5    1  0.1666761E-008  0.3692995E+03  0.7957747E-01  0.3499116E+00
         13   -1    0    0    0    0  0.00000000000E+00  0.00000000000E+00  0.14999999963E+04  0.15000000000E+04  0.10566000000E+00 0.  1.
        994   -1    0    0    0    0 -0.00000000000E+00 -0.00000000000E+00  0.11368683772E-12  0.17120000000E+03  0.17120000000E+03 0.  0.
         13    1    1    2    0    0  0.30201077315E+02 -0.21929859675E+02  0.66301678829E+02  0.76085133869E+02  0.10566000000E+00 0.  1.
        994    1    1    2    0    0 -0.11071018251E+01  0.26862490750E+01  0.10598364255E+02  0.17155234459E+03  0.17120000000E+03 0.  0.
        998    1    1    2    0    0 -0.29093975490E+02  0.19243610600E+02  0.14230999532E+04  0.14235625215E+04  0.10000000000E+02 0.  1.
</event>
<event>
 5    1  0.1666761E-008  0.3836757E+03  0.7957747E-01  0.3435308E+00
         13   -1    0    0    0    0  0.00000000000E+00  0.00000000000E+00  0.14999999963E+04  0.15000000000E+04  0.10566000000E+00 0.  1.
        994   -1    0    0    0    0 -0.00000000000E+00 -0.00000000000E+00  0.11368683772E-12  0.17120000000E+03  0.17120000000E+03 0.  0.
         13    1    1    2    0    0  0.12042651199E+02 -0.98236037565E+01  0.52091778383E+02  0.54360768739E+02  0.10566000000E+00 0.  1.
        994    1    1    2    0    0 -0.10099665502E+02  0.44323439096E+01  0.26909634146E+01  0.17157601872E+03  0.17120000000E+03 0.  0.
        998    1    1    2    0    0 -0.19429856972E+01  0.53912598469E+01  0.14452172545E+04  0.14452632125E+04  0.10000000000E+02 0.  1.
</event>
<event>
 5    1  0.1666761E-008  0.2786757E+03  0.7957747E-01  0.4061092E+00
         13   -1    0    0    0    0  0.00000000000E+00  0.00000000000E+00  0.14999999963E+04  0.15000000000E+04  0.10566000000E+00 0.  1.
        994   -1    0    0    0    0 -0.00000000000E+00 -0.00000000000E+00  0.11368683772E-12  0.17120000000E+03  0.17120000000E+03 0.  0.
         13    1    1    2    0    0  0.12031722908E+03  0.10918854541E+03  0.81762770987E+03  0.83361469348E+03  0.10566000000E+00 0.  1.
        994    1    1    2    0    0  0.30468033827E+02 -0.23884716817E+02  0.50973696187E+02  0.18277455645E+03  0.17120000000E+03 0.  0.
        998    1    1    2    0    0 -0.15078526291E+03 -0.85303828589E+02  0.63139859022E+03  0.65481075007E+03  0.10000000000E+02 0.  1.
</event>
<event>
 5    1  0.1666761E-008  0.3821905E+03  0.7957747E-01  0.3441676E+00
         13   -1    0    0    0    0  0.00000000000E+00  0.00000000000E+00  0.14999999963E+04  0.15000000000E+04  0.10566000000E+00 0. -1.
        994   -1    0    0    0    0 -0.00000000000E+00 -0.00000000000E+00  0.11368683772E-12  0.17120000000E+03  0.17120000000E+03 0.  0.
         13    1    1    2    0    0  0.11287520693E+02  0.23001267187E+01  0.20612497053E+02  0.23613235804E+02  0.10566000000E+00 0. -1.
        994    1    1    2    0    0 -0.93896848317E+01 -0.19389635173E+01  0.33365979559E+01  0.17150072492E+03  0.17120000000E+03 0.  0.
        998    1    1    2    0    0 -0.18978358613E+01 -0.36116320136E+00  0.14760509013E+04  0.14760860393E+04  0.10000000000E+02 0. -1.
</event>
<event>
 5    1  0.1666761E-008  0.3847811E+03  0.7957747E-01  0.3430601E+00
         13   -1    0    0    0    0  0.00000000000E+00  0.00000000000E+00  0.14999999963E+04  0.15000000000E+04  0.10566000000E+00 0. -1.
        994   -1    0    0    0    0 -0.00000000000E+00 -0.00000000000E+00  0.11368683772E-12  0.17120000000E+03  0.17120000000E+03 0.  0.
         13    1    1    2    0    0 -0.55378216728E+01  0.20655965558E+02  0.11387703437E+03  0.11586771122E+03  0.10566000000E+00 0. -1.
        994    1    1    2    0    0  0.93823448975E+01 -0.29999934936E+02  0.49972202382E+01  0.17413338767E+03  0.17120000000E+03 0.  0.
        998    1    1    2    0    0 -0.38445232247E+01  0.93439693780E+01  0.13811257417E+04  0.13811989011E+04  0.10000000000E+02 0. -1.
</event>
<event>
 5    1  0.1666761E-008  0.3707928E+03  0.7957747E-01  0.3492255E+00
         13   -1    0    0    0    0  0.00000000000E+00  0.00000000000E+00  0.14999999963E+04  0.15000000000E+04  0.10566000000E+00 0. -1.
        994   -1    0    0    0    0 -0.00000000000E+00 -0.00000000000E+00  0.11368683772E-12  0.17120000000E+03  0.17120000000E+03 0.  0.
         13    1    1    2    0    0  0.11271905474E+01  0.26497256438E+02  0.34733655076E+02  0.43701408629E+02  0.10566000000E+00 0. -1.
        994    1    1    2    0    0  0.33759432565E+01 -0.33401785325E+02  0.12751602927E+02  0.17492604047E+03  0.17120000000E+03 0.  0.
        998    1    1    2    0    0 -0.45031338038E+01  0.69045288873E+01  0.14525147383E+04  0.14525725509E+04  0.10000000000E+02 0. -1.
</event>
<event>
 5    1  0.1666761E-008  0.3721108E+03  0.7957747E-01  0.3486246E+00
         13   -1    0    0    0    0  0.00000000000E+00  0.00000000000E+00  0.14999999963E+04  0.15000000000E+04  0.10566000000E+00 0. -1.
        994   -1    0    0    0    0 -0.00000000000E+00 -0.00000000000E+00  0.11368683772E-12  0.17120000000E+03  0.17120000000E+03 0.  0.
         13    1    1    2    0    0 -0.21067048875E+02 -0.82768280457E+02  0.34277141887E+03  0.35325156130E+03  0.10566000000E+00 0. -1.
        994    1    1    2    0    0  0.35602331730E+02  0.78387417670E+02  0.34059148501E+02  0.19463190609E+03  0.17120000000E+03 0.  0.
        998    1    1    2    0    0 -0.14535282855E+02  0.43808627872E+01  0.11231694289E+04  0.11233165326E+04  0.10000000000E+02 0. -1.
</event>
<event>
 5    1  0.1666761E-008  0.3838277E+03  0.7957747E-01  0.3434659E+00
         13   -1    0    0    0    0  0.00000000000E+00  0.00000000000E+00  0.14999999963E+04  0.15000000000E+04  0.10566000000E+00 0.  1.
        994   -1    0    0    0    0 -0.00000000000E+00 -0.00000000000E+00  0.11368683772E-12  0.17120000000E+03  0.17120000000E+03 0.  0.
         13    1    1    2    0    0  0.87394972145E+01  0.96068284493E+01  0.36219425294E+02  0.38477628528E+02  0.10566000000E+00 0.  1.
        994    1    1    2    0    0 -0.95366556843E+01 -0.14493782181E+02  0.32076127349E+01  0.17210678750E+03  0.17120000000E+03 0.  0.
        998    1    1    2    0    0  0.79715846980E+00  0.48869537322E+01  0.14605729582E+04  0.14606155840E+04  0.10000000000E+02 0.  1.
</event>
<event>
 5    1  0.1666761E-008  0.3760425E+03  0.7957747E-01  0.3468573E+00
         13   -1    0    0    0    0  0.00000000000E+00  0.00000000000E+00  0.14999999963E+04  0.15000000000E+04  0.10566000000E+00 0.  1.
        994   -1    0    0    0    0 -0.00000000000E+00 -0.00000000000E+00  0.11368683772E-12  0.17120000000E+03  0.17120000000E+03 0.  0.
         13    1    1    2    0    0 -0.11924002791E+02  0.16989429698E+02  0.32929784670E+02  0.38925627117E+02  0.10566000000E+00 0.  1.
        994    1    1    2    0    0 -0.40147130108E+01 -0.15049004235E+02  0.69665021992E+01  0.17204814036E+03  0.17120000000E+03 0.  0.
        998    1    1    2    0    0  0.15938715801E+02 -0.19404254624E+01  0.14601037094E+04  0.14602262325E+04  0.10000000000E+02 0.  1.
</event>
<event>
 5    1  0.1666761E-008  0.3845031E+03  0.7957747E-01  0.3431782E+00
         13   -1    0    0    0    0  0.00000000000E+00  0.00000000000E+00  0.14999999963E+04  0.15000000000E+04  0.10566000000E+00 0. -1.
        994   -1    0    0    0    0 -0.00000000000E+00 -0.00000000000E+00  0.11368683772E-12  0.17120000000E+03  0.17120000000E+03 0.  0.
         13    1    1    2    0    0 -0.14928677059E+01 -0.16771456014E+02  0.72551593830E+02  0.74479898779E+02  0.10566000000E+00 0. -1.
        994    1    1    2    0    0 -0.27788495440E+01  0.17256611841E+02  0.28840058407E+01  0.17211411954E+03  0.17120000000E+03 0.  0.
        998    1    1    2    0    0  0.42717172499E+01 -0.48515582658E+00  0.14245643966E+04  0.14246059817E+04  0.10000000000E+02 0. -1.
</event>
<event>
 5    1  0.1666761E-008  0.3829760E+03  0.7957747E-01  0.3438302E+00
         13   -1    0    0    0    0  0.00000000000E+00  0.00000000000E+00  0.14999999963E+04  0.15000000000E+04  0.10566000000E+00 0. -1.
        994   -1    0    0    0    0 -0.00000000000E+00 -0.00000000000E+00  0.11368683772E-12  0.17120000000E+03  0.17120000000E+03 0.  0.
         13    1    1    2    0    0 -0.28042695755E+02  0.18224204216E+01  0.14376287043E+03  0.14648374681E+03  0.10566000000E+00 0. -1.
        994    1    1    2    0    0  0.20843744356E+02 -0.13593306041E+02  0.46909541967E+01  0.17306266119E+03  0.17120000000E+03 0.  0.
        998    1    1    2    0    0  0.71989513995E+01  0.11770885619E+02  0.13515461717E+04  0.13516535920E+04  0.10000000000E+02 0. -1.
</event>
<event>
 5    1  0.1666761E-008  0.3833638E+03  0.7957747E-01  0.3436641E+00
         13   -1    0    0    0    0  0.00000000000E+00  0.00000000000E+00  0.14999999963E+04  0.15000000000E+04  0.10566000000E+00 0. -1.
        994   -1    0    0    0    0 -0.00000000000E+00 -0.00000000000E+00  0.11368683772E-12  0.17120000000E+03  0.17120000000E+03 0.  0.
         13    1    1    2    0    0  0.15252569992E+02 -0.18301243470E+02  0.11303241435E+03  0.11551586151E+03  0.10566000000E+00 0. -1.
        994    1    1    2    0    0 -0.52681045967E+01  0.18743932052E+02  0.36989850304E+01  0.17234329231E+03  0.17120000000E+03 0.  0.
        998    1    1    2    0    0 -0.99844653956E+01 -0.44268858257E+00  0.13832685969E+04  0.13833408462E+04  0.10000000000E+02 0. -1.
</event>
<event>
 5    1  0.1666761E-008  0.3851832E+03  0.7957747E-01  0.3428896E+00
         13   -1    0    0    0    0  0.00000000000E+00  0.00000000000E+00  0.14999999963E+04  0.15000000000E+04  0.10566000000E+00 0. -1.
        994   -1    0    0    0    0 -0.00000000000E+00 -0.00000000000E+00  0.11368683772E-12  0.17120000000E+03  0.17120000000E+03 0.  0.
         13    1    1    2    0    0  0.96624382939E+01 -0.34885361544E+01  0.33293616857E+02  0.34842627423E+02  0.10566000000E+00 0. -1.
        994    1    1    2    0    0 -0.11109210980E+02  0.60115393446E+01  0.20637894733E+01  0.17167775744E+03  0.17120000000E+03 0.  0.
        998    1    1    2    0    0  0.14467726862E+01 -0.25230031902E+01  0.14646425899E+04  0.14646796151E+04  0.10000000000E+02 0. -1.
</event>
<event>
 5    1  0.1666761E-008  0.3842551E+03  0.7957747E-01  0.3432837E+00
         13   -1    0    0    0    0  0.00000000000E+00  0.00000000000E+00  0.14999999963E+04  0.15000000000E+04  0.10566000000E+00 0. -1.
        994   -1    0    0    0    0 -0.00000000000E+00 -0.00000000000E+00  0.11368683772E-12  0.17120000000E+03  0.17120000000E+03 0.  0.
         13    1    1    2    0    0  0.69474573532E+01 -0.11572149273E+02  0.46529111332E+02  0.48447406203E+02  0.10566000000E+00 0. -1.
        994    1    1    2    0    0 -0.22634461899E+01  0.20066987032E+01  0.20305764978E+01  0.17123876100E+03  0.17120000000E+03 0.  0.
        998    1    1    2    0    0 -0.46840111632E+01  0.95654505701E+01  0.14514403084E+04  0.14515138328E+04  0.10000000000E+02 0. -1.
</event>
<event>
 5    1  0.1666761E-008  0.3826210E+03  0.7957747E-01  0.3439825E+00
         13   -1    0    0    0    0  0.00000000000E+00  0.00000000000E+00  0.14999999963E+04  0.15000000000E+04  0.10566000000E+00 0. -1.
        994   -1    0    0    0    0 -0.00000000000E+00 -0.00000000000E+00  0.11368683772E-12  0.17120000000E+03  0.17120000000E+03 0.  0.
         13    1    1    2    0    0 -0.20483271244E+02 -0.19247937381E+02  0.13593448113E+03  0.13881009264E+03  0.10566000000E+00 0. -1.
        994    1    1    2    0    0  0.16994903818E+02  0.11730331000E+02  0.42304235191E+01  0.17249279377E+03  0.17120000000E+03 0.  0.
        998    1    1    2    0    0  0.34883674263E+01  0.75176063815E+01  0.13598350916E+04  0.13598971136E+04  0.10000000000E+02 0. -1.
</event>
<event>
 5    1  0.1666761E-008  0.3844159E+03  0.7957747E-01  0.3432153E+00
         13   -1    0    0    0    0  0.00000000000E+00  0.00000000000E+00  0.14999999963E+04  0.15000000000E+04  0.10566000000E+00 0. -1.
        994   -1    0    0    0    0 -0.00000000000E+00 -0.00000000000E+00  0.11368683772E-12  0.17120000000E+03  0.17120000000E+03 0.  0.
         13    1    1    2    0    0  0.50630126638E+01 -0.90062912775E+01  0.27219731127E+02  0.29114812492E+02  0.10566000000E+00 0. -1.
        994    1    1    2    0    0 -0.43511110461E+01  0.66791330707E+01  0.21298029858E+01  0.17139871367E+03  0.17120000000E+03 0.  0.
        998    1    1    2    0    0 -0.71190161776E+00  0.23271582068E+01  0.14706504622E+04  0.14706864738E+04  0.10000000000E+02 0. -1.
</event>
<event>
 5    1  0.1666761E-008  0.3844183E+03  0.7957747E-01  0.3432143E+00
         13   -1    0    0    0    0  0.00000000000E+00  0.00000000000E+00  0.14999999963E+04  0.15000000000E+04  0.10566000000E+00 0.  1.
        994   -1    0    0    0    0 -0.00000000000E+00 -0.00000000000E+00  0.11368683772E-12  0.17120000000E+03  0.17120000000E+03 0.  0.
         13    1    1    2    0    0 -0.70622601978E+00  0.15963679238E+02  0.67402403849E+02  0.69270722666E+02  0.10566000000E+00 0.  1.
        994    1    1    2    0    0  0.35604963353E+01 -0.74462130909E+01  0.21437214080E+01  0.17141224800E+03  0.17120000000E+03 0.  0.
        998    1    1    2    0    0 -0.28542703155E+01 -0.85174661473E+01  0.14304538710E+04  0.14305170293E+04  0.10000000000E+02 0.  1.
</event>
<event>
 5    1  0.1666761E-008  0.3850025E+03  0.7957747E-01  0.3429662E+00
         13   -1    0    0    0    0  0.00000000000E+00  0.00000000000E+00  0.14999999963E+04  0.15000000000E+04  0.10566000000E+00 0. -1.
        994   -1    0    0    0    0 -0.00000000000E+00 -0.00000000000E+00  0.11368683772E-12  0.17120000000E+03  0.17120000000E+03 0.  0.
         13    1    1    2    0    0  0.12529973060E+02 -0.21901293460E+00  0.49888910905E+02  0.51438922878E+02  0.10566000000E+00 0. -1.
        994    1    1    2    0    0 -0.19598608146E+01  0.90372852940E+01  0.19101588058E+01  0.17146020613E+03  0.17120000000E+03 0.  0.
        998    1    1    2    0    0 -0.10570112245E+02 -0.88182723594E+01  0.14482009266E+04  0.14483008710E+04  0.10000000000E+02 0. -1.
</event>
<event>
 5    1  0.1666761E-008  0.3828622E+03  0.7957747E-01  0.3438790E+00
         13   -1    0    0    0    0  0.00000000000E+00  0.00000000000E+00  0.14999999963E+04  0.15000000000E+04  0.10566000000E+00 0. -1.
        994   -1    0    0    0    0 -0.00000000000E+00 -0.00000000000E+00  0.11368683772E-12  0.17120000000E+03  0.17120000000E+03 0.  0.
         13    1    1    2    0    0 -0.63824226277E+01  0.77557719138E+01  0.17808086959E+02  0.20445694944E+02  0.10566000000E+00 0. -1.
        994    1    1    2    0    0  0.59760908723E+01 -0.10738080041E+01  0.28173510990E+01  0.17133080340E+03  0.17120000000E+03 0.  0.
        998    1    1    2    0    0  0.40633175534E+00 -0.66819639097E+01  0.14793745582E+04  0.14794235017E+04  0.10000000000E+02 0. -1.
</event>
<event>
 5    1  0.1666761E-008  0.3821699E+03  0.7957747E-01  0.3441764E+00
         13   -1    0    0    0    0  0.00000000000E+00  0.00000000000E+00  0.14999999963E+04  0.15000000000E+04  0.10566000000E+00 0. -1.
        994   -1    0    0    0    0 -0.00000000000E+00 -0.00000000000E+00  0.11368683772E-12  0.17120000000E+03  0.17120000000E+03 0.  0.
         13    1    1    2    0    0  0.21802618101E+02  0.21787172530E+00  0.74948050014E+02  0.78055255999E+02  0.10566000000E+00 0. -1.
        994    1    1    2    0    0 -0.19472644591E+02 -0.65220474772E+01  0.44427862638E+01  0.17248449014E+03  0.17120000000E+03 0.  0.
        998    1    1    2    0    0 -0.23299735103E+01  0.63041757519E+01  0.14206091600E+04  0.14206602539E+04  0.10000000000E+02 0. -1.
</event>
<event>
 5    1  0.1666761E-008  0.3707191E+03  0.7957747E-01  0.3492592E+00
         13   -1    0    0    0    0  0.00000000000E+00  0.00000000000E+00  0.14999999963E+04  0.15000000000E+04  0.10566000000E+00 0.  1.
        994   -1    0    0    0    0 -0.00000000000E+00 -0.00000000000E+00  0.11368683772E-12  0.17120000000E+03  0.17120000000E+03 0.  0.
         13    1    1    2    0    0 -0.16157526238E+03  0.90492521927E+02  0.69571482015E+03  0.71994068095E+03  0.10566000000E+00 0.  1.
        994    1    1    2    0    0  0.18907190457E+03 -0.49354102679E+02  0.16023874496E+03  0.30523746155E+03  0.17120000000E+03 0.  0.
        998    1    1    2    0    0 -0.27496642185E+02 -0.41138419248E+02  0.64404643117E+03  0.64602185750E+03  0.10000000000E+02 0.  1.
</event>
<event>
 5    1  0.1666761E-008  0.3848746E+03  0.7957747E-01  0.3430204E+00
         13   -1    0    0    0    0  0.00000000000E+00  0.00000000000E+00  0.14999999963E+04  0.15000000000E+04  0.10566000000E+00 0. -1.
        994   -1    0    0    0    0 -0.00000000000E+00 -0.00000000000E+00  0.11368683772E-12  0.17120000000E+03  0.17120000000E+03 0.  0.
         13    1    1    2    0    0 -0.81993073816E+01  0.10772570292E+02  0.55020619999E+02  0.56661774605E+02  0.10566000000E+00 0. -1.
        994    1    1    2    0    0  0.52066615477E+01 -0.34867999217E+01  0.18216180850E+01  0.17132432808E+03  0.17120000000E+03 0.  0.
        998    1    1    2    0    0  0.29926458339E+01 -0.72857703706E+01  0.14431577582E+04  0.14432138973E+04  0.10000000000E+02 0. -1.
</event>
<event>
 5    1  0.1666761E-008  0.3813612E+03  0.7957747E-01  0.3445253E+00
         13   -1    0    0    0    0  0.00000000000E+00  0.00000000000E+00  0.14999999963E+04  0.15000000000E+04  0.10566000000E+00 0. -1.
        994   -1    0    0    0    0 -0.00000000000E+00 -0.00000000000E+00  0.11368683772E-12  0.17120000000E+03  0.17120000000E+03 0.  0.
         13    1    1    2    0    0  0.32504076442E+02 -0.11302031595E+02  0.17759782852E+03  0.18090121824E+03  0.10566000000E+00 0. -1.
        994    1    1    2    0    0 -0.11771458928E+02  0.11386664515E+02  0.43407145025E+01  0.17203634842E+03  0.17120000000E+03 0.  0.
        998    1    1    2    0    0 -0.20732617514E+02 -0.84632919704E-01  0.13180614533E+04  0.13182624333E+04  0.10000000000E+02 0. -1.
</event>
<event>
 5    1  0.1666761E-008  0.3700716E+03  0.7957747E-01  0.3495562E+00
         13   -1    0    0    0    0  0.00000000000E+00  0.00000000000E+00  0.14999999963E+04  0.15000000000E+04  0.10566000000E+00 0. -1.
        994   -1    0    0    0    0 -0.00000000000E+00 -0.00000000000E+00  0.11368683772E-12  0.17120000000E+03  0.17120000000E+03 0.  0.
         13    1    1    2    0    0 -0.35730859355E+02  0.92247778187E+01  0.63737971395E+02  0.73650057689E+02  0.10566000000E+00 0. -1.
        994    1    1    2    0    0 -0.48061293440E+01  0.12521267758E+02  0.11605945321E+02  0.17211629496E+03  0.17120000000E+03 0.  0.
        998    1    1    2    0    0  0.40536988699E+02 -0.21746045577E+02  0.14246560796E+04  0.14254336473E+04  0.10000000000E+02 0. -1.
</event>
<event>
 5    1  0.1666761E-008  0.3793077E+03  0.7957747E-01  0.3454179E+00
         13   -1    0    0    0    0  0.00000000000E+00  0.00000000000E+00  0.14999999963E+04  0.15000000000E+04  0.10566000000E+00 0.  1.
        994   -1    0    0    0    0 -0.00000000000E+00 -0.00000000000E+00  0.11368683772E-12  0.17120000000E+03  0.17120000000E+03 0.  0.
         13    1    1    2    0    0  0.14826406016E+02 -0.24902073558E+02  0.85721858230E+02  0.90488583398E+02  0.10566000000E+00 0.  1.
        994    1    1    2    0    0 -0.22149506481E+02  0.25766501906E+02  0.83610283998E+01  0.17473940613E+03  0.17120000000E+03 0.  0.
        998    1    1    2    0    0  0.73231004653E+01 -0.86442834767E+00  0.14059171096E+04  0.14059720105E+04  0.10000000000E+02 0.  1.
</event>
<event>
 5    1  0.1666761E-008  0.3854818E+03  0.7957747E-01  0.3427631E+00
         13   -1    0    0    0    0  0.00000000000E+00  0.00000000000E+00  0.14999999963E+04  0.15000000000E+04  0.10566000000E+00 0.  1.
        994   -1    0    0    0    0 -0.00000000000E+00 -0.00000000000E+00  0.11368683772E-12  0.17120000000E+03  0.17120000000E+03 0.  0.
         13    1    1    2    0    0 -0.11380343468E+02 -0.17409129121E+01  0.48837418498E+02  0.50176165705E+02  0.10566000000E+00 0.  1.
        994    1    1    2    0    0  0.37140424829E+01  0.37887753005E+01  0.14835657640E+01  0.17128861578E+03  0.17120000000E+03 0.  0.
        998    1    1    2    0    0  0.76663009849E+01 -0.20478623884E+01  0.14496790120E+04  0.14497352185E+04  0.10000000000E+02 0.  1.
</event>
<event>
 5    1  0.1666761E-008  0.3726432E+03  0.7957747E-01  0.3483831E+00
         13   -1    0    0    0    0  0.00000000000E+00  0.00000000000E+00  0.14999999963E+04  0.15000000000E+04  0.10566000000E+00 0. -1.
        994   -1    0    0    0    0 -0.00000000000E+00 -0.00000000000E+00  0.11368683772E-12  0.17120000000E+03  0.17120000000E+03 0.  0.
         13    1    1    2    0    0  0.25682669624E+02  0.85691260961E+02  0.45097015133E+03  0.45975719709E+03  0.10566000000E+00 0. -1.
        994    1    1    2    0    0 -0.19976194097E+02 -0.60649010993E+02  0.21996598092E+02  0.18403978155E+03  0.17120000000E+03 0.  0.
        998    1    1    2    0    0 -0.57064755275E+01 -0.25042249968E+02  0.10270332469E+04  0.10274030214E+04  0.10000000000E+02 0. -1.
</event>
<event>
 5    1  0.1666761E-008  0.3780354E+03  0.7957747E-01  0.3459758E+00
         13   -1    0    0    0    0  0.00000000000E+00  0.00000000000E+00  0.14999999963E+04  0.15000000000E+04  0.10566000000E+00 0.  1.
        994   -1    0    0    0    0 -0.00000000000E+00 -0.00000000000E+00  0.11368683772E-12  0.17120000000E+03  0.17120000000E+03 0.  0.
         13    1    1    2    0    0 -0.40199451975E+02 -0.25997263047E+02  0.18710128607E+03  0.19312885863E+03  0.10566000000E+00 0.  1.
        994    1    1    2    0    0  0.36253743127E+02  0.45024235238E+02  0.16455211003E+02  0.18144346122E+03  0.17120000000E+03 0.  0.
        998    1    1    2    0    0  0.39457088479E+01 -0.19026972191E+02  0.12964434992E+04  0.12966276802E+04  0.10000000000E+02 0.  1.
</event>
<event>
 5    1  0.1666761E-008  0.3829391E+03  0.7957747E-01  0.3438460E+00
         13   -1    0    0    0    0  0.00000000000E+00  0.00000000000E+00  0.14999999963E+04  0.15000000000E+04  0.10566000000E+00 0. -1.
        994   -1    0    0    0    0 -0.00000000000E+00 -0.00000000000E+00  0.11368683772E-12  0.17120000000E+03  0.17120000000E+03 0.  0.
         13    1    1    2    0    0  0.19130021837E+02  0.21163892470E+02  0.15880257848E+03  0.16134478044E+03  0.10566000000E+00 0. -1.
        994    1    1    2    0    0  0.13241080593E+02 -0.29967933701E+02  0.62187254408E+01  0.17441764765E+03  0.17120000000E+03 0.  0.
        998    1    1    2    0    0 -0.32371102430E+02  0.88040412313E+01  0.13349786924E+04  0.13354375719E+04  0.10000000000E+02 0. -1.
</event>
<event>
 5    1  0.1666761E-008  0.3806095E+03  0.7957747E-01  0.3448509E+00
         13   -1    0    0    0    0  0.00000000000E+00  0.00000000000E+00  0.14999999963E+04  0.15000000000E+04  0.10566000000E+00 0.  1.
        994   -1    0    0    0    0 -0.00000000000E+00 -0.00000000000E+00  0.11368683772E-12  0.17120000000E+03  0.17120000000E+03 0.  0.
         13    1    1    2    0    0  0.15103229144E+02  0.71445443756E+01  0.34665646927E+02  0.38482077462E+02  0.10566000000E+00 0.  1.
        994    1    1    2    0    0 -0.70469257662E+01 -0.18490927591E+02  0.51332234913E+01  0.17241625083E+03  0.17120000000E+03 0.  0.
        998    1    1    2    0    0 -0.80563033780E+01  0.11346383215E+02  0.14602011259E+04  0.14603016717E+04  0.10000000000E+02 0.  1.
</event>
<event>
 5    1  0.1666761E-008  0.3837881E+03  0.7957747E-01  0.3434828E+00
         13   -1    0    0    0    0  0.00000000000E+00  0.00000000000E+00  0.14999999963E+04  0.15000000000E+04  0.10566000000E+00 0. -1.
        994   -1    0    0    0    0 -0.00000000000E+00 -0.00000000000E+00  0.11368683772E-12  0.17120000000E+03  0.17120000000E+03 0.  0.
         13    1    1    2    0    0  0.21272019491E+02  0.22846649037E+01  0.10975275277E+03  0.11181858705E+03  0.10566000000E+00 0. -1.
        994    1    1    2    0    0 -0.19797241424E+01 -0.13372524165E+02  0.28366002078E+01  0.17175630996E+03  0.17120000000E+03 0.  0.
        998    1    1    2    0    0 -0.19292295348E+02  0.11087859262E+02  0.13874106433E+04  0.13876251030E+04  0.10000000000E+02 0. -1.
</event>
<event>
 5    1  0.1666761E-008  0.3819632E+03  0.7957747E-01  0.3442654E+00
         13   -1    0    0    0    0  0.00000000000E+00  0.00000000000E+00  0.14999999963E+04  0.15000000000E+04  0.10566000000E+00 0.  1.
        994   -1    0    0    0    0 -0.00000000000E+00 -0.00000000000E+00  0.11368683772E-12  0.17120000000E+03  0.17120000000E+03 0.  0.
         13    1    1    2    0    0 -0.63537959834E+01  0.13730863954E+02  0.35402966102E+02  0.38500500272E+02  0.10566000000E+00 0.  1.
        994    1    1    2    0    0  0.10172693343E+02 -0.52768138611E+01  0.35817052760E+01  0.17162050305E+03  0.17120000000E+03 0.  0.
        998    1    1    2    0    0 -0.38188973599E+01 -0.84540500933E+01  0.14610153249E+04  0.14610789967E+04  0.10000000000E+02 0.  1.
</event>
<event>
 5    1  0.1666761E-008  0.3851433E+03  0.7957747E-01  0.3429065E+00
         13   -1    0    0    0    0  0.00000000000E+00  0.00000000000E+00  0.14999999963E+04  0.15000000000E+04  0.10566000000E+00 0.  1.
        994   -1    0    0    0    0 -0.00000000000E+00 -0.00000000000E+00  0.11368683772E-12  0.17120000000E+03  0.17120000000E+03 0.  0.
         13    1    1    2    0    0 -0.74122115116E+01  0.12735786140E+02  0.67999148521E+02  0.69577557385E+02  0.10566000000E+00 0.  1.
        994    1    1    2    0    0  0.10161222094E+02 -0.97988618079E+01  0.22142935169E+01  0.17179525961E+03  0.17120000000E+03 0.  0.
        998    1    1    2    0    0 -0.27490105823E+01 -0.29369243325E+01  0.14297865542E+04  0.14298271830E+04  0.10000000000E+02 0.  1.
</event>
<event>
 5    1  0.1666761E-008  0.3817495E+03  0.7957747E-01  0.3443576E+00
         13   -1    0    0    0    0  0.00000000000E+00  0.00000000000E+00  0.14999999963E+04  0.15000000000E+04  0.10566000000E+00 0.  1.
        994   -1    0    0    0    0 -0.00000000000E+00 -0.00000000000E+00  0.11368683772E-12  0.17120000000E+03  0.17120000000E+03 0.  0.
         13    1    1    2    0    0  0.40639127830E+02 -0.55750438421E+01  0.24406785657E+03  0.24749090812E+03  0.10566000000E+00 0.  1.
        994    1    1    2    0    0 -0.29468854744E+02  0.17152796597E+01  0.61541068609E+01  0.17383517658E+03  0.17120000000E+03 0.  0.
        998    1    1    2    0    0 -0.11170273086E+02  0.38597641824E+01  0.12497780328E+04  0.12498739153E+04  0.10000000000E+02 0.  1.
</event>
<event>
 5    1  0.1666761E-008  0.3811574E+03  0.7957747E-01  0.3446134E+00
         13   -1    0    0    0    0  0.00000000000E+00  0.00000000000E+00  0.14999999963E+04  0.15000000000E+04  0.10566000000E+00 0.  1.
        994   -1    0    0    0    0 -0.00000000000E+00 -0.00000000000E+00  0.11368683772E-12  0.17120000000E+03  0.17120000000E+03 0.  0.
         13    1    1    2    0    0 -0.24581010463E+02 -0.15585790793E+02  0.12128297319E+03  0.12472655572E+03  0.10566000000E+00 0.  1.
        994    1    1    2    0    0  0.10395554107E+02  0.81929684451E+01  0.41336691541E+01  0.17176064595E+03  0.17120000000E+03 0.  0.
        998    1    1    2    0    0  0.14185456356E+02  0.73928223483E+01  0.13745833539E+04  0.13747127983E+04  0.10000000000E+02 0.  1.
</event>
<event>
 5    1  0.1666761E-008  0.3852366E+03  0.7957747E-01  0.3428669E+00
         13   -1    0    0    0    0  0.00000000000E+00  0.00000000000E+00  0.14999999963E+04  0.15000000000E+04  0.10566000000E+00 0. -1.
        994   -1    0    0    0    0 -0.00000000000E+00 -0.00000000000E+00  0.11368683772E-12  0.17120000000E+03  0.17120000000E+03 0.  0.
         13    1    1    2    0    0  0.13491116443E+02  0.69448975649E+01  0.72615306870E+02  0.74183797294E+02  0.10566000000E+00 0. -1.
        994    1    1    2    0    0 -0.15317563050E+02 -0.76845250284E+01  0.24783589531E+01  0.17207342016E+03  0.17120000000E+03 0.  0.
        998    1    1    2    0    0  0.18264466065E+01  0.73962746342E+00  0.14249063305E+04  0.14249427825E+04  0.10000000000E+02 0. -1.
</event>
<event>
 5    1  0.1666761E-008  0.3699720E+03  0.7957747E-01  0.3496019E+00
         13   -1    0    0    0    0  0.00000000000E+00  0.00000000000E+00  0.14999999963E+04  0.15000000000E+04  0.10566000000E+00 0. -1.
        994   -1    0    0    0    0 -0.00000000000E+00 -0.00000000000E+00  0.11368683772E-12  0.17120000000E+03  0.17120000000E+03 0.  0.
         13    1    1    2    0    0 -0.11073574980E+02 -0.23006589335E+02  0.24191834346E+02  0.35173615520E+02  0.10566000000E+00 0. -1.
        994    1    1    2    0    0 -0.93485761010E+00  0.40760659637E+02  0.16757391261E+02  0.17678392318E+03  0.17120000000E+03 0.  0.
        998    1    1    2    0    0  0.12008432590E+02 -0.17754070302E+02  0.14590507707E+04  0.14592424613E+04  0.10000000000E+02 0. -1.
</event>
<event>
 5    1  0.1666761E-008  0.3853154E+03  0.7957747E-01  0.3428336E+00
         13   -1    0    0    0    0  0.00000000000E+00  0.00000000000E+00  0.14999999963E+04  0.15000000000E+04  0.10566000000E+00 0.  1.
        994   -1    0    0    0    0 -0.00000000000E+00 -0.00000000000E+00  0.11368683772E-12  0.17120000000E+03  0.17120000000E+03 0.  0.
         13    1    1    2    0    0 -0.13145851833E+02 -0.10090229100E+01  0.63200110985E+02  0.64560798789E+02  0.10566000000E+00 0.  1.
        994    1    1    2    0    0 -0.18010074012E+01  0.89008592244E+01  0.17446221951E+01  0.17144956293E+03  0.17120000000E+03 0.  0.
        998    1    1    2    0    0  0.14946859234E+02 -0.78918363143E+01  0.14350552631E+04  0.14351896383E+04  0.10000000000E+02 0.  1.
</event>
<event>
 5    1  0.1666761E-008  0.3730903E+03  0.7957747E-01  0.3481808E+00
         13   -1    0    0    0    0  0.00000000000E+00  0.00000000000E+00  0.14999999963E+04  0.15000000000E+04  0.10566000000E+00 0.  1.
        994   -1    0    0    0    0 -0.00000000000E+00 -0.00000000000E+00  0.11368683772E-12  0.17120000000E+03  0.17120000000E+03 0.  0.
         13    1    1    2    0    0  0.18199043517E+03  0.26497326664E+02  0.80725124433E+03  0.82793551044E+03  0.10566000000E+00 0.  1.
        994    1    1    2    0    0 -0.18407555153E+03 -0.27595598323E+02  0.13737593810E+03  0.28779665406E+03  0.17120000000E+03 0.  0.
        998    1    1    2    0    0  0.20851163689E+01  0.10982716583E+01  0.55537281385E+03  0.55546783550E+03  0.10000000000E+02 0.  0.
</event>
<event>
 5    1  0.1666761E-008  0.3845797E+03  0.7957747E-01  0.3431457E+00
         13   -1    0    0    0    0  0.00000000000E+00  0.00000000000E+00  0.14999999963E+04  0.15000000000E+04  0.10566000000E+00 0.  1.
        994   -1    0    0    0    0 -0.00000000000E+00 -0.00000000000E+00  0.11368683772E-12  0.17120000000E+03  0.17120000000E+03 0.  0.
         13    1    1    2    0    0  0.88471155354E+00  0.13893622350E+02  0.59511800920E+02  0.61118582030E+02  0.10566000000E+00 0.  1.
        994    1    1    2    0    0  0.88822451279E+01  0.11645968517E+02  0.25457385656E+01  0.17184424240E+03  0.17120000000E+03 0.  0.
        998    1    1    2    0    0 -0.97669566815E+01 -0.25539590867E+02  0.14379424568E+04  0.14382371756E+04  0.10000000000E+02 0.  1.
</event>
<event>
 5    1  0.1666761E-008  0.3814831E+03  0.7957747E-01  0.3444726E+00
         13   -1    0    0    0    0  0.00000000000E+00  0.00000000000E+00  0.14999999963E+04  0.15000000000E+04  0.10566000000E+00 0.  1.
        994   -1    0    0    0    0 -0.00000000000E+00 -0.00000000000E+00  0.11368683772E-12  0.17120000000E+03  0.17120000000E+03 0.  0.
         13    1    1    2    0    0 -0.21410849021E+02 -0.14810175913E+02  0.11031884879E+03  0.11334913025E+03  0.10566000000E+00 0.  1.
        994    1    1    2    0    0  0.39127875255E+01 -0.94003465480E+01  0.37313405907E+01  0.17154311214E+03  0.17120000000E+03 0.  0.
        998    1    1    2    0    0  0.17498061496E+02  0.24210522461E+02  0.13859498069E+04  0.13863077576E+04  0.10000000000E+02 0.  1.
</event>
<event>
 5    1  0.1666761E-008  0.3818632E+03  0.7957747E-01  0.3443085E+00
         13   -1    0    0    0    0  0.00000000000E+00  0.00000000000E+00  0.14999999963E+04  0.15000000000E+04  0.10566000000E+00 0. -1.
        994   -1    0    0    0    0 -0.00000000000E+00 -0.00000000000E+00  0.11368683772E-12  0.17120000000E+03  0.17120000000E+03 0.  0.
         13    1    1    2    0    0 -0.67945639478E+01 -0.18798263635E+02  0.62726679660E+02  0.65834552631E+02  0.10566000000E+00 0. -1.
        994    1    1    2    0    0  0.10146907219E+02  0.52897045948E+01  0.36307067519E+01  0.17162040302E+03  0.17120000000E+03 0.  0.
        998    1    1    2    0    0 -0.33523432716E+01  0.13508559040E+02  0.14336426099E+04  0.14337450444E+04  0.10000000000E+02 0. -1.
</event>
<event>
 5    1  0.1666761E-008  0.3801106E+03  0.7957747E-01  0.3450677E+00
         13   -1    0    0    0    0  0.00000000000E+00  0.00000000000E+00  0.14999999963E+04  0.15000000000E+04  0.10566000000E+00 0. -1.
        994   -1    0    0    0    0 -0.00000000000E+00 -0.00000000000E+00  0.11368683772E-12  0.17120000000E+03  0.17120000000E+03 0.  0.
         13    1    1    2    0    0 -0.11596665025E+02 -0.17625205098E+02  0.53757541446E+02  0.57749588057E+02  0.10566000000E+00 0. -1.
        994    1    1    2    0    0  0.13166353828E+02  0.38647501960E+01  0.47067674869E+01  0.17181351177E+03  0.17120000000E+03 0.  0.
        998    1    1    2    0    0 -0.15696888030E+01  0.13760454902E+02  0.14415356873E+04  0.14416369002E+04  0.10000000000E+02 0. -1.
</event>
<event>
 5    1  0.1666761E-008  0.3707976E+03  0.7957747E-01  0.3492233E+00
         13   -1    0    0    0    0  0.00000000000E+00  0.00000000000E+00  0.14999999963E+04  0.15000000000E+04  0.10566000000E+00 0. -1.
        994   -1    0    0    0    0 -0.00000000000E+00 -0.00000000000E+00  0.11368683772E-12  0.17120000000E+03  0.17120000000E+03 0.  0.
         13    1    1    2    0    0  0.13410476121E+02  0.39363970583E+02  0.19014567409E+03  0.19464005649E+03  0.10566000000E+00 0. -1.
        994    1    1    2    0    0  0.51328947364E+02  0.82838268964E+02  0.42349218417E+02  0.20149376155E+03  0.17120000000E+03 0.  0.
        998    1    1    2    0    0 -0.64739423485E+02 -0.12220223955E+03  0.12675051038E+04  0.12750661820E+04  0.10000000000E+02 0. -1.
</event>
<event>
 5    1  0.1666761E-008  0.3846727E+03  0.7957747E-01  0.3431062E+00
         13   -1    0    0    0    0  0.00000000000E+00  0.00000000000E+00  0.14999999963E+04  0.15000000000E+04  0.10566000000E+00 0.  1.
        994   -1    0    0    0    0 -0.00000000000E+00 -0.00000000000E+00  0.11368683772E-12  0.17120000000E+03  0.17120000000E+03 0.  0.
         13    1    1    2    0    0 -0.13590360686E+00  0.21568454928E+02  0.12535761605E+03  0.12719968468E+03  0.10566000000E+00 0.  1.
        994    1    1    2    0    0  0.11685852082E+02 -0.17525330411E+02  0.32547985969E+01  0.17252167997E+03  0.17120000000E+03 0.  0.
        998    1    1    2    0    0 -0.11549948475E+02 -0.40431245165E+01  0.13713875816E+04  0.13714786354E+04  0.10000000000E+02 0.  1.
</event>
<event>
 5    1  0.1666761E-008  0.3685488E+03  0.7957747E-01  0.3502587E+00
         13   -1    0    0    0    0  0.00000000000E+00  0.00000000000E+00  0.14999999963E+04  0.15000000000E+04  0.10566000000E+00 0.  1.
        994   -1    0    0    0    0 -0.00000000000E+00 -0.00000000000E+00  0.11368683772E-12  0.17120000000E+03  0.17120000000E+03 0.  0.
         13    1    1    2    0    0 -0.21232762818E+02  0.67911982070E+02  0.22199918243E+03  0.23312339156E+03  0.10566000000E+00 0.  1.
        994    1    1    2    0    0  0.12632287963E+02 -0.59907845731E+02  0.23327978525E+02  0.18330891757E+03  0.17120000000E+03 0.  0.
        998    1    1    2    0    0  0.86004748549E+01 -0.80041363396E+01  0.12546728353E+04  0.12547676909E+04  0.10000000000E+02 0.  1.
</event>
<event>
 5    1  0.1666761E-008  0.3832911E+03  0.7957747E-01  0.3436952E+00
         13   -1    0    0    0    0  0.00000000000E+00  0.00000000000E+00  0.14999999963E+04  0.15000000000E+04  0.10566000000E+00 0. -1.
        994   -1    0    0    0    0 -0.00000000000E+00 -0.00000000000E+00  0.11368683772E-12  0.17120000000E+03  0.17120000000E+03 0.  0.
         13    1    1    2    0    0 -0.14394089236E+02 -0.20449131459E+01  0.40759238856E+02  0.43274683025E+02  0.10566000000E+00 0. -1.
        994    1    1    2    0    0  0.15923929967E+02  0.22218749856E+01  0.33362919721E+01  0.17198569452E+03  0.17120000000E+03 0.  0.
        998    1    1    2    0    0 -0.15298407307E+01 -0.17696183962E+00  0.14559044655E+04  0.14559396225E+04  0.10000000000E+02 0. -1.
</event>
<event>
 5    1  0.1666761E-008  0.3791849E+03  0.7957747E-01  0.3454715E+00
         13   -1    0    0    0    0  0.00000000000E+00  0.00000000000E+00  0.14999999963E+04  0.15000000000E+04  0.10566000000E+00 0. -1.
        994   -1    0    0    0    0 -0.00000000000E+00 -0.00000000000E+00  0.11368683772E-12  0.17120000000E+03  0.17120000000E+03 0.  0.
         13    1    1    2    0    0 -0.10426321977E+02  0.18630079865E+00  0.99793950057E+01  0.14434070343E+02  0.10566000000E+00 0. -1.
        994    1    1    2    0    0  0.56862943914E+01  0.31125390790E+00  0.46538777300E+01  0.17135789857E+03  0.17120000000E+03 0.  0.
        998    1    1    2    0    0  0.47400275854E+01 -0.49755470655E+00  0.14853667235E+04  0.14854080311E+04  0.10000000000E+02 0. -1.
</event>
<event>
 5    1  0.1666761E-008  0.3845040E+03  0.7957747E-01  0.3431778E+00
         13   -1    0    0    0    0  0.00000000000E+00  0.00000000000E+00  0.14999999963E+04  0.15000000000E+04  0.10566000000E+00 0. -1.
        994   -1    0    0    0    0 -0.00000000000E+00 -0.00000000000E+00  0.11368683772E-12  0.17120000000E+03  0.17120000000E+03 0.  0.
         13    1    1    2    0    0 -0.17866638306E+02  0.32799121034E+01  0.92370926382E+02  0.94140181605E+02  0.10566000000E+00 0. -1.
        994    1    1    2    0    0  0.34666641144E+01 -0.53919414501E+01  0.20119460041E+01  0.17133177965E+03  0.17120000000E+03 0.  0.
        998    1    1    2    0    0  0.14399974192E+02  0.21120293467E+01  0.14056171239E+04  0.14057280387E+04  0.10000000000E+02 0. -1.
</event>
<event>
 5    1  0.1666761E-008  0.3828982E+03  0.7957747E-01  0.3438635E+00
         13   -1    0    0    0    0  0.00000000000E+00  0.00000000000E+00  0.14999999963E+04  0.15000000000E+04  0.10566000000E+00 0.  1.
        994   -1    0    0    0    0 -0.00000000000E+00 -0.00000000000E+00  0.11368683772E-12  0.17120000000E+03  0.17120000000E+03 0.  0.
         13    1    1    2    0    0 -0.60768079603E+00  0.11639741253E+02  0.24579949069E+02  0.27203637857E+02  0.10566000000E+00 0.  1.
        994    1    1    2    0    0 -0.34145178926E+01 -0.61815852990E+01  0.28424104116E+01  0.17136916358E+03  0.17120000000E+03 0.  0.
        998    1    1    2    0    0  0.40221986886E+01 -0.54581559542E+01  0.14725776368E+04  0.14726271986E+04  0.10000000000E+02 0.  1.
</event>
<event>
 5    1  0.1666761E-008  0.3693127E+03  0.7957747E-01  0.3499056E+00
         13   -1    0    0    0    0  0.00000000000E+00  0.00000000000E+00  0.14999999963E+04  0.15000000000E+04  0.10566000000E+00 0.  1.
        994   -1    0    0    0    0 -0.00000000000E+00 -0.00000000000E+00  0.11368683772E-12  0.17120000000E+03  0.17120000000E+03 0.  0.
         13    1    1    2    0    0 -0.17174938303E+02 -0.62443383397E+02  0.24453296755E+03  0.25296351124E+03  0.10566000000E+00 0.  1.
        994    1    1    2    0    0 -0.98535215789E+01  0.19024701399E+02  0.11221312709E+02  0.17289993930E+03  0.17120000000E+03 0.  0.
        998    1    1    2    0    0  0.27028459882E+02  0.43418681998E+02  0.12442457160E+04  0.12453365495E+04  0.10000000000E+02 0.  1.
</event>
<event>
 5    1  0.1666761E-008  0.3781556E+03  0.7957747E-01  0.3459229E+00
         13   -1    0    0    0    0  0.00000000000E+00  0.00000000000E+00  0.14999999963E+04  0.15000000000E+04  0.10566000000E+00 0.  1.
        994   -1    0    0    0    0 -0.00000000000E+00 -0.00000000000E+00  0.11368683772E-12  0.17120000000E+03  0.17120000000E+03 0.  0.
         13    1    1    2    0    0 -0.66860725986E+01  0.31600817087E+02  0.84035301003E+02  0.90029207405E+02  0.10566000000E+00 0.  1.
        994    1    1    2    0    0  0.22403069819E+02 -0.59460752756E+02  0.18769217427E+02  0.18357342449E+03  0.17120000000E+03 0.  0.
        998    1    1    2    0    0 -0.15716997220E+02  0.27859935669E+02  0.13971954778E+04  0.13975973681E+04  0.10000000000E+02 0.  1.
</event>
<event>
 5    1  0.1666761E-008  0.3853716E+03  0.7957747E-01  0.3428098E+00
         13   -1    0    0    0    0  0.00000000000E+00  0.00000000000E+00  0.14999999963E+04  0.15000000000E+04  0.10566000000E+00 0. -1.
        994   -1    0    0    0    0 -0.00000000000E+00 -0.00000000000E+00  0.11368683772E-12  0.17120000000E+03  0.17120000000E+03 0.  0.
         13    1    1    2    0    0 -0.28838758081E+00 -0.11502280755E+02  0.45020939728E+02  0.46468072997E+02  0.10566000000E+00 0. -1.
        994    1    1    2    0    0 -0.31887072423E+00  0.11171699445E+02  0.18561580379E+01  0.17157445576E+03  0.17120000000E+03 0.  0.
        998    1    1    2    0    0  0.60725830504E+00  0.33058130951E+00  0.14531228985E+04  0.14531574712E+04  0.10000000000E+02 0. -1.
</event>
<event>
 5    1  0.1666761E-008  0.3831972E+03  0.7957747E-01  0.3437354E+00
         13   -1    0    0    0    0  0.00000000000E+00  0.00000000000E+00  0.14999999963E+04  0.15000000000E+04  0.10566000000E+00 0. -1.
        994   -1    0    0    0    0 -0.00000000000E+00 -0.00000000000E+00  0.11368683772E-12  0.17120000000E+03  0.17120000000E+03 0.  0.
         13    1    1    2    0    0 -0.15503949223E+02  0.59942224387E-01  0.45910967390E+02  0.48458272000E+02  0.10566000000E+00 0. -1.
        994    1    1    2    0    0  0.14843498313E+02  0.15538970442E+02  0.40569319683E+01  0.17259109983E+03  0.17120000000E+03 0.  0.
        998    1    1    2    0    0  0.66045090951E+00 -0.15598912666E+02  0.14500320969E+04  0.14501506282E+04  0.10000000000E+02 0. -1.
</event>
<event>
 5    1  0.1666761E-008  0.3848360E+03  0.7957747E-01  0.3430368E+00
         13   -1    0    0    0    0  0.00000000000E+00  0.00000000000E+00  0.14999999963E+04  0.15000000000E+04  0.10566000000E+00 0.  1.
        994   -1    0    0    0    0 -0.00000000000E+00 -0.00000000000E+00  0.11368683772E-12  0.17120000000E+03  0.17120000000E+03 0.  0.
         13    1    1    2    0    0 -0.43739688128E+01  0.16133079109E+02  0.92501223586E+02  0.93999443475E+02  0.10566000000E+00 0.  1.
        994    1    1    2    0    0 -0.57240766700E+01  0.44501930589E+01  0.18845756308E+01  0.17136382610E+03  0.17120000000E+03 0.  0.
        998    1    1    2    0    0  0.10098045483E+02 -0.20583272168E+02  0.14056141971E+04  0.14058367304E+04  0.10000000000E+02 0.  1.
</event>
<event>
 5    1  0.1666761E-008  0.3858748E+03  0.7957747E-01  0.3425970E+00
         13   -1    0    0    0    0  0.00000000000E+00  0.00000000000E+00  0.14999999963E+04  0.15000000000E+04  0.10566000000E+00 0. -1.
        994   -1    0    0    0    0 -0.00000000000E+00 -0.00000000000E+00  0.11368683772E-12  0.17120000000E+03  0.17120000000E+03 0.  0.
         13    1    1    2    0    0  0.10620674713E+02 -0.91251049084E+01  0.82846602834E+02  0.84021646236E+02  0.10566000000E+00 0. -1.
        994    1    1    2    0    0 -0.92926274890E+01  0.29908092360E+01  0.15090088359E+01  0.17148473685E+03  0.17120000000E+03 0.  0.
        998    1    1    2    0    0 -0.13280472236E+01  0.61342956725E+01  0.14156443846E+04  0.14156936169E+04  0.10000000000E+02 0. -1.
</event>
<event>
 5    1  0.1666761E-008  0.3712073E+03  0.7957747E-01  0.3490361E+00
         13   -1    0    0    0    0  0.00000000000E+00  0.00000000000E+00  0.14999999963E+04  0.15000000000E+04  0.10566000000E+00 0.  1.
        994   -1    0    0    0    0 -0.00000000000E+00 -0.00000000000E+00  0.11368683772E-12  0.17120000000E+03  0.17120000000E+03 0.  0.
         13    1    1    2    0    0  0.24606503290E+02  0.11825592733E+02  0.27356508829E+02  0.38648601359E+02  0.10566000000E+00 0.  1.
        994    1    1    2    0    0 -0.25613392115E+02  0.61538571523E+01  0.14018639126E+02  0.17378112112E+03  0.17120000000E+03 0.  0.
        998    1    1    2    0    0  0.10068888255E+01 -0.17979449885E+02  0.14586248483E+04  0.14587702775E+04  0.10000000000E+02 0.  1.
</event>
<event>
 5    1  0.1666761E-008  0.3844396E+03  0.7957747E-01  0.3432052E+00
         13   -1    0    0    0    0  0.00000000000E+00  0.00000000000E+00  0.14999999963E+04  0.15000000000E+04  0.10566000000E+00 0.  1.
        994   -1    0    0    0    0 -0.00000000000E+00 -0.00000000000E+00  0.11368683772E-12  0.17120000000E+03  0.17120000000E+03 0.  0.
         13    1    1    2    0    0 -0.15870030164E+01 -0.11565309078E+02  0.35710590462E+02  0.37570365820E+02  0.10566000000E+00 0.  1.
        994    1    1    2    0    0 -0.79046050460E-01  0.54097485879E+01  0.20050726496E+01  0.17129720355E+03  0.17120000000E+03 0.  0.
        998    1    1    2    0    0  0.16660490669E+01  0.61555604902E+01  0.14622843332E+04  0.14623324306E+04  0.10000000000E+02 0.  1.
</event>
<event>
 5    1  0.1666761E-008  0.3705179E+03  0.7957747E-01  0.3493514E+00
         13   -1    0    0    0    0  0.00000000000E+00  0.00000000000E+00  0.14999999963E+04  0.15000000000E+04  0.10566000000E+00 0. -1.
        994   -1    0    0    0    0 -0.00000000000E+00 -0.00000000000E+00  0.11368683772E-12  0.17120000000E+03  0.17120000000E+03 0.  0.
         13    1    1    2    0    0 -0.31007048058E+02  0.30352816757E+02  0.10011213413E+03  0.10911086600E+03  0.10566000000E+00 0. -1.
        994    1    1    2    0    0  0.26440597290E+02 -0.16726088303E+02  0.12384650248E+02  0.17447546182E+03  0.17120000000E+03 0.  0.
        998    1    1    2    0    0  0.45664507682E+01 -0.13626728453E+02  0.13875032119E+04  0.13876136722E+04  0.10000000000E+02 0. -1.
</event>
<event>
 5    1  0.1666761E-008  0.3893492E+03  0.7957747E-01  0.3411434E+00
         13   -1    0    0    0    0  0.00000000000E+00  0.00000000000E+00  0.14999999963E+04  0.15000000000E+04  0.10566000000E+00 0.  1.
        994   -1    0    0    0    0 -0.00000000000E+00 -0.00000000000E+00  0.11368683772E-12  0.17120000000E+03  0.17120000000E+03 0.  0.
         13    1    1    2    0    0 -0.38264906179E+02  0.40880505857E+00  0.26370880288E+02  0.46473698557E+02  0.10566000000E+00 0.  1.
        994    1    1    2    0    0  0.16047876849E+02  0.31293665368E+01  0.22564610192E+02  0.17345295881E+03  0.17120000000E+03 0.  0.
        998    1    1    2    0    0  0.22217029329E+02 -0.35381715954E+01  0.14510645058E+04  0.14512733426E+04  0.10000000000E+02 0.  1.
</event>
<event>
 5    1  0.1666761E-008  0.3793815E+03  0.7957747E-01  0.3453856E+00
         13   -1    0    0    0    0  0.00000000000E+00  0.00000000000E+00  0.14999999963E+04  0.15000000000E+04  0.10566000000E+00 0. -1.
        994   -1    0    0    0    0 -0.00000000000E+00 -0.00000000000E+00  0.11368683772E-12  0.17120000000E+03  0.17120000000E+03 0.  0.
         13    1    1    2    0    0 -0.53411920913E+01  0.10440574742E+02  0.13421300795E+02  0.17823479261E+02  0.10566000000E+00 0. -1.
        994    1    1    2    0    0  0.38829545156E+01 -0.11285587150E+02  0.49229807296E+01  0.17168610180E+03  0.17120000000E+03 0.  0.
        998    1    1    2    0    0  0.14582375757E+01  0.84501240738E+00  0.14816557148E+04  0.14816904189E+04  0.10000000000E+02 0. -1.
</event>
<event>
 5    1  0.1666761E-008  0.3845999E+03  0.7957747E-01  0.3431371E+00
         13   -1    0    0    0    0  0.00000000000E+00  0.00000000000E+00  0.14999999963E+04  0.15000000000E+04  0.10566000000E+00 0. -1.
        994   -1    0    0    0    0 -0.00000000000E+00 -0.00000000000E+00  0.11368683772E-12  0.17120000000E+03  0.17120000000E+03 0.  0.
         13    1    1    2    0    0 -0.86055275799E+01 -0.18688085469E+02  0.12108001563E+03  0.12281563822E+03  0.10566000000E+00 0. -1.
        994    1    1    2    0    0 -0.38512090596E+01  0.98335757318E+01  0.21962446403E+01  0.17153948383E+03  0.17120000000E+03 0.  0.
        998    1    1    2    0    0  0.12456736639E+02  0.88545097372E+01  0.13767237360E+04  0.13768448779E+04  0.10000000000E+02 0. -1.
</event>
<event>
 5    1  0.1666761E-008  0.3799602E+03  0.7957747E-01  0.3451332E+00
         13   -1    0    0    0    0  0.00000000000E+00  0.00000000000E+00  0.14999999963E+04  0.15000000000E+04  0.10566000000E+00 0. -1.
        994   -1    0    0    0    0 -0.00000000000E+00 -0.00000000000E+00  0.11368683772E-12  0.17120000000E+03  0.17120000000E+03 0.  0.
         13    1    1    2    0    0 -0.23664813193E+02 -0.26631125113E+02  0.12933765921E+03  0.13415469229E+03  0.10566000000E+00 0. -1.
        994    1    1    2    0    0  0.33417911675E+02  0.35309146795E+02  0.12096057294E+02  0.17837950350E+03  0.17120000000E+03 0.  0.
        998    1    1    2    0    0 -0.97530984815E+01 -0.86780216824E+01  0.13585662798E+04  0.13586658042E+04  0.10000000000E+02 0. -1.
</event>
<event>
 5    1  0.1757923E-008  0.3862648E+03  0.7957747E-01  0.3424326E+00
         13   -1    0    0    0    0  0.00000000000E+00  0.00000000000E+00  0.14999999963E+04  0.15000000000E+04  0.10566000000E+00 0.  1.
        994   -1    0    0    0    0 -0.00000000000E+00 -0.00000000000E+00  0.11368683772E-12  0.17120000000E+03  0.17120000000E+03 0.  0.
         13    1    1    2    0    0  0.99551690907E+01  0.65611637896E+01  0.68381884152E+02  0.69413597415E+02  0.10566000000E+00 0.  1.
        994    1    1    2    0    0 -0.10195354356E+02 -0.10425721195E+02  0.17002389497E+01  0.17182832050E+03  0.17120000000E+03 0.  0.
        998    1    1    2    0    0  0.24018526543E+00  0.38645574057E+01  0.14299178732E+04  0.14299580821E+04  0.10000000000E+02 0.  1.
</event>
<event>
 5    1  0.1765120E-008  0.3855126E+03  0.7957747E-01  0.3427501E+00
         13   -1    0    0    0    0  0.00000000000E+00  0.00000000000E+00  0.14999999963E+04  0.15000000000E+04  0.10566000000E+00 0. -1.
        994   -1    0    0    0    0 -0.00000000000E+00 -0.00000000000E+00  0.11368683772E-12  0.17120000000E+03  0.17120000000E+03 0.  0.
         13    1    1    2    0    0 -0.11822942877E+02 -0.23083909609E+01  0.53594217696E+02  0.54931429815E+02  0.10566000000E+00 0. -1.
        994    1    1    2    0    0  0.60748746418E+01  0.14874848536E+01  0.15042876870E+01  0.17132080899E+03  0.17120000000E+03 0.  0.
        998    1    1    2    0    0  0.57480682351E+01  0.82090610727E+00  0.14449014909E+04  0.14449477612E+04  0.10000000000E+02 0. -1.
</event>
<event>
 5    1  0.1666761E-008  0.3808370E+03  0.7957747E-01  0.3447522E+00
         13   -1    0    0    0    0  0.00000000000E+00  0.00000000000E+00  0.14999999963E+04  0.15000000000E+04  0.10566000000E+00 0. -1.
        994   -1    0    0    0    0 -0.00000000000E+00 -0.00000000000E+00  0.11368683772E-12  0.17120000000E+03  0.17120000000E+03 0.  0.
         13    1    1    2    0    0  0.91733420850E+01 -0.36725842699E+02  0.18586029395E+03  0.18967603369E+03  0.10566000000E+00 0. -1.
        994    1    1    2    0    0 -0.18590635686E+02  0.22606138088E+02  0.65722968926E+01  0.17380818249E+03  0.17120000000E+03 0.  0.
        998    1    1    2    0    0  0.94172936006E+01  0.14119704611E+02  0.13075674054E+04  0.13077157838E+04  0.10000000000E+02 0. -1.
</event>
<event>
 5    1  0.1666761E-008  0.3743283E+03  0.7957747E-01  0.3476232E+00
         13   -1    0    0    0    0  0.00000000000E+00  0.00000000000E+00  0.14999999963E+04  0.15000000000E+04  0.10566000000E+00 0. -1.
        994   -1    0    0    0    0 -0.00000000000E+00 -0.00000000000E+00  0.11368683772E-12  0.17120000000E+03  0.17120000000E+03 0.  0.
         13    1    1    2    0    0 -0.30939172968E+02 -0.10366017433E+03  0.47090780567E+03  0.48317371283E+03  0.10566000000E+00 0. -1.
        994    1    1    2    0    0  0.43185705674E+02  0.11664542518E+03  0.61711021636E+02  0.22042878801E+03  0.17120000000E+03 0.  0.
        998    1    1    2    0    0 -0.12246532706E+02 -0.12985250848E+02  0.96738116897E+03  0.96759749916E+03  0.10000000000E+02 0. -1.
</event>
<event>
 5    1  0.1666761E-008  0.3762408E+03  0.7957747E-01  0.3467692E+00
         13   -1    0    0    0    0  0.00000000000E+00  0.00000000000E+00  0.14999999963E+04  0.15000000000E+04  0.10566000000E+00 0.  1.
        994   -1    0    0    0    0 -0.00000000000E+00 -0.00000000000E+00  0.11368683772E-12  0.17120000000E+03  0.17120000000E+03 0.  0.
         13    1    1    2    0    0 -0.14248760225E+02  0.19199277335E+02  0.40939750805E+02  0.47410059884E+02  0.10566000000E+00 0.  1.
        994    1    1    2    0    0  0.53824158353E+02 -0.17036115568E+02  0.16909240471E+02  0.18105974613E+03  0.17120000000E+03 0.  0.
        998    1    1    2    0    0 -0.39575398128E+02 -0.21631617667E+01  0.14421510050E+04  0.14427301940E+04  0.10000000000E+02 0.  1.
</event>
<event>
 5    1  0.1666761E-008  0.3864093E+03  0.7957747E-01  0.3423717E+00
         13   -1    0    0    0    0  0.00000000000E+00  0.00000000000E+00  0.14999999963E+04  0.15000000000E+04  0.10566000000E+00 0.  1.
        994   -1    0    0    0    0 -0.00000000000E+00 -0.00000000000E+00  0.11368683772E-12  0.17120000000E+03  0.17120000000E+03 0.  0.
         13    1    1    2    0    0 -0.10288359320E+02 -0.28067939586E+01  0.61114370511E+02  0.62037939012E+02  0.10566000000E+00 0.  1.
        994    1    1    2    0    0  0.98300962497E+01 -0.38308954197E+00  0.12489152004E+01  0.17148695968E+03  0.17120000000E+03 0.  0.
        998    1    1    2    0    0  0.45826307012E+00  0.31898835006E+01  0.14376367106E+04  0.14376751013E+04  0.10000000000E+02 0.  1.
</event>
<event>
 5    1  0.1666761E-008  0.3776049E+03  0.7957747E-01  0.3461654E+00
         13   -1    0    0    0    0  0.00000000000E+00  0.00000000000E+00  0.14999999963E+04  0.15000000000E+04  0.10566000000E+00 0. -1.
        994   -1    0    0    0    0 -0.00000000000E+00 -0.00000000000E+00  0.11368683772E-12  0.17120000000E+03  0.17120000000E+03 0.  0.
         13    1    1    2    0    0  0.30090753348E+02 -0.26037936435E+02  0.15253372017E+03  0.15763874689E+03  0.10566000000E+00 0. -1.
        994    1    1    2    0    0 -0.81041815319E+01  0.15209791144E+02  0.63485637902E+01  0.17218234453E+03  0.17120000000E+03 0.  0.
        998    1    1    2    0    0 -0.21986571816E+02  0.10828145291E+02  0.13411177123E+04  0.13413789086E+04  0.10000000000E+02 0. -1.
</event>
<event>
 5    1  0.1666761E-008  0.3766428E+03  0.7957747E-01  0.3465908E+00
         13   -1    0    0    0    0  0.00000000000E+00  0.00000000000E+00  0.14999999963E+04  0.15000000000E+04  0.10566000000E+00 0. -1.
        994   -1    0    0    0    0 -0.00000000000E+00 -0.00000000000E+00  0.11368683772E-12  0.17120000000E+03  0.17120000000E+03 0.  0.
         13    1    1    2    0    0  0.16180476493E+02  0.20291995562E+02  0.61469272183E+02  0.66723725092E+02  0.10566000000E+00 0. -1.
        994    1    1    2    0    0  0.26308689416E+01  0.12945707597E+02  0.64276976107E+01  0.17182918295E+03  0.17120000000E+03 0.  0.
        998    1    1    2    0    0 -0.18811345435E+02 -0.33237703159E+02  0.14321030265E+04  0.14326470920E+04  0.10000000000E+02 0. -1.
</event>
<event>
 5    1  0.1666761E-008  0.3840237E+03  0.7957747E-01  0.3433824E+00
         13   -1    0    0    0    0  0.00000000000E+00  0.00000000000E+00  0.14999999963E+04  0.15000000000E+04  0.10566000000E+00 0.  1.
        994   -1    0    0    0    0 -0.00000000000E+00 -0.00000000000E+00  0.11368683772E-12  0.17120000000E+03  0.17120000000E+03 0.  0.
         13    1    1    2    0    0  0.17958834714E+01  0.98807484503E+01  0.22897200089E+02  0.25002946293E+02  0.10566000000E+00 0.  1.
        994    1    1    2    0    0 -0.25601211800E+01 -0.10187673618E+02  0.24797640308E+01  0.17153988499E+03  0.17120000000E+03 0.  0.
        998    1    1    2    0    0  0.76423770867E+00  0.30692516779E+00  0.14746230322E+04  0.14746571687E+04  0.10000000000E+02 0.  0.
</event>
<event>
 5    1  0.1666761E-008  0.3757582E+03  0.7957747E-01  0.3469839E+00
         13   -1    0    0    0    0  0.00000000000E+00  0.00000000000E+00  0.14999999963E+04  0.15000000000E+04  0.10566000000E+00 0. -1.
        994   -1    0    0    0    0 -0.00000000000E+00 -0.00000000000E+00  0.11368683772E-12  0.17120000000E+03  0.17120000000E+03 0.  0.
         13    1    1    2    0    0 -0.32807959127E+02 -0.57483304267E+02  0.29611966869E+03  0.30342636965E+03  0.10566000000E+00 0. -1.
        994    1    1    2    0    0  0.44179850416E+02  0.42674238338E+02  0.19191344948E+02  0.18289531848E+03  0.17120000000E+03 0.  0.
        998    1    1    2    0    0 -0.11371891289E+02  0.14809065929E+02  0.11846889826E+04  0.11848783119E+04  0.10000000000E+02 0.  1.
</event>
<event>
 5    1  0.1666761E-008  0.3800209E+03  0.7957747E-01  0.3451068E+00
         13   -1    0    0    0    0  0.00000000000E+00  0.00000000000E+00  0.14999999963E+04  0.15000000000E+04  0.10566000000E+00 0. -1.
        994   -1    0    0    0    0 -0.00000000000E+00 -0.00000000000E+00  0.11368683772E-12  0.17120000000E+03  0.17120000000E+03 0.  0.
         13    1    1    2    0    0  0.17184865046E+02 -0.11080872661E+02  0.51076842956E+02  0.55017818713E+02  0.10566000000E+00 0. -1.
        994    1    1    2    0    0 -0.85243636752E+01 -0.69933477792E+01  0.45290910075E+01  0.17161446429E+03  0.17120000000E+03 0.  0.
        998    1    1    2    0    0 -0.86605013713E+01  0.18074220440E+02  0.14443940623E+04  0.14445677170E+04  0.10000000000E+02 0. -1.
</event>
<event>
 5    1  0.1666761E-008  0.3831560E+03  0.7957747E-01  0.3437530E+00
         13   -1    0    0    0    0  0.00000000000E+00  0.00000000000E+00  0.14999999963E+04  0.15000000000E+04  0.10566000000E+00 0. -1.
        994   -1    0    0    0    0 -0.00000000000E+00 -0.00000000000E+00  0.11368683772E-12  0.17120000000E+03  0.17120000000E+03 0.  0.
         13    1    1    2    0    0 -0.11779034295E+02 -0.12872818966E+02  0.59537416865E+02  0.62041681860E+02  0.10566000000E+00 0. -1.
        994    1    1    2    0    0  0.21423979438E+02 -0.62136572654E+01  0.41964007200E+01  0.17269813609E+03  0.17120000000E+03 0.  0.
        998    1    1    2    0    0 -0.96449451432E+01  0.19086476231E+02  0.14362661787E+04  0.14364601820E+04  0.10000000000E+02 0. -1.
</event>
<event>
 5    1  0.1666761E-008  0.3888296E+03  0.7957747E-01  0.3413591E+00
         13   -1    0    0    0    0  0.00000000000E+00  0.00000000000E+00  0.14999999963E+04  0.15000000000E+04  0.10566000000E+00 0. -1.
        994   -1    0    0    0    0 -0.00000000000E+00 -0.00000000000E+00  0.11368683772E-12  0.17120000000E+03  0.17120000000E+03 0.  0.
         13    1    1    2    0    0 -0.26353009589E+02  0.19917729505E+02  0.17053301184E+02  0.37175574082E+02  0.10566000000E+00 0. -1.
        994    1    1    2    0    0  0.20180748509E+02 -0.14029871180E+02  0.23530023263E+02  0.17454856599E+03  0.17120000000E+03 0.  0.
        998    1    1    2    0    0  0.61722610803E+01 -0.58878583243E+01  0.14594166718E+04  0.14594758599E+04  0.10000000000E+02 0. -1.
</event>
<event>
 5    1  0.1666761E-008  0.3810401E+03  0.7957747E-01  0.3446642E+00
         13   -1    0    0    0    0  0.00000000000E+00  0.00000000000E+00  0.14999999963E+04  0.15000000000E+04  0.10566000000E+00 0. -1.
        994   -1    0    0    0    0 -0.00000000000E+00 -0.00000000000E+00  0.11368683772E-12  0.17120000000E+03  0.17120000000E+03 0.  0.
         13    1    1    2    0    0 -0.34956733273E+01  0.12095286409E+02  0.21447132316E+02  0.24869787573E+02  0.10566000000E+00 0. -1.
        994    1    1    2    0    0 -0.10942668339E+02  0.42765897687E+01  0.40690224252E+01  0.17165089034E+03  0.17120000000E+03 0.  0.
        998    1    1    2    0    0  0.14438341666E+02 -0.16371876178E+02  0.14744838415E+04  0.14746793221E+04  0.10000000000E+02 0. -1.
</event>
<event>
 5    1  0.1666761E-008  0.3787191E+03  0.7957747E-01  0.3456755E+00
         13   -1    0    0    0    0  0.00000000000E+00  0.00000000000E+00  0.14999999963E+04  0.15000000000E+04  0.10566000000E+00 0.  1.
        994   -1    0    0    0    0 -0.00000000000E+00 -0.00000000000E+00  0.11368683772E-12  0.17120000000E+03  0.17120000000E+03 0.  0.
         13    1    1    2    0    0 -0.19058296699E+02 -0.45868132643E+01  0.39011974493E+02  0.43660082992E+02  0.10566000000E+00 0.  1.
        994    1    1    2    0    0  0.89506135924E+01 -0.54626876561E+01  0.51503559817E+01  0.17159813696E+03  0.17120000000E+03 0.  0.
        998    1    1    2    0    0  0.10107683107E+02  0.10049500920E+02  0.14558376658E+04  0.14559417801E+04  0.10000000000E+02 0.  1.
</event>
<event>
 5    1  0.1666761E-008  0.3791080E+03  0.7957747E-01  0.3455052E+00
         13   -1    0    0    0    0  0.00000000000E+00  0.00000000000E+00  0.14999999963E+04  0.15000000000E+04  0.10566000000E+00 0.  1.
        994   -1    0    0    0    0 -0.00000000000E+00 -0.00000000000E+00  0.11368683772E-12  0.17120000000E+03  0.17120000000E+03 0.  0.
         13    1    1    2    0    0  0.41565001831E+01  0.22564132535E+02  0.78952390184E+01  0.24264429398E+02  0.10566000000E+00 0.  1.
        994    1    1    2    0    0  0.69291646274E+02 -0.82552517103E+02  0.59093641381E+02  0.21075518683E+03  0.17120000000E+03 0.  0.
        998    1    1    2    0    0 -0.73448146457E+02  0.59988384569E+02  0.14330111159E+04  0.14361803838E+04  0.10000000000E+02 0.  1.
</event>
<event>
 5    1  0.1666761E-008  0.3768683E+03  0.7957747E-01  0.3464909E+00
         13   -1    0    0    0    0  0.00000000000E+00  0.00000000000E+00  0.14999999963E+04  0.15000000000E+04  0.10566000000E+00 0.  1.
        994   -1    0    0    0    0 -0.00000000000E+00 -0.00000000000E+00  0.11368683772E-12  0.17120000000E+03  0.17120000000E+03 0.  0.
         13    1    1    2    0    0  0.19527250960E+02 -0.16807115540E+02  0.50040905268E+02  0.56284065479E+02  0.10566000000E+00 0.  1.
        994    1    1    2    0    0 -0.49987951631E+02  0.17323630099E+02  0.15235999544E+02  0.17983458830E+03  0.17120000000E+03 0.  0.
        998    1    1    2    0    0  0.30460700670E+02 -0.51651455946E+00  0.14347230915E+04  0.14350813462E+04  0.10000000000E+02 0.  1.
</event>
<event>
 5    1  0.1666761E-008  0.3815164E+03  0.7957747E-01  0.3444582E+00
         13   -1    0    0    0    0  0.00000000000E+00  0.00000000000E+00  0.14999999963E+04  0.15000000000E+04  0.10566000000E+00 0. -1.
        994   -1    0    0    0    0 -0.00000000000E+00 -0.00000000000E+00  0.11368683772E-12  0.17120000000E+03  0.17120000000E+03 0.  0.
         13    1    1    2    0    0  0.25445792277E+02  0.15394543406E+02  0.11871993669E+03  0.12238837708E+03  0.10566000000E+00 0. -1.
        994    1    1    2    0    0 -0.28678509523E+02 -0.16376275982E+02  0.70058521933E+01  0.17449688045E+03  0.17120000000E+03 0.  0.
        998    1    1    2    0    0  0.32327172459E+01  0.98173257645E+00  0.13742742074E+04  0.13743147425E+04  0.10000000000E+02 0. -1.
</event>
<event>
 5    1  0.1666761E-008  0.3745676E+03  0.7957747E-01  0.3475159E+00
         13   -1    0    0    0    0  0.00000000000E+00  0.00000000000E+00  0.14999999963E+04  0.15000000000E+04  0.10566000000E+00 0. -1.
        994   -1    0    0    0    0 -0.00000000000E+00 -0.00000000000E+00  0.11368683772E-12  0.17120000000E+03  0.17120000000E+03 0.  0.
         13    1    1    2    0    0  0.12735921677E+02 -0.45077401011E+02  0.16971918959E+03  0.17606473316E+03  0.10566000000E+00 0. -1.
        994    1    1    2    0    0  0.89779845001E+01  0.16057078946E+02  0.80538453909E+01  0.17237383333E+03  0.17120000000E+03 0.  0.
        998    1    1    2    0    0 -0.21713906177E+02  0.29020322066E+02  0.13222269613E+04  0.13227614335E+04  0.10000000000E+02 0. -1.
</event>
<event>
 5    1  0.1666761E-008  0.3785933E+03  0.7957747E-01  0.3457307E+00
         13   -1    0    0    0    0  0.00000000000E+00  0.00000000000E+00  0.14999999963E+04  0.15000000000E+04  0.10566000000E+00 0. -1.
        994   -1    0    0    0    0 -0.00000000000E+00 -0.00000000000E+00  0.11368683772E-12  0.17120000000E+03  0.17120000000E+03 0.  0.
         13    1    1    2    0    0  0.43092849871E+02 -0.45202277795E+02  0.11524119687E+03  0.13107549064E+03  0.10566000000E+00 0. -1.
        994    1    1    2    0    0 -0.35668527884E+02  0.39454692733E+02  0.25825952400E+02  0.18112243505E+03  0.17120000000E+03 0.  0.
        998    1    1    2    0    0 -0.74243219863E+01  0.57475850628E+01  0.13589328470E+04  0.13590020743E+04  0.10000000000E+02 0. -1.
</event>
<event>
 5    1  0.1666761E-008  0.3803422E+03  0.7957747E-01  0.3449670E+00
         13   -1    0    0    0    0  0.00000000000E+00  0.00000000000E+00  0.14999999963E+04  0.15000000000E+04  0.10566000000E+00 0.  1.
        994   -1    0    0    0    0 -0.00000000000E+00 -0.00000000000E+00  0.11368683772E-12  0.17120000000E+03  0.17120000000E+03 0.  0.
         13    1    1    2    0    0 -0.64967428522E+01  0.13820850174E+02  0.27631759405E+02  0.31571329701E+02  0.10566000000E+00 0.  1.
        994    1    1    2    0    0  0.16608878685E+02 -0.68358394757E+01  0.50383745216E+01  0.17221326537E+03  0.17120000000E+03 0.  0.
        998    1    1    2    0    0 -0.10112135833E+02 -0.69850106984E+01  0.14673298624E+04  0.14674154049E+04  0.10000000000E+02 0.  1.
</event>
<event>
 5    1  0.1666761E-008  0.3724879E+03  0.7957747E-01  0.3484535E+00
         13   -1    0    0    0    0  0.00000000000E+00  0.00000000000E+00  0.14999999963E+04  0.15000000000E+04  0.10566000000E+00 0. -1.
        994   -1    0    0    0    0 -0.00000000000E+00 -0.00000000000E+00  0.11368683772E-12  0.17120000000E+03  0.17120000000E+03 0.  0.
         13    1    1    2    0    0  0.13560387351E+01  0.32654162783E+02  0.66528068780E+02  0.74122387224E+02  0.10566000000E+00 0. -1.
        994    1    1    2    0    0  0.82160178140E+01 -0.97352602746E+01  0.85309704828E+01  0.17188512355E+03  0.17120000000E+03 0.  0.
        998    1    1    2    0    0 -0.95720565491E+01 -0.22918902508E+02  0.14249409570E+04  0.14251924892E+04  0.10000000000E+02 0. -1.
</event>
<event>
 5    1  0.1666761E-008  0.3823675E+03  0.7957747E-01  0.3440914E+00
         13   -1    0    0    0    0  0.00000000000E+00  0.00000000000E+00  0.14999999963E+04  0.15000000000E+04  0.10566000000E+00 0.  1.
        994   -1    0    0    0    0 -0.00000000000E+00 -0.00000000000E+00  0.11368683772E-12  0.17120000000E+03  0.17120000000E+03 0.  0.
         13    1    1    2    0    0  0.90718779136E+02  0.10420859576E+03  0.78233122050E+03  0.79443783775E+03  0.10566000000E+00 0.  1.
        994    1    1    2    0    0 -0.11318220987E+03 -0.12032664652E+03  0.99464480678E+02  0.25785914257E+03  0.17120000000E+03 0.  0.
        998    1    1    2    0    0  0.22463430733E+02  0.16118050752E+02  0.61820429510E+03  0.61890301967E+03  0.10000000000E+02 0. -1.
</event>
<event>
 5    1  0.1666761E-008  0.3780537E+03  0.7957747E-01  0.3459677E+00
         13   -1    0    0    0    0  0.00000000000E+00  0.00000000000E+00  0.14999999963E+04  0.15000000000E+04  0.10566000000E+00 0. -1.
        994   -1    0    0    0    0 -0.00000000000E+00 -0.00000000000E+00  0.11368683772E-12  0.17120000000E+03  0.17120000000E+03 0.  0.
         13    1    1    2    0    0  0.33802232543E+02 -0.40547680470E+02  0.21018712916E+03  0.21671489507E+03  0.10566000000E+00 0. -1.
        994    1    1    2    0    0 -0.51665589085E+02  0.45830308494E+02  0.21338625172E+02  0.18583467706E+03  0.17120000000E+03 0.  0.
        998    1    1    2    0    0  0.17863356542E+02 -0.52826280241E+01  0.12684742419E+04  0.12686504279E+04  0.10000000000E+02 0. -1.
</event>
<event>
 5    1  0.1905942E-008  0.3862853E+03  0.7957747E-01  0.3424239E+00
         13   -1    0    0    0    0  0.00000000000E+00  0.00000000000E+00  0.14999999963E+04  0.15000000000E+04  0.10566000000E+00 0.  1.
        994   -1    0    0    0    0 -0.00000000000E+00 -0.00000000000E+00  0.11368683772E-12  0.17120000000E+03  0.17120000000E+03 0.  0.
         13    1    1    2    0    0 -0.87063097166E+01 -0.57562670768E+01  0.54741492599E+02  0.55727700613E+02  0.10566000000E+00 0.  1.
        994    1    1    2    0    0  0.46434157674E+01  0.10410049076E+02  0.14189672717E+01  0.17158491746E+03  0.17120000000E+03 0.  0.
        998    1    1    2    0    0  0.40628939492E+01 -0.46537819989E+01  0.14438395364E+04  0.14438873819E+04  0.10000000000E+02 0.  1.
</event>
<event>
 5    1  0.1666761E-008  0.3854585E+03  0.7957747E-01  0.3427730E+00
         13   -1    0    0    0    0  0.00000000000E+00  0.00000000000E+00  0.14999999963E+04  0.15000000000E+04  0.10566000000E+00 0.  1.
        994   -1    0    0    0    0 -0.00000000000E+00 -0.00000000000E+00  0.11368683772E-12  0.17120000000E+03  0.17120000000E+03 0.  0.
         13    1    1    2    0    0  0.24141583665E+01  0.12463352212E+02  0.56188409723E+02  0.57604790254E+02  0.10566000000E+00 0.  1.
        994    1    1    2    0    0  0.68928878607E+01 -0.14365303840E+02  0.22367619115E+01  0.17195440373E+03  0.17120000000E+03 0.  0.
        998    1    1    2    0    0 -0.93070462273E+01  0.19019516286E+01  0.14415748246E+04  0.14416408060E+04  0.10000000000E+02 0.  1.
</event>
<event>
 5    1  0.1666761E-008  0.3779353E+03  0.7957747E-01  0.3460198E+00
         13   -1    0    0    0    0  0.00000000000E+00  0.00000000000E+00  0.14999999963E+04  0.15000000000E+04  0.10566000000E+00 0. -1.
        994   -1    0    0    0    0 -0.00000000000E+00 -0.00000000000E+00  0.11368683772E-12  0.17120000000E+03  0.17120000000E+03 0.  0.
         13    1    1    2    0    0 -0.12319298218E+02  0.43642266558E+02  0.19039958032E+03  0.19572537876E+03  0.10566000000E+00 0. -1.
        994    1    1    2    0    0  0.13104237741E+02 -0.28876961299E+02  0.85712355252E+01  0.17432299337E+03  0.17120000000E+03 0.  0.
        998    1    1    2    0    0 -0.78493952356E+00 -0.14765305258E+02  0.13010291804E+04  0.13011516279E+04  0.10000000000E+02 0. -1.
</event>
<event>
 5    1  0.1666761E-008  0.3750808E+03  0.7957747E-01  0.3472862E+00
         13   -1    0    0    0    0  0.00000000000E+00  0.00000000000E+00  0.14999999963E+04  0.15000000000E+04  0.10566000000E+00 0.  1.
        994   -1    0    0    0    0 -0.00000000000E+00 -0.00000000000E+00  0.11368683772E-12  0.17120000000E+03  0.17120000000E+03 0.  0.
         13    1    1    2    0    0 -0.51542055790E+02 -0.12066287742E+02  0.23368642271E+03  0.23960704109E+03  0.10566000000E+00 0.  1.
        994    1    1    2    0    0  0.19236381367E+02 -0.19393678620E+02  0.91770509712E+01  0.17360821237E+03  0.17120000000E+03 0.  0.
        998    1    1    2    0    0  0.32305674423E+02  0.31459966362E+02  0.12571365226E+04  0.12579847465E+04  0.10000000000E+02 0.  1.
</event>
<event>
 5    1  0.1666761E-008  0.3832534E+03  0.7957747E-01  0.3437114E+00
         13   -1    0    0    0    0  0.00000000000E+00  0.00000000000E+00  0.14999999963E+04  0.15000000000E+04  0.10566000000E+00 0. -1.
        994   -1    0    0    0    0 -0.00000000000E+00 -0.00000000000E+00  0.11368683772E-12  0.17120000000E+03  0.17120000000E+03 0.  0.
         13    1    1    2    0    0  0.19383485977E+02  0.11766968393E+02  0.11302884501E+03  0.11528101336E+03  0.10566000000E+00 0. -1.
        994    1    1    2    0    0 -0.20754010920E+00  0.12289355140E+01  0.25049179403E+01  0.17122286053E+03  0.17120000000E+03 0.  0.
        998    1    1    2    0    0 -0.19175945867E+02 -0.12995903907E+02  0.13844662333E+04  0.13846961261E+04  0.10000000000E+02 0. -1.
</event>
<event>
 5    1  0.1666761E-008  0.3799676E+03  0.7957747E-01  0.3451300E+00
         13   -1    0    0    0    0  0.00000000000E+00  0.00000000000E+00  0.14999999963E+04  0.15000000000E+04  0.10566000000E+00 0.  1.
        994   -1    0    0    0    0 -0.00000000000E+00 -0.00000000000E+00  0.11368683772E-12  0.17120000000E+03  0.17120000000E+03 0.  0.
         13    1    1    2    0    0 -0.65148498280E+02  0.39251210794E+02  0.38007530719E+03  0.38761093209E+03  0.10566000000E+00 0.  1.
        994    1    1    2    0    0  0.94031834175E+02 -0.47650598816E+02  0.42244074994E+02  0.20544236972E+03  0.17120000000E+03 0.  0.
        998    1    1    2    0    0 -0.28883335895E+02  0.83993880221E+01  0.10776806141E+04  0.10781466982E+04  0.10000000000E+02 0.  1.
</event>
<event>
 5    1  0.1666761E-008  0.3834554E+03  0.7957747E-01  0.3436249E+00
         13   -1    0    0    0    0  0.00000000000E+00  0.00000000000E+00  0.14999999963E+04  0.15000000000E+04  0.10566000000E+00 0. -1.
        994   -1    0    0    0    0 -0.00000000000E+00 -0.00000000000E+00  0.11368683772E-12  0.17120000000E+03  0.17120000000E+03 0.  0.
         13    1    1    2    0    0  0.39668279910E+01 -0.22855695815E+02  0.11113999406E+03  0.11353513993E+03  0.10566000000E+00 0. -1.
        994    1    1    2    0    0 -0.95171653923E+01  0.13460055798E+02  0.32976397649E+01  0.17202344017E+03  0.17120000000E+03 0.  0.
        998    1    1    2    0    0  0.55503374012E+01  0.93956400174E+01  0.13855623625E+04  0.13856414199E+04  0.10000000000E+02 0. -1.
</event>
<event>
 5    1  0.1666761E-008  0.3840627E+03  0.7957747E-01  0.3433657E+00
         13   -1    0    0    0    0  0.00000000000E+00  0.00000000000E+00  0.14999999963E+04  0.15000000000E+04  0.10566000000E+00 0. -1.
        994   -1    0    0    0    0 -0.00000000000E+00 -0.00000000000E+00  0.11368683772E-12  0.17120000000E+03  0.17120000000E+03 0.  0.
         13    1    1    2    0    0  0.61831696564E+01  0.10910466098E+02  0.31206349181E+02  0.33632086624E+02  0.10566000000E+00 0. -1.
        994    1    1    2    0    0  0.13250394861E+02 -0.66762530894E+02  0.17530937438E+02  0.18506642662E+03  0.17120000000E+03 0.  0.
        998    1    1    2    0    0 -0.19433564517E+02  0.55852064797E+02  0.14512627097E+04  0.14525014868E+04  0.10000000000E+02 0. -1.
</event>
<event>
 5    1  0.1666761E-008  0.3798095E+03  0.7957747E-01  0.3451988E+00
         13   -1    0    0    0    0  0.00000000000E+00  0.00000000000E+00  0.14999999963E+04  0.15000000000E+04  0.10566000000E+00 0.  1.
        994   -1    0    0    0    0 -0.00000000000E+00 -0.00000000000E+00  0.11368683772E-12  0.17120000000E+03  0.17120000000E+03 0.  0.
         13    1    1    2    0    0 -0.78099347511E-01 -0.18185026417E+02  0.36583688280E+02  0.40854359590E+02  0.10566000000E+00 0.  1.
        994    1    1    2    0    0  0.39645675464E+00  0.19342831129E+02  0.54823653855E+01  0.17237690862E+03  0.17120000000E+03 0.  0.
        998    1    1    2    0    0 -0.31835740713E+00 -0.11578047120E+01  0.14579339426E+04  0.14579687318E+04  0.10000000000E+02 0.  0.
</event>
<event>
 5    1  0.1666761E-008  0.3806983E+03  0.7957747E-01  0.3448124E+00
         13   -1    0    0    0    0  0.00000000000E+00  0.00000000000E+00  0.14999999963E+04  0.15000000000E+04  0.10566000000E+00 0.  1.
        994   -1    0    0    0    0 -0.00000000000E+00 -0.00000000000E+00  0.11368683772E-12  0.17120000000E+03  0.17120000000E+03 0.  0.
         13    1    1    2    0    0 -0.18159891575E+02 -0.18012290063E+02  0.82296031154E+02  0.86179302405E+02  0.10566000000E+00 0.  1.
        994    1    1    2    0    0  0.14517289929E+02  0.18090866330E+02  0.55775928538E+01  0.17285421804E+03  0.17120000000E+03 0.  0.
        998    1    1    2    0    0  0.36426016458E+01 -0.78576266827E-01  0.14121263723E+04  0.14121664796E+04  0.10000000000E+02 0.  1.
</event>
<event>
 5    1  0.1666761E-008  0.3849326E+03  0.7957747E-01  0.3429958E+00
         13   -1    0    0    0    0  0.00000000000E+00  0.00000000000E+00  0.14999999963E+04  0.15000000000E+04  0.10566000000E+00 0. -1.
        994   -1    0    0    0    0 -0.00000000000E+00 -0.00000000000E+00  0.11368683772E-12  0.17120000000E+03  0.17120000000E+03 0.  0.
         13    1    1    2    0    0 -0.20005579102E+01 -0.14806647905E+02  0.73802194340E+02  0.75299496065E+02  0.10566000000E+00 0. -1.
        994    1    1    2    0    0  0.91302890074E+01 -0.53857095006E+01  0.20333017501E+01  0.17153991477E+03  0.17120000000E+03 0.  0.
        998    1    1    2    0    0 -0.71297310972E+01  0.20192357406E+02  0.14241645002E+04  0.14243605892E+04  0.10000000000E+02 0. -1.
</event>
<event>
 5    1  0.1666761E-008  0.3772687E+03  0.7957747E-01  0.3463138E+00
         13   -1    0    0    0    0  0.00000000000E+00  0.00000000000E+00  0.14999999963E+04  0.15000000000E+04  0.10566000000E+00 0. -1.
        994   -1    0    0    0    0 -0.00000000000E+00 -0.00000000000E+00  0.11368683772E-12  0.17120000000E+03  0.17120000000E+03 0.  0.
         13    1    1    2    0    0  0.41918312588E+02  0.86558448709E+00  0.12997777158E+03  0.13657278805E+03  0.10566000000E+00 0. -1.
        994    1    1    2    0    0 -0.62418516488E+02 -0.38442542974E+00  0.18776625139E+02  0.18318902979E+03  0.17120000000E+03 0.  0.
        998    1    1    2    0    0  0.20500203900E+02 -0.48115905736E+00  0.13512455996E+04  0.13514381822E+04  0.10000000000E+02 0. -1.
</event>
<event>
 5    1  0.1666761E-008  0.3845655E+03  0.7957747E-01  0.3431517E+00
         13   -1    0    0    0    0  0.00000000000E+00  0.00000000000E+00  0.14999999963E+04  0.15000000000E+04  0.10566000000E+00 0. -1.
        994   -1    0    0    0    0 -0.00000000000E+00 -0.00000000000E+00  0.11368683772E-12  0.17120000000E+03  0.17120000000E+03 0.  0.
         13    1    1    2    0    0  0.74316602628E+01 -0.16217178601E+02  0.94354739777E+02  0.96026322112E+02  0.10566000000E+00 0. -1.
        994    1    1    2    0    0 -0.25237896807E+01 -0.24815393885E+01  0.18872882082E+01  0.17124698365E+03  0.17120000000E+03 0.  0.
        998    1    1    2    0    0 -0.49078705820E+01  0.18698717990E+02  0.14037579683E+04  0.14039266942E+04  0.10000000000E+02 0. -1.
</event>
<event>
 5    1  0.1666761E-008  0.3838181E+03  0.7957747E-01  0.3434700E+00
         13   -1    0    0    0    0  0.00000000000E+00  0.00000000000E+00  0.14999999963E+04  0.15000000000E+04  0.10566000000E+00 0. -1.
        994   -1    0    0    0    0 -0.00000000000E+00 -0.00000000000E+00  0.11368683772E-12  0.17120000000E+03  0.17120000000E+03 0.  0.
         13    1    1    2    0    0  0.16271161678E+02 -0.15216375582E+02  0.13124334062E+03  0.13312067612E+03  0.10566000000E+00 0. -1.
        994    1    1    2    0    0  0.13889322520E+02  0.57070887952E+01  0.29628143299E+01  0.17188281593E+03  0.17120000000E+03 0.  0.
        998    1    1    2    0    0 -0.30160484198E+02  0.95092867873E+01  0.13657938413E+04  0.13661965080E+04  0.10000000000E+02 0. -1.
</event>
<event>
 5    1  0.1666761E-008  0.3911148E+03  0.7957747E-01  0.3404146E+00
         13   -1    0    0    0    0  0.00000000000E+00  0.00000000000E+00  0.14999999963E+04  0.15000000000E+04  0.10566000000E+00 0.  1.
        994   -1    0    0    0    0 -0.00000000000E+00 -0.00000000000E+00  0.11368683772E-12  0.17120000000E+03  0.17120000000E+03 0.  0.
         13    1    1    2    0    0 -0.13567831417E+03 -0.23280699333E+01  0.39863652593E+03  0.42109988817E+03  0.10566000000E+00 0.  1.
        994    1    1    2    0    0  0.96416795641E+02 -0.12306817288E+03  0.12213900598E+03  0.26204837424E+03  0.17120000000E+03 0.  0.
        998    1    1    2    0    0  0.39261518533E+02  0.12539624281E+03  0.97922446436E+03  0.98805173759E+03  0.10000000000E+02 0.  1.
</event>
<event>
 5    1  0.1666761E-008  0.3714173E+03  0.7957747E-01  0.3489402E+00
         13   -1    0    0    0    0  0.00000000000E+00  0.00000000000E+00  0.14999999963E+04  0.15000000000E+04  0.10566000000E+00 0. -1.
        994   -1    0    0    0    0 -0.00000000000E+00 -0.00000000000E+00  0.11368683772E-12  0.17120000000E+03  0.17120000000E+03 0.  0.
         13    1    1    2    0    0  0.40459612655E+02 -0.11986513840E+02  0.97242072497E+02  0.10600324805E+03  0.10566000000E+00 0. -1.
        994    1    1    2    0    0 -0.39425491685E+02 -0.21179517761E+01  0.13912938766E+02  0.17624376579E+03  0.17120000000E+03 0.  0.
        998    1    1    2    0    0 -0.10341209698E+01  0.14104465616E+02  0.13888449850E+04  0.13889529862E+04  0.10000000000E+02 0. -1.
</event>
<event>
 5    1  0.1666761E-008  0.3788344E+03  0.7957747E-01  0.3456250E+00
         13   -1    0    0    0    0  0.00000000000E+00  0.00000000000E+00  0.14999999963E+04  0.15000000000E+04  0.10566000000E+00 0. -1.
        994   -1    0    0    0    0 -0.00000000000E+00 -0.00000000000E+00  0.11368683772E-12  0.17120000000E+03  0.17120000000E+03 0.  0.
         13    1    1    2    0    0  0.12239269576E+03  0.18940954088E+02  0.35932333478E+03  0.38006841726E+03  0.10566000000E+00 0. -1.
        994    1    1    2    0    0 -0.12143909351E+03 -0.19451288979E+02  0.72512344274E+02  0.22291990971E+03  0.17120000000E+03 0.  0.
        998    1    1    2    0    0 -0.95360225344E+00  0.51033489075E+00  0.10681643172E+04  0.10682116730E+04  0.10000000000E+02 0.  0.
</event>
<event>
 5    1  0.1666761E-008  0.3852111E+03  0.7957747E-01  0.3428777E+00
         13   -1    0    0    0    0  0.00000000000E+00  0.00000000000E+00  0.14999999963E+04  0.15000000000E+04  0.10566000000E+00 0.  1.
        994   -1    0    0    0    0 -0.00000000000E+00 -0.00000000000E+00  0.11368683772E-12  0.17120000000E+03  0.17120000000E+03 0.  0.
         13    1    1    2    0    0 -0.12925651231E+02  0.47334655088E+01  0.60232654650E+02  0.61785613258E+02  0.10566000000E+00 0.  1.
        994    1    1    2    0    0  0.12853042680E+02 -0.66169520043E+01  0.22124850951E+01  0.17182351367E+03  0.17120000000E+03 0.  0.
        998    1    1    2    0    0  0.72608550511E-01  0.18834864955E+01  0.14375548565E+04  0.14375908731E+04  0.10000000000E+02 0.  1.
</event>
<event>
 5    1  0.1666761E-008  0.3857303E+03  0.7957747E-01  0.3426581E+00
         13   -1    0    0    0    0  0.00000000000E+00  0.00000000000E+00  0.14999999963E+04  0.15000000000E+04  0.10566000000E+00 0.  1.
        994   -1    0    0    0    0 -0.00000000000E+00 -0.00000000000E+00  0.11368683772E-12  0.17120000000E+03  0.17120000000E+03 0.  0.
         13    1    1    2    0    0  0.11489298667E+02 -0.79402081740E+01  0.84067194257E+02  0.85219453202E+02  0.10566000000E+00 0.  1.
        994    1    1    2    0    0  0.34036483033E+01  0.37988360222E+01  0.13533676134E+01  0.17128131124E+03  0.17120000000E+03 0.  0.
        998    1    1    2    0    0 -0.14892946971E+02  0.41413721518E+01  0.14145794344E+04  0.14146992356E+04  0.10000000000E+02 0.  1.
</event>
<event>
 5    1  0.1666761E-008  0.3743657E+03  0.7957747E-01  0.3476065E+00
         13   -1    0    0    0    0  0.00000000000E+00  0.00000000000E+00  0.14999999963E+04  0.15000000000E+04  0.10566000000E+00 0. -1.
        994   -1    0    0    0    0 -0.00000000000E+00 -0.00000000000E+00  0.11368683772E-12  0.17120000000E+03  0.17120000000E+03 0.  0.
         13    1    1    2    0    0  0.24579841811E+02 -0.58526587607E+02  0.35292879585E+03  0.35859207490E+03  0.10566000000E+00 0. -1.
        994    1    1    2    0    0 -0.10611606857E+02  0.77807015975E+01  0.75948667220E+01  0.17187282367E+03  0.17120000000E+03 0.  0.
        998    1    1    2    0    0 -0.13968234953E+02  0.50745886010E+02  0.11394763337E+04  0.11407351014E+04  0.10000000000E+02 0. -1.
</event>
<event>
 5    1  0.1666761E-008  0.3855774E+03  0.7957747E-01  0.3427227E+00
         13   -1    0    0    0    0  0.00000000000E+00  0.00000000000E+00  0.14999999963E+04  0.15000000000E+04  0.10566000000E+00 0.  1.
        994   -1    0    0    0    0 -0.00000000000E+00 -0.00000000000E+00  0.11368683772E-12  0.17120000000E+03  0.17120000000E+03 0.  0.
         13    1    1    2    0    0 -0.45796943303E+01  0.10503930021E+02  0.48788050631E+02  0.50115777899E+02  0.10566000000E+00 0.  1.
        994    1    1    2    0    0  0.83156025585E+01 -0.60274750598E+01  0.16900534286E+01  0.17151610998E+03  0.17120000000E+03 0.  0.
        998    1    1    2    0    0 -0.37359082282E+01 -0.44764549615E+01  0.14495218922E+04  0.14495681121E+04  0.10000000000E+02 0.  1.
</event>
<event>
 5    1  0.1666761E-008  0.3852509E+03  0.7957747E-01  0.3428609E+00
         13   -1    0    0    0    0  0.00000000000E+00  0.00000000000E+00  0.14999999963E+04  0.15000000000E+04  0.10566000000E+00 0. -1.
        994   -1    0    0    0    0 -0.00000000000E+00 -0.00000000000E+00  0.11368683772E-12  0.17120000000E+03  0.17120000000E+03 0.  0.
         13    1    1    2    0    0  0.39812468472E+01 -0.14513089512E+02  0.79839219821E+02  0.81245260042E+02  0.10566000000E+00 0. -1.
        994    1    1    2    0    0  0.26803889575E+01  0.29214730902E+01  0.15572627298E+01  0.17125298408E+03  0.17120000000E+03 0.  0.
        998    1    1    2    0    0 -0.66616358048E+01  0.11591616421E+02  0.14186035137E+04  0.14187017559E+04  0.10000000000E+02 0. -1.
</event>
<event>
 5    1  0.1666761E-008  0.3829281E+03  0.7957747E-01  0.3438507E+00
         13   -1    0    0    0    0  0.00000000000E+00  0.00000000000E+00  0.14999999963E+04  0.15000000000E+04  0.10566000000E+00 0.  1.
        994   -1    0    0    0    0 -0.00000000000E+00 -0.00000000000E+00  0.11368683772E-12  0.17120000000E+03  0.17120000000E+03 0.  0.
         13    1    1    2    0    0  0.17303534935E+02  0.28418762960E+01  0.57442604460E+02  0.60059575034E+02  0.10566000000E+00 0.  1.
        994    1    1    2    0    0 -0.88978818362E+01 -0.54691141180E+01  0.30235746693E+01  0.17154493730E+03  0.17120000000E+03 0.  0.
        998    1    1    2    0    0 -0.84056530990E+01  0.26272378220E+01  0.14395338171E+04  0.14395954877E+04  0.10000000000E+02 0.  1.
</event>
<event>
 5    1  0.1666761E-008  0.3854288E+03  0.7957747E-01  0.3427856E+00
         13   -1    0    0    0    0  0.00000000000E+00  0.00000000000E+00  0.14999999963E+04  0.15000000000E+04  0.10566000000E+00 0.  1.
        994   -1    0    0    0    0 -0.00000000000E+00 -0.00000000000E+00  0.11368683772E-12  0.17120000000E+03  0.17120000000E+03 0.  0.
         13    1    1    2    0    0  0.10290120970E+02  0.49168046249E+01  0.47464633711E+02  0.48815614046E+02  0.10566000000E+00 0.  1.
        994    1    1    2    0    0 -0.14936708672E+01 -0.24212331215E+01  0.14439640413E+01  0.17122972421E+03  0.17120000000E+03 0.  0.
        998    1    1    2    0    0 -0.87964501031E+01 -0.24955715034E+01  0.14510913985E+04  0.14511546617E+04  0.10000000000E+02 0.  1.
</event>
<event>
 5    1  0.1666761E-008  0.3783507E+03  0.7957747E-01  0.3458372E+00
         13   -1    0    0    0    0  0.00000000000E+00  0.00000000000E+00  0.14999999963E+04  0.15000000000E+04  0.10566000000E+00 0. -1.
        994   -1    0    0    0    0 -0.00000000000E+00 -0.00000000000E+00  0.11368683772E-12  0.17120000000E+03  0.17120000000E+03 0.  0.
         13    1    1    2    0    0  0.47141085233E+02  0.28581547874E+02  0.24887060346E+03  0.25490346256E+03  0.10566000000E+00 0. -1.
        994    1    1    2    0    0 -0.62263071128E+02 -0.11309299021E+02  0.18548559298E+02  0.18346138374E+03  0.17120000000E+03 0.  0.
        998    1    1    2    0    0  0.15121985896E+02 -0.17272248853E+02  0.12325808335E+04  0.12328351537E+04  0.10000000000E+02 0. -1.
</event>
<event>
 5    1  0.1666761E-008  0.3752290E+03  0.7957747E-01  0.3472199E+00
         13   -1    0    0    0    0  0.00000000000E+00  0.00000000000E+00  0.14999999963E+04  0.15000000000E+04  0.10566000000E+00 0.  1.
        994   -1    0    0    0    0 -0.00000000000E+00 -0.00000000000E+00  0.11368683772E-12  0.17120000000E+03  0.17120000000E+03 0.  0.
         13    1    1    2    0    0  0.37124863129E+02 -0.37438218917E+02  0.25744849542E+03  0.26279196079E+03  0.10566000000E+00 0.  1.
        994    1    1    2    0    0  0.17261651532E+01  0.41438389452E+01  0.66296388427E+01  0.17138711491E+03  0.17120000000E+03 0.  0.
        998    1    1    2    0    0 -0.38851028282E+02  0.33294379971E+02  0.12359218620E+04  0.12370209243E+04  0.10000000000E+02 0.  1.
</event>
<event>
 5    1  0.1666761E-008  0.3852840E+03  0.7957747E-01  0.3428469E+00
         13   -1    0    0    0    0  0.00000000000E+00  0.00000000000E+00  0.14999999963E+04  0.15000000000E+04  0.10566000000E+00 0. -1.
        994   -1    0    0    0    0 -0.00000000000E+00 -0.00000000000E+00  0.11368683772E-12  0.17120000000E+03  0.17120000000E+03 0.  0.
         13    1    1    2    0    0 -0.92604754053E+01 -0.39267219788E+01  0.33749235541E+02  0.35216439540E+02  0.10566000000E+00 0. -1.
        994    1    1    2    0    0  0.72842964729E+01  0.27499489680E+01  0.16884250932E+01  0.17138527934E+03  0.17120000000E+03 0.  0.
        998    1    1    2    0    0  0.19761789324E+01  0.11767730108E+01  0.14645623356E+04  0.14645982811E+04  0.10000000000E+02 0. -1.
</event>
<event>
 5    1  0.1666761E-008  0.3853814E+03  0.7957747E-01  0.3428056E+00
         13   -1    0    0    0    0  0.00000000000E+00  0.00000000000E+00  0.14999999963E+04  0.15000000000E+04  0.10566000000E+00 0.  1.
        994   -1    0    0    0    0 -0.00000000000E+00 -0.00000000000E+00  0.11368683772E-12  0.17120000000E+03  0.17120000000E+03 0.  0.
         13    1    1    2    0    0  0.11716247772E+02 -0.34847993776E+01  0.55333240212E+02  0.56667388549E+02  0.10566000000E+00 0.  1.
        994    1    1    2    0    0  0.39292749136E+01  0.76063828323E+01  0.16816752882E+01  0.17142218145E+03  0.17120000000E+03 0.  0.
        998    1    1    2    0    0 -0.15645522685E+02 -0.41215834547E+01  0.14429850808E+04  0.14431104300E+04  0.10000000000E+02 0.  1.
</event>
<event>
 5    1  0.1666761E-008  0.3841261E+03  0.7957747E-01  0.3433387E+00
         13   -1    0    0    0    0  0.00000000000E+00  0.00000000000E+00  0.14999999963E+04  0.15000000000E+04  0.10566000000E+00 0.  1.
        994   -1    0    0    0    0 -0.00000000000E+00 -0.00000000000E+00  0.11368683772E-12  0.17120000000E+03  0.17120000000E+03 0.  0.
         13    1    1    2    0    0 -0.10874504355E+02 -0.77607362857E+01  0.42581411556E+02  0.44628148593E+02  0.10566000000E+00 0.  1.
        994    1    1    2    0    0  0.57500939108E+01  0.89842793329E+01  0.24399708475E+01  0.17154933492E+03  0.17120000000E+03 0.  0.
        998    1    1    2    0    0  0.51244104439E+01 -0.12235430471E+01  0.14549786139E+04  0.14550225165E+04  0.10000000000E+02 0.  1.
</event>
<event>
 5    1  0.3141958E-008  0.3860042E+03  0.7957747E-01  0.3425424E+00
         13   -1    0    0    0    0  0.00000000000E+00  0.00000000000E+00  0.14999999963E+04  0.15000000000E+04  0.10566000000E+00 0.  1.
        994   -1    0    0    0    0 -0.00000000000E+00 -0.00000000000E+00  0.11368683772E-12  0.17120000000E+03  0.17120000000E+03 0.  0.
         13    1    1    2    0    0 -0.12820857862E+02 -0.54032995946E+01  0.78880387542E+02  0.80098044581E+02  0.10566000000E+00 0.  1.
        994    1    1    2    0    0  0.17674983613E+02  0.10402800916E+02  0.25123956751E+01  0.17244238297E+03  0.17120000000E+03 0.  0.
        998    1    1    2    0    0 -0.48541257510E+01 -0.49995013211E+01  0.14186072131E+04  0.14186595724E+04  0.10000000000E+02 0.  1.
</event>
<event>
 5    1  0.1666761E-008  0.3758369E+03  0.7957747E-01  0.3469488E+00
         13   -1    0    0    0    0  0.00000000000E+00  0.00000000000E+00  0.14999999963E+04  0.15000000000E+04  0.10566000000E+00 0. -1.
        994   -1    0    0    0    0 -0.00000000000E+00 -0.00000000000E+00  0.11368683772E-12  0.17120000000E+03  0.17120000000E+03 0.  0.
         13    1    1    2    0    0 -0.29395054006E+02 -0.18952205294E+02  0.10793481914E+03  0.11346008828E+03  0.10566000000E+00 0. -1.
        994    1    1    2    0    0  0.26732955077E+00 -0.10029571648E+02  0.65908604062E+01  0.17162034615E+03  0.17120000000E+03 0.  0.
        998    1    1    2    0    0  0.29127724455E+02  0.28981776942E+02  0.13854743167E+04  0.13861195656E+04  0.10000000000E+02 0. -1.
</event>
<event>
 5    1  0.1666761E-008  0.3698910E+03  0.7957747E-01  0.3496392E+00
         13   -1    0    0    0    0  0.00000000000E+00  0.00000000000E+00  0.14999999963E+04  0.15000000000E+04  0.10566000000E+00 0.  1.
        994   -1    0    0    0    0 -0.00000000000E+00 -0.00000000000E+00  0.11368683772E-12  0.17120000000E+03  0.17120000000E+03 0.  0.
         13    1    1    2    0    0 -0.15242371567E+02  0.37790445608E+02  0.68795315785E+02  0.79957828311E+02  0.10566000000E+00 0.  1.
        994    1    1    2    0    0  0.13735906938E+02 -0.40791246308E+02  0.17383440550E+02  0.17738157999E+03  0.17120000000E+03 0.  0.
        998    1    1    2    0    0  0.15064646299E+01  0.30008006998E+01  0.14138212399E+04  0.14138605917E+04  0.10000000000E+02 0.  1.
</event>
<event>
 5    1  0.1666761E-008  0.3812102E+03  0.7957747E-01  0.3445906E+00
         13   -1    0    0    0    0  0.00000000000E+00  0.00000000000E+00  0.14999999963E+04  0.15000000000E+04  0.10566000000E+00 0.  1.
        994   -1    0    0    0    0 -0.00000000000E+00 -0.00000000000E+00  0.11368683772E-12  0.17120000000E+03  0.17120000000E+03 0.  0.
         13    1    1    2    0    0 -0.51166699231E+01  0.14074700294E+02  0.31839409672E+02  0.35185745292E+02  0.10566000000E+00 0.  1.
        994    1    1    2    0    0 -0.51890350442E+01  0.12571614076E+01  0.36184274900E+01  0.17132145095E+03  0.17120000000E+03 0.  0.
        998    1    1    2    0    0  0.10305704967E+02 -0.15331861701E+02  0.14645421591E+04  0.14646928038E+04  0.10000000000E+02 0.  1.
</event>
<event>
 5    1  0.1666761E-008  0.3806436E+03  0.7957747E-01  0.3448361E+00
         13   -1    0    0    0    0  0.00000000000E+00  0.00000000000E+00  0.14999999963E+04  0.15000000000E+04  0.10566000000E+00 0. -1.
        994   -1    0    0    0    0 -0.00000000000E+00 -0.00000000000E+00  0.11368683772E-12  0.17120000000E+03  0.17120000000E+03 0.  0.
         13    1    1    2    0    0 -0.25577456901E+02  0.17323215767E+02  0.15251703331E+03  0.15561412764E+03  0.10566000000E+00 0. -1.
        994    1    1    2    0    0  0.30379006770E+00  0.20858166846E+02  0.52615586501E+01  0.17254645581E+03  0.17120000000E+03 0.  0.
        998    1    1    2    0    0  0.25273666833E+02 -0.38181382612E+02  0.13422214043E+04  0.13430394166E+04  0.10000000000E+02 0. -1.
</event>
<event>
 5    1  0.1666761E-008  0.3860721E+03  0.7957747E-01  0.3425138E+00
         13   -1    0    0    0    0  0.00000000000E+00  0.00000000000E+00  0.14999999963E+04  0.15000000000E+04  0.10566000000E+00 0.  1.
        994   -1    0    0    0    0 -0.00000000000E+00 -0.00000000000E+00  0.11368683772E-12  0.17120000000E+03  0.17120000000E+03 0.  0.
         13    1    1    2    0    0 -0.10534607135E+02 -0.32166464433E+01  0.49706013309E+02  0.50911920853E+02  0.10566000000E+00 0.  1.
        994    1    1    2    0    0  0.23466208756E+02  0.10071488409E+02  0.32387827120E+01  0.17312431240E+03  0.17120000000E+03 0.  0.
        998    1    1    2    0    0 -0.12931601621E+02 -0.68548419661E+01  0.14470552003E+04  0.14471637667E+04  0.10000000000E+02 0.  1.
</event>
<event>
 5    1  0.1666761E-008  0.3840625E+03  0.7957747E-01  0.3433658E+00
         13   -1    0    0    0    0  0.00000000000E+00  0.00000000000E+00  0.14999999963E+04  0.15000000000E+04  0.10566000000E+00 0. -1.
        994   -1    0    0    0    0 -0.00000000000E+00 -0.00000000000E+00  0.11368683772E-12  0.17120000000E+03  0.17120000000E+03 0.  0.
         13    1    1    2    0    0 -0.10836525546E+01 -0.16307960065E+02  0.78006198245E+02  0.79700075238E+02  0.10566000000E+00 0. -1.
        994    1    1    2    0    0 -0.35449784167E+01 -0.21796500175E+02  0.37065780031E+01  0.17265813914E+03  0.17120000000E+03 0.  0.
        998    1    1    2    0    0  0.46286309712E+01  0.38104460240E+02  0.14182872200E+04  0.14188417856E+04  0.10000000000E+02 0. -1.
</event>
<event>
 5    1  0.1666761E-008  0.3797102E+03  0.7957747E-01  0.3452421E+00
         13   -1    0    0    0    0  0.00000000000E+00  0.00000000000E+00  0.14999999963E+04  0.15000000000E+04  0.10566000000E+00 0. -1.
        994   -1    0    0    0    0 -0.00000000000E+00 -0.00000000000E+00  0.11368683772E-12  0.17120000000E+03  0.17120000000E+03 0.  0.
         13    1    1    2    0    0 -0.14958190377E+02 -0.99488130100E+01  0.34091348221E+02  0.38535146649E+02  0.10566000000E+00 0. -1.
        994    1    1    2    0    0  0.16124979649E+02  0.28809375913E+02  0.79353638029E+01  0.17453482491E+03  0.17120000000E+03 0.  0.
        998    1    1    2    0    0 -0.11667892721E+01 -0.18860562903E+02  0.14579732843E+04  0.14581300284E+04  0.10000000000E+02 0. -1.
</event>
<event>
 5    1  0.1666761E-008  0.3846549E+03  0.7957747E-01  0.3431137E+00
         13   -1    0    0    0    0  0.00000000000E+00  0.00000000000E+00  0.14999999963E+04  0.15000000000E+04  0.10566000000E+00 0. -1.
        994   -1    0    0    0    0 -0.00000000000E+00 -0.00000000000E+00  0.11368683772E-12  0.17120000000E+03  0.17120000000E+03 0.  0.
         13    1    1    2    0    0  0.95017355120E+01  0.20200849694E+02  0.13461214375E+03  0.13645071533E+03  0.10566000000E+00 0. -1.
        994    1    1    2    0    0 -0.92608813249E+01 -0.14156888733E+02  0.27443535263E+01  0.17205566802E+03  0.17120000000E+03 0.  0.
        998    1    1    2    0    0 -0.24085418711E+00 -0.60439609608E+01  0.13626434990E+04  0.13626936167E+04  0.10000000000E+02 0. -1.
</event>
<event>
 5    1  0.1666761E-008  0.3806463E+03  0.7957747E-01  0.3448349E+00
         13   -1    0    0    0    0  0.00000000000E+00  0.00000000000E+00  0.14999999963E+04  0.15000000000E+04  0.10566000000E+00 0. -1.
        994   -1    0    0    0    0 -0.00000000000E+00 -0.00000000000E+00  0.11368683772E-12  0.17120000000E+03  0.17120000000E+03 0.  0.
         13    1    1    2    0    0  0.17673737607E+02 -0.11904468918E+02  0.53061811746E+02  0.57180804568E+02  0.10566000000E+00 0. -1.
        994    1    1    2    0    0 -0.24565573253E+02  0.30463344459E+02  0.89329078821E+01  0.17584288325E+03  0.17120000000E+03 0.  0.
        998    1    1    2    0    0  0.68918356465E+01 -0.18558875542E+02  0.14380052767E+04  0.14381763122E+04  0.10000000000E+02 0. -1.
</event>
<event>
 5    1  0.1666761E-008  0.3757308E+03  0.7957747E-01  0.3469961E+00
         13   -1    0    0    0    0  0.00000000000E+00  0.00000000000E+00  0.14999999963E+04  0.15000000000E+04  0.10566000000E+00 0.  1.
        994   -1    0    0    0    0 -0.00000000000E+00 -0.00000000000E+00  0.11368683772E-12  0.17120000000E+03  0.17120000000E+03 0.  0.
         13    1    1    2    0    0 -0.39012263878E+02  0.10945641176E+03  0.47601232734E+03  0.48999021394E+03  0.10566000000E+00 0.  1.
        994    1    1    2    0    0  0.30844885210E+02 -0.15186144576E+03  0.92638620287E+02  0.24880647022E+03  0.17120000000E+03 0.  0.
        998    1    1    2    0    0  0.81673786684E+01  0.42405034001E+02  0.93134904865E+03  0.93240331584E+03  0.10000000000E+02 0.  1.
</event>
<event>
 5    1  0.1666761E-008  0.3808204E+03  0.7957747E-01  0.3447594E+00
         13   -1    0    0    0    0  0.00000000000E+00  0.00000000000E+00  0.14999999963E+04  0.15000000000E+04  0.10566000000E+00 0.  1.
        994   -1    0    0    0    0 -0.00000000000E+00 -0.00000000000E+00  0.11368683772E-12  0.17120000000E+03  0.17120000000E+03 0.  0.
         13    1    1    2    0    0 -0.27017946484E+01 -0.10116274678E+02  0.13055285047E+02  0.16735899719E+02  0.10566000000E+00 0.  1.
        994    1    1    2    0    0 -0.20444376373E+01  0.11031641745E+02  0.41393735654E+01  0.17161716481E+03  0.17120000000E+03 0.  0.
        998    1    1    2    0    0  0.47462322858E+01 -0.91536706635E+00  0.14828053377E+04  0.14828469355E+04  0.10000000000E+02 0.  1.
</event>
<event>
 5    1  0.1666761E-008  0.3857196E+03  0.7957747E-01  0.3426626E+00
         13   -1    0    0    0    0  0.00000000000E+00  0.00000000000E+00  0.14999999963E+04  0.15000000000E+04  0.10566000000E+00 0.  1.
        994   -1    0    0    0    0 -0.00000000000E+00 -0.00000000000E+00  0.11368683772E-12  0.17120000000E+03  0.17120000000E+03 0.  0.
         13    1    1    2    0    0  0.52688759832E+01 -0.13589514228E+02  0.76532204110E+02  0.77907800515E+02  0.10566000000E+00 0.  1.
        994    1    1    2    0    0 -0.18806449656E+02  0.16399002321E+02  0.33187412902E+01  0.17304064225E+03  0.17120000000E+03 0.  0.
        998    1    1    2    0    0  0.13537573673E+02 -0.28094880933E+01  0.14201490509E+04  0.14202515572E+04  0.10000000000E+02 0.  1.
</event>
<event>
 5    1  0.1666761E-008  0.3790211E+03  0.7957747E-01  0.3455432E+00
         13   -1    0    0    0    0  0.00000000000E+00  0.00000000000E+00  0.14999999963E+04  0.15000000000E+04  0.10566000000E+00 0. -1.
        994   -1    0    0    0    0 -0.00000000000E+00 -0.00000000000E+00  0.11368683772E-12  0.17120000000E+03  0.17120000000E+03 0.  0.
         13    1    1    2    0    0 -0.16280035477E+02 -0.28387550352E+02  0.28917660112E+02  0.43670754522E+02  0.10566000000E+00 0. -1.
        994    1    1    2    0    0 -0.71518271575E+01  0.86128044786E+01  0.16243370876E+02  0.17233286434E+03  0.17120000000E+03 0.  0.
        998    1    1    2    0    0  0.23431862635E+02  0.19774745874E+02  0.14548389653E+04  0.14551963811E+04  0.10000000000E+02 0. -1.
</event>
<event>
 5    1  0.1666761E-008  0.3833968E+03  0.7957747E-01  0.3436500E+00
         13   -1    0    0    0    0  0.00000000000E+00  0.00000000000E+00  0.14999999963E+04  0.15000000000E+04  0.10566000000E+00 0. -1.
        994   -1    0    0    0    0 -0.00000000000E+00 -0.00000000000E+00  0.11368683772E-12  0.17120000000E+03  0.17120000000E+03 0.  0.
         13    1    1    2    0    0 -0.92082024191E+01  0.82788013361E+01  0.32067633098E+02  0.34375482540E+02  0.10566000000E+00 0. -1.
        994    1    1    2    0    0 -0.24309884404E+01  0.24622154906E+00  0.24479106584E+01  0.17123493393E+03  0.17120000000E+03 0.  0.
        998    1    1    2    0    0  0.11639190860E+02 -0.85250228852E+01  0.14654844525E+04  0.14655895835E+04  0.10000000000E+02 0. -1.
</event>
<event>
 5    1  0.1666761E-008  0.3852219E+03  0.7957747E-01  0.3428732E+00
         13   -1    0    0    0    0  0.00000000000E+00  0.00000000000E+00  0.14999999963E+04  0.15000000000E+04  0.10566000000E+00 0. -1.
        994   -1    0    0    0    0 -0.00000000000E+00 -0.00000000000E+00  0.11368683772E-12  0.17120000000E+03  0.17120000000E+03 0.  0.
         13    1    1    2    0    0 -0.23152660108E+01 -0.11718620445E+02  0.49801298943E+02  0.51213934259E+02  0.10566000000E+00 0. -1.
        994    1    1    2    0    0  0.10225674242E+01 -0.22830327580E+01  0.15405905914E+01  0.17122520639E+03  0.17120000000E+03 0.  0.
        998    1    1    2    0    0  0.12926985866E+01  0.14001653203E+02  0.14486581067E+04  0.14487608594E+04  0.10000000000E+02 0. -1.
</event>
<event>
 5    1  0.1666761E-008  0.3842804E+03  0.7957747E-01  0.3432730E+00
         13   -1    0    0    0    0  0.00000000000E+00  0.00000000000E+00  0.14999999963E+04  0.15000000000E+04  0.10566000000E+00 0.  1.
        994   -1    0    0    0    0 -0.00000000000E+00 -0.00000000000E+00  0.11368683772E-12  0.17120000000E+03  0.17120000000E+03 0.  0.
         13    1    1    2    0    0 -0.72105787195E+01  0.76041962618E+01  0.26509175229E+02  0.28505504409E+02  0.10566000000E+00 0.  1.
        994    1    1    2    0    0  0.91454564720E+01 -0.90642404232E+01  0.25345671826E+01  0.17170225351E+03  0.17120000000E+03 0.  0.
        998    1    1    2    0    0 -0.19348777525E+01  0.14600441613E+01  0.14709562539E+04  0.14709922421E+04  0.10000000000E+02 0.  1.
</event>
<event>
 5    1  0.1666761E-008  0.3851443E+03  0.7957747E-01  0.3429060E+00
         13   -1    0    0    0    0  0.00000000000E+00  0.00000000000E+00  0.14999999963E+04  0.15000000000E+04  0.10566000000E+00 0. -1.
        994   -1    0    0    0    0 -0.00000000000E+00 -0.00000000000E+00  0.11368683772E-12  0.17120000000E+03  0.17120000000E+03 0.  0.
         13    1    1    2    0    0  0.10270547974E+02 -0.59669979729E+00  0.33475006275E+02  0.35020385713E+02  0.10566000000E+00 0. -1.
        994    1    1    2    0    0 -0.93421849649E+01 -0.21177967612E+01  0.18601979881E+01  0.17147787560E+03  0.17120000000E+03 0.  0.
        998    1    1    2    0    0 -0.92836300863E+00  0.27144965585E+01  0.14646647920E+04  0.14647017387E+04  0.10000000000E+02 0. -1.
</event>
<event>
 5    1  0.1666761E-008  0.2437978E+03  0.7957747E-01  0.4402253E+00
         13   -1    0    0    0    0  0.00000000000E+00  0.00000000000E+00  0.14999999963E+04  0.15000000000E+04  0.10566000000E+00 0. -1.
        994   -1    0    0    0    0 -0.00000000000E+00 -0.00000000000E+00  0.11368683772E-12  0.17120000000E+03  0.17120000000E+03 0.  0.
         13    1    1    2    0    0 -0.17144152493E+03  0.30684361503E+02  0.19861777202E+03  0.26416426147E+03  0.10566000000E+00 0. -1.
        994    1    1    2    0    0  0.16671515917E+03 -0.39718810038E+02  0.22517466312E+03  0.33073342298E+03  0.17120000000E+03 0.  0.
        998    1    1    2    0    0  0.47263657553E+01  0.90344485350E+01  0.10762075611E+04  0.10763023155E+04  0.10000000000E+02 0. -1.
</event>
<event>
 5    1  0.1666761E-008  0.3767575E+03  0.7957747E-01  0.3465400E+00
         13   -1    0    0    0    0  0.00000000000E+00  0.00000000000E+00  0.14999999963E+04  0.15000000000E+04  0.10566000000E+00 0.  1.
        994   -1    0    0    0    0 -0.00000000000E+00 -0.00000000000E+00  0.11368683772E-12  0.17120000000E+03  0.17120000000E+03 0.  0.
         13    1    1    2    0    0  0.16521195974E+02  0.41177058666E+02  0.18927181420E+03  0.19440249713E+03  0.10566000000E+00 0.  1.
        994    1    1    2    0    0 -0.14131756676E+01 -0.71552450787E+01  0.59587655520E+01  0.17145886237E+03  0.17120000000E+03 0.  0.
        998    1    1    2    0    0 -0.15108020307E+02 -0.34021813587E+02  0.13047694165E+04  0.13053386405E+04  0.10000000000E+02 0.  1.
</event>
<event>
 5    1  0.1666761E-008  0.3700988E+03  0.7957747E-01  0.3495437E+00
         13   -1    0    0    0    0  0.00000000000E+00  0.00000000000E+00  0.14999999963E+04  0.15000000000E+04  0.10566000000E+00 0. -1.
        994   -1    0    0    0    0 -0.00000000000E+00 -0.00000000000E+00  0.11368683772E-12  0.17120000000E+03  0.17120000000E+03 0.  0.
         13    1    1    2    0    0  0.67143639539E+02  0.52492409066E+02  0.45953052184E+03  0.46736712872E+03  0.10566000000E+00 0. -1.
        994    1    1    2    0    0 -0.10086820109E+02 -0.24983675036E+01  0.11368807747E+02  0.17189146451E+03  0.17120000000E+03 0.  0.
        998    1    1    2    0    0 -0.57056819430E+02 -0.49994041562E+02  0.10291006667E+04  0.10319414068E+04  0.10000000000E+02 0. -1.
</event>
<event>
 5    1  0.1666761E-008  0.3853700E+03  0.7957747E-01  0.3428105E+00
         13   -1    0    0    0    0  0.00000000000E+00  0.00000000000E+00  0.14999999963E+04  0.15000000000E+04  0.10566000000E+00 0. -1.
        994   -1    0    0    0    0 -0.00000000000E+00 -0.00000000000E+00  0.11368683772E-12  0.17120000000E+03  0.17120000000E+03 0.  0.
         13    1    1    2    0    0 -0.10233366898E+02  0.47410187123E+01  0.44400543968E+02  0.45810681344E+02  0.10566000000E+00 0. -1.
        994    1    1    2    0    0  0.13175035258E+02  0.12997350742E+02  0.25724258637E+01  0.17221663699E+03  0.17120000000E+03 0.  0.
        998    1    1    2    0    0 -0.29416683596E+01 -0.17738369454E+02  0.14530270264E+04  0.14531726817E+04  0.10000000000E+02 0. -1.
</event>
<event>
 5    1  0.1666761E-008  0.3841242E+03  0.7957747E-01  0.3433395E+00
         13   -1    0    0    0    0  0.00000000000E+00  0.00000000000E+00  0.14999999963E+04  0.15000000000E+04  0.10566000000E+00 0.  1.
        994   -1    0    0    0    0 -0.00000000000E+00 -0.00000000000E+00  0.11368683772E-12  0.17120000000E+03  0.17120000000E+03 0.  0.
         13    1    1    2    0    0  0.69659176983E+01 -0.22008194905E+02  0.12423453255E+03  0.12636104975E+03  0.10566000000E+00 0.  1.
        994    1    1    2    0    0  0.54084215550E+01  0.21467605009E+02  0.36836142176E+01  0.17266475640E+03  0.17120000000E+03 0.  0.
        998    1    1    2    0    0 -0.12374339253E+02  0.54058989553E+00  0.13720818495E+04  0.13721741939E+04  0.10000000000E+02 0.  1.
</event>
<event>
 5    1  0.1666761E-008  0.3733036E+03  0.7957747E-01  0.3480844E+00
         13   -1    0    0    0    0  0.00000000000E+00  0.00000000000E+00  0.14999999963E+04  0.15000000000E+04  0.10566000000E+00 0. -1.
        994   -1    0    0    0    0 -0.00000000000E+00 -0.00000000000E+00  0.11368683772E-12  0.17120000000E+03  0.17120000000E+03 0.  0.
         13    1    1    2    0    0  0.27657627811E+02 -0.24985932292E+02  0.87381356425E+02  0.94998704220E+02  0.10566000000E+00 0. -1.
        994    1    1    2    0    0 -0.17300779977E+02  0.23915213853E+02  0.10536828217E+02  0.17404516423E+03  0.17120000000E+03 0.  0.
        998    1    1    2    0    0 -0.10356847834E+02  0.10707184388E+01  0.14020818116E+04  0.14021561316E+04  0.10000000000E+02 0. -1.
</event>
<event>
 5    1  0.1666761E-008  0.3845100E+03  0.7957747E-01  0.3431753E+00
         13   -1    0    0    0    0  0.00000000000E+00  0.00000000000E+00  0.14999999963E+04  0.15000000000E+04  0.10566000000E+00 0.  1.
        994   -1    0    0    0    0 -0.00000000000E+00 -0.00000000000E+00  0.11368683772E-12  0.17120000000E+03  0.17120000000E+03 0.  0.
         13    1    1    2    0    0 -0.21973344944E+02 -0.11336914102E+01  0.12097028214E+03  0.12295500587E+03  0.10566000000E+00 0.  1.
        994    1    1    2    0    0  0.22272122998E+02 -0.88886588449E+01  0.37700585433E+01  0.17291243177E+03  0.17120000000E+03 0.  0.
        998    1    1    2    0    0 -0.29877805381E+00  0.10022350255E+02  0.13752596556E+04  0.13753325624E+04  0.10000000000E+02 0.  1.
</event>
<event>
 5    1  0.1666761E-008  0.3812407E+03  0.7957747E-01  0.3445774E+00
         13   -1    0    0    0    0  0.00000000000E+00  0.00000000000E+00  0.14999999963E+04  0.15000000000E+04  0.10566000000E+00 0.  1.
        994   -1    0    0    0    0 -0.00000000000E+00 -0.00000000000E+00  0.11368683772E-12  0.17120000000E+03  0.17120000000E+03 0.  0.
         13    1    1    2    0    0  0.84704419859E+01 -0.16153120557E+02  0.49023628394E+02  0.52306777726E+02  0.10566000000E+00 0.  1.
        994    1    1    2    0    0  0.31180806148E+00 -0.33811047231E+01  0.35465261163E+01  0.17127039131E+03  0.17120000000E+03 0.  0.
        998    1    1    2    0    0 -0.87822500474E+01  0.19534225280E+02  0.14474298418E+04  0.14476228310E+04  0.10000000000E+02 0.  1.
</event>
<event>
 5    1  0.1666761E-008  0.3689028E+03  0.7957747E-01  0.3500949E+00
         13   -1    0    0    0    0  0.00000000000E+00  0.00000000000E+00  0.14999999963E+04  0.15000000000E+04  0.10566000000E+00 0. -1.
        994   -1    0    0    0    0 -0.00000000000E+00 -0.00000000000E+00  0.11368683772E-12  0.17120000000E+03  0.17120000000E+03 0.  0.
         13    1    1    2    0    0  0.35976772680E+02  0.14349668565E+02  0.66391231404E+02  0.76863827200E+02  0.10566000000E+00 0. -1.
        994    1    1    2    0    0 -0.26988834758E+02 -0.29326302049E+02  0.15912091053E+02  0.17649663973E+03  0.17120000000E+03 0.  0.
        998    1    1    2    0    0 -0.89879379228E+01  0.14976633484E+02  0.14176966738E+04  0.14178395331E+04  0.10000000000E+02 0. -1.
</event>
<event>
 5    1  0.1666761E-008  0.3722422E+03  0.7957747E-01  0.3485649E+00
         13   -1    0    0    0    0  0.00000000000E+00  0.00000000000E+00  0.14999999963E+04  0.15000000000E+04  0.10566000000E+00 0. -1.
        994   -1    0    0    0    0 -0.00000000000E+00 -0.00000000000E+00  0.11368683772E-12  0.17120000000E+03  0.17120000000E+03 0.  0.
         13    1    1    2    0    0 -0.21622600935E+02 -0.15849244115E+02  0.24211962122E+02  0.36124308769E+02  0.10566000000E+00 0. -1.
        994    1    1    2    0    0  0.23040160613E+02  0.12710996642E+02  0.14573032424E+02  0.17382241429E+03  0.17120000000E+03 0.  0.
        998    1    1    2    0    0 -0.14175596782E+01  0.31382474730E+01  0.14612150017E+04  0.14612532769E+04  0.10000000000E+02 0. -1.
</event>
<event>
 5    1  0.1666761E-008  0.3835790E+03  0.7957747E-01  0.3435721E+00
         13   -1    0    0    0    0  0.00000000000E+00  0.00000000000E+00  0.14999999963E+04  0.15000000000E+04  0.10566000000E+00 0. -1.
        994   -1    0    0    0    0 -0.00000000000E+00 -0.00000000000E+00  0.11368683772E-12  0.17120000000E+03  0.17120000000E+03 0.  0.
         13    1    1    2    0    0 -0.13829625412E+01  0.19145396973E+02  0.73764225917E+02  0.76220935443E+02  0.10566000000E+00 0. -1.
        994    1    1    2    0    0  0.67924511767E+01 -0.22312715298E+02  0.41366568446E+01  0.17283097693E+03  0.17120000000E+03 0.  0.
        998    1    1    2    0    0 -0.54094886354E+01  0.31673183251E+01  0.14220991135E+04  0.14221480876E+04  0.10000000000E+02 0. -1.
</event>
<event>
 5    1  0.1666761E-008  0.3806675E+03  0.7957747E-01  0.3448257E+00
         13   -1    0    0    0    0  0.00000000000E+00  0.00000000000E+00  0.14999999963E+04  0.15000000000E+04  0.10566000000E+00 0. -1.
        994   -1    0    0    0    0 -0.00000000000E+00 -0.00000000000E+00  0.11368683772E-12  0.17120000000E+03  0.17120000000E+03 0.  0.
         13    1    1    2    0    0 -0.51659023614E+01 -0.30697121517E+02  0.12283035515E+03  0.12671348440E+03  0.10566000000E+00 0. -1.
        994    1    1    2    0    0  0.28901435122E+01  0.23222704891E+02  0.56254139975E+01  0.17288358000E+03  0.17120000000E+03 0.  0.
        998    1    1    2    0    0  0.22757588492E+01  0.74744166256E+01  0.13715442271E+04  0.13716029356E+04  0.10000000000E+02 0. -1.
</event>
<event>
 5    1  0.1666761E-008  0.3771861E+03  0.7957747E-01  0.3463503E+00
         13   -1    0    0    0    0  0.00000000000E+00  0.00000000000E+00  0.14999999963E+04  0.15000000000E+04  0.10566000000E+00 0.  1.
        994   -1    0    0    0    0 -0.00000000000E+00 -0.00000000000E+00  0.11368683772E-12  0.17120000000E+03  0.17120000000E+03 0.  0.
         13    1    1    2    0    0 -0.65324297850E+02  0.27456906351E+02  0.33118917520E+03  0.33868484839E+03  0.10566000000E+00 0.  1.
        994    1    1    2    0    0  0.73593005488E+02 -0.24253065560E+02  0.26096247563E+02  0.18972241771E+03  0.17120000000E+03 0.  0.
        998    1    1    2    0    0 -0.82687076379E+01 -0.32038407915E+01  0.11427145735E+04  0.11427927339E+04  0.10000000000E+02 0.  0.
</event>
<event>
 5    1  0.1666761E-008  0.3783300E+03  0.7957747E-01  0.3458462E+00
         13   -1    0    0    0    0  0.00000000000E+00  0.00000000000E+00  0.14999999963E+04  0.15000000000E+04  0.10566000000E+00 0. -1.
        994   -1    0    0    0    0 -0.00000000000E+00 -0.00000000000E+00  0.11368683772E-12  0.17120000000E+03  0.17120000000E+03 0.  0.
         13    1    1    2    0    0 -0.19514047993E+02 -0.31813938229E+02  0.16101370582E+03  0.16528263478E+03  0.10566000000E+00 0. -1.
        994    1    1    2    0    0  0.15796641708E+01 -0.42044593781E+01  0.50463265931E+01  0.17133323738E+03  0.17120000000E+03 0.  0.
        998    1    1    2    0    0  0.17934383823E+02  0.36018397607E+02  0.13339399639E+04  0.13345841278E+04  0.10000000000E+02 0. -1.
</event>
<event>
 5    1  0.1666761E-008  0.3749338E+03  0.7957747E-01  0.3473519E+00
         13   -1    0    0    0    0  0.00000000000E+00  0.00000000000E+00  0.14999999963E+04  0.15000000000E+04  0.10566000000E+00 0. -1.
        994   -1    0    0    0    0 -0.00000000000E+00 -0.00000000000E+00  0.11368683772E-12  0.17120000000E+03  0.17120000000E+03 0.  0.
         13    1    1    2    0    0  0.12807026880E+02  0.22792921505E+02  0.50428400578E+02  0.56802922083E+02  0.10566000000E+00 0. -1.
        994    1    1    2    0    0 -0.11339879981E+02  0.22797090652E+01  0.71677581299E+01  0.17173993918E+03  0.17120000000E+03 0.  0.
        998    1    1    2    0    0 -0.14671468989E+01 -0.25072630571E+02  0.14424038376E+04  0.14426571387E+04  0.10000000000E+02 0. -1.
</event>
<event>
 5    1  0.1666761E-008  0.3709358E+03  0.7957747E-01  0.3491601E+00
         13   -1    0    0    0    0  0.00000000000E+00  0.00000000000E+00  0.14999999963E+04  0.15000000000E+04  0.10566000000E+00 0. -1.
        994   -1    0    0    0    0 -0.00000000000E+00 -0.00000000000E+00  0.11368683772E-12  0.17120000000E+03  0.17120000000E+03 0.  0.
         13    1    1    2    0    0 -0.23186723578E+02 -0.10589236522E+02  0.35211262237E+02  0.43469532236E+02  0.10566000000E+00 0. -1.
        994    1    1    2    0    0  0.48962927049E+00 -0.66325265625E+01  0.89332262229E+01  0.17156186253E+03  0.17120000000E+03 0.  0.
        998    1    1    2    0    0  0.22697094307E+02  0.17221763085E+02  0.14558555078E+04  0.14561686052E+04  0.10000000000E+02 0. -1.
</event>
<event>
 5    1  0.1666761E-008  0.3845588E+03  0.7957747E-01  0.3431546E+00
         13   -1    0    0    0    0  0.00000000000E+00  0.00000000000E+00  0.14999999963E+04  0.15000000000E+04  0.10566000000E+00 0. -1.
        994   -1    0    0    0    0 -0.00000000000E+00 -0.00000000000E+00  0.11368683772E-12  0.17120000000E+03  0.17120000000E+03 0.  0.
         13    1    1    2    0    0  0.88955459738E+01  0.68295939874E+01  0.34304172964E+02  0.36091017428E+02  0.10566000000E+00 0. -1.
        994    1    1    2    0    0  0.12962962458E+01 -0.70034486397E+01  0.20164503074E+01  0.17135995667E+03  0.17120000000E+03 0.  0.
        998    1    1    2    0    0 -0.10191842220E+02  0.17385465231E+00  0.14636793730E+04  0.14637490259E+04  0.10000000000E+02 0. -1.
</event>
<event>
 5    1  0.1666761E-008  0.3850885E+03  0.7957747E-01  0.3429297E+00
         13   -1    0    0    0    0  0.00000000000E+00  0.00000000000E+00  0.14999999963E+04  0.15000000000E+04  0.10566000000E+00 0.  1.
        994   -1    0    0    0    0 -0.00000000000E+00 -0.00000000000E+00  0.11368683772E-12  0.17120000000E+03  0.17120000000E+03 0.  0.
         13    1    1    2    0    0  0.51538983105E+01  0.18737263840E+02  0.11212411801E+03  0.11379576762E+03  0.10566000000E+00 0.  1.
        994    1    1    2    0    0  0.87834658780E+00 -0.20596183630E+02  0.29846587723E+01  0.17246252480E+03  0.17120000000E+03 0.  0.
        998    1    1    2    0    0 -0.60322448983E+01  0.18589197902E+01  0.13848912195E+04  0.13849417076E+04  0.10000000000E+02 0.  1.
</event>
<event>
 5    1  0.1666761E-008  0.3721656E+03  0.7957747E-01  0.3485997E+00
         13   -1    0    0    0    0  0.00000000000E+00  0.00000000000E+00  0.14999999963E+04  0.15000000000E+04  0.10566000000E+00 0.  1.
        994   -1    0    0    0    0 -0.00000000000E+00 -0.00000000000E+00  0.11368683772E-12  0.17120000000E+03  0.17120000000E+03 0.  0.
         13    1    1    2    0    0  0.26109792691E+02  0.20789073223E+02  0.60947420752E+02  0.69487452826E+02  0.10566000000E+00 0.  1.
        994    1    1    2    0    0 -0.36382213586E+02 -0.23794351233E+02  0.14655457367E+02  0.17724011692E+03  0.17120000000E+03 0.  0.
        998    1    1    2    0    0  0.10272420895E+02  0.30052780097E+01  0.14243971182E+04  0.14244724303E+04  0.10000000000E+02 0.  1.
</event>
<event>
 5    1  0.1666761E-008  0.3816837E+03  0.7957747E-01  0.3443860E+00
         13   -1    0    0    0    0  0.00000000000E+00  0.00000000000E+00  0.14999999963E+04  0.15000000000E+04  0.10566000000E+00 0. -1.
        994   -1    0    0    0    0 -0.00000000000E+00 -0.00000000000E+00  0.11368683772E-12  0.17120000000E+03  0.17120000000E+03 0.  0.
         13    1    1    2    0    0 -0.15358586582E+02 -0.20094063046E+01  0.35939587718E+02  0.39135521267E+02  0.10566000000E+00 0. -1.
        994    1    1    2    0    0  0.86039080428E+01 -0.22694812014E+02  0.52464607379E+01  0.17299146533E+03  0.17120000000E+03 0.  0.
        998    1    1    2    0    0  0.67546785387E+01  0.24704218318E+02  0.14588139478E+04  0.14590730134E+04  0.10000000000E+02 0. -1.
</event>
<event>
 5    1  0.1666761E-008  0.3845426E+03  0.7957747E-01  0.3431614E+00
         13   -1    0    0    0    0  0.00000000000E+00  0.00000000000E+00  0.14999999963E+04  0.15000000000E+04  0.10566000000E+00 0.  1.
        994   -1    0    0    0    0 -0.00000000000E+00 -0.00000000000E+00  0.11368683772E-12  0.17120000000E+03  0.17120000000E+03 0.  0.
         13    1    1    2    0    0  0.50532484954E+01 -0.36764699694E+02  0.29347328343E+02  0.47312316672E+02  0.10566000000E+00 0.  1.
        994    1    1    2    0    0 -0.11509201563E+02  0.23657554368E+02  0.21399718631E+02  0.17452658696E+03  0.17120000000E+03 0.  0.
        998    1    1    2    0    0  0.64559530680E+01  0.13107145326E+02  0.14492529493E+04  0.14493610964E+04  0.10000000000E+02 0.  1.
</event>
<event>
 5    1  0.1666761E-008  0.3853956E+03  0.7957747E-01  0.3427996E+00
         13   -1    0    0    0    0  0.00000000000E+00  0.00000000000E+00  0.14999999963E+04  0.15000000000E+04  0.10566000000E+00 0.  1.
        994   -1    0    0    0    0 -0.00000000000E+00 -0.00000000000E+00  0.11368683772E-12  0.17120000000E+03  0.17120000000E+03 0.  0.
         13    1    1    2    0    0  0.74450811925E+02  0.82257555012E+02  0.24313669312E+03  0.26725398305E+03  0.10566000000E+00 0.  1.
        994    1    1    2    0    0 -0.88008309263E+02 -0.86362333294E+02  0.77974519810E+02  0.22492972425E+03  0.17120000000E+03 0.  0.
        998    1    1    2    0    0  0.13557497339E+02  0.41047782820E+01  0.11788887833E+04  0.11790162927E+04  0.10000000000E+02 0.  1.
</event>
<event>
 5    1  0.1666761E-008  0.3764522E+03  0.7957747E-01  0.3466753E+00
         13   -1    0    0    0    0  0.00000000000E+00  0.00000000000E+00  0.14999999963E+04  0.15000000000E+04  0.10566000000E+00 0.  1.
        994   -1    0    0    0    0 -0.00000000000E+00 -0.00000000000E+00  0.11368683772E-12  0.17120000000E+03  0.17120000000E+03 0.  0.
         13    1    1    2    0    0 -0.57449748071E+02 -0.29072912309E+02  0.30179209555E+03  0.30858416661E+03  0.10566000000E+00 0.  1.
        994    1    1    2    0    0  0.54434186376E+02  0.13994513792E+02  0.16696114175E+02  0.18096167354E+03  0.17120000000E+03 0.  0.
        998    1    1    2    0    0  0.30155616955E+01  0.15078398517E+02  0.11815117866E+04  0.11816541598E+04  0.10000000000E+02 0. -1.
</event>
<event>
 5    1  0.1666761E-008  0.3824927E+03  0.7957747E-01  0.3440376E+00
         13   -1    0    0    0    0  0.00000000000E+00  0.00000000000E+00  0.14999999963E+04  0.15000000000E+04  0.10566000000E+00 0. -1.
        994   -1    0    0    0    0 -0.00000000000E+00 -0.00000000000E+00  0.11368683772E-12  0.17120000000E+03  0.17120000000E+03 0.  0.
         13    1    1    2    0    0  0.41590588663E+01 -0.31222255972E+02  0.16156778783E+03  0.16460950236E+03  0.10566000000E+00 0. -1.
        994    1    1    2    0    0 -0.10424404799E+02  0.25136788997E+02  0.53392980072E+01  0.17343146912E+03  0.17120000000E+03 0.  0.
        998    1    1    2    0    0  0.62653459327E+01  0.60854669751E+01  0.13330929104E+04  0.13331590285E+04  0.10000000000E+02 0. -1.
</event>
<event>
 5    1  0.1666761E-008  0.3853172E+03  0.7957747E-01  0.3428328E+00
         13   -1    0    0    0    0  0.00000000000E+00  0.00000000000E+00  0.14999999963E+04  0.15000000000E+04  0.10566000000E+00 0.  1.
        994   -1    0    0    0    0 -0.00000000000E+00 -0.00000000000E+00  0.11368683772E-12  0.17120000000E+03  0.17120000000E+03 0.  0.
         13    1    1    2    0    0 -0.12259061325E+02  0.89979529237E+01  0.82153497373E+02  0.83549123490E+02  0.10566000000E+00 0.  1.
        994    1    1    2    0    0 -0.36428227159E+00 -0.79295258792E+01  0.16797470731E+01  0.17139215744E+03  0.17120000000E+03 0.  0.
        998    1    1    2    0    0  0.12623343596E+02 -0.10684270445E+01  0.14161667518E+04  0.14162587191E+04  0.10000000000E+02 0.  1.
</event>
<event>
 5    1  0.1666761E-008  0.3797542E+03  0.7957747E-01  0.3452229E+00
         13   -1    0    0    0    0  0.00000000000E+00  0.00000000000E+00  0.14999999963E+04  0.15000000000E+04  0.10566000000E+00 0. -1.
        994   -1    0    0    0    0 -0.00000000000E+00 -0.00000000000E+00  0.11368683772E-12  0.17120000000E+03  0.17120000000E+03 0.  0.
         13    1    1    2    0    0  0.15092588035E+01 -0.57896272550E+02  0.31569381043E+03  0.32096237995E+03  0.10566000000E+00 0. -1.
        994    1    1    2    0    0  0.60407546289E+01  0.56938749069E+02  0.15305083327E+02  0.18116897482E+03  0.17120000000E+03 0.  0.
        998    1    1    2    0    0 -0.75500134323E+01  0.95752348088E+00  0.11690011025E+04  0.11690686452E+04  0.10000000000E+02 0. -1.
</event>
<event>
 5    1  0.1666761E-008  0.3806530E+03  0.7957747E-01  0.3448320E+00
         13   -1    0    0    0    0  0.00000000000E+00  0.00000000000E+00  0.14999999963E+04  0.15000000000E+04  0.10566000000E+00 0.  1.
        994   -1    0    0    0    0 -0.00000000000E+00 -0.00000000000E+00  0.11368683772E-12  0.17120000000E+03  0.17120000000E+03 0.  0.
         13    1    1    2    0    0 -0.77712039466E+01  0.89397162581E+01  0.16733896262E+02  0.20502306838E+02  0.10566000000E+00 0.  1.
        994    1    1    2    0    0  0.66140601335E+01 -0.87399595991E+01  0.42046945327E+01  0.17160201672E+03  0.17120000000E+03 0.  0.
        998    1    1    2    0    0  0.11571438131E+01 -0.19975665905E+00  0.14790614055E+04  0.14790956764E+04  0.10000000000E+02 0.  1.
</event>
<event>
 5    1  0.1666761E-008  0.3806518E+03  0.7957747E-01  0.3448325E+00
         13   -1    0    0    0    0  0.00000000000E+00  0.00000000000E+00  0.14999999963E+04  0.15000000000E+04  0.10566000000E+00 0. -1.
        994   -1    0    0    0    0 -0.00000000000E+00 -0.00000000000E+00  0.11368683772E-12  0.17120000000E+03  0.17120000000E+03 0.  0.
         13    1    1    2    0    0 -0.18448407397E+02 -0.88058840151E+01  0.59309074727E+02  0.62733283333E+02  0.10566000000E+00 0. -1.
        994    1    1    2    0    0 -0.12956906869E+02  0.15828708005E+01  0.43730492584E+01  0.17175258506E+03  0.17120000000E+03 0.  0.
        998    1    1    2    0    0  0.31405314266E+02  0.72230132146E+01  0.14363178723E+04  0.14367141316E+04  0.10000000000E+02 0. -1.
</event>
<event>
 5    1  0.1666761E-008  0.3850481E+03  0.7957747E-01  0.3429468E+00
         13   -1    0    0    0    0  0.00000000000E+00  0.00000000000E+00  0.14999999963E+04  0.15000000000E+04  0.10566000000E+00 0.  1.
        994   -1    0    0    0    0 -0.00000000000E+00 -0.00000000000E+00  0.11368683772E-12  0.17120000000E+03  0.17120000000E+03 0.  0.
         13    1    1    2    0    0  0.26788105223E+01 -0.10974233443E+02  0.39436243380E+02  0.41022411941E+02  0.10566000000E+00 0.  1.
        994    1    1    2    0    0 -0.61245204093E+01  0.72791525814E+01  0.19038564975E+01  0.17147466426E+03  0.17120000000E+03 0.  0.
        998    1    1    2    0    0  0.34457098870E+01  0.36950808620E+01  0.14586598964E+04  0.14587029238E+04  0.10000000000E+02 0.  1.
</event>
<event>
 5    1  0.1666761E-008  0.3830182E+03  0.7957747E-01  0.3438121E+00
         13   -1    0    0    0    0  0.00000000000E+00  0.00000000000E+00  0.14999999963E+04  0.15000000000E+04  0.10566000000E+00 0. -1.
        994   -1    0    0    0    0 -0.00000000000E+00 -0.00000000000E+00  0.11368683772E-12  0.17120000000E+03  0.17120000000E+03 0.  0.
         13    1    1    2    0    0  0.91835318459E+01 -0.89045431904E+01  0.31177581404E+02  0.33699864878E+02  0.10566000000E+00 0. -1.
        994    1    1    2    0    0  0.30689240319E+01  0.56345253716E+01  0.27535405526E+01  0.17134231280E+03  0.17120000000E+03 0.  0.
        998    1    1    2    0    0 -0.12252455878E+02  0.32700178188E+01  0.14660688743E+04  0.14661578223E+04  0.10000000000E+02 0. -1.
</event>
<event>
 5    1  0.1666761E-008  0.3752497E+03  0.7957747E-01  0.3472107E+00
         13   -1    0    0    0    0  0.00000000000E+00  0.00000000000E+00  0.14999999963E+04  0.15000000000E+04  0.10566000000E+00 0.  1.
        994   -1    0    0    0    0 -0.00000000000E+00 -0.00000000000E+00  0.11368683772E-12  0.17120000000E+03  0.17120000000E+03 0.  0.
         13    1    1    2    0    0 -0.30056160538E+02 -0.24680127262E+02  0.12225270406E+03  0.12828957979E+03  0.10566000000E+00 0.  1.
        994    1    1    2    0    0  0.13398842257E+02 -0.50329200422E+01  0.72466321853E+01  0.17195003035E+03  0.17120000000E+03 0.  0.
        998    1    1    2    0    0  0.16657318281E+02  0.29713047304E+02  0.13705006600E+04  0.13709603899E+04  0.10000000000E+02 0.  1.
</event>
<event>
 5    1  0.1666761E-008  0.3724459E+03  0.7957747E-01  0.3484725E+00
         13   -1    0    0    0    0  0.00000000000E+00  0.00000000000E+00  0.14999999963E+04  0.15000000000E+04  0.10566000000E+00 0.  1.
        994   -1    0    0    0    0 -0.00000000000E+00 -0.00000000000E+00  0.11368683772E-12  0.17120000000E+03  0.17120000000E+03 0.  0.
         13    1    1    2    0    0 -0.30370527214E+02  0.19225130528E+02  0.76042040566E+02  0.84109319724E+02  0.10566000000E+00 0.  1.
        994    1    1    2    0    0  0.39892986372E+02  0.76760312543E+01  0.13676106252E+02  0.17648469537E+03  0.17120000000E+03 0.  0.
        998    1    1    2    0    0 -0.95224591588E+01 -0.26901161782E+02  0.14102818495E+04  0.14106059849E+04  0.10000000000E+02 0.  1.
</event>
<event>
 5    1  0.1666761E-008  0.3695705E+03  0.7957747E-01  0.3497867E+00
         13   -1    0    0    0    0  0.00000000000E+00  0.00000000000E+00  0.14999999963E+04  0.15000000000E+04  0.10566000000E+00 0. -1.
        994   -1    0    0    0    0 -0.00000000000E+00 -0.00000000000E+00  0.11368683772E-12  0.17120000000E+03  0.17120000000E+03 0.  0.
         13    1    1    2    0    0 -0.36877766544E+01 -0.33749803806E+02  0.55394625496E+02  0.64970952367E+02  0.10566000000E+00 0. -1.
        994    1    1    2    0    0  0.79520062686E+00  0.32841029186E+02  0.13239800858E+02  0.17482533532E+03  0.17120000000E+03 0.  0.
        998    1    1    2    0    0  0.28925760275E+01  0.90877461998E+00  0.14313655699E+04  0.14314037123E+04  0.10000000000E+02 0.  0.
</event>
<event>
 5    1  0.1666761E-008  0.3777669E+03  0.7957747E-01  0.3460940E+00
         13   -1    0    0    0    0  0.00000000000E+00  0.00000000000E+00  0.14999999963E+04  0.15000000000E+04  0.10566000000E+00 0. -1.
        994   -1    0    0    0    0 -0.00000000000E+00 -0.00000000000E+00  0.11368683772E-12  0.17120000000E+03  0.17120000000E+03 0.  0.
         13    1    1    2    0    0 -0.47476939975E+02  0.12090961820E+03  0.41662444640E+03  0.43640478469E+03  0.10566000000E+00 0. -1.
        994    1    1    2    0    0  0.42209341255E+02 -0.11162840196E+03  0.68255091010E+02  0.21956941058E+03  0.17120000000E+03 0.  0.
        998    1    1    2    0    0  0.52675987199E+01 -0.92812162420E+01  0.10151204589E+04  0.10152258047E+04  0.10000000000E+02 0. -1.
</event>
<event>
 5    1  0.1666761E-008  0.3857891E+03  0.7957747E-01  0.3426333E+00
         13   -1    0    0    0    0  0.00000000000E+00  0.00000000000E+00  0.14999999963E+04  0.15000000000E+04  0.10566000000E+00 0.  1.
        994   -1    0    0    0    0 -0.00000000000E+00 -0.00000000000E+00  0.11368683772E-12  0.17120000000E+03  0.17120000000E+03 0.  0.
         13    1    1    2    0    0  0.11027794340E+02 -0.56736585230E+01  0.72527401077E+02  0.73580144877E+02  0.10566000000E+00 0.  1.
        994    1    1    2    0    0  0.91998622840E+01 -0.50083388644E+01  0.15988774901E+01  0.17152759933E+03  0.17120000000E+03 0.  0.
        998    1    1    2    0    0 -0.20227656624E+02  0.10681997387E+02  0.14258737177E+04  0.14260922558E+04  0.10000000000E+02 0.  1.
</event>
<event>
 5    1  0.1666761E-008  0.3801658E+03  0.7957747E-01  0.3450437E+00
         13   -1    0    0    0    0  0.00000000000E+00  0.00000000000E+00  0.14999999963E+04  0.15000000000E+04  0.10566000000E+00 0. -1.
        994   -1    0    0    0    0 -0.00000000000E+00 -0.00000000000E+00  0.11368683772E-12  0.17120000000E+03  0.17120000000E+03 0.  0.
         13    1    1    2    0    0  0.23024865877E+02 -0.47215883857E+01  0.73854472671E+02  0.77504400799E+02  0.10566000000E+00 0. -1.
        994    1    1    2    0    0  0.61868312561E+01 -0.64343098241E+01  0.43157437433E+01  0.17148685917E+03  0.17120000000E+03 0.  0.
        998    1    1    2    0    0 -0.29211697133E+02  0.11155898210E+02  0.14218297799E+04  0.14222087400E+04  0.10000000000E+02 0. -1.
</event>
<event>
 5    1  0.1666761E-008  0.3766165E+03  0.7957747E-01  0.3466024E+00
         13   -1    0    0    0    0  0.00000000000E+00  0.00000000000E+00  0.14999999963E+04  0.15000000000E+04  0.10566000000E+00 0. -1.
        994   -1    0    0    0    0 -0.00000000000E+00 -0.00000000000E+00  0.11368683772E-12  0.17120000000E+03  0.17120000000E+03 0.  0.
         13    1    1    2    0    0  0.29071383131E+01 -0.53003065315E+02  0.31269282738E+03  0.31716650493E+03  0.10566000000E+00 0. -1.
        994    1    1    2    0    0  0.55774352254E+01 -0.60052479069E+00  0.59573364313E+01  0.17139544414E+03  0.17120000000E+03 0.  0.
        998    1    1    2    0    0 -0.84845735385E+01  0.53603590105E+02  0.11813498325E+04  0.11826380509E+04  0.10000000000E+02 0. -1.
</event>
<event>
 5    1  0.1666761E-008  0.3846787E+03  0.7957747E-01  0.3431036E+00
         13   -1    0    0    0    0  0.00000000000E+00  0.00000000000E+00  0.14999999963E+04  0.15000000000E+04  0.10566000000E+00 0. -1.
        994   -1    0    0    0    0 -0.00000000000E+00 -0.00000000000E+00  0.11368683772E-12  0.17120000000E+03  0.17120000000E+03 0.  0.
         13    1    1    2    0    0 -0.18623555341E+02 -0.54018602531E+01  0.10929022212E+03  0.11099721042E+03  0.10566000000E+00 0. -1.
        994    1    1    2    0    0  0.45369790268E+01  0.10291301942E+02  0.22062776556E+01  0.17158322393E+03  0.17120000000E+03 0.  0.
        998    1    1    2    0    0  0.14086576314E+02 -0.48894416885E+01  0.13885034965E+04  0.13886195656E+04  0.10000000000E+02 0. -1.
</event>
<event>
 5    1  0.1666761E-008  0.3847862E+03  0.7957747E-01  0.3430579E+00
         13   -1    0    0    0    0  0.00000000000E+00  0.00000000000E+00  0.14999999963E+04  0.15000000000E+04  0.10566000000E+00 0.  1.
        994   -1    0    0    0    0 -0.00000000000E+00 -0.00000000000E+00  0.11368683772E-12  0.17120000000E+03  0.17120000000E+03 0.  0.
         13    1    1    2    0    0 -0.12172243560E+02  0.23744747059E+01  0.43008841346E+02  0.44761291775E+02  0.10566000000E+00 0.  1.
        994    1    1    2    0    0  0.13129942802E+02 -0.21143294018E+01  0.23185796696E+01  0.17173142286E+03  0.17120000000E+03 0.  0.
        998    1    1    2    0    0 -0.95769924212E+00 -0.26014530411E+00  0.14546725753E+04  0.14547072854E+04  0.10000000000E+02 0.  1.
</event>
<event>
 5    1  0.1666761E-008  0.3857790E+03  0.7957747E-01  0.3426375E+00
         13   -1    0    0    0    0  0.00000000000E+00  0.00000000000E+00  0.14999999963E+04  0.15000000000E+04  0.10566000000E+00 0. -1.
        994   -1    0    0    0    0 -0.00000000000E+00 -0.00000000000E+00  0.11368683772E-12  0.17120000000E+03  0.17120000000E+03 0.  0.
         13    1    1    2    0    0  0.10355033401E+02 -0.34826096837E+01  0.46116753567E+02  0.47393263345E+02  0.10566000000E+00 0. -1.
        994    1    1    2    0    0 -0.15296335777E+02  0.23162117050E+01  0.20293940334E+01  0.17190957264E+03  0.17120000000E+03 0.  0.
        998    1    1    2    0    0  0.49413023764E+01  0.11663979786E+01  0.14518538487E+04  0.14518971640E+04  0.10000000000E+02 0. -1.
</event>
<event>
 5    1  0.1666761E-008  0.3848912E+03  0.7957747E-01  0.3430134E+00
         13   -1    0    0    0    0  0.00000000000E+00  0.00000000000E+00  0.14999999963E+04  0.15000000000E+04  0.10566000000E+00 0. -1.
        994   -1    0    0    0    0 -0.00000000000E+00 -0.00000000000E+00  0.11368683772E-12  0.17120000000E+03  0.17120000000E+03 0.  0.
         13    1    1    2    0    0  0.27266126379E+01 -0.14692251446E+02  0.68469126506E+02  0.70080875547E+02  0.10566000000E+00 0. -1.
        994    1    1    2    0    0  0.92355893905E+00  0.49614257273E+01  0.17679787373E+01  0.17128349148E+03  0.17120000000E+03 0.  0.
        998    1    1    2    0    0 -0.36501715770E+01  0.97308257187E+01  0.14297628910E+04  0.14298356330E+04  0.10000000000E+02 0. -1.
</event>
<event>
 5    1  0.1666761E-008  0.3852696E+03  0.7957747E-01  0.3428530E+00
         13   -1    0    0    0    0  0.00000000000E+00  0.00000000000E+00  0.14999999963E+04  0.15000000000E+04  0.10566000000E+00 0.  1.
        994   -1    0    0    0    0 -0.00000000000E+00 -0.00000000000E+00  0.11368683772E-12  0.17120000000E+03  0.17120000000E+03 0.  0.
         13    1    1    2    0    0  0.14696968535E+02 -0.31943733088E+01  0.81029588010E+02  0.82413653008E+02  0.10566000000E+00 0.  1.
        994    1    1    2    0    0 -0.18828384806E+01 -0.43690147505E+01  0.15707277713E+01  0.17127329201E+03  0.17120000000E+03 0.  0.
        998    1    1    2    0    0 -0.12814130054E+02  0.75633880593E+01  0.14173996805E+04  0.14175130550E+04  0.10000000000E+02 0.  1.
</event>
<event>
 5    1  0.1666761E-008  0.3800769E+03  0.7957747E-01  0.3450824E+00
         13   -1    0    0    0    0  0.00000000000E+00  0.00000000000E+00  0.14999999963E+04  0.15000000000E+04  0.10566000000E+00 0. -1.
        994   -1    0    0    0    0 -0.00000000000E+00 -0.00000000000E+00  0.11368683772E-12  0.17120000000E+03  0.17120000000E+03 0.  0.
         13    1    1    2    0    0 -0.68582379536E+01  0.10615501843E+02  0.17395914879E+02  0.21502402789E+02  0.10566000000E+00 0. -1.
        994    1    1    2    0    0 -0.17706487647E+01 -0.21606641209E+02  0.56666034830E+01  0.17266016488E+03  0.17120000000E+03 0.  0.
        998    1    1    2    0    0  0.86288867183E+01  0.10991139365E+02  0.14769374779E+04  0.14770374323E+04  0.10000000000E+02 0. -1.
</event>
<event>
 5    1  0.1666761E-008  0.3831560E+03  0.7957747E-01  0.3437531E+00
         13   -1    0    0    0    0  0.00000000000E+00  0.00000000000E+00  0.14999999963E+04  0.15000000000E+04  0.10566000000E+00 0. -1.
        994   -1    0    0    0    0 -0.00000000000E+00 -0.00000000000E+00  0.11368683772E-12  0.17120000000E+03  0.17120000000E+03 0.  0.
         13    1    1    2    0    0 -0.14960496648E+02  0.13895464762E+02  0.92479741302E+02  0.94706990852E+02  0.10566000000E+00 0. -1.
        994    1    1    2    0    0  0.50137376189E+01  0.16810015306E+02  0.35671281392E+01  0.17213331631E+03  0.17120000000E+03 0.  0.
        998    1    1    2    0    0  0.99467590291E+01 -0.30705480069E+02  0.14039531268E+04  0.14043596928E+04  0.10000000000E+02 0. -1.
</event>
<event>
 5    1  0.1666761E-008  0.3856551E+03  0.7957747E-01  0.3426899E+00
         13   -1    0    0    0    0  0.00000000000E+00  0.00000000000E+00  0.14999999963E+04  0.15000000000E+04  0.10566000000E+00 0. -1.
        994   -1    0    0    0    0 -0.00000000000E+00 -0.00000000000E+00  0.11368683772E-12  0.17120000000E+03  0.17120000000E+03 0.  0.
         13    1    1    2    0    0 -0.10336963600E+02 -0.91222537596E+01  0.67690910916E+02  0.69080669617E+02  0.10566000000E+00 0. -1.
        994    1    1    2    0    0  0.15155233931E+02  0.13609610142E+02  0.26680224999E+01  0.17242813270E+03  0.17120000000E+03 0.  0.
        998    1    1    2    0    0 -0.48182703317E+01 -0.44873563823E+01  0.14296410629E+04  0.14296911977E+04  0.10000000000E+02 0. -1.
</event>
<event>
 5    1  0.1666761E-008  0.3835078E+03  0.7957747E-01  0.3436026E+00
         13   -1    0    0    0    0  0.00000000000E+00  0.00000000000E+00  0.14999999963E+04  0.15000000000E+04  0.10566000000E+00 0.  1.
        994   -1    0    0    0    0 -0.00000000000E+00 -0.00000000000E+00  0.11368683772E-12  0.17120000000E+03  0.17120000000E+03 0.  0.
         13    1    1    2    0    0 -0.22320726974E+02 -0.11076113307E+02  0.11649667914E+03  0.11913178649E+03  0.10566000000E+00 0.  1.
        994    1    1    2    0    0  0.34062882816E+02  0.19818215031E+01  0.62296319076E+01  0.17467814951E+03  0.17120000000E+03 0.  0.
        998    1    1    2    0    0 -0.11742155842E+02  0.90942918036E+01  0.13772736852E+04  0.13773900640E+04  0.10000000000E+02 0.  1.
</event>
<event>
 5    1  0.1666761E-008  0.3823605E+03  0.7957747E-01  0.3440944E+00
         13   -1    0    0    0    0  0.00000000000E+00  0.00000000000E+00  0.14999999963E+04  0.15000000000E+04  0.10566000000E+00 0. -1.
        994   -1    0    0    0    0 -0.00000000000E+00 -0.00000000000E+00  0.11368683772E-12  0.17120000000E+03  0.17120000000E+03 0.  0.
         13    1    1    2    0    0  0.13412809021E+02 -0.10700654367E+02  0.48827245423E+02  0.51754405700E+02  0.10566000000E+00 0. -1.
        994    1    1    2    0    0  0.50704907533E+01  0.26150677592E+02  0.53035003049E+01  0.17334109418E+03  0.17120000000E+03 0.  0.
        998    1    1    2    0    0 -0.18483299774E+02 -0.15450023224E+02  0.14458692506E+04  0.14461045001E+04  0.10000000000E+02 0. -1.
</event>
<event>
 5    1  0.1666761E-008  0.3765086E+03  0.7957747E-01  0.3466503E+00
         13   -1    0    0    0    0  0.00000000000E+00  0.00000000000E+00  0.14999999963E+04  0.15000000000E+04  0.10566000000E+00 0.  1.
        994   -1    0    0    0    0 -0.00000000000E+00 -0.00000000000E+00  0.11368683772E-12  0.17120000000E+03  0.17120000000E+03 0.  0.
         13    1    1    2    0    0 -0.28693549682E+02 -0.14461279881E+02  0.85972185364E+02  0.91780587433E+02  0.10566000000E+00 0.  1.
        994    1    1    2    0    0  0.13371201424E+02  0.13330722920E+02  0.71126442828E+01  0.17238482216E+03  0.17120000000E+03 0.  0.
        998    1    1    2    0    0  0.15322348259E+02  0.11305569615E+01  0.14069151666E+04  0.14070345904E+04  0.10000000000E+02 0.  1.
</event>
<event>
 5    1  0.1666761E-008  0.3854131E+03  0.7957747E-01  0.3427922E+00
         13   -1    0    0    0    0  0.00000000000E+00  0.00000000000E+00  0.14999999963E+04  0.15000000000E+04  0.10566000000E+00 0. -1.
        994   -1    0    0    0    0 -0.00000000000E+00 -0.00000000000E+00  0.11368683772E-12  0.17120000000E+03  0.17120000000E+03 0.  0.
         13    1    1    2    0    0  0.26342134503E+01 -0.13279687820E+02  0.64540589545E+02  0.65945341397E+02  0.10566000000E+00 0. -1.
        994    1    1    2    0    0 -0.20575432089E+00  0.91681717970E+01  0.17014517701E+01  0.17145387907E+03  0.17120000000E+03 0.  0.
        998    1    1    2    0    0 -0.24284591294E+01  0.41115160230E+01  0.14337579550E+04  0.14338007795E+04  0.10000000000E+02 0. -1.
</event>
<event>
 5    1  0.1666761E-008  0.3822729E+03  0.7957747E-01  0.3441321E+00
         13   -1    0    0    0    0  0.00000000000E+00  0.00000000000E+00  0.14999999963E+04  0.15000000000E+04  0.10566000000E+00 0.  1.
        994   -1    0    0    0    0 -0.00000000000E+00 -0.00000000000E+00  0.11368683772E-12  0.17120000000E+03  0.17120000000E+03 0.  0.
         13    1    1    2    0    0 -0.19492325316E+02 -0.27725082019E+01  0.61806118060E+02  0.64866362174E+02  0.10566000000E+00 0.  1.
        994    1    1    2    0    0  0.17411604898E+02  0.17991774351E+02  0.50729187520E+01  0.17309547202E+03  0.17120000000E+03 0.  0.
        998    1    1    2    0    0  0.20807204181E+01 -0.15219266149E+02  0.14331209595E+04  0.14332381658E+04  0.10000000000E+02 0.  1.
</event>
<event>
 5    1  0.1666761E-008  0.3830341E+03  0.7957747E-01  0.3438053E+00
         13   -1    0    0    0    0  0.00000000000E+00  0.00000000000E+00  0.14999999963E+04  0.15000000000E+04  0.10566000000E+00 0. -1.
        994   -1    0    0    0    0 -0.00000000000E+00 -0.00000000000E+00  0.11368683772E-12  0.17120000000E+03  0.17120000000E+03 0.  0.
         13    1    1    2    0    0  0.37297216174E+00  0.19183512263E+02  0.81306312530E+02  0.83539654490E+02  0.10566000000E+00 0. -1.
        994    1    1    2    0    0 -0.15081366641E+02  0.13920727484E+02  0.40047321264E+01  0.17247235185E+03  0.17120000000E+03 0.  0.
        998    1    1    2    0    0  0.14708394480E+02 -0.33104239746E+02  0.14146889516E+04  0.14151879937E+04  0.10000000000E+02 0. -1.
</event>
<event>
 5    1  0.1666761E-008  0.3759047E+03  0.7957747E-01  0.3469187E+00
         13   -1    0    0    0    0  0.00000000000E+00  0.00000000000E+00  0.14999999963E+04  0.15000000000E+04  0.10566000000E+00 0. -1.
        994   -1    0    0    0    0 -0.00000000000E+00 -0.00000000000E+00  0.11368683772E-12  0.17120000000E+03  0.17120000000E+03 0.  0.
         13    1    1    2    0    0 -0.85332063152E+02 -0.24125814904E+02  0.22648749608E+03  0.24322872567E+03  0.10566000000E+00 0. -1.
        994    1    1    2    0    0  0.90530898018E+02  0.23800245612E+02  0.46080225904E+02  0.20048721258E+03  0.17120000000E+03 0.  0.
        998    1    1    2    0    0 -0.51988348661E+01  0.32556929229E+00  0.12274322743E+04  0.12274840618E+04  0.10000000000E+02 0. -1.
</event>
<event>
 5    1  0.1666761E-008  0.3712317E+03  0.7957747E-01  0.3490249E+00
         13   -1    0    0    0    0  0.00000000000E+00  0.00000000000E+00  0.14999999963E+04  0.15000000000E+04  0.10566000000E+00 0. -1.
        994   -1    0    0    0    0 -0.00000000000E+00 -0.00000000000E+00  0.11368683772E-12  0.17120000000E+03  0.17120000000E+03 0.  0.
         13    1    1    2    0    0  0.86892373312E+01 -0.57283948733E+02  0.16437374122E+03  0.17428623466E+03  0.10566000000E+00 0. -1.
        994    1    1    2    0    0 -0.98390111321E+01  0.65600586839E+02  0.23932700927E+02  0.18515522490E+03  0.17120000000E+03 0.  0.
        998    1    1    2    0    0  0.11497738009E+01 -0.83166381066E+01  0.13116935541E+04  0.13117585404E+04  0.10000000000E+02 0. -1.
</event>
<event>
 5    1  0.1666761E-008  0.3844122E+03  0.7957747E-01  0.3432169E+00
         13   -1    0    0    0    0  0.00000000000E+00  0.00000000000E+00  0.14999999963E+04  0.15000000000E+04  0.10566000000E+00 0. -1.
        994   -1    0    0    0    0 -0.00000000000E+00 -0.00000000000E+00  0.11368683772E-12  0.17120000000E+03  0.17120000000E+03 0.  0.
         13    1    1    2    0    0 -0.19710778786E+02 -0.12336790682E+01  0.11790331450E+03  0.11954597233E+03  0.10566000000E+00 0. -1.
        994    1    1    2    0    0 -0.65069896147E+01  0.33501321541E+01  0.20987456103E+01  0.17136921845E+03  0.17120000000E+03 0.  0.
        998    1    1    2    0    0  0.26217768401E+02 -0.21164530859E+01  0.13799979362E+04  0.13802848092E+04  0.10000000000E+02 0. -1.
</event>
<event>
 5    1  0.1666761E-008  0.3847591E+03  0.7957747E-01  0.3430695E+00
         13   -1    0    0    0    0  0.00000000000E+00  0.00000000000E+00  0.14999999963E+04  0.15000000000E+04  0.10566000000E+00 0.  1.
        994   -1    0    0    0    0 -0.00000000000E+00 -0.00000000000E+00  0.11368683772E-12  0.17120000000E+03  0.17120000000E+03 0.  0.
         13    1    1    2    0    0 -0.78416162464E+01  0.97313571025E+01  0.46705456360E+02  0.48348744288E+02  0.10566000000E+00 0.  1.
        994    1    1    2    0    0  0.17805760630E+01  0.28128900561E+01  0.17862688564E+01  0.17124168172E+03  0.17120000000E+03 0.  0.
        998    1    1    2    0    0  0.60610401834E+01 -0.12544247159E+02  0.14515082711E+04  0.14516095740E+04  0.10000000000E+02 0.  1.
</event>
<event>
 5    1  0.1666761E-008  0.4087533E+03  0.7957747E-01  0.3334783E+00
         13   -1    0    0    0    0  0.00000000000E+00  0.00000000000E+00  0.14999999963E+04  0.15000000000E+04  0.10566000000E+00 0.  1.
        994   -1    0    0    0    0 -0.00000000000E+00 -0.00000000000E+00  0.11368683772E-12  0.17120000000E+03  0.17120000000E+03 0.  0.
         13    1    1    2    0    0 -0.34618738489E+02 -0.21269989359E+01  0.46526340072E+01  0.34994847425E+02  0.10566000000E+00 0.  1.
        994    1    1    2    0    0  0.32439491975E+02 -0.99189035394E+01  0.37803539804E+02  0.17857562238E+03  0.17120000000E+03 0.  0.
        998    1    1    2    0    0  0.21792465142E+01  0.12045902475E+02  0.14575438225E+04  0.14576295302E+04  0.10000000000E+02 0.  1.
</event>
<event>
 5    1  0.1666761E-008  0.3821661E+03  0.7957747E-01  0.3441781E+00
         13   -1    0    0    0    0  0.00000000000E+00  0.00000000000E+00  0.14999999963E+04  0.15000000000E+04  0.10566000000E+00 0. -1.
        994   -1    0    0    0    0 -0.00000000000E+00 -0.00000000000E+00  0.11368683772E-12  0.17120000000E+03  0.17120000000E+03 0.  0.
         13    1    1    2    0    0 -0.24598258101E+02  0.53946021105E+02  0.33814276320E+03  0.34330130638E+03  0.10566000000E+00 0. -1.
        994    1    1    2    0    0 -0.10688968047E+01 -0.98126579051E+02  0.35694466776E+02  0.20053304719E+03  0.17120000000E+03 0.  0.
        998    1    1    2    0    0  0.25667154905E+02  0.44180557946E+02  0.11261627663E+04  0.11273656464E+04  0.10000000000E+02 0. -1.
</event>
<event>
 5    1  0.1666761E-008  0.3856332E+03  0.7957747E-01  0.3426991E+00
         13   -1    0    0    0    0  0.00000000000E+00  0.00000000000E+00  0.14999999963E+04  0.15000000000E+04  0.10566000000E+00 0. -1.
        994   -1    0    0    0    0 -0.00000000000E+00 -0.00000000000E+00  0.11368683772E-12  0.17120000000E+03  0.17120000000E+03 0.  0.
         13    1    1    2    0    0  0.78553905401E+01 -0.12826819783E+02  0.85734185678E+02  0.87043645513E+02  0.10566000000E+00 0. -1.
        994    1    1    2    0    0 -0.51346424120E+01  0.96293650291E+01  0.17070390993E+01  0.17155594774E+03  0.17120000000E+03 0.  0.
        998    1    1    2    0    0 -0.27207481281E+01  0.31974547543E+01  0.14125587715E+04  0.14126004067E+04  0.10000000000E+02 0. -1.
</event>
<event>
 5    1  0.1666761E-008  0.3008559E+03  0.7957747E-01  0.3889928E+00
         13   -1    0    0    0    0  0.00000000000E+00  0.00000000000E+00  0.14999999963E+04  0.15000000000E+04  0.10566000000E+00 0. -1.
        994   -1    0    0    0    0 -0.00000000000E+00 -0.00000000000E+00  0.11368683772E-12  0.17120000000E+03  0.17120000000E+03 0.  0.
         13    1    1    2    0    0 -0.25405132711E+01 -0.19784432469E+03  0.62719016072E+03  0.65765974476E+03  0.10566000000E+00 0. -1.
        994    1    1    2    0    0  0.22273387156E+01  0.19251971539E+03  0.16566722029E+03  0.30630682286E+03  0.17120000000E+03 0.  0.
        998    1    1    2    0    0  0.31317455552E+00  0.53246092973E+01  0.70714261527E+03  0.70723343238E+03  0.10000000000E+02 0.  0.
</event>
<event>
 5    1  0.1666761E-008  0.3801624E+03  0.7957747E-01  0.3450452E+00
         13   -1    0    0    0    0  0.00000000000E+00  0.00000000000E+00  0.14999999963E+04  0.15000000000E+04  0.10566000000E+00 0. -1.
        994   -1    0    0    0    0 -0.00000000000E+00 -0.00000000000E+00  0.11368683772E-12  0.17120000000E+03  0.17120000000E+03 0.  0.
         13    1    1    2    0    0 -0.20359066890E+02 -0.17182196865E+02  0.89919687657E+02  0.93783158862E+02  0.10566000000E+00 0. -1.
        994    1    1    2    0    0  0.16465311253E+01  0.10293800256E+02  0.44143478644E+01  0.17157389037E+03  0.17120000000E+03 0.  0.
        998    1    1    2    0    0  0.18712535765E+02  0.68883966090E+01  0.14056659608E+04  0.14058429508E+04  0.10000000000E+02 0. -1.
</event>
<event>
 5    1  0.1666761E-008  0.3844132E+03  0.7957747E-01  0.3432165E+00
         13   -1    0    0    0    0  0.00000000000E+00  0.00000000000E+00  0.14999999963E+04  0.15000000000E+04  0.10566000000E+00 0.  1.
        994   -1    0    0    0    0 -0.00000000000E+00 -0.00000000000E+00  0.11368683772E-12  0.17120000000E+03  0.17120000000E+03 0.  0.
         13    1    1    2    0    0 -0.43068745934E+01  0.16941251903E+02  0.80556675198E+02  0.82431451933E+02  0.10566000000E+00 0.  1.
        994    1    1    2    0    0 -0.20115632252E+01 -0.95761740989E+01  0.22372832633E+01  0.17149400845E+03  0.17120000000E+03 0.  0.
        998    1    1    2    0    0  0.63184378187E+01 -0.73650778042E+01  0.14172060378E+04  0.14172745396E+04  0.10000000000E+02 0.  1.
</event>
<event>
 5    1  0.1666761E-008  0.3859065E+03  0.7957747E-01  0.3425837E+00
         13   -1    0    0    0    0  0.00000000000E+00  0.00000000000E+00  0.14999999963E+04  0.15000000000E+04  0.10566000000E+00 0. -1.
        994   -1    0    0    0    0 -0.00000000000E+00 -0.00000000000E+00  0.11368683772E-12  0.17120000000E+03  0.17120000000E+03 0.  0.
         13    1    1    2    0    0 -0.94973363010E+01  0.97058128536E+01  0.77114872394E+02  0.78301448954E+02  0.10566000000E+00 0. -1.
        994    1    1    2    0    0  0.13080346211E+02 -0.37328539991E+01  0.17876692311E+01  0.17174884401E+03  0.17120000000E+03 0.  0.
        998    1    1    2    0    0 -0.35830099100E+01 -0.59729588545E+01  0.14210974547E+04  0.14211497070E+04  0.10000000000E+02 0. -1.
</event>
<event>
 5    1  0.1666761E-008  0.4020085E+03  0.7957747E-01  0.3360592E+00
         13   -1    0    0    0    0  0.00000000000E+00  0.00000000000E+00  0.14999999963E+04  0.15000000000E+04  0.10566000000E+00 0.  1.
        994   -1    0    0    0    0 -0.00000000000E+00 -0.00000000000E+00  0.11368683772E-12  0.17120000000E+03  0.17120000000E+03 0.  0.
         13    1    1    2    0    0 -0.22990655648E+02  0.14381895454E+03  0.47216432062E+03  0.49411700919E+03  0.10566000000E+00 0.  1.
        994    1    1    2    0    0  0.63900960267E+01 -0.42523974800E+02  0.36316978471E+02  0.18021510671E+03  0.17120000000E+03 0.  0.
        998    1    1    2    0    0  0.16600559621E+02 -0.10129497974E+03  0.99151869718E+03  0.99686788411E+03  0.10000000000E+02 0.  1.
</event>
<event>
 5    1  0.1666761E-008  0.3812587E+03  0.7957747E-01  0.3445696E+00
         13   -1    0    0    0    0  0.00000000000E+00  0.00000000000E+00  0.14999999963E+04  0.15000000000E+04  0.10566000000E+00 0.  1.
        994   -1    0    0    0    0 -0.00000000000E+00 -0.00000000000E+00  0.11368683772E-12  0.17120000000E+03  0.17120000000E+03 0.  0.
         13    1    1    2    0    0 -0.24461471654E+02 -0.11050963021E+02  0.11229078482E+03  0.11545440181E+03  0.10566000000E+00 0.  1.
        994    1    1    2    0    0  0.16891602465E+01 -0.41141401917E+01  0.35649655949E+01  0.17129485804E+03  0.17120000000E+03 0.  0.
        998    1    1    2    0    0  0.22772311407E+02  0.15165103213E+02  0.13841442459E+04  0.13844507401E+04  0.10000000000E+02 0.  1.
</event>
<event>
 5    1  0.1666761E-008  0.3753179E+03  0.7957747E-01  0.3471802E+00
         13   -1    0    0    0    0  0.00000000000E+00  0.00000000000E+00  0.14999999963E+04  0.15000000000E+04  0.10566000000E+00 0. -1.
        994   -1    0    0    0    0 -0.00000000000E+00 -0.00000000000E+00  0.11368683772E-12  0.17120000000E+03  0.17120000000E+03 0.  0.
         13    1    1    2    0    0  0.39509413830E+02  0.49967205181E+02  0.13206719304E+03  0.14662697574E+03  0.10566000000E+00 0. -1.
        994    1    1    2    0    0 -0.36486056700E+02 -0.49025512521E+02  0.27205975067E+02  0.18380516394E+03  0.17120000000E+03 0.  0.
        998    1    1    2    0    0 -0.30233571297E+01 -0.94169265955E+00  0.13407268282E+04  0.13407678603E+04  0.10000000000E+02 0. -1.
</event>
<event>
 5    1  0.1666761E-008  0.3758870E+03  0.7957747E-01  0.3469265E+00
         13   -1    0    0    0    0  0.00000000000E+00  0.00000000000E+00  0.14999999963E+04  0.15000000000E+04  0.10566000000E+00 0.  1.
        994   -1    0    0    0    0 -0.00000000000E+00 -0.00000000000E+00  0.11368683772E-12  0.17120000000E+03  0.17120000000E+03 0.  0.
         13    1    1    2    0    0  0.62747821913E+02  0.72883370482E+01  0.27100133081E+03  0.27826631394E+03  0.10566000000E+00 0.  1.
        994    1    1    2    0    0 -0.59027083171E+02 -0.65554044198E+00  0.18126396080E+02  0.18199624314E+03  0.17120000000E+03 0.  0.
        998    1    1    2    0    0 -0.37207387422E+01 -0.66327966062E+01  0.12108722694E+04  0.12109374429E+04  0.10000000000E+02 0.  1.
</event>
<event>
 5    1  0.1666761E-008  0.3827825E+03  0.7957747E-01  0.3439132E+00
         13   -1    0    0    0    0  0.00000000000E+00  0.00000000000E+00  0.14999999963E+04  0.15000000000E+04  0.10566000000E+00 0.  1.
        994   -1    0    0    0    0 -0.00000000000E+00 -0.00000000000E+00  0.11368683772E-12  0.17120000000E+03  0.17120000000E+03 0.  0.
         13    1    1    2    0    0 -0.18474773616E+02  0.10709121659E+02  0.85255305324E+02  0.87889025463E+02  0.10566000000E+00 0.  1.
        994    1    1    2    0    0  0.14268578584E+01 -0.13363881520E+02  0.33336724845E+01  0.17175908309E+03  0.17120000000E+03 0.  0.
        998    1    1    2    0    0  0.17047915757E+02  0.26547598615E+01  0.14114110185E+04  0.14115518914E+04  0.10000000000E+02 0.  1.
</event>
<event>
 5    1  0.1666761E-008  0.3857264E+03  0.7957747E-01  0.3426597E+00
         13   -1    0    0    0    0  0.00000000000E+00  0.00000000000E+00  0.14999999963E+04  0.15000000000E+04  0.10566000000E+00 0. -1.
        994   -1    0    0    0    0 -0.00000000000E+00 -0.00000000000E+00  0.11368683772E-12  0.17120000000E+03  0.17120000000E+03 0.  0.
         13    1    1    2    0    0 -0.97620211714E+01 -0.11012753497E+02  0.83846286601E+02  0.85128072560E+02  0.10566000000E+00 0. -1.
        994    1    1    2    0    0  0.15480198533E+02  0.33384412467E+01  0.20931300872E+01  0.17194360392E+03  0.17120000000E+03 0.  0.
        998    1    1    2    0    0 -0.57181773611E+01  0.76743122507E+01  0.14140605796E+04  0.14141283235E+04  0.10000000000E+02 0. -1.
</event>
<event>
 5    1  0.1666761E-008  0.3847234E+03  0.7957747E-01  0.3430846E+00
         13   -1    0    0    0    0  0.00000000000E+00  0.00000000000E+00  0.14999999963E+04  0.15000000000E+04  0.10566000000E+00 0. -1.
        994   -1    0    0    0    0 -0.00000000000E+00 -0.00000000000E+00  0.11368683772E-12  0.17120000000E+03  0.17120000000E+03 0.  0.
         13    1    1    2    0    0 -0.76936253466E+01 -0.13326854760E+02  0.66423839869E+02  0.68183096115E+02  0.10566000000E+00 0. -1.
        994    1    1    2    0    0  0.83974164925E+01  0.80561054217E+01  0.22133743650E+01  0.17160931345E+03  0.17120000000E+03 0.  0.
        998    1    1    2    0    0 -0.70379114592E+00  0.52707493382E+01  0.14313627820E+04  0.14314075904E+04  0.10000000000E+02 0. -1.
</event>
<event>
 5    1  0.1666761E-008  0.3799673E+03  0.7957747E-01  0.3451301E+00
         13   -1    0    0    0    0  0.00000000000E+00  0.00000000000E+00  0.14999999963E+04  0.15000000000E+04  0.10566000000E+00 0.  1.
        994   -1    0    0    0    0 -0.00000000000E+00 -0.00000000000E+00  0.11368683772E-12  0.17120000000E+03  0.17120000000E+03 0.  0.
         13    1    1    2    0    0 -0.12504544847E+02 -0.18680462439E+02  0.58532350057E+02  0.62700641830E+02  0.10566000000E+00 0.  1.
        994    1    1    2    0    0  0.11673472717E+02  0.13823567464E+02  0.52448532405E+01  0.17223329953E+03  0.17120000000E+03 0.  0.
        998    1    1    2    0    0  0.83107213009E+00  0.48568949747E+01  0.14362227930E+04  0.14362660586E+04  0.10000000000E+02 0.  1.
</event>
<event>
 5    1  0.1666761E-008  0.3843914E+03  0.7957747E-01  0.3432257E+00
         13   -1    0    0    0    0  0.00000000000E+00  0.00000000000E+00  0.14999999963E+04  0.15000000000E+04  0.10566000000E+00 0.  1.
        994   -1    0    0    0    0 -0.00000000000E+00 -0.00000000000E+00  0.11368683772E-12  0.17120000000E+03  0.17120000000E+03 0.  0.
         13    1    1    2    0    0  0.10593439741E+02 -0.10017545250E+02  0.55037055081E+02  0.56935584430E+02  0.10566000000E+00 0.  1.
        994    1    1    2    0    0 -0.55828077435E+01  0.64555236253E+01  0.21726523040E+01  0.17142637471E+03  0.17120000000E+03 0.  0.
        998    1    1    2    0    0 -0.50106319980E+01  0.35620216247E+01  0.14427902889E+04  0.14428380409E+04  0.10000000000E+02 0.  1.
</event>
<event>
 5    1  0.1666761E-008  0.3817693E+03  0.7957747E-01  0.3443490E+00
         13   -1    0    0    0    0  0.00000000000E+00  0.00000000000E+00  0.14999999963E+04  0.15000000000E+04  0.10566000000E+00 0. -1.
        994   -1    0    0    0    0 -0.00000000000E+00 -0.00000000000E+00  0.11368683772E-12  0.17120000000E+03  0.17120000000E+03 0.  0.
         13    1    1    2    0    0 -0.35431667160E+02 -0.22992018664E+02  0.23466260673E+03  0.23843360946E+03  0.10566000000E+00 0. -1.
        994    1    1    2    0    0  0.30942222286E+02  0.29436210828E+02  0.93282227106E+01  0.17669286167E+03  0.17120000000E+03 0.  0.
        998    1    1    2    0    0  0.44894448735E+01 -0.64441921636E+01  0.12560091668E+04  0.12560735289E+04  0.10000000000E+02 0. -1.
</event>
<event>
 5    1  0.1666761E-008  0.3791322E+03  0.7957747E-01  0.3454946E+00
         13   -1    0    0    0    0  0.00000000000E+00  0.00000000000E+00  0.14999999963E+04  0.15000000000E+04  0.10566000000E+00 0.  1.
        994   -1    0    0    0    0 -0.00000000000E+00 -0.00000000000E+00  0.11368683772E-12  0.17120000000E+03  0.17120000000E+03 0.  0.
         13    1    1    2    0    0  0.21421492606E+01 -0.53498508951E+02  0.29021645865E+03  0.29511401746E+03  0.10566000000E+00 0.  1.
        994    1    1    2    0    0  0.24519717750E+01  0.38963979961E+02  0.96987796521E+01  0.17586275964E+03  0.17120000000E+03 0.  0.
        998    1    1    2    0    0 -0.45941210356E+01  0.14534528990E+02  0.12000847580E+04  0.12002232229E+04  0.10000000000E+02 0.  1.
</event>
<event>
 5    1  0.1919941E-008  0.3863068E+03  0.7957747E-01  0.3424149E+00
         13   -1    0    0    0    0  0.00000000000E+00  0.00000000000E+00  0.14999999963E+04  0.15000000000E+04  0.10566000000E+00 0.  1.
        994   -1    0    0    0    0 -0.00000000000E+00 -0.00000000000E+00  0.11368683772E-12  0.17120000000E+03  0.17120000000E+03 0.  0.
         13    1    1    2    0    0 -0.79073034963E+01 -0.64822078046E+01  0.51681144560E+02  0.52682979544E+02  0.10566000000E+00 0.  1.
        994    1    1    2    0    0  0.10969254139E+02  0.76918520737E+01  0.15707291844E+01  0.17173059225E+03  0.17120000000E+03 0.  0.
        998    1    1    2    0    0 -0.30619506424E+01 -0.12096442691E+01  0.14467481225E+04  0.14467864282E+04  0.10000000000E+02 0.  1.
</event>
<event>
 5    1  0.1666761E-008  0.3762617E+03  0.7957747E-01  0.3467599E+00
         13   -1    0    0    0    0  0.00000000000E+00  0.00000000000E+00  0.14999999963E+04  0.15000000000E+04  0.10566000000E+00 0.  1.
        994   -1    0    0    0    0 -0.00000000000E+00 -0.00000000000E+00  0.11368683772E-12  0.17120000000E+03  0.17120000000E+03 0.  0.
         13    1    1    2    0    0 -0.70144314305E+02  0.13826656515E+03  0.47966520662E+03  0.50409978127E+03  0.10566000000E+00 0.  1.
        994    1    1    2    0    0  0.17050499144E+02 -0.18233574239E+03  0.14623866999E+03  0.29022789507E+03  0.17120000000E+03 0.  0.
        998    1    1    2    0    0  0.53093815161E+02  0.44069177239E+02  0.87409611967E+03  0.87687232366E+03  0.10000000000E+02 0.  1.
</event>
<event>
 5    1  0.1666761E-008  0.3837027E+03  0.7957747E-01  0.3435193E+00
         13   -1    0    0    0    0  0.00000000000E+00  0.00000000000E+00  0.14999999963E+04  0.15000000000E+04  0.10566000000E+00 0.  1.
        994   -1    0    0    0    0 -0.00000000000E+00 -0.00000000000E+00  0.11368683772E-12  0.17120000000E+03  0.17120000000E+03 0.  0.
         13    1    1    2    0    0 -0.21585097191E+02  0.70043863066E-01  0.95623131795E+02  0.98029158036E+02  0.10566000000E+00 0.  1.
        994    1    1    2    0    0  0.24290125067E+02  0.28369872689E+02  0.68958295221E+01  0.17536206065E+03  0.17120000000E+03 0.  0.
        998    1    1    2    0    0 -0.27050278764E+01 -0.28439916552E+02  0.13974810350E+04  0.13978087813E+04  0.10000000000E+02 0.  1.
</event>
<event>
 5    1  0.1666761E-008  0.3814102E+03  0.7957747E-01  0.3445041E+00
         13   -1    0    0    0    0  0.00000000000E+00  0.00000000000E+00  0.14999999963E+04  0.15000000000E+04  0.10566000000E+00 0. -1.
        994   -1    0    0    0    0 -0.00000000000E+00 -0.00000000000E+00  0.11368683772E-12  0.17120000000E+03  0.17120000000E+03 0.  0.
         13    1    1    2    0    0 -0.21090411060E+02 -0.15497002019E+02  0.11210752595E+03  0.11512198334E+03  0.10566000000E+00 0. -1.
        994    1    1    2    0    0 -0.14560504986E+02  0.12385798861E+02  0.46398178523E+01  0.17232638866E+03  0.17120000000E+03 0.  0.
        998    1    1    2    0    0  0.35650916046E+02  0.31112031579E+01  0.13832526525E+04  0.13837516280E+04  0.10000000000E+02 0. -1.
</event>
<event>
 5    1  0.1666761E-008  0.3292606E+03  0.7957747E-01  0.3706998E+00
         13   -1    0    0    0    0  0.00000000000E+00  0.00000000000E+00  0.14999999963E+04  0.15000000000E+04  0.10566000000E+00 0.  1.
        994   -1    0    0    0    0 -0.00000000000E+00 -0.00000000000E+00  0.11368683772E-12  0.17120000000E+03  0.17120000000E+03 0.  0.
         13    1    1    2    0    0 -0.20472404721E+03  0.17135440015E+03  0.64489504794E+03  0.69797127447E+03  0.10566000000E+00 0.  1.
        994    1    1    2    0    0  0.20182448071E+03 -0.16908841862E+03  0.35890045695E+03  0.47690983668E+03  0.17120000000E+03 0.  0.
        998    1    1    2    0    0  0.28995664937E+01 -0.22659815365E+01  0.49620449139E+03  0.49631888885E+03  0.10000000000E+02 0.  0.
</event>
<event>
 5    1  0.1666761E-008  0.3736992E+03  0.7957747E-01  0.3479061E+00
         13   -1    0    0    0    0  0.00000000000E+00  0.00000000000E+00  0.14999999963E+04  0.15000000000E+04  0.10566000000E+00 0. -1.
        994   -1    0    0    0    0 -0.00000000000E+00 -0.00000000000E+00  0.11368683772E-12  0.17120000000E+03  0.17120000000E+03 0.  0.
         13    1    1    2    0    0  0.13331970115E+03  0.31898024146E+02  0.69704899163E+03  0.71040054515E+03  0.10566000000E+00 0. -1.
        994    1    1    2    0    0 -0.12284690366E+03 -0.60889624272E+02  0.74522571642E+02  0.23165051644E+03  0.17120000000E+03 0.  0.
        998    1    1    2    0    0 -0.10472797493E+02  0.28991600126E+02  0.72842843301E+03  0.72914893841E+03  0.10000000000E+02 0. -1.
</event>
<event>
 5    1  0.1791793E-008  0.3863869E+03  0.7957747E-01  0.3423812E+00
         13   -1    0    0    0    0  0.00000000000E+00  0.00000000000E+00  0.14999999963E+04  0.15000000000E+04  0.10566000000E+00 0. -1.
        994   -1    0    0    0    0 -0.00000000000E+00 -0.00000000000E+00  0.11368683772E-12  0.17120000000E+03  0.17120000000E+03 0.  0.
         13    1    1    2    0    0  0.34873424633E+01  0.95167608136E+01  0.53749471350E+02  0.54696865799E+02  0.10566000000E+00 0. -1.
        994    1    1    2    0    0 -0.82182548124E+01 -0.89157579048E+01  0.14246537014E+01  0.17163478694E+03  0.17120000000E+03 0.  0.
        998    1    1    2    0    0  0.47309123492E+01 -0.60100290880E+00  0.14448258712E+04  0.14448683473E+04  0.10000000000E+02 0. -1.
</event>
<event>
 5    1  0.1666761E-008  0.3751412E+03  0.7957747E-01  0.3472591E+00
         13   -1    0    0    0    0  0.00000000000E+00  0.00000000000E+00  0.14999999963E+04  0.15000000000E+04  0.10566000000E+00 0. -1.
        994   -1    0    0    0    0 -0.00000000000E+00 -0.00000000000E+00  0.11368683772E-12  0.17120000000E+03  0.17120000000E+03 0.  0.
         13    1    1    2    0    0  0.67370225176E+00  0.25464598460E+02  0.46801881633E+02  0.53285335111E+02  0.10566000000E+00 0. -1.
        994    1    1    2    0    0 -0.54856122806E+01 -0.14788844911E+02  0.74519861539E+01  0.17208653048E+03  0.17120000000E+03 0.  0.
        998    1    1    2    0    0  0.48119100289E+01 -0.10675753549E+02  0.14457461285E+04  0.14458281344E+04  0.10000000000E+02 0. -1.
</event>
<event>
 5    1  0.3207594E-008  0.3860450E+03  0.7957747E-01  0.3425252E+00
         13   -1    0    0    0    0  0.00000000000E+00  0.00000000000E+00  0.14999999963E+04  0.15000000000E+04  0.10566000000E+00 0.  1.
        994   -1    0    0    0    0 -0.00000000000E+00 -0.00000000000E+00  0.11368683772E-12  0.17120000000E+03  0.17120000000E+03 0.  0.
         13    1    1    2    0    0  0.50957767379E+01  0.92199527944E+01  0.52518065929E+02  0.53564287385E+02  0.10566000000E+00 0.  1.
        994    1    1    2    0    0 -0.15412497496E+01 -0.80689341331E+00  0.11221380626E+01  0.17121251625E+03  0.17120000000E+03 0.  0.
        998    1    1    2    0    0 -0.35545269883E+01 -0.84130593811E+01  0.14463597923E+04  0.14464231964E+04  0.10000000000E+02 0.  1.
</event>
<event>
 5    1  0.1666761E-008  0.3852425E+03  0.7957747E-01  0.3428644E+00
         13   -1    0    0    0    0  0.00000000000E+00  0.00000000000E+00  0.14999999963E+04  0.15000000000E+04  0.10566000000E+00 0. -1.
        994   -1    0    0    0    0 -0.00000000000E+00 -0.00000000000E+00  0.11368683772E-12  0.17120000000E+03  0.17120000000E+03 0.  0.
         13    1    1    2    0    0  0.12770662157E+02  0.87389582914E+01  0.86763733362E+02  0.88132943869E+02  0.10566000000E+00 0. -1.
        994    1    1    2    0    0 -0.50987687596E+00  0.29311241921E+01  0.15388626292E+01  0.17123276428E+03  0.17120000000E+03 0.  0.
        998    1    1    2    0    0 -0.12260785281E+02 -0.11670082484E+02  0.14116974003E+04  0.14118342919E+04  0.10000000000E+02 0. -1.
</event>
<event>
 5    1  0.1666761E-008  0.3720828E+03  0.7957747E-01  0.3486373E+00
         13   -1    0    0    0    0  0.00000000000E+00  0.00000000000E+00  0.14999999963E+04  0.15000000000E+04  0.10566000000E+00 0.  1.
        994   -1    0    0    0    0 -0.00000000000E+00 -0.00000000000E+00  0.11368683772E-12  0.17120000000E+03  0.17120000000E+03 0.  0.
         13    1    1    2    0    0 -0.11507706835E+02  0.51479151514E+02  0.10210710111E+03  0.11492781047E+03  0.10566000000E+00 0.  1.
        994    1    1    2    0    0  0.88710339801E+01 -0.58039842081E+02  0.24285689846E+02  0.18261038646E+03  0.17120000000E+03 0.  0.
        998    1    1    2    0    0  0.26366728552E+01  0.65606905661E+01  0.13736072053E+04  0.13736618031E+04  0.10000000000E+02 0.  1.
</event>
<event>
 5    1  0.1666761E-008  0.3740630E+03  0.7957747E-01  0.3477424E+00
         13   -1    0    0    0    0  0.00000000000E+00  0.00000000000E+00  0.14999999963E+04  0.15000000000E+04  0.10566000000E+00 0. -1.
        994   -1    0    0    0    0 -0.00000000000E+00 -0.00000000000E+00  0.11368683772E-12  0.17120000000E+03  0.17120000000E+03 0.  0.
         13    1    1    2    0    0 -0.28230469946E+02 -0.38342093420E+02  0.16817443812E+03  0.17478480586E+03  0.10566000000E+00 0. -1.
        994    1    1    2    0    0 -0.63784702936E+01  0.22259727653E+02  0.89911876075E+01  0.17299266404E+03  0.17120000000E+03 0.  0.
        998    1    1    2    0    0  0.34608940240E+02  0.16082365767E+02  0.13228343706E+04  0.13234225301E+04  0.10000000000E+02 0. -1.
</event>
<event>
 5    1  0.1666761E-008  0.3819162E+03  0.7957747E-01  0.3442857E+00
         13   -1    0    0    0    0  0.00000000000E+00  0.00000000000E+00  0.14999999963E+04  0.15000000000E+04  0.10566000000E+00 0. -1.
        994   -1    0    0    0    0 -0.00000000000E+00 -0.00000000000E+00  0.11368683772E-12  0.17120000000E+03  0.17120000000E+03 0.  0.
         13    1    1    2    0    0 -0.31578699848E+02 -0.18008226344E+02  0.21931048453E+03  0.22230296959E+03  0.10566000000E+00 0. -1.
        994    1    1    2    0    0  0.10093867203E+02  0.12244855434E+02  0.40059654580E+01  0.17198055239E+03  0.17120000000E+03 0.  0.
        998    1    1    2    0    0  0.21484832644E+02  0.57633709106E+01  0.12766835463E+04  0.12769164780E+04  0.10000000000E+02 0. -1.
</event>
<event>
 5    1  0.1666761E-008  0.3813964E+03  0.7957747E-01  0.3445101E+00
         13   -1    0    0    0    0  0.00000000000E+00  0.00000000000E+00  0.14999999963E+04  0.15000000000E+04  0.10566000000E+00 0. -1.
        994   -1    0    0    0    0 -0.00000000000E+00 -0.00000000000E+00  0.11368683772E-12  0.17120000000E+03  0.17120000000E+03 0.  0.
         13    1    1    2    0    0 -0.11861145021E+02  0.28117921923E+01  0.20147135755E+02  0.23548061060E+02  0.10566000000E+00 0. -1.
        994    1    1    2    0    0  0.10244995409E+02 -0.36709212900E+01  0.38240984462E+01  0.17158816778E+03  0.17120000000E+03 0.  0.
        998    1    1    2    0    0  0.16161496118E+01  0.85912909771E+00  0.14760287621E+04  0.14760637712E+04  0.10000000000E+02 0. -1.
</event>
<event>
 5    1  0.1666761E-008  0.3843623E+03  0.7957747E-01  0.3432381E+00
         13   -1    0    0    0    0  0.00000000000E+00  0.00000000000E+00  0.14999999963E+04  0.15000000000E+04  0.10566000000E+00 0.  1.
        994   -1    0    0    0    0 -0.00000000000E+00 -0.00000000000E+00  0.11368683772E-12  0.17120000000E+03  0.17120000000E+03 0.  0.
         13    1    1    2    0    0 -0.19315405316E+02 -0.49947376246E+01  0.11217555454E+03  0.11393594027E+03  0.10566000000E+00 0.  1.
        994    1    1    2    0    0  0.67897413839E+00 -0.14824789109E+01  0.19558280696E+01  0.17121893591E+03  0.17120000000E+03 0.  0.
        998    1    1    2    0    0  0.18636431178E+02  0.64772165354E+01  0.13858686137E+04  0.13860451238E+04  0.10000000000E+02 0.  1.
</event>
<event>
 5    1  0.1666761E-008  0.3952044E+03  0.7957747E-01  0.3387514E+00
         13   -1    0    0    0    0  0.00000000000E+00  0.00000000000E+00  0.14999999963E+04  0.15000000000E+04  0.10566000000E+00 0.  1.
        994   -1    0    0    0    0 -0.00000000000E+00 -0.00000000000E+00  0.11368683772E-12  0.17120000000E+03  0.17120000000E+03 0.  0.
         13    1    1    2    0    0  0.12361454686E+03  0.59627847783E+02  0.29947502686E+03  0.32942577207E+03  0.10566000000E+00 0.  1.
        994    1    1    2    0    0 -0.13288631648E+03 -0.21931019218E+02  0.98573704982E+02  0.23909403595E+03  0.17120000000E+03 0.  0.
        998    1    1    2    0    0  0.92717696198E+01 -0.37696828565E+02  0.11019512644E+04  0.11026801920E+04  0.10000000000E+02 0.  1.
</event>
<event>
 5    1  0.1666761E-008  0.3839666E+03  0.7957747E-01  0.3434067E+00
         13   -1    0    0    0    0  0.00000000000E+00  0.00000000000E+00  0.14999999963E+04  0.15000000000E+04  0.10566000000E+00 0.  1.
        994   -1    0    0    0    0 -0.00000000000E+00 -0.00000000000E+00  0.11368683772E-12  0.17120000000E+03  0.17120000000E+03 0.  0.
         13    1    1    2    0    0 -0.24219299987E+02  0.99588449307E+01  0.15833017785E+03  0.16048118103E+03  0.10566000000E+00 0.  1.
        994    1    1    2    0    0  0.13909466937E+02 -0.97248592466E+01  0.30951134560E+01  0.17206703893E+03  0.17120000000E+03 0.  0.
        998    1    1    2    0    0  0.10309833050E+02 -0.23398568413E+00  0.13385747050E+04  0.13386517800E+04  0.10000000000E+02 0.  1.
</event>
<event>
 5    1  0.1666761E-008  0.4087432E+03  0.7957747E-01  0.3334821E+00
         13   -1    0    0    0    0  0.00000000000E+00  0.00000000000E+00  0.14999999963E+04  0.15000000000E+04  0.10566000000E+00 0. -1.
        994   -1    0    0    0    0 -0.00000000000E+00 -0.00000000000E+00  0.11368683772E-12  0.17120000000E+03  0.17120000000E+03 0.  0.
         13    1    1    2    0    0 -0.59885244929E+02  0.13493699921E+03  0.27749151600E+03  0.31431797424E+03  0.10566000000E+00 0. -1.
        994    1    1    2    0    0  0.47947429156E+02 -0.11795986048E+03  0.10262035725E+03  0.23675696900E+03  0.17120000000E+03 0.  0.
        998    1    1    2    0    0  0.11937815773E+02 -0.16977138728E+02  0.11198881230E+04  0.11201250568E+04  0.10000000000E+02 0. -1.
</event>
<event>
 5    1  0.1666761E-008  0.3826993E+03  0.7957747E-01  0.3439489E+00
         13   -1    0    0    0    0  0.00000000000E+00  0.00000000000E+00  0.14999999963E+04  0.15000000000E+04  0.10566000000E+00 0.  1.
        994   -1    0    0    0    0 -0.00000000000E+00 -0.00000000000E+00  0.11368683772E-12  0.17120000000E+03  0.17120000000E+03 0.  0.
         13    1    1    2    0    0 -0.21962047136E+02 -0.18558257368E+02  0.15892370242E+03  0.16150385378E+03  0.10566000000E+00 0.  1.
        994    1    1    2    0    0  0.15966251563E+01  0.10826617871E+02  0.31736198773E+01  0.17157877704E+03  0.17120000000E+03 0.  0.
        998    1    1    2    0    0  0.20365421980E+02  0.77316394979E+01  0.13379026740E+04  0.13381173692E+04  0.10000000000E+02 0.  1.
</event>
<event>
 5    1  0.1666761E-008  0.3852940E+03  0.7957747E-01  0.3428426E+00
         13   -1    0    0    0    0  0.00000000000E+00  0.00000000000E+00  0.14999999963E+04  0.15000000000E+04  0.10566000000E+00 0. -1.
        994   -1    0    0    0    0 -0.00000000000E+00 -0.00000000000E+00  0.11368683772E-12  0.17120000000E+03  0.17120000000E+03 0.  0.
         13    1    1    2    0    0 -0.13383080651E+02  0.89920315571E+01  0.89362051588E+02  0.90805015870E+02  0.10566000000E+00 0. -1.
        994    1    1    2    0    0  0.64604282839E+01 -0.51384367663E+01  0.17081289065E+01  0.17140740465E+03  0.17120000000E+03 0.  0.
        998    1    1    2    0    0  0.69226523673E+01 -0.38535947908E+01  0.14089298158E+04  0.14089875795E+04  0.10000000000E+02 0. -1.
</event>
<event>
 5    1  0.1666761E-008  0.3767201E+03  0.7957747E-01  0.3465565E+00
         13   -1    0    0    0    0  0.00000000000E+00  0.00000000000E+00  0.14999999963E+04  0.15000000000E+04  0.10566000000E+00 0.  1.
        994   -1    0    0    0    0 -0.00000000000E+00 -0.00000000000E+00  0.11368683772E-12  0.17120000000E+03  0.17120000000E+03 0.  0.
         13    1    1    2    0    0 -0.51648646984E+02 -0.13470857412E+03  0.46340308838E+03  0.48534154588E+03  0.10566000000E+00 0.  1.
        994    1    1    2    0    0  0.48031197236E+02  0.13606302299E+03  0.93393557285E+02  0.24259418516E+03  0.17120000000E+03 0.  0.
        998    1    1    2    0    0  0.36174497476E+01 -0.13544488701E+01  0.94320335062E+03  0.94326426896E+03  0.10000000000E+02 0.  1.
</event>
<event>
 5    1  0.1666761E-008  0.3849618E+03  0.7957747E-01  0.3429834E+00
         13   -1    0    0    0    0  0.00000000000E+00  0.00000000000E+00  0.14999999963E+04  0.15000000000E+04  0.10566000000E+00 0.  1.
        994   -1    0    0    0    0 -0.00000000000E+00 -0.00000000000E+00  0.11368683772E-12  0.17120000000E+03  0.17120000000E+03 0.  0.
         13    1    1    2    0    0  0.11923520778E+02 -0.92707784901E+01  0.72797509437E+02  0.74347873041E+02  0.10566000000E+00 0.  1.
        994    1    1    2    0    0 -0.10250388083E+01  0.24268972983E+01  0.16719527212E+01  0.17122843210E+03  0.17120000000E+03 0.  0.
        998    1    1    2    0    0 -0.10898481969E+02  0.68438811917E+01  0.14255305341E+04  0.14256236949E+04  0.10000000000E+02 0.  1.
</event>
<event>
 5    1  0.1666761E-008  0.3774446E+03  0.7957747E-01  0.3462361E+00
         13   -1    0    0    0    0  0.00000000000E+00  0.00000000000E+00  0.14999999963E+04  0.15000000000E+04  0.10566000000E+00 0.  1.
        994   -1    0    0    0    0 -0.00000000000E+00 -0.00000000000E+00  0.11368683772E-12  0.17120000000E+03  0.17120000000E+03 0.  0.
         13    1    1    2    0    0  0.36479521332E+02  0.14218045675E+02  0.12677621120E+03  0.13268431403E+03  0.10566000000E+00 0.  1.
        994    1    1    2    0    0 -0.46840880343E+02  0.43185555599E+01  0.12925263136E+02  0.17801466350E+03  0.17120000000E+03 0.  0.
        998    1    1    2    0    0  0.10361359011E+02 -0.18536601235E+02  0.13602985219E+04  0.13605010225E+04  0.10000000000E+02 0.  1.
</event>
<event>
 5    1  0.1666761E-008  0.3838064E+03  0.7957747E-01  0.3434750E+00
         13   -1    0    0    0    0  0.00000000000E+00  0.00000000000E+00  0.14999999963E+04  0.15000000000E+04  0.10566000000E+00 0. -1.
        994   -1    0    0    0    0 -0.00000000000E+00 -0.00000000000E+00  0.11368683772E-12  0.17120000000E+03  0.17120000000E+03 0.  0.
         13    1    1    2    0    0 -0.64728287874E+01 -0.20059671814E+02  0.10705821243E+03  0.10911351868E+03  0.10566000000E+00 0. -1.
        994    1    1    2    0    0  0.11832810985E+01  0.25091186071E+01  0.22492987875E+01  0.17123724821E+03  0.17120000000E+03 0.  0.
        998    1    1    2    0    0  0.52895476889E+01  0.17550553207E+02  0.13906924851E+04  0.13908492331E+04  0.10000000000E+02 0. -1.
</event>
<event>
 5    1  0.1666761E-008  0.3847614E+03  0.7957747E-01  0.3430685E+00
         13   -1    0    0    0    0  0.00000000000E+00  0.00000000000E+00  0.14999999963E+04  0.15000000000E+04  0.10566000000E+00 0. -1.
        994   -1    0    0    0    0 -0.00000000000E+00 -0.00000000000E+00  0.11368683772E-12  0.17120000000E+03  0.17120000000E+03 0.  0.
         13    1    1    2    0    0  0.16323071583E+02  0.25664136398E+01  0.75835198485E+02  0.77614545275E+02  0.10566000000E+00 0. -1.
        994    1    1    2    0    0 -0.15251384570E+02  0.53032307205E+00  0.25155082349E+01  0.17189721858E+03  0.17120000000E+03 0.  0.
        998    1    1    2    0    0 -0.10716870138E+01 -0.30967367119E+01  0.14216492896E+04  0.14216882361E+04  0.10000000000E+02 0. -1.
</event>
<event>
 5    1  0.1666761E-008  0.3850539E+03  0.7957747E-01  0.3429444E+00
         13   -1    0    0    0    0  0.00000000000E+00  0.00000000000E+00  0.14999999963E+04  0.15000000000E+04  0.10566000000E+00 0. -1.
        994   -1    0    0    0    0 -0.00000000000E+00 -0.00000000000E+00  0.11368683772E-12  0.17120000000E+03  0.17120000000E+03 0.  0.
         13    1    1    2    0    0 -0.62465501023E+01 -0.17057501042E+02  0.96628206150E+02  0.98320898683E+02  0.10566000000E+00 0. -1.
        994    1    1    2    0    0  0.99148209748E+01  0.17588372357E+02  0.29449175700E+01  0.17241162100E+03  0.17120000000E+03 0.  0.
        998    1    1    2    0    0 -0.36682708725E+01 -0.53087131580E+00  0.14004268726E+04  0.14004674803E+04  0.10000000000E+02 0. -1.
</event>
<event>
 5    1  0.1666761E-008  0.3796972E+03  0.7957747E-01  0.3452478E+00
         13   -1    0    0    0    0  0.00000000000E+00  0.00000000000E+00  0.14999999963E+04  0.15000000000E+04  0.10566000000E+00 0.  1.
        994   -1    0    0    0    0 -0.00000000000E+00 -0.00000000000E+00  0.11368683772E-12  0.17120000000E+03  0.17120000000E+03 0.  0.
         13    1    1    2    0    0  0.10578924293E+02  0.81779911395E+01  0.18892639839E+02  0.23145975512E+02  0.10566000000E+00 0.  1.
        994    1    1    2    0    0 -0.61707284638E+01 -0.12687086284E+02  0.49523695218E+01  0.17185169773E+03  0.17120000000E+03 0.  0.
        998    1    1    2    0    0 -0.44081958291E+01  0.45090951446E+01  0.14761549869E+04  0.14762023268E+04  0.10000000000E+02 0.  1.
</event>
<event>
 5    1  0.1666761E-008  0.3792283E+03  0.7957747E-01  0.3454526E+00
         13   -1    0    0    0    0  0.00000000000E+00  0.00000000000E+00  0.14999999963E+04  0.15000000000E+04  0.10566000000E+00 0. -1.
        994   -1    0    0    0    0 -0.00000000000E+00 -0.00000000000E+00  0.11368683772E-12  0.17120000000E+03  0.17120000000E+03 0.  0.
         13    1    1    2    0    0  0.19654022548E+02 -0.33514862376E+01  0.41951952460E+02  0.46448794835E+02  0.10566000000E+00 0. -1.
        994    1    1    2    0    0 -0.13580720535E+02  0.91244229267E+01  0.54208686410E+01  0.17206544360E+03  0.17120000000E+03 0.  0.
        998    1    1    2    0    0 -0.60733020128E+01 -0.57729366891E+01  0.14526271752E+04  0.14526857616E+04  0.10000000000E+02 0. -1.
</event>
<event>
 5    1  0.1666761E-008  0.3857105E+03  0.7957747E-01  0.3426665E+00
         13   -1    0    0    0    0  0.00000000000E+00  0.00000000000E+00  0.14999999963E+04  0.15000000000E+04  0.10566000000E+00 0. -1.
        994   -1    0    0    0    0 -0.00000000000E+00 -0.00000000000E+00  0.11368683772E-12  0.17120000000E+03  0.17120000000E+03 0.  0.
         13    1    1    2    0    0 -0.12016629004E+02 -0.42052728205E+01  0.65897161780E+02  0.67115801320E+02  0.10566000000E+00 0. -1.
        994    1    1    2    0    0  0.64048574729E+01 -0.53714980852E+01  0.15071155157E+01  0.17141057899E+03  0.17120000000E+03 0.  0.
        998    1    1    2    0    0  0.56117715315E+01  0.95767709057E+01  0.14325957190E+04  0.14326736197E+04  0.10000000000E+02 0. -1.
</event>
<event>
 5    1  0.1666761E-008  0.3846359E+03  0.7957747E-01  0.3431218E+00
         13   -1    0    0    0    0  0.00000000000E+00  0.00000000000E+00  0.14999999963E+04  0.15000000000E+04  0.10566000000E+00 0.  1.
        994   -1    0    0    0    0 -0.00000000000E+00 -0.00000000000E+00  0.11368683772E-12  0.17120000000E+03  0.17120000000E+03 0.  0.
         13    1    1    2    0    0 -0.10211325527E+02 -0.65102358527E+01  0.39342348025E+02  0.41164133078E+02  0.10566000000E+00 0.  1.
        994    1    1    2    0    0  0.12591511345E+02  0.39579598604E+01  0.23848464071E+01  0.17172460248E+03  0.17120000000E+03 0.  0.
        998    1    1    2    0    0 -0.23801858180E+01  0.25522759923E+01  0.14582728018E+04  0.14583112644E+04  0.10000000000E+02 0.  1.
</event>
<event>
 5    1  0.1666761E-008  0.3045122E+03  0.7957747E-01  0.3864324E+00
         13   -1    0    0    0    0  0.00000000000E+00  0.00000000000E+00  0.14999999963E+04  0.15000000000E+04  0.10566000000E+00 0. -1.
        994   -1    0    0    0    0 -0.00000000000E+00 -0.00000000000E+00  0.11368683772E-12  0.17120000000E+03  0.17120000000E+03 0.  0.
         13    1    1    2    0    0  0.13398246927E+03  0.14080498666E+03  0.67148153526E+03  0.69904564207E+03  0.10566000000E+00 0. -1.
        994    1    1    2    0    0 -0.11232546218E+03 -0.14772842072E+03  0.15103086803E+03  0.29421158856E+03  0.17120000000E+03 0.  0.
        998    1    1    2    0    0 -0.21657007089E+02  0.69234340596E+01  0.67748759299E+03  0.67794276938E+03  0.10000000000E+02 0. -1.
</event>
<event>
 5    1  0.1666761E-008  0.3827492E+03  0.7957747E-01  0.3439275E+00
         13   -1    0    0    0    0  0.00000000000E+00  0.00000000000E+00  0.14999999963E+04  0.15000000000E+04  0.10566000000E+00 0.  1.
        994   -1    0    0    0    0 -0.00000000000E+00 -0.00000000000E+00  0.11368683772E-12  0.17120000000E+03  0.17120000000E+03 0.  0.
         13    1    1    2    0    0 -0.22682941340E+01  0.10119796957E+02  0.18880610945E+02  0.21541682442E+02  0.10566000000E+00 0.  1.
        994    1    1    2    0    0 -0.28179528278E+01 -0.86394055823E+00  0.27805580878E+01  0.17124794526E+03  0.17120000000E+03 0.  0.
        998    1    1    2    0    0  0.50862469618E+01 -0.92558563987E+01  0.14783388272E+04  0.14784103723E+04  0.10000000000E+02 0.  1.
</event>
<event>
 5    1  0.1666761E-008  0.3791099E+03  0.7957747E-01  0.3455043E+00
         13   -1    0    0    0    0  0.00000000000E+00  0.00000000000E+00  0.14999999963E+04  0.15000000000E+04  0.10566000000E+00 0.  1.
        994   -1    0    0    0    0 -0.00000000000E+00 -0.00000000000E+00  0.11368683772E-12  0.17120000000E+03  0.17120000000E+03 0.  0.
         13    1    1    2    0    0 -0.61202516876E+02  0.38828967076E+02  0.43033333625E+03  0.43639457858E+03  0.10566000000E+00 0.  1.
        994    1    1    2    0    0  0.61085740993E+02 -0.30581889702E+02  0.20392099382E+02  0.18545079522E+03  0.17120000000E+03 0.  0.
        998    1    1    2    0    0  0.11677588358E+00 -0.82470773748E+01  0.10492745606E+04  0.10493546262E+04  0.10000000000E+02 0.  1.
</event>
<event>
 5    1  0.1666761E-008  0.3836210E+03  0.7957747E-01  0.3435542E+00
         13   -1    0    0    0    0  0.00000000000E+00  0.00000000000E+00  0.14999999963E+04  0.15000000000E+04  0.10566000000E+00 0.  1.
        994   -1    0    0    0    0 -0.00000000000E+00 -0.00000000000E+00  0.11368683772E-12  0.17120000000E+03  0.17120000000E+03 0.  0.
         13    1    1    2    0    0 -0.31891787979E+01 -0.14432472207E+02  0.45983567309E+02  0.48300794423E+02  0.10566000000E+00 0.  1.
        994    1    1    2    0    0 -0.24539559421E+01  0.13352271454E+02  0.29253988907E+01  0.17176234457E+03  0.17120000000E+03 0.  0.
        998    1    1    2    0    0  0.56431347401E+01  0.10802007532E+01  0.14510910301E+04  0.14511368610E+04  0.10000000000E+02 0.  1.
</event>
<event>
 5    1  0.1666761E-008  0.3812002E+03  0.7957747E-01  0.3445949E+00
         13   -1    0    0    0    0  0.00000000000E+00  0.00000000000E+00  0.14999999963E+04  0.15000000000E+04  0.10566000000E+00 0. -1.
        994   -1    0    0    0    0 -0.00000000000E+00 -0.00000000000E+00  0.11368683772E-12  0.17120000000E+03  0.17120000000E+03 0.  0.
         13    1    1    2    0    0  0.25440429393E+01  0.11222284239E+02  0.17297881727E+02  0.20775940274E+02  0.10566000000E+00 0. -1.
        994    1    1    2    0    0  0.69044772010E+01 -0.10003056712E+02  0.40205635796E+01  0.17167800640E+03  0.17120000000E+03 0.  0.
        998    1    1    2    0    0 -0.94485201404E+01 -0.12192275269E+01  0.14786815510E+04  0.14787460533E+04  0.10000000000E+02 0. -1.
</event>
<event>
 5    1  0.1666761E-008  0.2720344E+03  0.7957747E-01  0.4118396E+00
         13   -1    0    0    0    0  0.00000000000E+00  0.00000000000E+00  0.14999999963E+04  0.15000000000E+04  0.10566000000E+00 0.  1.
        994   -1    0    0    0    0 -0.00000000000E+00 -0.00000000000E+00  0.11368683772E-12  0.17120000000E+03  0.17120000000E+03 0.  0.
         13    1    1    2    0    0 -0.16460212900E+03  0.13308570280E+03  0.53967205496E+03  0.57969958015E+03  0.10566000000E+00 0.  1.
        994    1    1    2    0    0  0.87881234222E+02 -0.78218470499E+02  0.10840279521E+03  0.23431143050E+03  0.17120000000E+03 0.  0.
        998    1    1    2    0    0  0.76720894780E+02 -0.54867232299E+02  0.85192514611E+03  0.85718898934E+03  0.10000000000E+02 0.  1.
</event>
<event>
 5    1  0.1666761E-008  0.3852317E+03  0.7957747E-01  0.3428690E+00
         13   -1    0    0    0    0  0.00000000000E+00  0.00000000000E+00  0.14999999963E+04  0.15000000000E+04  0.10566000000E+00 0. -1.
        994   -1    0    0    0    0 -0.00000000000E+00 -0.00000000000E+00  0.11368683772E-12  0.17120000000E+03  0.17120000000E+03 0.  0.
         13    1    1    2    0    0  0.75462751255E+01  0.90067019344E+01  0.45266361662E+02  0.46766672002E+02  0.10566000000E+00 0. -1.
        994    1    1    2    0    0 -0.11404547725E+02 -0.25080246635E+01  0.19633809418E+01  0.17160899965E+03  0.17120000000E+03 0.  0.
        998    1    1    2    0    0  0.38582725997E+01 -0.64986772710E+01  0.14527702537E+04  0.14528243283E+04  0.10000000000E+02 0. -1.
</event>
<event>
 5    1  0.1666761E-008  0.3790339E+03  0.7957747E-01  0.3455376E+00
         13   -1    0    0    0    0  0.00000000000E+00  0.00000000000E+00  0.14999999963E+04  0.15000000000E+04  0.10566000000E+00 0.  1.
        994   -1    0    0    0    0 -0.00000000000E+00 -0.00000000000E+00  0.11368683772E-12  0.17120000000E+03  0.17120000000E+03 0.  0.
         13    1    1    2    0    0  0.90399982304E+01  0.17123139269E+02  0.37566305005E+02  0.42263008674E+02  0.10566000000E+00 0.  1.
        994    1    1    2    0    0 -0.69982878917E+01 -0.21835270975E+02  0.63868087919E+01  0.17284671365E+03  0.17120000000E+03 0.  0.
        998    1    1    2    0    0 -0.20417103387E+01  0.47121317067E+01  0.14560468825E+04  0.14560902777E+04  0.10000000000E+02 0.  1.
</event>
<event>
 5    1  0.1666761E-008  0.3840309E+03  0.7957747E-01  0.3433792E+00
         13   -1    0    0    0    0  0.00000000000E+00  0.00000000000E+00  0.14999999963E+04  0.15000000000E+04  0.10566000000E+00 0. -1.
        994   -1    0    0    0    0 -0.00000000000E+00 -0.00000000000E+00  0.11368683772E-12  0.17120000000E+03  0.17120000000E+03 0.  0.
         13    1    1    2    0    0  0.20364795657E+02  0.20491374607E+02  0.15308327493E+03  0.15578549856E+03  0.10566000000E+00 0. -1.
        994    1    1    2    0    0 -0.43376668728E+02 -0.24612697692E+02  0.10361298296E+02  0.17861723539E+03  0.17120000000E+03 0.  0.
        998    1    1    2    0    0  0.23011873072E+02  0.41213230849E+01  0.13365554231E+04  0.13367972660E+04  0.10000000000E+02 0. -1.
</event>
<event>
 5    1  0.1666761E-008  0.3580233E+03  0.7957747E-01  0.3552812E+00
         13   -1    0    0    0    0  0.00000000000E+00  0.00000000000E+00  0.14999999963E+04  0.15000000000E+04  0.10566000000E+00 0. -1.
        994   -1    0    0    0    0 -0.00000000000E+00 -0.00000000000E+00  0.11368683772E-12  0.17120000000E+03  0.17120000000E+03 0.  0.
         13    1    1    2    0    0  0.16383998090E+02 -0.22191880216E+03  0.10744574782E+04  0.10972580707E+04  0.10566000000E+00 0. -1.
        994    1    1    2    0    0  0.48221767875E+01  0.20863126398E+03  0.17441490839E+03  0.32137245988E+03  0.17120000000E+03 0.  0.
        998    1    1    2    0    0 -0.21206174877E+02  0.13287538182E+02  0.25112760969E+03  0.25256946940E+03  0.10000000000E+02 0. -1.
</event>
<event>
 5    1  0.1666761E-008  0.3842105E+03  0.7957747E-01  0.3433027E+00
         13   -1    0    0    0    0  0.00000000000E+00  0.00000000000E+00  0.14999999963E+04  0.15000000000E+04  0.10566000000E+00 0.  1.
        994   -1    0    0    0    0 -0.00000000000E+00 -0.00000000000E+00  0.11368683772E-12  0.17120000000E+03  0.17120000000E+03 0.  0.
         13    1    1    2    0    0  0.62398041122E+02 -0.74417195646E+02  0.19522583588E+03  0.21804717999E+03  0.10566000000E+00 0.  1.
        994    1    1    2    0    0 -0.73572717214E+02  0.91270839272E+02  0.71193051942E+02  0.21936545185E+03  0.17120000000E+03 0.  0.
        998    1    1    2    0    0  0.11174676093E+02 -0.16853643626E+02  0.12335811085E+04  0.12337873682E+04  0.10000000000E+02 0.  1.
</event>
<event>
 5    1  0.1666761E-008  0.3824790E+03  0.7957747E-01  0.3440435E+00
         13   -1    0    0    0    0  0.00000000000E+00  0.00000000000E+00  0.14999999963E+04  0.15000000000E+04  0.10566000000E+00 0. -1.
        994   -1    0    0    0    0 -0.00000000000E+00 -0.00000000000E+00  0.11368683772E-12  0.17120000000E+03  0.17120000000E+03 0.  0.
         13    1    1    2    0    0  0.15693060335E+02 -0.16991684146E+02  0.95955091535E+02  0.98703496535E+02  0.10566000000E+00 0. -1.
        994    1    1    2    0    0 -0.48029671430E+01  0.48964797999E+01  0.30429787696E+01  0.17136435956E+03  0.17120000000E+03 0.  0.
        998    1    1    2    0    0 -0.10890093192E+02  0.12095204346E+02  0.14010019260E+04  0.14011321439E+04  0.10000000000E+02 0. -1.
</event>
<event>
 5    1  0.1666761E-008  0.3767538E+03  0.7957747E-01  0.3465416E+00
         13   -1    0    0    0    0  0.00000000000E+00  0.00000000000E+00  0.14999999963E+04  0.15000000000E+04  0.10566000000E+00 0. -1.
        994   -1    0    0    0    0 -0.00000000000E+00 -0.00000000000E+00  0.11368683772E-12  0.17120000000E+03  0.17120000000E+03 0.  0.
         13    1    1    2    0    0  0.11561768709E+01  0.72326228049E+02  0.30569674572E+03  0.31413839548E+03  0.10566000000E+00 0. -1.
        994    1    1    2    0    0 -0.46556030913E+01 -0.91568780576E+02  0.34738022036E+02  0.19728833314E+03  0.17120000000E+03 0.  0.
        998    1    1    2    0    0  0.34994262204E+01  0.19242552527E+02  0.11595652285E+04  0.11597732714E+04  0.10000000000E+02 0. -1.
</event>
<event>
 5    1  0.1666761E-008  0.3854328E+03  0.7957747E-01  0.3427839E+00
         13   -1    0    0    0    0  0.00000000000E+00  0.00000000000E+00  0.14999999963E+04  0.15000000000E+04  0.10566000000E+00 0. -1.
        994   -1    0    0    0    0 -0.00000000000E+00 -0.00000000000E+00  0.11368683772E-12  0.17120000000E+03  0.17120000000E+03 0.  0.
         13    1    1    2    0    0 -0.54352986369E+01  0.15181784760E+02  0.88637901507E+02  0.90092828834E+02  0.10566000000E+00 0. -1.
        994    1    1    2    0    0  0.64818716123E+01 -0.14158317753E+02  0.22120953005E+01  0.17192092946E+03  0.17120000000E+03 0.  0.
        998    1    1    2    0    0 -0.10465729755E+01 -0.10234670072E+01  0.14091499995E+04  0.14091862417E+04  0.10000000000E+02 0. -1.
</event>
<event>
 5    1  0.1666761E-008  0.3853311E+03  0.7957747E-01  0.3428269E+00
         13   -1    0    0    0    0  0.00000000000E+00  0.00000000000E+00  0.14999999963E+04  0.15000000000E+04  0.10566000000E+00 0.  1.
        994   -1    0    0    0    0 -0.00000000000E+00 -0.00000000000E+00  0.11368683772E-12  0.17120000000E+03  0.17120000000E+03 0.  0.
         13    1    1    2    0    0 -0.68129712112E+01 -0.86919661625E+01  0.41460619888E+02  0.42906421641E+02  0.10566000000E+00 0.  1.
        994    1    1    2    0    0  0.79761657846E+01  0.43036188065E+01  0.17357073151E+01  0.17144851424E+03  0.17120000000E+03 0.  0.
        998    1    1    2    0    0 -0.11631945735E+01  0.43883473559E+01  0.14568036691E+04  0.14568450641E+04  0.10000000000E+02 0.  1.
</event>
<event>
 5    1  0.1666761E-008  0.3834461E+03  0.7957747E-01  0.3436289E+00
         13   -1    0    0    0    0  0.00000000000E+00  0.00000000000E+00  0.14999999963E+04  0.15000000000E+04  0.10566000000E+00 0. -1.
        994   -1    0    0    0    0 -0.00000000000E+00 -0.00000000000E+00  0.11368683772E-12  0.17120000000E+03  0.17120000000E+03 0.  0.
         13    1    1    2    0    0  0.14276320763E+02 -0.29277541876E+01  0.42378651721E+02  0.44814577593E+02  0.10566000000E+00 0. -1.
        994    1    1    2    0    0 -0.17534598948E+02 -0.68440061211E+01  0.35755573149E+01  0.17226876441E+03  0.17120000000E+03 0.  0.
        998    1    1    2    0    0  0.32582781847E+01  0.97717603086E+01  0.14540457872E+04  0.14541166580E+04  0.10000000000E+02 0. -1.
</event>
<event>
 5    1  0.1666761E-008  0.3813519E+03  0.7957747E-01  0.3445293E+00
         13   -1    0    0    0    0  0.00000000000E+00  0.00000000000E+00  0.14999999963E+04  0.15000000000E+04  0.10566000000E+00 0.  1.
        994   -1    0    0    0    0 -0.00000000000E+00 -0.00000000000E+00  0.11368683772E-12  0.17120000000E+03  0.17120000000E+03 0.  0.
         13    1    1    2    0    0  0.19109671405E+02 -0.22350373087E+01  0.54156928390E+02  0.57473115364E+02  0.10566000000E+00 0.  1.
        994    1    1    2    0    0 -0.53124373552E+01 -0.53978344257E+01  0.36432032484E+01  0.17140615957E+03  0.17120000000E+03 0.  0.
        998    1    1    2    0    0 -0.13797234050E+02  0.76328717344E+01  0.14421998646E+04  0.14423207251E+04  0.10000000000E+02 0.  1.
</event>
<event>
 5    1  0.1666761E-008  0.3851858E+03  0.7957747E-01  0.3428885E+00
         13   -1    0    0    0    0  0.00000000000E+00  0.00000000000E+00  0.14999999963E+04  0.15000000000E+04  0.10566000000E+00 0.  1.
        994   -1    0    0    0    0 -0.00000000000E+00 -0.00000000000E+00  0.11368683772E-12  0.17120000000E+03  0.17120000000E+03 0.  0.
         13    1    1    2    0    0 -0.78596584832E+01 -0.92986823921E+01  0.49400872376E+02  0.50879240179E+02  0.10566000000E+00 0.  1.
        994    1    1    2    0    0  0.63120931256E+01 -0.13794205313E+00  0.16689343367E+01  0.17132450756E+03  0.17120000000E+03 0.  0.
        998    1    1    2    0    0  0.15475653576E+01  0.94366244453E+01  0.14489301896E+04  0.14489962523E+04  0.10000000000E+02 0.  1.
</event>
<event>
 5    1  0.1666761E-008  0.3844488E+03  0.7957747E-01  0.3432013E+00
         13   -1    0    0    0    0  0.00000000000E+00  0.00000000000E+00  0.14999999963E+04  0.15000000000E+04  0.10566000000E+00 0.  1.
        994   -1    0    0    0    0 -0.00000000000E+00 -0.00000000000E+00  0.11368683772E-12  0.17120000000E+03  0.17120000000E+03 0.  0.
         13    1    1    2    0    0 -0.14982476564E+02 -0.91606870574E+01  0.87484863561E+02  0.89230069526E+02  0.10566000000E+00 0.  1.
        994    1    1    2    0    0  0.43824151014E+01 -0.75098593363E+01  0.21531858872E+01  0.17143418492E+03  0.17120000000E+03 0.  0.
        998    1    1    2    0    0  0.10600061462E+02  0.16670546394E+02  0.14103619468E+04  0.14105357456E+04  0.10000000000E+02 0.  1.
</event>
<event>
 5    1  0.1666761E-008  0.3834885E+03  0.7957747E-01  0.3436108E+00
         13   -1    0    0    0    0  0.00000000000E+00  0.00000000000E+00  0.14999999963E+04  0.15000000000E+04  0.10566000000E+00 0. -1.
        994   -1    0    0    0    0 -0.00000000000E+00 -0.00000000000E+00  0.11368683772E-12  0.17120000000E+03  0.17120000000E+03 0.  0.
         13    1    1    2    0    0  0.14980590721E+01  0.29121562200E+02  0.16722853663E+03  0.16975189010E+03  0.10566000000E+00 0. -1.
        994    1    1    2    0    0 -0.72222737688E+01 -0.24218061806E+02  0.44960092461E+01  0.17311363278E+03  0.17120000000E+03 0.  0.
        998    1    1    2    0    0  0.57242146967E+01 -0.49035003943E+01  0.13282754504E+04  0.13283344771E+04  0.10000000000E+02 0. -1.
</event>
<event>
 5    1  0.1666761E-008  0.3808251E+03  0.7957747E-01  0.3447574E+00
         13   -1    0    0    0    0  0.00000000000E+00  0.00000000000E+00  0.14999999963E+04  0.15000000000E+04  0.10566000000E+00 0. -1.
        994   -1    0    0    0    0 -0.00000000000E+00 -0.00000000000E+00  0.11368683772E-12  0.17120000000E+03  0.17120000000E+03 0.  0.
         13    1    1    2    0    0  0.13330946775E+02 -0.38491244239E+01  0.24534179200E+02  0.28186291239E+02  0.10566000000E+00 0. -1.
        994    1    1    2    0    0 -0.66202332492E+01  0.55500754620E+01  0.39660718447E+01  0.17146370039E+03  0.17120000000E+03 0.  0.
        998    1    1    2    0    0 -0.67107135258E+01 -0.17009510381E+01  0.14714997452E+04  0.14715500084E+04  0.10000000000E+02 0. -1.
</event>
<event>
 5    1  0.1666761E-008  0.3829241E+03  0.7957747E-01  0.3438524E+00
         13   -1    0    0    0    0  0.00000000000E+00  0.00000000000E+00  0.14999999963E+04  0.15000000000E+04  0.10566000000E+00 0. -1.
        994   -1    0    0    0    0 -0.00000000000E+00 -0.00000000000E+00  0.11368683772E-12  0.17120000000E+03  0.17120000000E+03 0.  0.
         13    1    1    2    0    0 -0.22147918311E+02 -0.17561359007E+02  0.15661994355E+03  0.15915008482E+03  0.10566000000E+00 0. -1.
        994    1    1    2    0    0  0.92811967648E+01  0.55312918376E+01  0.30509025976E+01  0.17156772368E+03  0.17120000000E+03 0.  0.
        998    1    1    2    0    0  0.12866721547E+02  0.12030067169E+02  0.13403291501E+04  0.13404821915E+04  0.10000000000E+02 0. -1.
</event>
<event>
 5    1  0.1666761E-008  0.3698321E+03  0.7957747E-01  0.3496663E+00
         13   -1    0    0    0    0  0.00000000000E+00  0.00000000000E+00  0.14999999963E+04  0.15000000000E+04  0.10566000000E+00 0. -1.
        994   -1    0    0    0    0 -0.00000000000E+00 -0.00000000000E+00  0.11368683772E-12  0.17120000000E+03  0.17120000000E+03 0.  0.
         13    1    1    2    0    0  0.40832038211E+02  0.17036202003E+03  0.67247429251E+03  0.69491881430E+03  0.10566000000E+00 0. -1.
        994    1    1    2    0    0 -0.81184941096E+00 -0.18416944816E+03  0.14082016150E+03  0.28819924118E+03  0.17120000000E+03 0.  0.
        998    1    1    2    0    0 -0.40020188800E+02  0.13807428128E+02  0.68670554227E+03  0.68808194452E+03  0.10000000000E+02 0. -1.
</event>
<event>
 5    1  0.1666761E-008  0.3704218E+03  0.7957747E-01  0.3493955E+00
         13   -1    0    0    0    0  0.00000000000E+00  0.00000000000E+00  0.14999999963E+04  0.15000000000E+04  0.10566000000E+00 0. -1.
        994   -1    0    0    0    0 -0.00000000000E+00 -0.00000000000E+00  0.11368683772E-12  0.17120000000E+03  0.17120000000E+03 0.  0.
         13    1    1    2    0    0 -0.36458804730E+02  0.50156548761E+00  0.54239602914E+02  0.65356267477E+02  0.10566000000E+00 0. -1.
        994    1    1    2    0    0  0.31791497399E+02  0.11557195094E+02  0.15178835884E+02  0.17516879038E+03  0.17120000000E+03 0.  0.
        998    1    1    2    0    0  0.46673073315E+01 -0.12058760581E+02  0.14305815575E+04  0.14306749421E+04  0.10000000000E+02 0. -1.
</event>
<event>
 5    1  0.1666761E-008  0.3791166E+03  0.7957747E-01  0.3455014E+00
         13   -1    0    0    0    0  0.00000000000E+00  0.00000000000E+00  0.14999999963E+04  0.15000000000E+04  0.10566000000E+00 0. -1.
        994   -1    0    0    0    0 -0.00000000000E+00 -0.00000000000E+00  0.11368683772E-12  0.17120000000E+03  0.17120000000E+03 0.  0.
         13    1    1    2    0    0  0.14109448688E+02 -0.17473180649E+02  0.55750992855E+02  0.60104683283E+02  0.10566000000E+00 0. -1.
        994    1    1    2    0    0 -0.97394649376E+01 -0.41113430450E+01  0.49545258932E+01  0.17159763298E+03  0.17120000000E+03 0.  0.
        998    1    1    2    0    0 -0.43699837500E+01  0.21584523694E+02  0.14392944775E+04  0.14394976837E+04  0.10000000000E+02 0. -1.
</event>
<event>
 5    1  0.1666761E-008  0.3811903E+03  0.7957747E-01  0.3445992E+00
         13   -1    0    0    0    0  0.00000000000E+00  0.00000000000E+00  0.14999999963E+04  0.15000000000E+04  0.10566000000E+00 0. -1.
        994   -1    0    0    0    0 -0.00000000000E+00 -0.00000000000E+00  0.11368683772E-12  0.17120000000E+03  0.17120000000E+03 0.  0.
         13    1    1    2    0    0  0.15934177081E+01 -0.14893300303E+02  0.30929231392E+02  0.34365358902E+02  0.10566000000E+00 0. -1.
        994    1    1    2    0    0 -0.44181342302E+01  0.44208409396E+01  0.36636042621E+01  0.17135321923E+03  0.17120000000E+03 0.  0.
        998    1    1    2    0    0  0.28247165221E+01  0.10472459363E+02  0.14654071606E+04  0.14654814219E+04  0.10000000000E+02 0. -1.
</event>
<event>
 5    1  0.1666761E-008  0.3787152E+03  0.7957747E-01  0.3456772E+00
         13   -1    0    0    0    0  0.00000000000E+00  0.00000000000E+00  0.14999999963E+04  0.15000000000E+04  0.10566000000E+00 0. -1.
        994   -1    0    0    0    0 -0.00000000000E+00 -0.00000000000E+00  0.11368683772E-12  0.17120000000E+03  0.17120000000E+03 0.  0.
         13    1    1    2    0    0  0.12526903459E+03  0.38961133797E+02  0.60091114610E+03  0.61506464510E+03  0.10566000000E+00 0. -1.
        994    1    1    2    0    0 -0.17682001263E+03 -0.11936898506E+02  0.11868852140E+03  0.27350358594E+03  0.17120000000E+03 0.  0.
        998    1    1    2    0    0  0.51550978042E+02 -0.27024235292E+02  0.78040032878E+03  0.78263176896E+03  0.10000000000E+02 0. -1.
</event>
<event>
 5    1  0.1666761E-008  0.3837551E+03  0.7957747E-01  0.3434969E+00
         13   -1    0    0    0    0  0.00000000000E+00  0.00000000000E+00  0.14999999963E+04  0.15000000000E+04  0.10566000000E+00 0.  1.
        994   -1    0    0    0    0 -0.00000000000E+00 -0.00000000000E+00  0.11368683772E-12  0.17120000000E+03  0.17120000000E+03 0.  0.
         13    1    1    2    0    0 -0.65539244301E+01 -0.11081927798E+02  0.35711104153E+02  0.37961258844E+02  0.10566000000E+00 0.  1.
        994    1    1    2    0    0  0.70966934119E+01  0.99083625715E+01  0.27400716508E+01  0.17165513887E+03  0.17120000000E+03 0.  0.
        998    1    1    2    0    0 -0.54276898177E+00  0.11735652266E+01  0.14615488205E+04  0.14615836023E+04  0.10000000000E+02 0.  1.
</event>
<event>
 5    1  0.1666761E-008  0.3854029E+03  0.7957747E-01  0.3427965E+00
         13   -1    0    0    0    0  0.00000000000E+00  0.00000000000E+00  0.14999999963E+04  0.15000000000E+04  0.10566000000E+00 0.  1.
        994   -1    0    0    0    0 -0.00000000000E+00 -0.00000000000E+00  0.11368683772E-12  0.17120000000E+03  0.17120000000E+03 0.  0.
         13    1    1    2    0    0  0.77836250121E+02  0.16523153256E+03  0.10595313062E+04  0.10751588446E+04  0.10566000000E+00 0.  1.
        994    1    1    2    0    0 -0.71508465354E+02 -0.19278739566E+03  0.15543638415E+03  0.30943553458E+03  0.17120000000E+03 0.  0.
        998    1    1    2    0    0 -0.63277847672E+01  0.27555863099E+02  0.28503230592E+03  0.28660562079E+03  0.10000000000E+02 0. -1.
</event>
<event>
 5    1  0.1666761E-008  0.3738875E+03  0.7957747E-01  0.3478213E+00
         13   -1    0    0    0    0  0.00000000000E+00  0.00000000000E+00  0.14999999963E+04  0.15000000000E+04  0.10566000000E+00 0. -1.
        994   -1    0    0    0    0 -0.00000000000E+00 -0.00000000000E+00  0.11368683772E-12  0.17120000000E+03  0.17120000000E+03 0.  0.
         13    1    1    2    0    0 -0.27992890667E+02  0.26529303050E+02  0.11051992747E+03  0.11705584727E+03  0.10566000000E+00 0. -1.
        994    1    1    2    0    0 -0.66890456384E+01 -0.77755207398E+01  0.76101784193E+01  0.17167573174E+03  0.17120000000E+03 0.  0.
        998    1    1    2    0    0  0.34681936305E+02 -0.18753782311E+02  0.13818698904E+04  0.13824684210E+04  0.10000000000E+02 0. -1.
</event>
<event>
 5    1  0.1666761E-008  0.3846587E+03  0.7957747E-01  0.3431121E+00
         13   -1    0    0    0    0  0.00000000000E+00  0.00000000000E+00  0.14999999963E+04  0.15000000000E+04  0.10566000000E+00 0.  1.
        994   -1    0    0    0    0 -0.00000000000E+00 -0.00000000000E+00  0.11368683772E-12  0.17120000000E+03  0.17120000000E+03 0.  0.
         13    1    1    2    0    0  0.12293405011E+02  0.11837102782E+02  0.78450181649E+02  0.80285035803E+02  0.10566000000E+00 0.  1.
        994    1    1    2    0    0 -0.94700316351E+01 -0.12480145246E+02  0.26081400798E+01  0.17193509799E+03  0.17120000000E+03 0.  0.
        998    1    1    2    0    0 -0.28233733760E+01  0.64304246466E+00  0.14189416745E+04  0.14189798662E+04  0.10000000000E+02 0.  1.
</event>
<event>
 5    1  0.1666761E-008  0.3824164E+03  0.7957747E-01  0.3440704E+00
         13   -1    0    0    0    0  0.00000000000E+00  0.00000000000E+00  0.14999999963E+04  0.15000000000E+04  0.10566000000E+00 0. -1.
        994   -1    0    0    0    0 -0.00000000000E+00 -0.00000000000E+00  0.11368683772E-12  0.17120000000E+03  0.17120000000E+03 0.  0.
         13    1    1    2    0    0  0.10007417944E+02  0.20549961108E+01  0.16379137139E+02  0.19304370499E+02  0.10566000000E+00 0. -1.
        994    1    1    2    0    0 -0.12899491720E+02 -0.94098447529E+01  0.37642800431E+01  0.17198416168E+03  0.17120000000E+03 0.  0.
        998    1    1    2    0    0  0.28920737759E+01  0.73548486422E+01  0.14798565791E+04  0.14799114678E+04  0.10000000000E+02 0. -1.
</event>
<event>
 5    1  0.1666761E-008  0.3846038E+03  0.7957747E-01  0.3431354E+00
         13   -1    0    0    0    0  0.00000000000E+00  0.00000000000E+00  0.14999999963E+04  0.15000000000E+04  0.10566000000E+00 0. -1.
        994   -1    0    0    0    0 -0.00000000000E+00 -0.00000000000E+00  0.11368683772E-12  0.17120000000E+03  0.17120000000E+03 0.  0.
         13    1    1    2    0    0  0.11745545909E+02  0.67185411934E+00  0.38797473251E+02  0.40542130326E+02  0.10566000000E+00 0. -1.
        994    1    1    2    0    0 -0.12447448639E+01  0.19645797831E+01  0.18448086592E+01  0.17122573487E+03  0.17120000000E+03 0.  0.
        998    1    1    2    0    0 -0.10500801045E+02 -0.26364339024E+01  0.14593577144E+04  0.14594321348E+04  0.10000000000E+02 0. -1.
</event>
<event>
 5    1  0.1666761E-008  0.3849465E+03  0.7957747E-01  0.3429899E+00
         13   -1    0    0    0    0  0.00000000000E+00  0.00000000000E+00  0.14999999963E+04  0.15000000000E+04  0.10566000000E+00 0. -1.
        994   -1    0    0    0    0 -0.00000000000E+00 -0.00000000000E+00  0.11368683772E-12  0.17120000000E+03  0.17120000000E+03 0.  0.
         13    1    1    2    0    0 -0.19211127428E+02 -0.33441945313E+01  0.10527625899E+03  0.10706704874E+03  0.10566000000E+00 0. -1.
        994    1    1    2    0    0  0.25515818972E+02 -0.89752810411E+01  0.40668500554E+01  0.17337125470E+03  0.17120000000E+03 0.  0.
        998    1    1    2    0    0 -0.63046915440E+01  0.12319475572E+02  0.13906568872E+04  0.13907616966E+04  0.10000000000E+02 0. -1.
</event>
<event>
 5    1  0.1666761E-008  0.3855242E+03  0.7957747E-01  0.3427452E+00
         13   -1    0    0    0    0  0.00000000000E+00  0.00000000000E+00  0.14999999963E+04  0.15000000000E+04  0.10566000000E+00 0. -1.
        994   -1    0    0    0    0 -0.00000000000E+00 -0.00000000000E+00  0.11368683772E-12  0.17120000000E+03  0.17120000000E+03 0.  0.
         13    1    1    2    0    0 -0.65736310421E+01  0.95939550771E+01  0.51612695425E+02  0.52906881331E+02  0.10566000000E+00 0. -1.
        994    1    1    2    0    0  0.26237733861E+01  0.15530303785E+00  0.13928087750E+01  0.17122583982E+03  0.17120000000E+03 0.  0.
        998    1    1    2    0    0  0.39498576560E+01 -0.97492581150E+01  0.14469944921E+04  0.14470672788E+04  0.10000000000E+02 0. -1.
</event>
<event>
 5    1  0.1666761E-008  0.3852403E+03  0.7957747E-01  0.3428654E+00
         13   -1    0    0    0    0  0.00000000000E+00  0.00000000000E+00  0.14999999963E+04  0.15000000000E+04  0.10566000000E+00 0.  1.
        994   -1    0    0    0    0 -0.00000000000E+00 -0.00000000000E+00  0.11368683772E-12  0.17120000000E+03  0.17120000000E+03 0.  0.
         13    1    1    2    0    0 -0.84166713507E+01  0.10557236815E+02  0.63005909736E+02  0.64436413863E+02  0.10566000000E+00 0.  1.
        994    1    1    2    0    0  0.70420746295E+00 -0.27960055555E+01  0.15382189211E+01  0.17123118779E+03  0.17120000000E+03 0.  0.
        998    1    1    2    0    0  0.77124638877E+01 -0.77612312591E+01  0.14354558676E+04  0.14355323983E+04  0.10000000000E+02 0.  1.
</event>
<event>
 5    1  0.1666761E-008  0.3753301E+03  0.7957747E-01  0.3471748E+00
         13   -1    0    0    0    0  0.00000000000E+00  0.00000000000E+00  0.14999999963E+04  0.15000000000E+04  0.10566000000E+00 0. -1.
        994   -1    0    0    0    0 -0.00000000000E+00 -0.00000000000E+00  0.11368683772E-12  0.17120000000E+03  0.17120000000E+03 0.  0.
         13    1    1    2    0    0  0.54606209388E+00  0.31704604020E+02  0.76646521169E+02  0.82946853293E+02  0.10566000000E+00 0. -1.
        994    1    1    2    0    0 -0.16411730994E+02 -0.13445233916E+02  0.80391544970E+01  0.17269680725E+03  0.17120000000E+03 0.  0.
        998    1    1    2    0    0  0.15865668900E+02 -0.18259370103E+02  0.14153143206E+04  0.14155563395E+04  0.10000000000E+02 0. -1.
</event>
<event>
 5    1  0.4033275E-008  0.3862750E+03  0.7957747E-01  0.3424283E+00
         13   -1    0    0    0    0  0.00000000000E+00  0.00000000000E+00  0.14999999963E+04  0.15000000000E+04  0.10566000000E+00 0.  1.
        994   -1    0    0    0    0 -0.00000000000E+00 -0.00000000000E+00  0.11368683772E-12  0.17120000000E+03  0.17120000000E+03 0.  0.
         13    1    1    2    0    0  0.43631079553E+01  0.91994499161E+01  0.54221778798E+02  0.55169548211E+02  0.10566000000E+00 0.  1.
        994    1    1    2    0    0  0.19269793333E+01 -0.45194734363E+01  0.10775213293E+01  0.17127387408E+03  0.17120000000E+03 0.  0.
        998    1    1    2    0    0 -0.62900872887E+01 -0.46799764798E+01  0.14447006962E+04  0.14447565777E+04  0.10000000000E+02 0.  1.
</event>
<event>
 5    1  0.1666761E-008  0.3708158E+03  0.7957747E-01  0.3492150E+00
         13   -1    0    0    0    0  0.00000000000E+00  0.00000000000E+00  0.14999999963E+04  0.15000000000E+04  0.10566000000E+00 0.  1.
        994   -1    0    0    0    0 -0.00000000000E+00 -0.00000000000E+00  0.11368683772E-12  0.17120000000E+03  0.17120000000E+03 0.  0.
         13    1    1    2    0    0 -0.34200543111E+02  0.26233159074E+02  0.10745836876E+03  0.11578068909E+03  0.10566000000E+00 0.  1.
        994    1    1    2    0    0  0.92314820367E+01 -0.99256936982E+01  0.94770242901E+01  0.17199707453E+03  0.17120000000E+03 0.  0.
        998    1    1    2    0    0  0.24969061074E+02 -0.16307465376E+02  0.13830646032E+04  0.13834222364E+04  0.10000000000E+02 0.  1.
</event>
<event>
 5    1  0.1666761E-008  0.3844295E+03  0.7957747E-01  0.3432096E+00
         13   -1    0    0    0    0  0.00000000000E+00  0.00000000000E+00  0.14999999963E+04  0.15000000000E+04  0.10566000000E+00 0.  1.
        994   -1    0    0    0    0 -0.00000000000E+00 -0.00000000000E+00  0.11368683772E-12  0.17120000000E+03  0.17120000000E+03 0.  0.
         13    1    1    2    0    0 -0.53660300989E+01  0.99401542257E+01  0.32753396625E+02  0.34646747316E+02  0.10566000000E+00 0.  1.
        994    1    1    2    0    0  0.65470785077E+01 -0.65422243843E+01  0.21959611326E+01  0.17146406965E+03  0.17120000000E+03 0.  0.
        998    1    1    2    0    0 -0.11810484088E+01 -0.33979298414E+01  0.14650506385E+04  0.14650891830E+04  0.10000000000E+02 0.  1.
</event>
<event>
 5    1  0.1666761E-008  0.3828561E+03  0.7957747E-01  0.3438816E+00
         13   -1    0    0    0    0  0.00000000000E+00  0.00000000000E+00  0.14999999963E+04  0.15000000000E+04  0.10566000000E+00 0.  1.
        994   -1    0    0    0    0 -0.00000000000E+00 -0.00000000000E+00  0.11368683772E-12  0.17120000000E+03  0.17120000000E+03 0.  0.
         13    1    1    2    0    0 -0.12935142090E+02  0.25064157415E+01  0.30996127104E+02  0.33680425773E+02  0.10566000000E+00 0.  1.
        994    1    1    2    0    0  0.14816992467E+02  0.17122030218E+02  0.43980582368E+01  0.17274689607E+03  0.17120000000E+03 0.  0.
        998    1    1    2    0    0 -0.18818503770E+01 -0.19628445960E+02  0.14646058109E+04  0.14647726782E+04  0.10000000000E+02 0.  1.
</event>
<event>
 5    1  0.1666761E-008  0.3742347E+03  0.7957747E-01  0.3476653E+00
         13   -1    0    0    0    0  0.00000000000E+00  0.00000000000E+00  0.14999999963E+04  0.15000000000E+04  0.10566000000E+00 0.  1.
        994   -1    0    0    0    0 -0.00000000000E+00 -0.00000000000E+00  0.11368683772E-12  0.17120000000E+03  0.17120000000E+03 0.  0.
         13    1    1    2    0    0  0.12648082564E+03 -0.51781969158E+02  0.68756151097E+03  0.70101327670E+03  0.10566000000E+00 0.  1.
        994    1    1    2    0    0 -0.12518593438E+03  0.49227191625E+02  0.71484908078E+02  0.22916013319E+03  0.17120000000E+03 0.  0.
        998    1    1    2    0    0 -0.12948912616E+01  0.25547775328E+01  0.74095357723E+03  0.74102659011E+03  0.10000000000E+02 0.  0.
</event>
<event>
 5    1  0.1666761E-008  0.3823429E+03  0.7957747E-01  0.3441020E+00
         13   -1    0    0    0    0  0.00000000000E+00  0.00000000000E+00  0.14999999963E+04  0.15000000000E+04  0.10566000000E+00 0. -1.
        994   -1    0    0    0    0 -0.00000000000E+00 -0.00000000000E+00  0.11368683772E-12  0.17120000000E+03  0.17120000000E+03 0.  0.
         13    1    1    2    0    0 -0.74999953477E+01  0.96072153136E+01  0.23855344219E+02  0.26788750029E+02  0.10566000000E+00 0. -1.
        994    1    1    2    0    0  0.67272050100E+01 -0.82562807071E+01  0.33314555733E+01  0.17156328294E+03  0.17120000000E+03 0.  0.
        998    1    1    2    0    0  0.77279033775E+00 -0.13509346065E+01  0.14728131965E+04  0.14728479670E+04  0.10000000000E+02 0. -1.
</event>
<event>
 5    1  0.1666761E-008  0.3784402E+03  0.7957747E-01  0.3457979E+00
         13   -1    0    0    0    0  0.00000000000E+00  0.00000000000E+00  0.14999999963E+04  0.15000000000E+04  0.10566000000E+00 0. -1.
        994   -1    0    0    0    0 -0.00000000000E+00 -0.00000000000E+00  0.11368683772E-12  0.17120000000E+03  0.17120000000E+03 0.  0.
         13    1    1    2    0    0 -0.49489701272E+02  0.18465589312E+02  0.24943153666E+03  0.25496335259E+03  0.10566000000E+00 0. -1.
        994    1    1    2    0    0  0.62710175057E+02  0.26426509783E+02  0.20644668841E+02  0.18538222360E+03  0.17120000000E+03 0.  0.
        998    1    1    2    0    0 -0.13220473786E+02 -0.44892099096E+02  0.12299237908E+04  0.12308544238E+04  0.10000000000E+02 0. -1.
</event>
<event>
 5    1  0.1666761E-008  0.3753306E+03  0.7957747E-01  0.3471745E+00
         13   -1    0    0    0    0  0.00000000000E+00  0.00000000000E+00  0.14999999963E+04  0.15000000000E+04  0.10566000000E+00 0.  1.
        994   -1    0    0    0    0 -0.00000000000E+00 -0.00000000000E+00  0.11368683772E-12  0.17120000000E+03  0.17120000000E+03 0.  0.
         13    1    1    2    0    0  0.37499123251E+02 -0.90703648598E+01  0.10646368649E+03  0.11323861297E+03  0.10566000000E+00 0.  1.
        994    1    1    2    0    0 -0.32480256288E+02  0.15172456387E+02  0.10885185214E+02  0.17525152706E+03  0.17120000000E+03 0.  0.
        998    1    1    2    0    0 -0.50188669633E+01 -0.61020915268E+01  0.13826511246E+04  0.13827098600E+04  0.10000000000E+02 0.  1.
</event>
<event>
 5    1  0.1666761E-008  0.3798795E+03  0.7957747E-01  0.3451683E+00
         13   -1    0    0    0    0  0.00000000000E+00  0.00000000000E+00  0.14999999963E+04  0.15000000000E+04  0.10566000000E+00 0. -1.
        994   -1    0    0    0    0 -0.00000000000E+00 -0.00000000000E+00  0.11368683772E-12  0.17120000000E+03  0.17120000000E+03 0.  0.
         13    1    1    2    0    0 -0.55400968715E+02  0.87446520440E+01  0.32787768767E+03  0.33264023435E+03  0.10566000000E+00 0. -1.
        994    1    1    2    0    0  0.44826528777E+02 -0.76497593411E+01  0.11140887211E+02  0.17748660757E+03  0.17120000000E+03 0.  0.
        998    1    1    2    0    0  0.10574439938E+02 -0.10948927028E+01  0.11609814214E+04  0.11610731581E+04  0.10000000000E+02 0. -1.
</event>
<event>
 5    1  0.1666761E-008  0.3838363E+03  0.7957747E-01  0.3434623E+00
         13   -1    0    0    0    0  0.00000000000E+00  0.00000000000E+00  0.14999999963E+04  0.15000000000E+04  0.10566000000E+00 0. -1.
        994   -1    0    0    0    0 -0.00000000000E+00 -0.00000000000E+00  0.11368683772E-12  0.17120000000E+03  0.17120000000E+03 0.  0.
         13    1    1    2    0    0  0.12748074798E+02 -0.20419530900E+01  0.37728456643E+02  0.39876441519E+02  0.10566000000E+00 0. -1.
        994    1    1    2    0    0 -0.45572901228E+01  0.35034411221E+01  0.23180967576E+01  0.17131216117E+03  0.17120000000E+03 0.  0.
        998    1    1    2    0    0 -0.81907846755E+01 -0.14614880321E+01  0.14599534429E+04  0.14600113973E+04  0.10000000000E+02 0. -1.
</event>
<event>
 5    1  0.1666761E-008  0.3844465E+03  0.7957747E-01  0.3432023E+00
         13   -1    0    0    0    0  0.00000000000E+00  0.00000000000E+00  0.14999999963E+04  0.15000000000E+04  0.10566000000E+00 0. -1.
        994   -1    0    0    0    0 -0.00000000000E+00 -0.00000000000E+00  0.11368683772E-12  0.17120000000E+03  0.17120000000E+03 0.  0.
         13    1    1    2    0    0 -0.29050702006E+02  0.90722552722E+02  0.19480247691E+03  0.21684681467E+03  0.10566000000E+00 0. -1.
        994    1    1    2    0    0  0.31996187588E+02 -0.10099570256E+03  0.61419636532E+02  0.21048919142E+03  0.17120000000E+03 0.  0.
        998    1    1    2    0    0 -0.29454855824E+01  0.10273149834E+02  0.12437778828E+04  0.12438639939E+04  0.10000000000E+02 0. -1.
</event>
<event>
 5    1  0.1666761E-008  0.3804433E+03  0.7957747E-01  0.3449230E+00
         13   -1    0    0    0    0  0.00000000000E+00  0.00000000000E+00  0.14999999963E+04  0.15000000000E+04  0.10566000000E+00 0. -1.
        994   -1    0    0    0    0 -0.00000000000E+00 -0.00000000000E+00  0.11368683772E-12  0.17120000000E+03  0.17120000000E+03 0.  0.
         13    1    1    2    0    0  0.14467060153E+02 -0.12780345888E+02  0.46179480406E+02  0.50051859557E+02  0.10566000000E+00 0. -1.
        994    1    1    2    0    0 -0.48068081309E+01  0.13968911754E+02  0.46383397653E+01  0.17189877863E+03  0.17120000000E+03 0.  0.
        998    1    1    2    0    0 -0.96602520220E+01 -0.11885658660E+01  0.14491821761E+04  0.14492493618E+04  0.10000000000E+02 0. -1.
</event>
<event>
 5    1  0.1666761E-008  0.3807643E+03  0.7957747E-01  0.3447837E+00
         13   -1    0    0    0    0  0.00000000000E+00  0.00000000000E+00  0.14999999963E+04  0.15000000000E+04  0.10566000000E+00 0.  1.
        994   -1    0    0    0    0 -0.00000000000E+00 -0.00000000000E+00  0.11368683772E-12  0.17120000000E+03  0.17120000000E+03 0.  0.
         13    1    1    2    0    0  0.94043831761E+01 -0.80799542234E+01  0.18725938006E+02  0.22458851293E+02  0.10566000000E+00 0.  1.
        994    1    1    2    0    0 -0.12393996203E+02  0.59322804300E+01  0.43776578456E+01  0.17180630658E+03  0.17120000000E+03 0.  0.
        998    1    1    2    0    0  0.29896130273E+01  0.21476737934E+01  0.14768964004E+04  0.14769348421E+04  0.10000000000E+02 0.  1.
</event>
<event>
 5    1  0.1666761E-008  0.3856152E+03  0.7957747E-01  0.3427067E+00
         13   -1    0    0    0    0  0.00000000000E+00  0.00000000000E+00  0.14999999963E+04  0.15000000000E+04  0.10566000000E+00 0.  1.
        994   -1    0    0    0    0 -0.00000000000E+00 -0.00000000000E+00  0.11368683772E-12  0.17120000000E+03  0.17120000000E+03 0.  0.
         13    1    1    2    0    0  0.64809171057E+01 -0.88572527762E+01  0.43699904648E+02  0.45057141982E+02  0.10566000000E+00 0.  1.
        994    1    1    2    0    0 -0.84362312549E+01  0.12684345274E+02  0.20870538907E+01  0.17188908752E+03  0.17120000000E+03 0.  0.
        998    1    1    2    0    0  0.19553141492E+01 -0.38270924973E+01  0.14542130377E+04  0.14542537705E+04  0.10000000000E+02 0.  1.
</event>
<event>
 5    1  0.1666761E-008  0.3844276E+03  0.7957747E-01  0.3432103E+00
         13   -1    0    0    0    0  0.00000000000E+00  0.00000000000E+00  0.14999999963E+04  0.15000000000E+04  0.10566000000E+00 0.  1.
        994   -1    0    0    0    0 -0.00000000000E+00 -0.00000000000E+00  0.11368683772E-12  0.17120000000E+03  0.17120000000E+03 0.  0.
         13    1    1    2    0    0 -0.12469515952E+02 -0.16091563618E+02  0.10722720819E+03  0.10914262498E+03  0.10566000000E+00 0.  1.
        994    1    1    2    0    0  0.30061228064E+02 -0.45553871259E+01  0.49662907530E+01  0.17394980031E+03  0.17120000000E+03 0.  0.
        998    1    1    2    0    0 -0.17591712112E+02  0.20646950744E+02  0.13878064973E+04  0.13881075747E+04  0.10000000000E+02 0.  1.
</event>
<event>
 5    1  0.1666761E-008  0.3693146E+03  0.7957747E-01  0.3499047E+00
         13   -1    0    0    0    0  0.00000000000E+00  0.00000000000E+00  0.14999999963E+04  0.15000000000E+04  0.10566000000E+00 0. -1.
        994   -1    0    0    0    0 -0.00000000000E+00 -0.00000000000E+00  0.11368683772E-12  0.17120000000E+03  0.17120000000E+03 0.  0.
         13    1    1    2    0    0  0.49790756792E+02  0.27564946953E+02  0.20785998351E+03  0.21551039342E+03  0.10566000000E+00 0. -1.
        994    1    1    2    0    0  0.15119255011E+02 -0.89660576343E+01  0.10699385833E+02  0.17243230242E+03  0.17120000000E+03 0.  0.
        998    1    1    2    0    0 -0.64910011802E+02 -0.18598889319E+02  0.12814406269E+04  0.12832573042E+04  0.10000000000E+02 0. -1.
</event>
<event>
 5    1  0.1666761E-008  0.3853873E+03  0.7957747E-01  0.3428031E+00
         13   -1    0    0    0    0  0.00000000000E+00  0.00000000000E+00  0.14999999963E+04  0.15000000000E+04  0.10566000000E+00 0. -1.
        994   -1    0    0    0    0 -0.00000000000E+00 -0.00000000000E+00  0.11368683772E-12  0.17120000000E+03  0.17120000000E+03 0.  0.
         13    1    1    2    0    0 -0.21293690529E+00 -0.11961627801E+02  0.52071177102E+02  0.53427937735E+02  0.10566000000E+00 0. -1.
        994    1    1    2    0    0 -0.68741185051E+00  0.10867541249E+01  0.14433947306E+01  0.17121091366E+03  0.17120000000E+03 0.  0.
        998    1    1    2    0    0  0.90034875579E+00  0.10874873676E+02  0.14464854244E+04  0.14465611486E+04  0.10000000000E+02 0. -1.
</event>
<event>
 5    1  0.1666761E-008  0.3852936E+03  0.7957747E-01  0.3428428E+00
         13   -1    0    0    0    0  0.00000000000E+00  0.00000000000E+00  0.14999999963E+04  0.15000000000E+04  0.10566000000E+00 0. -1.
        994   -1    0    0    0    0 -0.00000000000E+00 -0.00000000000E+00  0.11368683772E-12  0.17120000000E+03  0.17120000000E+03 0.  0.
         13    1    1    2    0    0  0.14193891449E+02  0.20435669092E+01  0.72655646985E+02  0.74057389388E+02  0.10566000000E+00 0. -1.
        994    1    1    2    0    0 -0.27829182841E+01 -0.23629967931E+01  0.15282427908E+01  0.17124574130E+03  0.17120000000E+03 0.  0.
        998    1    1    2    0    0 -0.11410973165E+02  0.31942988392E+00  0.14258161065E+04  0.14258968693E+04  0.10000000000E+02 0. -1.
</event>
<event>
 5    1  0.1666761E-008  0.3856347E+03  0.7957747E-01  0.3426985E+00
         13   -1    0    0    0    0  0.00000000000E+00  0.00000000000E+00  0.14999999963E+04  0.15000000000E+04  0.10566000000E+00 0.  1.
        994   -1    0    0    0    0 -0.00000000000E+00 -0.00000000000E+00  0.11368683772E-12  0.17120000000E+03  0.17120000000E+03 0.  0.
         13    1    1    2    0    0  0.10212246597E+02  0.66948100533E+01  0.61543047819E+02  0.62742874983E+02  0.10566000000E+00 0.  1.
        994    1    1    2    0    0  0.44862878505E+01 -0.17876696594E+01  0.13919168016E+01  0.17127375740E+03  0.17120000000E+03 0.  0.
        998    1    1    2    0    0 -0.14698534447E+02 -0.49071403938E+01  0.14370650317E+04  0.14371833676E+04  0.10000000000E+02 0.  1.
</event>
<event>
 5    1  0.1666761E-008  0.3833441E+03  0.7957747E-01  0.3436725E+00
         13   -1    0    0    0    0  0.00000000000E+00  0.00000000000E+00  0.14999999963E+04  0.15000000000E+04  0.10566000000E+00 0. -1.
        994   -1    0    0    0    0 -0.00000000000E+00 -0.00000000000E+00  0.11368683772E-12  0.17120000000E+03  0.17120000000E+03 0.  0.
         13    1    1    2    0    0 -0.15822461905E+02 -0.20634925977E+02  0.13709705392E+03  0.13954126210E+03  0.10566000000E+00 0. -1.
        994    1    1    2    0    0  0.80464437175E+01  0.13592464746E+02  0.32798717549E+01  0.17195841914E+03  0.17120000000E+03 0.  0.
        998    1    1    2    0    0  0.77760181874E+01  0.70424612311E+01  0.13596230706E+04  0.13597003188E+04  0.10000000000E+02 0. -1.
</event>
<event>
 5    1  0.1666761E-008  0.3831209E+03  0.7957747E-01  0.3437681E+00
         13   -1    0    0    0    0  0.00000000000E+00  0.00000000000E+00  0.14999999963E+04  0.15000000000E+04  0.10566000000E+00 0.  1.
        994   -1    0    0    0    0 -0.00000000000E+00 -0.00000000000E+00  0.11368683772E-12  0.17120000000E+03  0.17120000000E+03 0.  0.
         13    1    1    2    0    0  0.95596053106E+01  0.27900203514E+02  0.15365047033E+03  0.15645537897E+03  0.10566000000E+00 0.  1.
        994    1    1    2    0    0 -0.12251389979E+01 -0.30894931271E+02  0.57356212473E+01  0.17406416947E+03  0.17120000000E+03 0.  0.
        998    1    1    2    0    0 -0.83344663127E+01  0.29947277568E+01  0.13406139047E+04  0.13406804516E+04  0.10000000000E+02 0.  1.
</event>
<event>
 5    1  0.1666761E-008  0.3841763E+03  0.7957747E-01  0.3433173E+00
         13   -1    0    0    0    0  0.00000000000E+00  0.00000000000E+00  0.14999999963E+04  0.15000000000E+04  0.10566000000E+00 0. -1.
        994   -1    0    0    0    0 -0.00000000000E+00 -0.00000000000E+00  0.11368683772E-12  0.17120000000E+03  0.17120000000E+03 0.  0.
         13    1    1    2    0    0 -0.85283052464E+01  0.10514608340E+02  0.45331725275E+02  0.47310310286E+02  0.10566000000E+00 0. -1.
        994    1    1    2    0    0  0.29151371417E+01 -0.43757441626E+01  0.21307944830E+01  0.17129397376E+03  0.17120000000E+03 0.  0.
        998    1    1    2    0    0  0.56131681047E+01 -0.61388641770E+01  0.14525374765E+04  0.14525957160E+04  0.10000000000E+02 0. -1.
</event>
<event>
 5    1  0.1666761E-008  0.3921419E+03  0.7957747E-01  0.3399936E+00
         13   -1    0    0    0    0  0.00000000000E+00  0.00000000000E+00  0.14999999963E+04  0.15000000000E+04  0.10566000000E+00 0.  1.
        994   -1    0    0    0    0 -0.00000000000E+00 -0.00000000000E+00  0.11368683772E-12  0.17120000000E+03  0.17120000000E+03 0.  0.
         13    1    1    2    0    0  0.70147094337E+02  0.38228324851E+02  0.12401437196E+03  0.14751811848E+03  0.10566000000E+00 0.  1.
        994    1    1    2    0    0 -0.64195989260E+02 -0.29916120408E+02  0.42453713906E+02  0.19007329408E+03  0.17120000000E+03 0.  0.
        998    1    1    2    0    0 -0.59511050773E+01 -0.83122044438E+01  0.13335319104E+04  0.13336085874E+04  0.10000000000E+02 0.  1.
</event>
<event>
 5    1  0.1666761E-008  0.3841853E+03  0.7957747E-01  0.3433135E+00
         13   -1    0    0    0    0  0.00000000000E+00  0.00000000000E+00  0.14999999963E+04  0.15000000000E+04  0.10566000000E+00 0.  1.
        994   -1    0    0    0    0 -0.00000000000E+00 -0.00000000000E+00  0.11368683772E-12  0.17120000000E+03  0.17120000000E+03 0.  0.
         13    1    1    2    0    0  0.90490359034E+00  0.18480822603E+02  0.79080476075E+02  0.81216331577E+02  0.10566000000E+00 0.  1.
        994    1    1    2    0    0  0.53573570999E+01 -0.21429883968E+02  0.36457069711E+01  0.17265767397E+03  0.17120000000E+03 0.  0.
        998    1    1    2    0    0 -0.62622606903E+01  0.29490613643E+01  0.14172738132E+04  0.14173259945E+04  0.10000000000E+02 0.  1.
</event>
<event>
 5    1  0.1666761E-008  0.3842207E+03  0.7957747E-01  0.3432984E+00
         13   -1    0    0    0    0  0.00000000000E+00  0.00000000000E+00  0.14999999963E+04  0.15000000000E+04  0.10566000000E+00 0.  1.
        994   -1    0    0    0    0 -0.00000000000E+00 -0.00000000000E+00  0.11368683772E-12  0.17120000000E+03  0.17120000000E+03 0.  0.
         13    1    1    2    0    0 -0.64978286039E+01  0.13632490813E+02  0.55636108577E+02  0.57649408704E+02  0.10566000000E+00 0.  1.
        994    1    1    2    0    0  0.90734152682E+01 -0.86624696944E+01  0.25365597625E+01  0.17167771952E+03  0.17120000000E+03 0.  0.
        998    1    1    2    0    0 -0.25755866643E+01 -0.49700211184E+01  0.14418273279E+04  0.14418728718E+04  0.10000000000E+02 0.  1.
</event>
<event>
 5    1  0.1666761E-008  0.3785273E+03  0.7957747E-01  0.3457596E+00
         13   -1    0    0    0    0  0.00000000000E+00  0.00000000000E+00  0.14999999963E+04  0.15000000000E+04  0.10566000000E+00 0. -1.
        994   -1    0    0    0    0 -0.00000000000E+00 -0.00000000000E+00  0.11368683772E-12  0.17120000000E+03  0.17120000000E+03 0.  0.
         13    1    1    2    0    0 -0.51584968206E+01 -0.90773908128E+01  0.88824969874E+01  0.13708356217E+02  0.10566000000E+00 0. -1.
        994    1    1    2    0    0  0.64918426498E+01  0.10402759559E+02  0.53836886424E+01  0.17172299069E+03  0.17120000000E+03 0.  0.
        998    1    1    2    0    0 -0.13333458293E+01 -0.13253687460E+01  0.14857338106E+04  0.14857686531E+04  0.10000000000E+02 0. -1.
</event>
<event>
 5    1  0.1666761E-008  0.3826545E+03  0.7957747E-01  0.3439681E+00
         13   -1    0    0    0    0  0.00000000000E+00  0.00000000000E+00  0.14999999963E+04  0.15000000000E+04  0.10566000000E+00 0.  1.
        994   -1    0    0    0    0 -0.00000000000E+00 -0.00000000000E+00  0.11368683772E-12  0.17120000000E+03  0.17120000000E+03 0.  0.
         13    1    1    2    0    0  0.12009897634E+02 -0.10253231121E+02  0.46729285800E+02  0.49325487377E+02  0.10566000000E+00 0.  1.
        994    1    1    2    0    0  0.87749474591E+00 -0.73671402441E+01  0.29815823338E+01  0.17138662312E+03  0.17120000000E+03 0.  0.
        998    1    1    2    0    0 -0.12887392380E+02  0.17620371365E+02  0.14502891281E+04  0.14504878895E+04  0.10000000000E+02 0.  1.
</event>
<event>
 5    1  0.1666761E-008  0.3844680E+03  0.7957747E-01  0.3431932E+00
         13   -1    0    0    0    0  0.00000000000E+00  0.00000000000E+00  0.14999999963E+04  0.15000000000E+04  0.10566000000E+00 0.  1.
        994   -1    0    0    0    0 -0.00000000000E+00 -0.00000000000E+00  0.11368683772E-12  0.17120000000E+03  0.17120000000E+03 0.  0.
         13    1    1    2    0    0 -0.19623945166E+02 -0.18347848743E+01  0.10131901315E+03  0.10321830869E+03  0.10566000000E+00 0.  1.
        994    1    1    2    0    0  0.14423293998E+02 -0.57579341535E+01  0.26894323510E+01  0.17192398978E+03  0.17120000000E+03 0.  0.
        998    1    1    2    0    0  0.52006511681E+01  0.75927190279E+01  0.13959915508E+04  0.13960577015E+04  0.10000000000E+02 0.  1.
</event>
<event>
 5    1  0.1666761E-008  0.3833128E+03  0.7957747E-01  0.3436859E+00
         13   -1    0    0    0    0  0.00000000000E+00  0.00000000000E+00  0.14999999963E+04  0.15000000000E+04  0.10566000000E+00 0. -1.
        994   -1    0    0    0    0 -0.00000000000E+00 -0.00000000000E+00  0.11368683772E-12  0.17120000000E+03  0.17120000000E+03 0.  0.
         13    1    1    2    0    0 -0.18279564136E+01  0.21343594088E+02  0.99808921568E+02  0.10208193974E+03  0.10566000000E+00 0. -1.
        994    1    1    2    0    0  0.47095721490E+00 -0.13127936763E+01  0.24765584185E+01  0.17122359233E+03  0.17120000000E+03 0.  0.
        998    1    1    2    0    0  0.13569991987E+01 -0.20030800412E+02  0.13977145163E+04  0.13978944679E+04  0.10000000000E+02 0. -1.
</event>
<event>
 5    1  0.1666761E-008  0.3810030E+03  0.7957747E-01  0.3446803E+00
         13   -1    0    0    0    0  0.00000000000E+00  0.00000000000E+00  0.14999999963E+04  0.15000000000E+04  0.10566000000E+00 0.  1.
        994   -1    0    0    0    0 -0.00000000000E+00 -0.00000000000E+00  0.11368683772E-12  0.17120000000E+03  0.17120000000E+03 0.  0.
         13    1    1    2    0    0 -0.10350087027E+02 -0.21203041452E+01  0.14729240859E+02  0.18126822432E+02  0.10566000000E+00 0.  1.
        994    1    1    2    0    0 -0.16445509371E+02 -0.44758936579E+01  0.45961470521E+01  0.17210767842E+03  0.17120000000E+03 0.  0.
        998    1    1    2    0    0  0.26795596399E+02  0.65961978031E+01  0.14806746084E+04  0.14809654992E+04  0.10000000000E+02 0.  1.
</event>
<event>
 5    1  0.1666761E-008  0.3690901E+03  0.7957747E-01  0.3500083E+00
         13   -1    0    0    0    0  0.00000000000E+00  0.00000000000E+00  0.14999999963E+04  0.15000000000E+04  0.10566000000E+00 0.  1.
        994   -1    0    0    0    0 -0.00000000000E+00 -0.00000000000E+00  0.11368683772E-12  0.17120000000E+03  0.17120000000E+03 0.  0.
         13    1    1    2    0    0  0.26440864109E+02  0.28928176003E+02  0.69976416468E+02  0.80203919402E+02  0.10566000000E+00 0.  1.
        994    1    1    2    0    0 -0.32942620040E+01 -0.29378182045E+02  0.13510084108E+02  0.17425811922E+03  0.17120000000E+03 0.  0.
        998    1    1    2    0    0 -0.23146602105E+02  0.45000604182E+00  0.14165134957E+04  0.14167379614E+04  0.10000000000E+02 0.  1.
</event>
<event>
 5    1  0.1666761E-008  0.3760736E+03  0.7957747E-01  0.3468435E+00
         13   -1    0    0    0    0  0.00000000000E+00  0.00000000000E+00  0.14999999963E+04  0.15000000000E+04  0.10566000000E+00 0. -1.
        994   -1    0    0    0    0 -0.00000000000E+00 -0.00000000000E+00  0.11368683772E-12  0.17120000000E+03  0.17120000000E+03 0.  0.
         13    1    1    2    0    0 -0.35181877061E+02 -0.27631564913E+02  0.15636704715E+03  0.16264050065E+03  0.10566000000E+00 0. -1.
        994    1    1    2    0    0  0.49498518830E+02 -0.94239735112E+01  0.14776469192E+02  0.17907176965E+03  0.17120000000E+03 0.  0.
        998    1    1    2    0    0 -0.14316641769E+02  0.37055538424E+02  0.13288564799E+04  0.13294877297E+04  0.10000000000E+02 0. -1.
</event>
<event>
 5    1  0.1666761E-008  0.3836658E+03  0.7957747E-01  0.3435350E+00
         13   -1    0    0    0    0  0.00000000000E+00  0.00000000000E+00  0.14999999963E+04  0.15000000000E+04  0.10566000000E+00 0.  1.
        994   -1    0    0    0    0 -0.00000000000E+00 -0.00000000000E+00  0.11368683772E-12  0.17120000000E+03  0.17120000000E+03 0.  0.
         13    1    1    2    0    0 -0.31455805266E+01 -0.15706236988E+02  0.53715180812E+02  0.56052764168E+02  0.10566000000E+00 0.  1.
        994    1    1    2    0    0  0.44647768630E+01  0.16077152314E+02  0.32140925794E+01  0.17204121439E+03  0.17120000000E+03 0.  0.
        998    1    1    2    0    0 -0.13191963364E+01 -0.37091532659E+00  0.14430707229E+04  0.14431060214E+04  0.10000000000E+02 0.  1.
</event>
<event>
 5    1  0.1666761E-008  0.3807363E+03  0.7957747E-01  0.3447959E+00
         13   -1    0    0    0    0  0.00000000000E+00  0.00000000000E+00  0.14999999963E+04  0.15000000000E+04  0.10566000000E+00 0.  1.
        994   -1    0    0    0    0 -0.00000000000E+00 -0.00000000000E+00  0.11368683772E-12  0.17120000000E+03  0.17120000000E+03 0.  0.
         13    1    1    2    0    0 -0.17884933884E+02  0.10188049461E+02  0.54061319474E+02  0.57847252650E+02  0.10566000000E+00 0.  1.
        994    1    1    2    0    0  0.15814803873E+02 -0.74005573242E+01  0.47792644738E+01  0.17215445867E+03  0.17120000000E+03 0.  0.
        998    1    1    2    0    0  0.20701300113E+01 -0.27874921372E+01  0.14411594123E+04  0.14411982887E+04  0.10000000000E+02 0.  1.
</event>
<event>
 5    1  0.1666761E-008  0.3792821E+03  0.7957747E-01  0.3454290E+00
         13   -1    0    0    0    0  0.00000000000E+00  0.00000000000E+00  0.14999999963E+04  0.15000000000E+04  0.10566000000E+00 0. -1.
        994   -1    0    0    0    0 -0.00000000000E+00 -0.00000000000E+00  0.11368683772E-12  0.17120000000E+03  0.17120000000E+03 0.  0.
         13    1    1    2    0    0 -0.74289885113E+01 -0.21080717464E+02  0.51842821684E+02  0.56455963753E+02  0.10566000000E+00 0. -1.
        994    1    1    2    0    0  0.90109814829E+01  0.23226686152E+02  0.65785462155E+01  0.17312825883E+03  0.17120000000E+03 0.  0.
        998    1    1    2    0    0 -0.15819929716E+01 -0.21459686881E+01  0.14415786284E+04  0.14416157774E+04  0.10000000000E+02 0. -1.
</event>
<event>
 5    1  0.1666761E-008  0.3809789E+03  0.7957747E-01  0.3446907E+00
         13   -1    0    0    0    0  0.00000000000E+00  0.00000000000E+00  0.14999999963E+04  0.15000000000E+04  0.10566000000E+00 0. -1.
        994   -1    0    0    0    0 -0.00000000000E+00 -0.00000000000E+00  0.11368683772E-12  0.17120000000E+03  0.17120000000E+03 0.  0.
         13    1    1    2    0    0 -0.11866543849E+02 -0.97994946602E+01  0.33727949221E+02  0.37073314948E+02  0.10566000000E+00 0. -1.
        994    1    1    2    0    0  0.36164059176E+02 -0.63944143056E+02  0.21836441548E+02  0.18757122057E+03  0.17120000000E+03 0.  0.
        998    1    1    2    0    0 -0.24297515327E+02  0.73743637716E+02  0.14444356055E+04  0.14465554645E+04  0.10000000000E+02 0. -1.
</event>
<event>
 5    1  0.1666761E-008  0.3859011E+03  0.7957747E-01  0.3425859E+00
         13   -1    0    0    0    0  0.00000000000E+00  0.00000000000E+00  0.14999999963E+04  0.15000000000E+04  0.10566000000E+00 0.  1.
        994   -1    0    0    0    0 -0.00000000000E+00 -0.00000000000E+00  0.11368683772E-12  0.17120000000E+03  0.17120000000E+03 0.  0.
         13    1    1    2    0    0 -0.77510329078E+01 -0.75550108264E+01  0.51189120133E+02  0.52321065392E+02  0.10566000000E+00 0.  1.
        994    1    1    2    0    0  0.16776600992E+01  0.36001830019E+01  0.12351464877E+01  0.17125052247E+03  0.17120000000E+03 0.  0.
        998    1    1    2    0    0  0.60733728086E+01  0.39548278245E+01  0.14475757297E+04  0.14476284121E+04  0.10000000000E+02 0.  1.
</event>
<event>
 5    1  0.1666761E-008  0.3839450E+03  0.7957747E-01  0.3434159E+00
         13   -1    0    0    0    0  0.00000000000E+00  0.00000000000E+00  0.14999999963E+04  0.15000000000E+04  0.10566000000E+00 0.  1.
        994   -1    0    0    0    0 -0.00000000000E+00 -0.00000000000E+00  0.11368683772E-12  0.17120000000E+03  0.17120000000E+03 0.  0.
         13    1    1    2    0    0  0.86904158292E+01 -0.95175325493E+01  0.37505079745E+02  0.39657898631E+02  0.10566000000E+00 0.  1.
        994    1    1    2    0    0 -0.81665874145E+01  0.83870360026E+01  0.26071539010E+01  0.17161955825E+03  0.17120000000E+03 0.  0.
        998    1    1    2    0    0 -0.52382841477E+00  0.11304965468E+01  0.14598877626E+04  0.14599225431E+04  0.10000000000E+02 0.  1.
</event>
<event>
 5    1  0.1666761E-008  0.3793535E+03  0.7957747E-01  0.3453978E+00
         13   -1    0    0    0    0  0.00000000000E+00  0.00000000000E+00  0.14999999963E+04  0.15000000000E+04  0.10566000000E+00 0. -1.
        994   -1    0    0    0    0 -0.00000000000E+00 -0.00000000000E+00  0.11368683772E-12  0.17120000000E+03  0.17120000000E+03 0.  0.
         13    1    1    2    0    0  0.99599438735E+01  0.11507047304E+02  0.23518103593E+02  0.28012943085E+02  0.10566000000E+00 0. -1.
        994    1    1    2    0    0 -0.69757518292E+01 -0.20060564922E+02  0.59724935642E+01  0.17261575264E+03  0.17120000000E+03 0.  0.
        998    1    1    2    0    0 -0.29841920442E+01  0.85535176172E+01  0.14705093991E+04  0.14705713043E+04  0.10000000000E+02 0. -1.
</event>
<event>
 5    1  0.1666761E-008  0.3775458E+03  0.7957747E-01  0.3461915E+00
         13   -1    0    0    0    0  0.00000000000E+00  0.00000000000E+00  0.14999999963E+04  0.15000000000E+04  0.10566000000E+00 0. -1.
        994   -1    0    0    0    0 -0.00000000000E+00 -0.00000000000E+00  0.11368683772E-12  0.17120000000E+03  0.17120000000E+03 0.  0.
         13    1    1    2    0    0 -0.96169001075E+01 -0.31478509737E+02  0.11560415215E+03  0.12019863769E+03  0.10566000000E+00 0. -1.
        994    1    1    2    0    0 -0.57415210346E+01 -0.99388243795E+01  0.58213259673E+01  0.17168306011E+03  0.17120000000E+03 0.  0.
        998    1    1    2    0    0  0.15358421142E+02  0.41417334117E+02  0.13785745182E+04  0.13793183022E+04  0.10000000000E+02 0. -1.
</event>
<event>
 5    1  0.1666761E-008  0.3800428E+03  0.7957747E-01  0.3450972E+00
         13   -1    0    0    0    0  0.00000000000E+00  0.00000000000E+00  0.14999999963E+04  0.15000000000E+04  0.10566000000E+00 0.  1.
        994   -1    0    0    0    0 -0.00000000000E+00 -0.00000000000E+00  0.11368683772E-12  0.17120000000E+03  0.17120000000E+03 0.  0.
         13    1    1    2    0    0  0.38030287858E+02 -0.13411612457E+02  0.17962473335E+03  0.18409570918E+03  0.10566000000E+00 0.  1.
        994    1    1    2    0    0 -0.32044111723E+02  0.18531936095E+02  0.87051396102E+01  0.17537239580E+03  0.17120000000E+03 0.  0.
        998    1    1    2    0    0 -0.59861761348E+01 -0.51203236384E+01  0.13116701233E+04  0.13117318950E+04  0.10000000000E+02 0.  1.
</event>
<event>
 5    1  0.1666761E-008  0.3747475E+03  0.7957747E-01  0.3474353E+00
         13   -1    0    0    0    0  0.00000000000E+00  0.00000000000E+00  0.14999999963E+04  0.15000000000E+04  0.10566000000E+00 0. -1.
        994   -1    0    0    0    0 -0.00000000000E+00 -0.00000000000E+00  0.11368683772E-12  0.17120000000E+03  0.17120000000E+03 0.  0.
         13    1    1    2    0    0  0.99266427931E+01 -0.14903073664E+02  0.19818849181E+02  0.26710256244E+02  0.10566000000E+00 0. -1.
        994    1    1    2    0    0 -0.98120957593E+01  0.28300084748E+02  0.98667877427E+01  0.17408034214E+03  0.17120000000E+03 0.  0.
        998    1    1    2    0    0 -0.11454703376E+00 -0.13397011084E+02  0.14703143594E+04  0.14704094016E+04  0.10000000000E+02 0. -1.
</event>
<event>
 5    1  0.1666761E-008  0.3853891E+03  0.7957747E-01  0.3428024E+00
         13   -1    0    0    0    0  0.00000000000E+00  0.00000000000E+00  0.14999999963E+04  0.15000000000E+04  0.10566000000E+00 0. -1.
        994   -1    0    0    0    0 -0.00000000000E+00 -0.00000000000E+00  0.11368683772E-12  0.17120000000E+03  0.17120000000E+03 0.  0.
         13    1    1    2    0    0 -0.10869757468E+02  0.74239061571E+00  0.44095720942E+02  0.45421872932E+02  0.10566000000E+00 0. -1.
        994    1    1    2    0    0 -0.39274538621E+01  0.46239730075E+00  0.14884306341E+01  0.17125213614E+03  0.17120000000E+03 0.  0.
        998    1    1    2    0    0  0.14797211330E+02 -0.12047879165E+01  0.14544158447E+04  0.14545259909E+04  0.10000000000E+02 0. -1.
</event>
<event>
 5    1  0.1666761E-008  0.3761043E+03  0.7957747E-01  0.3468299E+00
         13   -1    0    0    0    0  0.00000000000E+00  0.00000000000E+00  0.14999999963E+04  0.15000000000E+04  0.10566000000E+00 0.  1.
        994   -1    0    0    0    0 -0.00000000000E+00 -0.00000000000E+00  0.11368683772E-12  0.17120000000E+03  0.17120000000E+03 0.  0.
         13    1    1    2    0    0  0.39644210709E+02  0.30758885286E+02  0.17070710559E+03  0.17792891707E+03  0.10566000000E+00 0.  1.
        994    1    1    2    0    0 -0.50818305559E+02 -0.34000248759E+02  0.18880388997E+02  0.18276877792E+03  0.17120000000E+03 0.  0.
        998    1    1    2    0    0  0.11174094850E+02  0.32413634727E+01  0.13104125017E+04  0.13105023050E+04  0.10000000000E+02 0.  1.
</event>
<event>
 5    1  0.1666761E-008  0.2378871E+03  0.7957747E-01  0.4471703E+00
         13   -1    0    0    0    0  0.00000000000E+00  0.00000000000E+00  0.14999999963E+04  0.15000000000E+04  0.10566000000E+00 0.  1.
        994   -1    0    0    0    0 -0.00000000000E+00 -0.00000000000E+00  0.11368683772E-12  0.17120000000E+03  0.17120000000E+03 0.  0.
         13    1    1    2    0    0 -0.22087335692E+02  0.16070778511E+03  0.15379866386E+03  0.22353720666E+03  0.10566000000E+00 0.  1.
        994    1    1    2    0    0  0.23558311877E+02 -0.16780750732E+03  0.23543734699E+03  0.33683013216E+03  0.17120000000E+03 0.  0.
        998    1    1    2    0    0 -0.14709761846E+01  0.70997222137E+01  0.11107639854E+04  0.11108326612E+04  0.10000000000E+02 0.  1.
</event>
<event>
 5    1  0.1666761E-008  0.3846095E+03  0.7957747E-01  0.3431330E+00
         13   -1    0    0    0    0  0.00000000000E+00  0.00000000000E+00  0.14999999963E+04  0.15000000000E+04  0.10566000000E+00 0.  1.
        994   -1    0    0    0    0 -0.00000000000E+00 -0.00000000000E+00  0.11368683772E-12  0.17120000000E+03  0.17120000000E+03 0.  0.
         13    1    1    2    0    0 -0.22887266338E+02 -0.92919501995E+01  0.80573057146E+01  0.25982660340E+02  0.10566000000E+00 0.  1.
        994    1    1    2    0    0  0.16975596707E+02  0.71206397215E+01  0.20132646710E+02  0.17335985076E+03  0.17120000000E+03 0.  0.
        998    1    1    2    0    0  0.59116696314E+01  0.21713104780E+01  0.14718100439E+04  0.14718574889E+04  0.10000000000E+02 0.  1.
</event>
<event>
 5    1  0.1666761E-008  0.3821340E+03  0.7957747E-01  0.3441919E+00
         13   -1    0    0    0    0  0.00000000000E+00  0.00000000000E+00  0.14999999963E+04  0.15000000000E+04  0.10566000000E+00 0.  1.
        994   -1    0    0    0    0 -0.00000000000E+00 -0.00000000000E+00  0.11368683772E-12  0.17120000000E+03  0.17120000000E+03 0.  0.
         13    1    1    2    0    0 -0.30109251552E+02 -0.44097604110E+01  0.12834273837E+03  0.13190103363E+03  0.10566000000E+00 0.  1.
        994    1    1    2    0    0  0.44295060564E+02 -0.77275776566E+01  0.98003012980E+01  0.17727733570E+03  0.17120000000E+03 0.  0.
        998    1    1    2    0    0 -0.14185809011E+02  0.12137338068E+02  0.13618569566E+04  0.13620216307E+04  0.10000000000E+02 0.  1.
</event>
<event>
 5    1  0.1666761E-008  0.3807983E+03  0.7957747E-01  0.3447690E+00
         13   -1    0    0    0    0  0.00000000000E+00  0.00000000000E+00  0.14999999963E+04  0.15000000000E+04  0.10566000000E+00 0.  1.
        994   -1    0    0    0    0 -0.00000000000E+00 -0.00000000000E+00  0.11368683772E-12  0.17120000000E+03  0.17120000000E+03 0.  0.
         13    1    1    2    0    0 -0.77597629416E+01 -0.80109827949E+01  0.15227484376E+02  0.18875306903E+02  0.10566000000E+00 0.  1.
        994    1    1    2    0    0  0.68508990286E+01 -0.47965716012E+00  0.38880008673E+01  0.17138180020E+03  0.17120000000E+03 0.  0.
        998    1    1    2    0    0  0.90886391306E+00  0.84906399550E+01  0.14808845110E+04  0.14809428929E+04  0.10000000000E+02 0.  1.
</event>
<event>
 5    1  0.1666761E-008  0.3849584E+03  0.7957747E-01  0.3429849E+00
         13   -1    0    0    0    0  0.00000000000E+00  0.00000000000E+00  0.14999999963E+04  0.15000000000E+04  0.10566000000E+00 0.  1.
        994   -1    0    0    0    0 -0.00000000000E+00 -0.00000000000E+00  0.11368683772E-12  0.17120000000E+03  0.17120000000E+03 0.  0.
         13    1    1    2    0    0  0.13070328949E+02  0.60408465295E+00  0.51060186671E+02  0.52710077253E+02  0.10566000000E+00 0.  1.
        994    1    1    2    0    0 -0.11363513104E+02  0.18109187918E+01  0.20864232882E+01  0.17159895693E+03  0.17120000000E+03 0.  0.
        998    1    1    2    0    0 -0.17068158451E+01 -0.24150034448E+01  0.14468533863E+04  0.14468909658E+04  0.10000000000E+02 0.  1.
</event>
<event>
 5    1  0.1666761E-008  0.3850722E+03  0.7957747E-01  0.3429366E+00
         13   -1    0    0    0    0  0.00000000000E+00  0.00000000000E+00  0.14999999963E+04  0.15000000000E+04  0.10566000000E+00 0. -1.
        994   -1    0    0    0    0 -0.00000000000E+00 -0.00000000000E+00  0.11368683772E-12  0.17120000000E+03  0.17120000000E+03 0.  0.
         13    1    1    2    0    0 -0.14093883015E+02  0.10526794210E+02  0.92783998195E+02  0.94436922969E+02  0.10566000000E+00 0. -1.
        994    1    1    2    0    0  0.13322888364E+02 -0.11185764746E+02  0.25899246721E+01  0.17210104124E+03  0.17120000000E+03 0.  0.
        998    1    1    2    0    0  0.77099465094E+00  0.65897053662E+00  0.14046260734E+04  0.14046620358E+04  0.10000000000E+02 0. -1.
</event>
<event>
 5    1  0.1666761E-008  0.3835980E+03  0.7957747E-01  0.3435640E+00
         13   -1    0    0    0    0  0.00000000000E+00  0.00000000000E+00  0.14999999963E+04  0.15000000000E+04  0.10566000000E+00 0. -1.
        994   -1    0    0    0    0 -0.00000000000E+00 -0.00000000000E+00  0.11368683772E-12  0.17120000000E+03  0.17120000000E+03 0.  0.
         13    1    1    2    0    0 -0.80846061904E+01 -0.79657326713E+01  0.26454466727E+02  0.28786519903E+02  0.10566000000E+00 0. -1.
        994    1    1    2    0    0  0.30072622160E+01  0.15076755156E+02  0.31090216737E+01  0.17191700959E+03  0.17120000000E+03 0.  0.
        998    1    1    2    0    0  0.50773439743E+01 -0.71110224844E+01  0.14704365079E+04  0.14704964705E+04  0.10000000000E+02 0. -1.
</event>
<event>
 5    1  0.1666761E-008  0.3837857E+03  0.7957747E-01  0.3434838E+00
         13   -1    0    0    0    0  0.00000000000E+00  0.00000000000E+00  0.14999999963E+04  0.15000000000E+04  0.10566000000E+00 0. -1.
        994   -1    0    0    0    0 -0.00000000000E+00 -0.00000000000E+00  0.11368683772E-12  0.17120000000E+03  0.17120000000E+03 0.  0.
         13    1    1    2    0    0 -0.16126244709E+03  0.15959095983E+03  0.12107006635E+04  0.12317755311E+04  0.10566000000E+00 0. -1.
        994    1    1    2    0    0  0.17141566099E+03 -0.15185606367E+03  0.20064953606E+03  0.34930397826E+03  0.17120000000E+03 0.  0.
        998    1    1    2    0    0 -0.10153213901E+02 -0.77348961532E+01  0.88649796725E+02  0.90120490625E+02  0.10000000000E+02 0.  1.
</event>
<event>
 5    1  0.1666761E-008  0.2407937E+03  0.7957747E-01  0.4437045E+00
         13   -1    0    0    0    0  0.00000000000E+00  0.00000000000E+00  0.14999999963E+04  0.15000000000E+04  0.10566000000E+00 0.  1.
        994   -1    0    0    0    0 -0.00000000000E+00 -0.00000000000E+00  0.11368683772E-12  0.17120000000E+03  0.17120000000E+03 0.  0.
         13    1    1    2    0    0  0.10539484252E+03  0.12702009464E+03  0.20999613857E+03  0.26709654930E+03  0.10566000000E+00 0.  1.
        994    1    1    2    0    0 -0.10648477327E+03 -0.13050879025E+03  0.19585689368E+03  0.30990468546E+03  0.17120000000E+03 0.  0.
        998    1    1    2    0    0  0.10899307489E+01  0.34886956014E+01  0.10941469640E+04  0.10941987652E+04  0.10000000000E+02 0.  0.
</event>
<event>
 5    1  0.1666761E-008  0.3802593E+03  0.7957747E-01  0.3450030E+00
         13   -1    0    0    0    0  0.00000000000E+00  0.00000000000E+00  0.14999999963E+04  0.15000000000E+04  0.10566000000E+00 0.  1.
        994   -1    0    0    0    0 -0.00000000000E+00 -0.00000000000E+00  0.11368683772E-12  0.17120000000E+03  0.17120000000E+03 0.  0.
         13    1    1    2    0    0 -0.40092686971E+02 -0.11173590967E+02  0.22887706549E+03  0.23263059763E+03  0.10566000000E+00 0.  1.
        994    1    1    2    0    0  0.18242071193E+02 -0.42679220941E+01  0.51755123098E+01  0.17229978017E+03  0.17120000000E+03 0.  0.
        998    1    1    2    0    0  0.21850615778E+02  0.15441513061E+02  0.12659474185E+04  0.12662696222E+04  0.10000000000E+02 0.  1.
</event>
<event>
 5    1  0.1666761E-008  0.3418056E+03  0.7957747E-01  0.3636430E+00
         13   -1    0    0    0    0  0.00000000000E+00  0.00000000000E+00  0.14999999963E+04  0.15000000000E+04  0.10566000000E+00 0.  1.
        994   -1    0    0    0    0 -0.00000000000E+00 -0.00000000000E+00  0.11368683772E-12  0.17120000000E+03  0.17120000000E+03 0.  0.
         13    1    1    2    0    0 -0.27474214053E+03  0.40530907488E+02  0.65611934538E+03  0.71247358182E+03  0.10566000000E+00 0.  1.
        994    1    1    2    0    0  0.28869760348E+03 -0.63295960176E+02  0.45567500575E+03  0.56947505274E+03  0.17120000000E+03 0.  0.
        998    1    1    2    0    0 -0.13955462948E+02  0.22765052688E+02  0.38820564515E+03  0.38925136544E+03  0.10000000000E+02 0.  1.
</event>
<event>
 5    1  0.1666761E-008  0.2914509E+03  0.7957747E-01  0.3959008E+00
         13   -1    0    0    0    0  0.00000000000E+00  0.00000000000E+00  0.14999999963E+04  0.15000000000E+04  0.10566000000E+00 0.  1.
        994   -1    0    0    0    0 -0.00000000000E+00 -0.00000000000E+00  0.11368683772E-12  0.17120000000E+03  0.17120000000E+03 0.  0.
         13    1    1    2    0    0 -0.13746532899E+03 -0.62312158203E+02  0.67754038080E+03  0.69414731903E+03  0.10566000000E+00 0.  1.
        994    1    1    2    0    0  0.96164531071E+02  0.58962947276E+02  0.60304013592E+02  0.21370601359E+03  0.17120000000E+03 0.  0.
        998    1    1    2    0    0  0.41300797919E+02  0.33492109271E+01  0.76215560189E+03  0.76334666738E+03  0.10000000000E+02 0. -1.
</event>
<event>
 5    1  0.1666761E-008  0.3834194E+03  0.7957747E-01  0.3436403E+00
         13   -1    0    0    0    0  0.00000000000E+00  0.00000000000E+00  0.14999999963E+04  0.15000000000E+04  0.10566000000E+00 0. -1.
        994   -1    0    0    0    0 -0.00000000000E+00 -0.00000000000E+00  0.11368683772E-12  0.17120000000E+03  0.17120000000E+03 0.  0.
         13    1    1    2    0    0 -0.70420414235E+01 -0.78398190583E+01  0.21810367965E+02  0.24223055652E+02  0.10566000000E+00 0. -1.
        994    1    1    2    0    0  0.85553006144E+01  0.81960791363E+01  0.28810423485E+01  0.17163364847E+03  0.17120000000E+03 0.  0.
        998    1    1    2    0    0 -0.15132591908E+01 -0.35626007806E+00  0.14753085860E+04  0.14753432959E+04  0.10000000000E+02 0. -1.
</event>
<event>
 5    1  0.1666761E-008  0.3758457E+03  0.7957747E-01  0.3469449E+00
         13   -1    0    0    0    0  0.00000000000E+00  0.00000000000E+00  0.14999999963E+04  0.15000000000E+04  0.10566000000E+00 0. -1.
        994   -1    0    0    0    0 -0.00000000000E+00 -0.00000000000E+00  0.11368683772E-12  0.17120000000E+03  0.17120000000E+03 0.  0.
         13    1    1    2    0    0  0.18292219393E+02  0.17880330556E+02  0.54148868603E+02  0.59886748502E+02  0.10566000000E+00 0. -1.
        994    1    1    2    0    0  0.99495830009E+01  0.39453769498E+00  0.65812237055E+01  0.17161556563E+03  0.17120000000E+03 0.  0.
        998    1    1    2    0    0 -0.28241802394E+02 -0.18274868251E+02  0.14392699040E+04  0.14396976859E+04  0.10000000000E+02 0. -1.
</event>
<event>
 5    1  0.1666761E-008  0.4109716E+03  0.7957747E-01  0.3326477E+00
         13   -1    0    0    0    0  0.00000000000E+00  0.00000000000E+00  0.14999999963E+04  0.15000000000E+04  0.10566000000E+00 0. -1.
        994   -1    0    0    0    0 -0.00000000000E+00 -0.00000000000E+00  0.11368683772E-12  0.17120000000E+03  0.17120000000E+03 0.  0.
         13    1    1    2    0    0  0.18122360384E+02  0.97784610879E+02  0.12423469248E+03  0.15913679666E+03  0.10566000000E+00 0. -1.
        994    1    1    2    0    0  0.13613169419E+02 -0.98200159525E+02  0.76089411843E+02  0.21196138400E+03  0.17120000000E+03 0.  0.
        998    1    1    2    0    0 -0.31735529803E+02  0.41554864542E+00  0.12996758920E+04  0.13001018193E+04  0.10000000000E+02 0. -1.
</event>
<event>
 5    1  0.2600413E-008  0.3857941E+03  0.7957747E-01  0.3426311E+00
         13   -1    0    0    0    0  0.00000000000E+00  0.00000000000E+00  0.14999999963E+04  0.15000000000E+04  0.10566000000E+00 0.  1.
        994   -1    0    0    0    0 -0.00000000000E+00 -0.00000000000E+00  0.11368683772E-12  0.17120000000E+03  0.17120000000E+03 0.  0.
         13    1    1    2    0    0  0.11822590386E+02  0.57367264951E+01  0.71981624158E+02  0.73171367725E+02  0.10566000000E+00 0.  1.
        994    1    1    2    0    0 -0.56525267204E+01 -0.17475681221E+01  0.13512379362E+01  0.17130753310E+03  0.17120000000E+03 0.  0.
        998    1    1    2    0    0 -0.61700636655E+01 -0.39891583730E+01  0.14266671342E+04  0.14267210992E+04  0.10000000000E+02 0.  1.
</event>
<event>
 5    1  0.1666761E-008  0.3793959E+03  0.7957747E-01  0.3453793E+00
         13   -1    0    0    0    0  0.00000000000E+00  0.00000000000E+00  0.14999999963E+04  0.15000000000E+04  0.10566000000E+00 0.  1.
        994   -1    0    0    0    0 -0.00000000000E+00 -0.00000000000E+00  0.11368683772E-12  0.17120000000E+03  0.17120000000E+03 0.  0.
         13    1    1    2    0    0  0.26169693676E+01  0.10499380028E+02  0.11137193389E+02  0.15528481905E+02  0.10566000000E+00 0.  1.
        994    1    1    2    0    0 -0.32392694269E+01 -0.10889039657E+02  0.48708079492E+01  0.17164564900E+03  0.17120000000E+03 0.  0.
        998    1    1    2    0    0  0.62230005930E+00  0.38965962925E+00  0.14839919949E+04  0.14840258691E+04  0.10000000000E+02 0.  1.
</event>
<event>
 5    1  0.1666761E-008  0.3859409E+03  0.7957747E-01  0.3425692E+00
         13   -1    0    0    0    0  0.00000000000E+00  0.00000000000E+00  0.14999999963E+04  0.15000000000E+04  0.10566000000E+00 0. -1.
        994   -1    0    0    0    0 -0.00000000000E+00 -0.00000000000E+00  0.11368683772E-12  0.17120000000E+03  0.17120000000E+03 0.  0.
         13    1    1    2    0    0  0.81947137181E+00  0.11120913606E+02  0.56445343339E+02  0.57536372856E+02  0.10566000000E+00 0. -1.
        994    1    1    2    0    0 -0.23382800337E+02 -0.22333552093E+00  0.29585534976E+01  0.17281492490E+03  0.17120000000E+03 0.  0.
        998    1    1    2    0    0  0.22563328965E+02 -0.10897578085E+02  0.14405960994E+04  0.14408487022E+04  0.10000000000E+02 0. -1.
</event>
<event>
 5    1  0.1666761E-008  0.3806824E+03  0.7957747E-01  0.3448192E+00
         13   -1    0    0    0    0  0.00000000000E+00  0.00000000000E+00  0.14999999963E+04  0.15000000000E+04  0.10566000000E+00 0. -1.
        994   -1    0    0    0    0 -0.00000000000E+00 -0.00000000000E+00  0.11368683772E-12  0.17120000000E+03  0.17120000000E+03 0.  0.
         13    1    1    2    0    0  0.28227239212E+02  0.10528868096E+02  0.12916441462E+03  0.13263141130E+03  0.10566000000E+00 0. -1.
        994    1    1    2    0    0 -0.63977263668E+01  0.54504355988E+01  0.40246912139E+01  0.17145342309E+03  0.17120000000E+03 0.  0.
        998    1    1    2    0    0 -0.21829512845E+02 -0.15979303695E+02  0.13668108904E+04  0.13671151656E+04  0.10000000000E+02 0. -1.
</event>
<event>
 5    1  0.1666761E-008  0.3783790E+03  0.7957747E-01  0.3458247E+00
         13   -1    0    0    0    0  0.00000000000E+00  0.00000000000E+00  0.14999999963E+04  0.15000000000E+04  0.10566000000E+00 0. -1.
        994   -1    0    0    0    0 -0.00000000000E+00 -0.00000000000E+00  0.11368683772E-12  0.17120000000E+03  0.17120000000E+03 0.  0.
         13    1    1    2    0    0  0.12235412298E+01  0.19678018897E+02  0.36083691521E+02  0.41118918257E+02  0.10566000000E+00 0. -1.
        994    1    1    2    0    0  0.40695626351E+01 -0.23944991777E+02  0.69388981787E+01  0.17305349543E+03  0.17120000000E+03 0.  0.
        998    1    1    2    0    0 -0.52931038649E+01  0.42669728800E+01  0.14569774066E+04  0.14570275863E+04  0.10000000000E+02 0. -1.
</event>
<event>
 5    1  0.1666761E-008  0.4553412E+03  0.7957747E-01  0.3177023E+00
         13   -1    0    0    0    0  0.00000000000E+00  0.00000000000E+00  0.14999999963E+04  0.15000000000E+04  0.10566000000E+00 0. -1.
        994   -1    0    0    0    0 -0.00000000000E+00 -0.00000000000E+00  0.11368683772E-12  0.17120000000E+03  0.17120000000E+03 0.  0.
         13    1    1    2    0    0 -0.84049881704E+02  0.11927369858E+03  0.38020860218E+03  0.40724585955E+03  0.10566000000E+00 0. -1.
        994    1    1    2    0    0 -0.72268610348E+02  0.90516122894E+02  0.13966772284E+03  0.24946429273E+03  0.17120000000E+03 0.  0.
        998    1    1    2    0    0  0.15631849205E+03 -0.20978982147E+03  0.98012367126E+03  0.10144898477E+04  0.10000000000E+02 0. -1.
</event>
<event>
 5    1  0.1666761E-008  0.3845966E+03  0.7957747E-01  0.3431385E+00
         13   -1    0    0    0    0  0.00000000000E+00  0.00000000000E+00  0.14999999963E+04  0.15000000000E+04  0.10566000000E+00 0.  1.
        994   -1    0    0    0    0 -0.00000000000E+00 -0.00000000000E+00  0.11368683772E-12  0.17120000000E+03  0.17120000000E+03 0.  0.
         13    1    1    2    0    0 -0.14841916679E+02 -0.67200573199E+01  0.78440041333E+02  0.80114249103E+02  0.10566000000E+00 0.  1.
        994    1    1    2    0    0 -0.22277541286E+01  0.11669543112E+01  0.18513721572E+01  0.17122847967E+03  0.17120000000E+03 0.  0.
        998    1    1    2    0    0  0.17069670808E+02  0.55531030087E+01  0.14197085828E+04  0.14198572712E+04  0.10000000000E+02 0.  1.
</event>
<event>
 5    1  0.1666761E-008  0.3789805E+03  0.7957747E-01  0.3455610E+00
         13   -1    0    0    0    0  0.00000000000E+00  0.00000000000E+00  0.14999999963E+04  0.15000000000E+04  0.10566000000E+00 0.  1.
        994   -1    0    0    0    0 -0.00000000000E+00 -0.00000000000E+00  0.11368683772E-12  0.17120000000E+03  0.17120000000E+03 0.  0.
         13    1    1    2    0    0 -0.99007965898E+00 -0.14970411175E+02  0.21027574293E+02  0.25831444272E+02  0.10566000000E+00 0.  1.
        994    1    1    2    0    0 -0.52014605834E+01  0.32184044235E+02  0.82219887048E+01  0.17447036709E+03  0.17120000000E+03 0.  0.
        998    1    1    2    0    0  0.61915402424E+01 -0.17213633060E+02  0.14707504333E+04  0.14708981886E+04  0.10000000000E+02 0.  1.
</event>
<event>
 5    1  0.1666761E-008  0.3834541E+03  0.7957747E-01  0.3436255E+00
         13   -1    0    0    0    0  0.00000000000E+00  0.00000000000E+00  0.14999999963E+04  0.15000000000E+04  0.10566000000E+00 0.  1.
        994   -1    0    0    0    0 -0.00000000000E+00 -0.00000000000E+00  0.11368683772E-12  0.17120000000E+03  0.17120000000E+03 0.  0.
         13    1    1    2    0    0 -0.13608771094E+02 -0.15664866423E+02  0.95709334416E+02  0.97933010518E+02  0.10566000000E+00 0.  1.
        994    1    1    2    0    0  0.16205402293E+01  0.12948717843E+01  0.24138196654E+01  0.17122958088E+03  0.17120000000E+03 0.  0.
        998    1    1    2    0    0  0.11988230865E+02  0.14369994639E+02  0.14018768422E+04  0.14020374086E+04  0.10000000000E+02 0.  1.
</event>
<event>
 5    1  0.1666761E-008  0.3707570E+03  0.7957747E-01  0.3492419E+00
         13   -1    0    0    0    0  0.00000000000E+00  0.00000000000E+00  0.14999999963E+04  0.15000000000E+04  0.10566000000E+00 0. -1.
        994   -1    0    0    0    0 -0.00000000000E+00 -0.00000000000E+00  0.11368683772E-12  0.17120000000E+03  0.17120000000E+03 0.  0.
         13    1    1    2    0    0 -0.15136310312E+02 -0.19078584937E+01  0.89853978222E+01  0.17705828192E+02  0.10566000000E+00 0. -1.
        994    1    1    2    0    0  0.17722828893E+02  0.19218439351E+01  0.99706126323E+01  0.17241416782E+03  0.17120000000E+03 0.  0.
        998    1    1    2    0    0 -0.25865185808E+01 -0.13985441446E-01  0.14810439858E+04  0.14810800040E+04  0.10000000000E+02 0. -1.
</event>
<event>
 5    1  0.1666761E-008  0.3754901E+03  0.7957747E-01  0.3471034E+00
         13   -1    0    0    0    0  0.00000000000E+00  0.00000000000E+00  0.14999999963E+04  0.15000000000E+04  0.10566000000E+00 0. -1.
        994   -1    0    0    0    0 -0.00000000000E+00 -0.00000000000E+00  0.11368683772E-12  0.17120000000E+03  0.17120000000E+03 0.  0.
         13    1    1    2    0    0  0.71052375504E+02 -0.72898925726E+02  0.55874011109E+03  0.56793768703E+03  0.10566000000E+00 0. -1.
        994    1    1    2    0    0 -0.67520481133E+02  0.62711598124E+02  0.35813173150E+02  0.19769618935E+03  0.17120000000E+03 0.  0.
        998    1    1    2    0    0 -0.35318943715E+01  0.10187327602E+02  0.90544671204E+03  0.90556612362E+03  0.10000000000E+02 0. -1.
</event>
<event>
 5    1  0.1666761E-008  0.3798635E+03  0.7957747E-01  0.3451753E+00
         13   -1    0    0    0    0  0.00000000000E+00  0.00000000000E+00  0.14999999963E+04  0.15000000000E+04  0.10566000000E+00 0.  1.
        994   -1    0    0    0    0 -0.00000000000E+00 -0.00000000000E+00  0.11368683772E-12  0.17120000000E+03  0.17120000000E+03 0.  0.
         13    1    1    2    0    0  0.24236325092E+02 -0.15469735032E+02  0.93297482028E+02  0.97627575370E+02  0.10566000000E+00 0.  1.
        994    1    1    2    0    0 -0.25361622084E+02  0.73562231177E+01  0.65376955127E+01  0.17334793727E+03  0.17120000000E+03 0.  0.
        998    1    1    2    0    0  0.11252969920E+01  0.81135119142E+01  0.14001648187E+04  0.14002244874E+04  0.10000000000E+02 0.  1.
</event>
<event>
 5    1  0.1666761E-008  0.3842197E+03  0.7957747E-01  0.3432988E+00
         13   -1    0    0    0    0  0.00000000000E+00  0.00000000000E+00  0.14999999963E+04  0.15000000000E+04  0.10566000000E+00 0.  1.
        994   -1    0    0    0    0 -0.00000000000E+00 -0.00000000000E+00  0.11368683772E-12  0.17120000000E+03  0.17120000000E+03 0.  0.
         13    1    1    2    0    0 -0.13013891947E+02 -0.14332739430E+01  0.42346402729E+02  0.44324312131E+02  0.10566000000E+00 0.  1.
        994    1    1    2    0    0  0.69022379424E+01  0.37084605942E+01  0.22204631326E+01  0.17139359389E+03  0.17120000000E+03 0.  0.
        998    1    1    2    0    0  0.61116540043E+01 -0.22751866512E+01  0.14554331304E+04  0.14554820940E+04  0.10000000000E+02 0.  1.
</event>
<event>
 5    1  0.1666761E-008  0.3800050E+03  0.7957747E-01  0.3451137E+00
         13   -1    0    0    0    0  0.00000000000E+00  0.00000000000E+00  0.14999999963E+04  0.15000000000E+04  0.10566000000E+00 0. -1.
        994   -1    0    0    0    0 -0.00000000000E+00 -0.00000000000E+00  0.11368683772E-12  0.17120000000E+03  0.17120000000E+03 0.  0.
         13    1    1    2    0    0 -0.93468357056E+01 -0.71136058349E+02  0.13747530696E+03  0.15507151035E+03  0.10566000000E+00 0. -1.
        994    1    1    2    0    0  0.12799214010E+02  0.73346117058E+02  0.36703352655E+02  0.19026310431E+03  0.17120000000E+03 0.  0.
        998    1    1    2    0    0 -0.34523783049E+01 -0.22100587093E+01  0.13258213367E+04  0.13258653853E+04  0.10000000000E+02 0. -1.
</event>
<event>
 5    1  0.1666761E-008  0.3697815E+03  0.7957747E-01  0.3496896E+00
         13   -1    0    0    0    0  0.00000000000E+00  0.00000000000E+00  0.14999999963E+04  0.15000000000E+04  0.10566000000E+00 0. -1.
        994   -1    0    0    0    0 -0.00000000000E+00 -0.00000000000E+00  0.11368683772E-12  0.17120000000E+03  0.17120000000E+03 0.  0.
         13    1    1    2    0    0  0.10088537255E+03  0.18725288481E+03  0.12113773285E+04  0.12299091611E+04  0.10566000000E+00 0. -1.
        994    1    1    2    0    0 -0.98910034629E+02 -0.16459246778E+03  0.14454724019E+03  0.29508849528E+03  0.17120000000E+03 0.  0.
        998    1    1    2    0    0 -0.19753379173E+01 -0.22660417034E+02  0.14407542756E+03  0.14620234364E+03  0.10000000000E+02 0. -1.
</event>
<event>
 5    1  0.1666761E-008  0.3012093E+03  0.7957747E-01  0.3887424E+00
         13   -1    0    0    0    0  0.00000000000E+00  0.00000000000E+00  0.14999999963E+04  0.15000000000E+04  0.10566000000E+00 0.  1.
        994   -1    0    0    0    0 -0.00000000000E+00 -0.00000000000E+00  0.11368683772E-12  0.17120000000E+03  0.17120000000E+03 0.  0.
         13    1    1    2    0    0  0.13422432359E+03  0.12892906698E+03  0.67116917682E+03  0.69649619413E+03  0.10566000000E+00 0.  1.
        994    1    1    2    0    0 -0.10904250877E+03 -0.13141416450E+03  0.12846813020E+03  0.27381280435E+03  0.17120000000E+03 0.  0.
        998    1    1    2    0    0 -0.25181814816E+02  0.24850975166E+01  0.70036268926E+03  0.70089100152E+03  0.10000000000E+02 0. -1.
</event>
<event>
 5    1  0.1666761E-008  0.3751706E+03  0.7957747E-01  0.3472460E+00
         13   -1    0    0    0    0  0.00000000000E+00  0.00000000000E+00  0.14999999963E+04  0.15000000000E+04  0.10566000000E+00 0.  1.
        994   -1    0    0    0    0 -0.00000000000E+00 -0.00000000000E+00  0.11368683772E-12  0.17120000000E+03  0.17120000000E+03 0.  0.
         13    1    1    2    0    0  0.81982841163E+01 -0.11548010651E+02  0.12264763722E+02  0.18735100898E+02  0.10566000000E+00 0.  1.
        994    1    1    2    0    0  0.30586817839E+01  0.15615269103E+02  0.74517754335E+01  0.17209927693E+03  0.17120000000E+03 0.  0.
        998    1    1    2    0    0 -0.11256965900E+02 -0.40672584526E+01  0.14802834571E+04  0.14803656222E+04  0.10000000000E+02 0.  1.
</event>
<event>
 5    1  0.1666761E-008  0.3754726E+03  0.7957747E-01  0.3471112E+00
         13   -1    0    0    0    0  0.00000000000E+00  0.00000000000E+00  0.14999999963E+04  0.15000000000E+04  0.10566000000E+00 0. -1.
        994   -1    0    0    0    0 -0.00000000000E+00 -0.00000000000E+00  0.11368683772E-12  0.17120000000E+03  0.17120000000E+03 0.  0.
         13    1    1    2    0    0  0.20187296448E+02 -0.39790639692E+02  0.16928067386E+03  0.17506221651E+03  0.10566000000E+00 0. -1.
        994    1    1    2    0    0 -0.61792222496E+00  0.82630749817E+01  0.66692724691E+01  0.17153011232E+03  0.17120000000E+03 0.  0.
        998    1    1    2    0    0 -0.19569374223E+02  0.31527564711E+02  0.13240500500E+04  0.13246076712E+04  0.10000000000E+02 0. -1.
</event>
<event>
 5    1  0.1666761E-008  0.3737188E+03  0.7957747E-01  0.3478972E+00
         13   -1    0    0    0    0  0.00000000000E+00  0.00000000000E+00  0.14999999963E+04  0.15000000000E+04  0.10566000000E+00 0.  1.
        994   -1    0    0    0    0 -0.00000000000E+00 -0.00000000000E+00  0.11368683772E-12  0.17120000000E+03  0.17120000000E+03 0.  0.
         13    1    1    2    0    0 -0.12330463290E+02  0.86254033903E+02  0.28994010024E+03  0.30274918924E+03  0.10566000000E+00 0.  1.
        994    1    1    2    0    0  0.11919377700E+02 -0.50110466648E+02  0.22376791267E+02  0.18017572317E+03  0.17120000000E+03 0.  0.
        998    1    1    2    0    0  0.41108558956E+00 -0.36143567255E+02  0.11876831048E+04  0.11882750876E+04  0.10000000000E+02 0.  1.
</event>
<event>
 5    1  0.1666761E-008  0.3854426E+03  0.7957747E-01  0.3427797E+00
         13   -1    0    0    0    0  0.00000000000E+00  0.00000000000E+00  0.14999999963E+04  0.15000000000E+04  0.10566000000E+00 0.  1.
        994   -1    0    0    0    0 -0.00000000000E+00 -0.00000000000E+00  0.11368683772E-12  0.17120000000E+03  0.17120000000E+03 0.  0.
         13    1    1    2    0    0 -0.54072716616E+01  0.15390428892E+02  0.91934806690E+02  0.93370893395E+02  0.10566000000E+00 0.  1.
        994    1    1    2    0    0  0.83615060042E+01 -0.12198708953E+02  0.21291701655E+01  0.17185079764E+03  0.17120000000E+03 0.  0.
        998    1    1    2    0    0 -0.29542343426E+01 -0.31917199385E+01  0.14059360194E+04  0.14059783090E+04  0.10000000000E+02 0.  1.
</event>
<event>
 5    1  0.1666761E-008  0.3692078E+03  0.7957747E-01  0.3499540E+00
         13   -1    0    0    0    0  0.00000000000E+00  0.00000000000E+00  0.14999999963E+04  0.15000000000E+04  0.10566000000E+00 0. -1.
        994   -1    0    0    0    0 -0.00000000000E+00 -0.00000000000E+00  0.11368683772E-12  0.17120000000E+03  0.17120000000E+03 0.  0.
         13    1    1    2    0    0 -0.11200568904E+02  0.40028502232E+02  0.81993062641E+02  0.91927184337E+02  0.10566000000E+00 0. -1.
        994    1    1    2    0    0  0.94437085435E+01 -0.10913210556E+02  0.11246970287E+02  0.17217495792E+03  0.17120000000E+03 0.  0.
        998    1    1    2    0    0  0.17568603607E+01 -0.29115291676E+02  0.14067599634E+04  0.14070978577E+04  0.10000000000E+02 0. -1.
</event>
<event>
 5    1  0.1666761E-008  0.3757404E+03  0.7957747E-01  0.3469918E+00
         13   -1    0    0    0    0  0.00000000000E+00  0.00000000000E+00  0.14999999963E+04  0.15000000000E+04  0.10566000000E+00 0. -1.
        994   -1    0    0    0    0 -0.00000000000E+00 -0.00000000000E+00  0.11368683772E-12  0.17120000000E+03  0.17120000000E+03 0.  0.
         13    1    1    2    0    0 -0.74322961714E+01 -0.74172737355E+01  0.57880939254E+01  0.11990336583E+02  0.10566000000E+00 0. -1.
        994    1    1    2    0    0  0.75651504069E+01  0.10060177551E+02  0.68363894755E+01  0.17179818071E+03  0.17120000000E+03 0.  0.
        998    1    1    2    0    0 -0.13285423552E+00 -0.26429038157E+01  0.14873755129E+04  0.14874114827E+04  0.10000000000E+02 0. -1.
</event>
<event>
 5    1  0.1666761E-008  0.3895502E+03  0.7957747E-01  0.3410601E+00
         13   -1    0    0    0    0  0.00000000000E+00  0.00000000000E+00  0.14999999963E+04  0.15000000000E+04  0.10566000000E+00 0. -1.
        994   -1    0    0    0    0 -0.00000000000E+00 -0.00000000000E+00  0.11368683772E-12  0.17120000000E+03  0.17120000000E+03 0.  0.
         13    1    1    2    0    0  0.41572011858E+01  0.23912824566E+02  0.45704724319E+01  0.24698297162E+02  0.10566000000E+00 0. -1.
        994    1    1    2    0    0  0.16999947682E+02 -0.53051737667E+01  0.22867417128E+02  0.17363611910E+03  0.17120000000E+03 0.  0.
        998    1    1    2    0    0 -0.21157148868E+02 -0.18607650799E+02  0.14725621067E+04  0.14728655837E+04  0.10000000000E+02 0. -1.
</event>
<event>
 5    1  0.1666761E-008  0.3848729E+03  0.7957747E-01  0.3430211E+00
         13   -1    0    0    0    0  0.00000000000E+00  0.00000000000E+00  0.14999999963E+04  0.15000000000E+04  0.10566000000E+00 0.  1.
        994   -1    0    0    0    0 -0.00000000000E+00 -0.00000000000E+00  0.11368683772E-12  0.17120000000E+03  0.17120000000E+03 0.  0.
         13    1    1    2    0    0 -0.21885465996E+02  0.98915747904E+00  0.12244947620E+03  0.12439388023E+03  0.10566000000E+00 0.  1.
        994    1    1    2    0    0  0.31083238979E+02 -0.12094487019E+01  0.48832419333E+01  0.17407158459E+03  0.17120000000E+03 0.  0.
        998    1    1    2    0    0 -0.91977729833E+01  0.22029122286E+00  0.13726672781E+04  0.13727345352E+04  0.10000000000E+02 0.  1.
</event>
<event>
 5    1  0.1666761E-008  0.3830916E+03  0.7957747E-01  0.3437807E+00
         13   -1    0    0    0    0  0.00000000000E+00  0.00000000000E+00  0.14999999963E+04  0.15000000000E+04  0.10566000000E+00 0. -1.
        994   -1    0    0    0    0 -0.00000000000E+00 -0.00000000000E+00  0.11368683772E-12  0.17120000000E+03  0.17120000000E+03 0.  0.
         13    1    1    2    0    0 -0.43555285873E+01  0.96777342506E+01  0.22293753451E+02  0.24691127484E+02  0.10566000000E+00 0. -1.
        994    1    1    2    0    0 -0.15573286131E+02  0.69602816659E+01  0.35440662874E+01  0.17208420371E+03  0.17120000000E+03 0.  0.
        998    1    1    2    0    0  0.19928814718E+02 -0.16638015917E+02  0.14741621765E+04  0.14744246688E+04  0.10000000000E+02 0. -1.
</event>
<event>
 5    1  0.1666761E-008  0.3789226E+03  0.7957747E-01  0.3455863E+00
         13   -1    0    0    0    0  0.00000000000E+00  0.00000000000E+00  0.14999999963E+04  0.15000000000E+04  0.10566000000E+00 0. -1.
        994   -1    0    0    0    0 -0.00000000000E+00 -0.00000000000E+00  0.11368683772E-12  0.17120000000E+03  0.17120000000E+03 0.  0.
         13    1    1    2    0    0  0.32207871681E+02 -0.17669675279E+02  0.16756196281E+03  0.17154179365E+03  0.10566000000E+00 0. -1.
        994    1    1    2    0    0  0.73208992832E+01  0.69536249671E+01  0.50200841796E+01  0.17157094658E+03  0.17120000000E+03 0.  0.
        998    1    1    2    0    0 -0.39528770964E+02  0.10716050312E+02  0.13274179493E+04  0.13280872598E+04  0.10000000000E+02 0. -1.
</event>
<event>
 5    1  0.1666761E-008  0.3857220E+03  0.7957747E-01  0.3426616E+00
         13   -1    0    0    0    0  0.00000000000E+00  0.00000000000E+00  0.14999999963E+04  0.15000000000E+04  0.10566000000E+00 0. -1.
        994   -1    0    0    0    0 -0.00000000000E+00 -0.00000000000E+00  0.11368683772E-12  0.17120000000E+03  0.17120000000E+03 0.  0.
         13    1    1    2    0    0  0.83797690786E+01 -0.86033325213E+01  0.60799140702E+02  0.61974063401E+02  0.10566000000E+00 0. -1.
        994    1    1    2    0    0  0.42802838522E+01  0.29602462394E+01  0.13609878128E+01  0.17128448901E+03  0.17120000000E+03 0.  0.
        998    1    1    2    0    0 -0.12660052931E+02  0.56430862819E+01  0.14378398678E+04  0.14379414476E+04  0.10000000000E+02 0. -1.
</event>
<event>
 5    1  0.1666761E-008  0.3846350E+03  0.7957747E-01  0.3431222E+00
         13   -1    0    0    0    0  0.00000000000E+00  0.00000000000E+00  0.14999999963E+04  0.15000000000E+04  0.10566000000E+00 0. -1.
        994   -1    0    0    0    0 -0.00000000000E+00 -0.00000000000E+00  0.11368683772E-12  0.17120000000E+03  0.17120000000E+03 0.  0.
         13    1    1    2    0    0 -0.90038571650E+01 -0.58728158519E+01  0.32136946237E+02  0.33887370617E+02  0.10566000000E+00 0. -1.
        994    1    1    2    0    0  0.79732079503E+01 -0.66123116223E+01  0.21648051064E+01  0.17152673579E+03  0.17120000000E+03 0.  0.
        998    1    1    2    0    0  0.10306492146E+01  0.12485127474E+02  0.14656982449E+04  0.14657858936E+04  0.10000000000E+02 0. -1.
</event>
<event>
 5    1  0.1666761E-008  0.3807889E+03  0.7957747E-01  0.3447731E+00
         13   -1    0    0    0    0  0.00000000000E+00  0.00000000000E+00  0.14999999963E+04  0.15000000000E+04  0.10566000000E+00 0. -1.
        994   -1    0    0    0    0 -0.00000000000E+00 -0.00000000000E+00  0.11368683772E-12  0.17120000000E+03  0.17120000000E+03 0.  0.
         13    1    1    2    0    0  0.14271458722E+01 -0.15921919428E+02  0.32564827604E+02  0.36277037152E+02  0.10566000000E+00 0. -1.
        994    1    1    2    0    0 -0.59746874171E+00  0.12719001523E+02  0.42762266169E+01  0.17172610775E+03  0.17120000000E+03 0.  0.
        998    1    1    2    0    0 -0.82967713048E+00  0.32029179053E+01  0.14631589421E+04  0.14631968551E+04  0.10000000000E+02 0. -1.
</event>
<event>
 5    1  0.1666761E-008  0.3834830E+03  0.7957747E-01  0.3436132E+00
         13   -1    0    0    0    0  0.00000000000E+00  0.00000000000E+00  0.14999999963E+04  0.15000000000E+04  0.10566000000E+00 0. -1.
        994   -1    0    0    0    0 -0.00000000000E+00 -0.00000000000E+00  0.11368683772E-12  0.17120000000E+03  0.17120000000E+03 0.  0.
         13    1    1    2    0    0 -0.13502806156E+02 -0.26283209141E+02  0.15959698321E+03  0.16230939920E+03  0.10566000000E+00 0. -1.
        994    1    1    2    0    0  0.87170675669E+01  0.33656482042E+02  0.63902399811E+01  0.17481138755E+03  0.17120000000E+03 0.  0.
        998    1    1    2    0    0  0.47857385887E+01 -0.73732729008E+01  0.13340127731E+04  0.13340792132E+04  0.10000000000E+02 0. -1.
</event>
<event>
 5    1  0.1666761E-008  0.3801610E+03  0.7957747E-01  0.3450458E+00
         13   -1    0    0    0    0  0.00000000000E+00  0.00000000000E+00  0.14999999963E+04  0.15000000000E+04  0.10566000000E+00 0. -1.
        994   -1    0    0    0    0 -0.00000000000E+00 -0.00000000000E+00  0.11368683772E-12  0.17120000000E+03  0.17120000000E+03 0.  0.
         13    1    1    2    0    0 -0.15043267472E+02  0.32026070890E+02  0.13737603331E+03  0.14185963064E+03  0.10566000000E+00 0. -1.
        994    1    1    2    0    0  0.22775627173E+02 -0.32402159228E+02  0.93107435576E+01  0.17596806262E+03  0.17120000000E+03 0.  0.
        998    1    1    2    0    0 -0.77323597003E+01  0.37608833742E+00  0.13533132194E+04  0.13533723067E+04  0.10000000000E+02 0. -1.
</event>
<event>
 5    1  0.1666761E-008  0.3786534E+03  0.7957747E-01  0.3457043E+00
         13   -1    0    0    0    0  0.00000000000E+00  0.00000000000E+00  0.14999999963E+04  0.15000000000E+04  0.10566000000E+00 0.  1.
        994   -1    0    0    0    0 -0.00000000000E+00 -0.00000000000E+00  0.11368683772E-12  0.17120000000E+03  0.17120000000E+03 0.  0.
         13    1    1    2    0    0  0.13227018782E+03  0.27711208965E+02  0.71983188207E+03  0.73240785311E+03  0.10566000000E+00 0.  1.
        994    1    1    2    0    0 -0.14522266080E+03 -0.33030724507E+02  0.83314092712E+02  0.24172572891E+03  0.17120000000E+03 0.  0.
        998    1    1    2    0    0  0.12952472983E+02  0.53195155418E+01  0.69685402149E+03  0.69706641798E+03  0.10000000000E+02 0. -1.
</event>
<event>
 5    1  0.1666761E-008  0.3697237E+03  0.7957747E-01  0.3497161E+00
         13   -1    0    0    0    0  0.00000000000E+00  0.00000000000E+00  0.14999999963E+04  0.15000000000E+04  0.10566000000E+00 0. -1.
        994   -1    0    0    0    0 -0.00000000000E+00 -0.00000000000E+00  0.11368683772E-12  0.17120000000E+03  0.17120000000E+03 0.  0.
         13    1    1    2    0    0  0.56443037946E+02 -0.24205205806E+02  0.21153192879E+03  0.22026683042E+03  0.10566000000E+00 0. -1.
        994    1    1    2    0    0 -0.60251340426E+01 -0.23634216202E+02  0.12873240660E+02  0.17340714732E+03  0.17120000000E+03 0.  0.
        998    1    1    2    0    0 -0.50417903904E+02  0.47839422009E+02  0.12755948268E+04  0.12775260223E+04  0.10000000000E+02 0. -1.
</event>
<event>
 5    1  0.1666761E-008  0.3732749E+03  0.7957747E-01  0.3480974E+00
         13   -1    0    0    0    0  0.00000000000E+00  0.00000000000E+00  0.14999999963E+04  0.15000000000E+04  0.10566000000E+00 0. -1.
        994   -1    0    0    0    0 -0.00000000000E+00 -0.00000000000E+00  0.11368683772E-12  0.17120000000E+03  0.17120000000E+03 0.  0.
         13    1    1    2    0    0 -0.30206091215E+02  0.62592995554E+02  0.28652023572E+03  0.29482901431E+03  0.10566000000E+00 0. -1.
        994    1    1    2    0    0  0.13331644094E+02 -0.54202050662E+02  0.18295775108E+02  0.18099660333E+03  0.17120000000E+03 0.  0.
        998    1    1    2    0    0  0.16874447121E+02 -0.83909448922E+01  0.11951839855E+04  0.11953743824E+04  0.10000000000E+02 0. -1.
</event>
<event>
 5    1  0.1666761E-008  0.3853565E+03  0.7957747E-01  0.3428162E+00
         13   -1    0    0    0    0  0.00000000000E+00  0.00000000000E+00  0.14999999963E+04  0.15000000000E+04  0.10566000000E+00 0.  1.
        994   -1    0    0    0    0 -0.00000000000E+00 -0.00000000000E+00  0.11368683772E-12  0.17120000000E+03  0.17120000000E+03 0.  0.
         13    1    1    2    0    0  0.69923263828E+01 -0.12815956128E+02  0.77074167280E+02  0.78444756266E+02  0.10566000000E+00 0.  1.
        994    1    1    2    0    0 -0.72493696996E+01 -0.13207799275E+00  0.16259441388E+01  0.17136118143E+03  0.17120000000E+03 0.  0.
        998    1    1    2    0    0  0.25704331673E+00  0.12948034121E+02  0.14212998849E+04  0.14213940623E+04  0.10000000000E+02 0.  1.
</event>
<event>
 5    1  0.3361515E-008  0.3863703E+03  0.7957747E-01  0.3423881E+00
         13   -1    0    0    0    0  0.00000000000E+00  0.00000000000E+00  0.14999999963E+04  0.15000000000E+04  0.10566000000E+00 0.  1.
        994   -1    0    0    0    0 -0.00000000000E+00 -0.00000000000E+00  0.11368683772E-12  0.17120000000E+03  0.17120000000E+03 0.  0.
         13    1    1    2    0    0 -0.94314294287E+01  0.54573970221E+01  0.61797000209E+02  0.62750421849E+02  0.10566000000E+00 0.  1.
        994    1    1    2    0    0  0.81208078298E+01 -0.76615608987E+01  0.13595440488E+01  0.17156903973E+03  0.17120000000E+03 0.  0.
        998    1    1    2    0    0  0.13106215990E+01  0.22041638766E+01  0.14368434520E+04  0.14368805384E+04  0.10000000000E+02 0.  1.
</event>
<event>
 5    1  0.1666761E-008  0.3784006E+03  0.7957747E-01  0.3458152E+00
         13   -1    0    0    0    0  0.00000000000E+00  0.00000000000E+00  0.14999999963E+04  0.15000000000E+04  0.10566000000E+00 0. -1.
        994   -1    0    0    0    0 -0.00000000000E+00 -0.00000000000E+00  0.11368683772E-12  0.17120000000E+03  0.17120000000E+03 0.  0.
         13    1    1    2    0    0 -0.97736484275E+01  0.29764253912E+02  0.11712671622E+03  0.12124402596E+03  0.10566000000E+00 0. -1.
        994    1    1    2    0    0 -0.17764060088E+02  0.10518626115E+02  0.63763338285E+01  0.17255810894E+03  0.17120000000E+03 0.  0.
        998    1    1    2    0    0  0.27537708515E+02 -0.40282880027E+02  0.13764969462E+04  0.13773978651E+04  0.10000000000E+02 0. -1.
</event>
<event>
 5    1  0.1666761E-008  0.3817346E+03  0.7957747E-01  0.3443640E+00
         13   -1    0    0    0    0  0.00000000000E+00  0.00000000000E+00  0.14999999963E+04  0.15000000000E+04  0.10566000000E+00 0. -1.
        994   -1    0    0    0    0 -0.00000000000E+00 -0.00000000000E+00  0.11368683772E-12  0.17120000000E+03  0.17120000000E+03 0.  0.
         13    1    1    2    0    0 -0.15119183726E+02  0.75032439198E+01  0.40586679648E+02  0.43956548031E+02  0.10566000000E+00 0. -1.
        994    1    1    2    0    0  0.17161843883E+02 -0.18713602218E+02  0.54060346896E+01  0.17315713385E+03  0.17120000000E+03 0.  0.
        998    1    1    2    0    0 -0.20426601575E+01  0.11210358299E+02  0.14540072819E+04  0.14540863181E+04  0.10000000000E+02 0. -1.
</event>
<event>
 5    1  0.1666761E-008  0.3783274E+03  0.7957747E-01  0.3458474E+00
         13   -1    0    0    0    0  0.00000000000E+00  0.00000000000E+00  0.14999999963E+04  0.15000000000E+04  0.10566000000E+00 0. -1.
        994   -1    0    0    0    0 -0.00000000000E+00 -0.00000000000E+00  0.11368683772E-12  0.17120000000E+03  0.17120000000E+03 0.  0.
         13    1    1    2    0    0  0.19069575426E+02  0.36959718443E+02  0.15049552625E+03  0.15613642778E+03  0.10566000000E+00 0. -1.
        994    1    1    2    0    0 -0.88429425476E+01 -0.49232682792E+02  0.13437034147E+02  0.17886321191E+03  0.17120000000E+03 0.  0.
        998    1    1    2    0    0 -0.10226632878E+02  0.12272964349E+02  0.13360674359E+04  0.13362003603E+04  0.10000000000E+02 0. -1.
</event>
<event>
 5    1  0.1666761E-008  0.3818646E+03  0.7957747E-01  0.3443080E+00
         13   -1    0    0    0    0  0.00000000000E+00  0.00000000000E+00  0.14999999963E+04  0.15000000000E+04  0.10566000000E+00 0. -1.
        994   -1    0    0    0    0 -0.00000000000E+00 -0.00000000000E+00  0.11368683772E-12  0.17120000000E+03  0.17120000000E+03 0.  0.
         13    1    1    2    0    0 -0.18854760677E+02  0.32400443868E+01  0.54399786498E+02  0.57665828901E+02  0.10566000000E+00 0. -1.
        994    1    1    2    0    0  0.18755598168E+02 -0.88853375998E+01  0.46272264531E+01  0.17251542804E+03  0.17120000000E+03 0.  0.
        998    1    1    2    0    0  0.99162509444E-01  0.56452932130E+01  0.14409729833E+04  0.14410187431E+04  0.10000000000E+02 0. -1.
</event>
<event>
 5    1  0.1666761E-008  0.3687605E+03  0.7957747E-01  0.3501607E+00
         13   -1    0    0    0    0  0.00000000000E+00  0.00000000000E+00  0.14999999963E+04  0.15000000000E+04  0.10566000000E+00 0. -1.
        994   -1    0    0    0    0 -0.00000000000E+00 -0.00000000000E+00  0.11368683772E-12  0.17120000000E+03  0.17120000000E+03 0.  0.
         13    1    1    2    0    0 -0.18061699713E+01  0.69832325979E+02  0.30542119783E+03  0.31330805168E+03  0.10566000000E+00 0. -1.
        994    1    1    2    0    0 -0.35324673687E+01 -0.29606165637E+00  0.10328668318E+02  0.17154791566E+03  0.17120000000E+03 0.  0.
        998    1    1    2    0    0  0.53386373400E+01 -0.69536264322E+02  0.11842501301E+04  0.11863440327E+04  0.10000000000E+02 0. -1.
</event>
<event>
 5    1  0.1666761E-008  0.3739534E+03  0.7957747E-01  0.3477917E+00
         13   -1    0    0    0    0  0.00000000000E+00  0.00000000000E+00  0.14999999963E+04  0.15000000000E+04  0.10566000000E+00 0. -1.
        994   -1    0    0    0    0 -0.00000000000E+00 -0.00000000000E+00  0.11368683772E-12  0.17120000000E+03  0.17120000000E+03 0.  0.
         13    1    1    2    0    0 -0.15201859097E+02  0.25870935047E+01  0.31223867322E+01  0.15733722882E+02  0.10566000000E+00 0. -1.
        994    1    1    2    0    0  0.15589131931E+02 -0.55768059076E+01  0.14017056877E+02  0.17256894182E+03  0.17120000000E+03 0.  0.
        998    1    1    2    0    0 -0.38727283385E+00  0.29897124028E+01  0.14828605527E+04  0.14828973353E+04  0.10000000000E+02 0. -1.
</event>
<event>
 5    1  0.1666761E-008  0.3711716E+03  0.7957747E-01  0.3490524E+00
         13   -1    0    0    0    0  0.00000000000E+00  0.00000000000E+00  0.14999999963E+04  0.15000000000E+04  0.10566000000E+00 0.  1.
        994   -1    0    0    0    0 -0.00000000000E+00 -0.00000000000E+00  0.11368683772E-12  0.17120000000E+03  0.17120000000E+03 0.  0.
         13    1    1    2    0    0  0.35721650383E+02 -0.29597110564E+01  0.49410473126E+02  0.61042626206E+02  0.10566000000E+00 0.  1.
        994    1    1    2    0    0 -0.36530583864E+02  0.87388940944E+01  0.16528553706E+02  0.17604966605E+03  0.17120000000E+03 0.  0.
        998    1    1    2    0    0  0.80893348094E+00 -0.57791830380E+01  0.14340609694E+04  0.14341077077E+04  0.10000000000E+02 0.  1.
</event>
<event>
 5    1  0.2878880E-008  0.3864288E+03  0.7957747E-01  0.3423635E+00
         13   -1    0    0    0    0  0.00000000000E+00  0.00000000000E+00  0.14999999963E+04  0.15000000000E+04  0.10566000000E+00 0. -1.
        994   -1    0    0    0    0 -0.00000000000E+00 -0.00000000000E+00  0.11368683772E-12  0.17120000000E+03  0.17120000000E+03 0.  0.
         13    1    1    2    0    0 -0.13574879207E+01  0.10918022614E+02  0.64708215674E+02  0.65636958576E+02  0.10566000000E+00 0. -1.
        994    1    1    2    0    0  0.73703649876E+01 -0.10658808696E+02  0.14723107518E+01  0.17169606921E+03  0.17120000000E+03 0.  0.
        998    1    1    2    0    0 -0.60128770670E+01 -0.25921391761E+00  0.14338194699E+04  0.14338669722E+04  0.10000000000E+02 0. -1.
</event>
<event>
 5    1  0.1666761E-008  0.3844831E+03  0.7957747E-01  0.3431867E+00
         13   -1    0    0    0    0  0.00000000000E+00  0.00000000000E+00  0.14999999963E+04  0.15000000000E+04  0.10566000000E+00 0. -1.
        994   -1    0    0    0    0 -0.00000000000E+00 -0.00000000000E+00  0.11368683772E-12  0.17120000000E+03  0.17120000000E+03 0.  0.
         13    1    1    2    0    0 -0.65222188798E+01  0.16091961048E+02  0.77965997370E+02  0.79876144495E+02  0.10566000000E+00 0. -1.
        994    1    1    2    0    0  0.94869692576E+01 -0.11889368636E+02  0.26494788894E+01  0.17189479169E+03  0.17120000000E+03 0.  0.
        998    1    1    2    0    0 -0.29647503777E+01 -0.42025924124E+01  0.14193845200E+04  0.14194290638E+04  0.10000000000E+02 0. -1.
</event>
<event>
 5    1  0.1666761E-008  0.3829905E+03  0.7957747E-01  0.3438240E+00
         13   -1    0    0    0    0  0.00000000000E+00  0.00000000000E+00  0.14999999963E+04  0.15000000000E+04  0.10566000000E+00 0. -1.
        994   -1    0    0    0    0 -0.00000000000E+00 -0.00000000000E+00  0.11368683772E-12  0.17120000000E+03  0.17120000000E+03 0.  0.
         13    1    1    2    0    0 -0.88726291112E+01 -0.13815558213E+02  0.52825818108E+02  0.55318816137E+02  0.10566000000E+00 0. -1.
        994    1    1    2    0    0 -0.11992285132E+02  0.89196980425E+01  0.33708775343E+01  0.17188420152E+03  0.17120000000E+03 0.  0.
        998    1    1    2    0    0  0.20864914243E+02  0.48958601700E+01  0.14438033006E+04  0.14439969823E+04  0.10000000000E+02 0. -1.
</event>
<event>
 5    1  0.1666761E-008  0.3826411E+03  0.7957747E-01  0.3439739E+00
         13   -1    0    0    0    0  0.00000000000E+00  0.00000000000E+00  0.14999999963E+04  0.15000000000E+04  0.10566000000E+00 0.  1.
        994   -1    0    0    0    0 -0.00000000000E+00 -0.00000000000E+00  0.11368683772E-12  0.17120000000E+03  0.17120000000E+03 0.  0.
         13    1    1    2    0    0  0.99778557790E+01  0.16546532694E+02  0.65794302302E+02  0.68572930005E+02  0.10566000000E+00 0.  1.
        994    1    1    2    0    0 -0.85462719051E+01 -0.89131282087E+01  0.33113381162E+01  0.17167669492E+03  0.17120000000E+03 0.  0.
        998    1    1    2    0    0 -0.14315838739E+01 -0.76334044853E+01  0.14308943559E+04  0.14309503751E+04  0.10000000000E+02 0.  1.
</event>
<event>
 5    1  0.1666761E-008  0.3849357E+03  0.7957747E-01  0.3429945E+00
         13   -1    0    0    0    0  0.00000000000E+00  0.00000000000E+00  0.14999999963E+04  0.15000000000E+04  0.10566000000E+00 0. -1.
        994   -1    0    0    0    0 -0.00000000000E+00 -0.00000000000E+00  0.11368683772E-12  0.17120000000E+03  0.17120000000E+03 0.  0.
         13    1    1    2    0    0  0.11230563673E+02  0.13441090869E+02  0.10284259329E+03  0.10432352871E+03  0.10566000000E+00 0. -1.
        994    1    1    2    0    0 -0.79705778992E+01  0.91630936706E+01  0.21473523659E+01  0.17164365272E+03  0.17120000000E+03 0.  0.
        998    1    1    2    0    0 -0.32599857734E+01 -0.22604184539E+02  0.13950100506E+04  0.13952328186E+04  0.10000000000E+02 0. -1.
</event>
<event>
 5    1  0.1666761E-008  0.3722204E+03  0.7957747E-01  0.3485748E+00
         13   -1    0    0    0    0  0.00000000000E+00  0.00000000000E+00  0.14999999963E+04  0.15000000000E+04  0.10566000000E+00 0.  1.
        994   -1    0    0    0    0 -0.00000000000E+00 -0.00000000000E+00  0.11368683772E-12  0.17120000000E+03  0.17120000000E+03 0.  0.
         13    1    1    2    0    0  0.86454027095E+02  0.35022617439E+02  0.39419530855E+03  0.40508126960E+03  0.10566000000E+00 0.  1.
        994    1    1    2    0    0 -0.85725723119E+02 -0.32558202235E+02  0.37543577870E+02  0.19780772577E+03  0.17120000000E+03 0.  0.
        998    1    1    2    0    0 -0.72830397673E+00 -0.24644152038E+01  0.10682611099E+04  0.10683110046E+04  0.10000000000E+02 0.  0.
</event>
<event>
 5    1  0.1666761E-008  0.3787978E+03  0.7957747E-01  0.3456410E+00
         13   -1    0    0    0    0  0.00000000000E+00  0.00000000000E+00  0.14999999963E+04  0.15000000000E+04  0.10566000000E+00 0. -1.
        994   -1    0    0    0    0 -0.00000000000E+00 -0.00000000000E+00  0.11368683772E-12  0.17120000000E+03  0.17120000000E+03 0.  0.
         13    1    1    2    0    0  0.26756344787E+02  0.63335971843E+01  0.18747354066E+02  0.33278985684E+02  0.10566000000E+00 0. -1.
        994    1    1    2    0    0 -0.81325629007E+00  0.48269446175E+02  0.24124335456E+02  0.17950494250E+03  0.17120000000E+03 0.  0.
        998    1    1    2    0    0 -0.25943088497E+02 -0.54603043359E+02  0.14571283068E+04  0.14584160718E+04  0.10000000000E+02 0. -1.
</event>
<event>
 5    1  0.1666761E-008  0.3766253E+03  0.7957747E-01  0.3465986E+00
         13   -1    0    0    0    0  0.00000000000E+00  0.00000000000E+00  0.14999999963E+04  0.15000000000E+04  0.10566000000E+00 0.  1.
        994   -1    0    0    0    0 -0.00000000000E+00 -0.00000000000E+00  0.11368683772E-12  0.17120000000E+03  0.17120000000E+03 0.  0.
         13    1    1    2    0    0 -0.34005323515E+02 -0.40279834518E+02  0.28078332008E+03  0.28568883614E+03  0.10566000000E+00 0.  1.
        994    1    1    2    0    0 -0.57716142430E+01  0.15842384010E+02  0.68081309796E+01  0.17216295568E+03  0.17120000000E+03 0.  0.
        998    1    1    2    0    0  0.39776937758E+02  0.24437450508E+02  0.12124085452E+04  0.12133482082E+04  0.10000000000E+02 0.  1.
</event>
<event>
 5    1  0.1666761E-008  0.2731752E+03  0.7957747E-01  0.4108330E+00
         13   -1    0    0    0    0  0.00000000000E+00  0.00000000000E+00  0.14999999963E+04  0.15000000000E+04  0.10566000000E+00 0. -1.
        994   -1    0    0    0    0 -0.00000000000E+00 -0.00000000000E+00  0.11368683772E-12  0.17120000000E+03  0.17120000000E+03 0.  0.
         13    1    1    2    0    0  0.10647353453E+02  0.16548280608E+03  0.56127727099E+03  0.58526072082E+03  0.10566000000E+00 0. -1.
        994    1    1    2    0    0  0.66079907529E+01 -0.10389654607E+03  0.66204391349E+02  0.21102279323E+03  0.17120000000E+03 0.  0.
        998    1    1    2    0    0 -0.17255344206E+02 -0.61586260006E+02  0.87251833394E+03  0.87491648595E+03  0.10000000000E+02 0. -1.
</event>
<event>
 5    1  0.1666761E-008  0.3746906E+03  0.7957747E-01  0.3474607E+00
         13   -1    0    0    0    0  0.00000000000E+00  0.00000000000E+00  0.14999999963E+04  0.15000000000E+04  0.10566000000E+00 0.  1.
        994   -1    0    0    0    0 -0.00000000000E+00 -0.00000000000E+00  0.11368683772E-12  0.17120000000E+03  0.17120000000E+03 0.  0.
         13    1    1    2    0    0  0.62988668583E+02 -0.30004426126E+02  0.32721619755E+03  0.33457179956E+03  0.10566000000E+00 0.  1.
        994    1    1    2    0    0 -0.33304325573E+02  0.49133333443E+02  0.18922499711E+02  0.18218332402E+03  0.17120000000E+03 0.  0.
        998    1    1    2    0    0 -0.29684343010E+02 -0.19128907317E+02  0.11538612990E+04  0.11544448764E+04  0.10000000000E+02 0.  1.
</event>
<event>
 5    1  0.1666761E-008  0.3855452E+03  0.7957747E-01  0.3427363E+00
         13   -1    0    0    0    0  0.00000000000E+00  0.00000000000E+00  0.14999999963E+04  0.15000000000E+04  0.10566000000E+00 0. -1.
        994   -1    0    0    0    0 -0.00000000000E+00 -0.00000000000E+00  0.11368683772E-12  0.17120000000E+03  0.17120000000E+03 0.  0.
         13    1    1    2    0    0  0.63428954530E+01 -0.14059662889E+02  0.86672741525E+02  0.88034548507E+02  0.10566000000E+00 0. -1.
        994    1    1    2    0    0 -0.55573845436E+01  0.10513982462E+02  0.18241454051E+01  0.17162224756E+03  0.17120000000E+03 0.  0.
        998    1    1    2    0    0 -0.78551090942E+00  0.35456804267E+01  0.14115031093E+04  0.14115432039E+04  0.10000000000E+02 0. -1.
</event>
<event>
 5    1  0.1666761E-008  0.3801060E+03  0.7957747E-01  0.3450697E+00
         13   -1    0    0    0    0  0.00000000000E+00  0.00000000000E+00  0.14999999963E+04  0.15000000000E+04  0.10566000000E+00 0.  1.
        994   -1    0    0    0    0 -0.00000000000E+00 -0.00000000000E+00  0.11368683772E-12  0.17120000000E+03  0.17120000000E+03 0.  0.
         13    1    1    2    0    0 -0.28657968570E+02  0.35036478056E+02  0.17237627375E+03  0.17822015843E+03  0.10566000000E+00 0.  1.
        994    1    1    2    0    0  0.49045511898E+02 -0.67325121428E+02  0.27624701963E+02  0.19238164770E+03  0.17120000000E+03 0.  0.
        998    1    1    2    0    0 -0.20387543328E+02  0.32288643372E+02  0.12999990206E+04  0.13005981939E+04  0.10000000000E+02 0.  1.
</event>
<event>
 5    1  0.1666761E-008  0.3751381E+03  0.7957747E-01  0.3472606E+00
         13   -1    0    0    0    0  0.00000000000E+00  0.00000000000E+00  0.14999999963E+04  0.15000000000E+04  0.10566000000E+00 0.  1.
        994   -1    0    0    0    0 -0.00000000000E+00 -0.00000000000E+00  0.11368683772E-12  0.17120000000E+03  0.17120000000E+03 0.  0.
         13    1    1    2    0    0  0.69326510295E+02 -0.86535477368E+01  0.31621216120E+03  0.32383821728E+03  0.10566000000E+00 0.  1.
        994    1    1    2    0    0 -0.58974562552E+02  0.67383405222E+01  0.18674663627E+02  0.18215813823E+03  0.17120000000E+03 0.  0.
        998    1    1    2    0    0 -0.10351947744E+02  0.19152072146E+01  0.11651131714E+04  0.11652036445E+04  0.10000000000E+02 0.  1.
</event>
<event>
 5    1  0.1666761E-008  0.3835829E+03  0.7957747E-01  0.3435705E+00
         13   -1    0    0    0    0  0.00000000000E+00  0.00000000000E+00  0.14999999963E+04  0.15000000000E+04  0.10566000000E+00 0. -1.
        994   -1    0    0    0    0 -0.00000000000E+00 -0.00000000000E+00  0.11368683772E-12  0.17120000000E+03  0.17120000000E+03 0.  0.
         13    1    1    2    0    0 -0.14468220024E+02 -0.25125293009E+02  0.16315447934E+03  0.16571060627E+03  0.10566000000E+00 0. -1.
        994    1    1    2    0    0  0.19574876979E+02  0.21634769148E+02  0.51527607188E+01  0.17374472650E+03  0.17120000000E+03 0.  0.
        998    1    1    2    0    0 -0.51066569554E+01  0.34905238607E+01  0.13316927562E+04  0.13317446672E+04  0.10000000000E+02 0. -1.
</event>
<event>
 5    1  0.1666761E-008  0.3846737E+03  0.7957747E-01  0.3431057E+00
         13   -1    0    0    0    0  0.00000000000E+00  0.00000000000E+00  0.14999999963E+04  0.15000000000E+04  0.10566000000E+00 0. -1.
        994   -1    0    0    0    0 -0.00000000000E+00 -0.00000000000E+00  0.11368683772E-12  0.17120000000E+03  0.17120000000E+03 0.  0.
         13    1    1    2    0    0  0.12577304882E+02 -0.68103883056E+00  0.46519142002E+02  0.48194337309E+02  0.10566000000E+00 0. -1.
        994    1    1    2    0    0  0.17195115572E+01 -0.70029531482E+01  0.19634250005E+01  0.17136304476E+03  0.17120000000E+03 0.  0.
        998    1    1    2    0    0 -0.14296816439E+02  0.76839919788E+01  0.14515174293E+04  0.14516426179E+04  0.10000000000E+02 0. -1.
</event>
<event>
 5    1  0.1666761E-008  0.3859071E+03  0.7957747E-01  0.3425834E+00
         13   -1    0    0    0    0  0.00000000000E+00  0.00000000000E+00  0.14999999963E+04  0.15000000000E+04  0.10566000000E+00 0. -1.
        994   -1    0    0    0    0 -0.00000000000E+00 -0.00000000000E+00  0.11368683772E-12  0.17120000000E+03  0.17120000000E+03 0.  0.
         13    1    1    2    0    0  0.10845722412E+02  0.20056103795E+01  0.56295140639E+02  0.57365548819E+02  0.10566000000E+00 0. -1.
        994    1    1    2    0    0  0.39154721038E+01 -0.33666500732E+00  0.12310808698E+01  0.17124952504E+03  0.17120000000E+03 0.  0.
        998    1    1    2    0    0 -0.14761194516E+02 -0.16689453721E+01  0.14424737748E+04  0.14425849261E+04  0.10000000000E+02 0. -1.
</event>
<event>
 5    1  0.1666761E-008  0.3694925E+03  0.7957747E-01  0.3498227E+00
         13   -1    0    0    0    0  0.00000000000E+00  0.00000000000E+00  0.14999999963E+04  0.15000000000E+04  0.10566000000E+00 0.  1.
        994   -1    0    0    0    0 -0.00000000000E+00 -0.00000000000E+00  0.11368683772E-12  0.17120000000E+03  0.17120000000E+03 0.  0.
         13    1    1    2    0    0 -0.79438220164E+01 -0.41989138110E+02  0.75930529338E+02  0.87130066436E+02  0.10566000000E+00 0.  1.
        994    1    1    2    0    0 -0.12311606699E+02  0.53663166726E+02  0.21325313205E+02  0.18109533430E+03  0.17120000000E+03 0.  0.
        998    1    1    2    0    0  0.20255428715E+02 -0.11674028616E+02  0.14027441537E+04  0.14029745993E+04  0.10000000000E+02 0.  1.
</event>
<event>
 5    1  0.1666761E-008  0.3831835E+03  0.7957747E-01  0.3437413E+00
         13   -1    0    0    0    0  0.00000000000E+00  0.00000000000E+00  0.14999999963E+04  0.15000000000E+04  0.10566000000E+00 0.  1.
        994   -1    0    0    0    0 -0.00000000000E+00 -0.00000000000E+00  0.11368683772E-12  0.17120000000E+03  0.17120000000E+03 0.  0.
         13    1    1    2    0    0  0.10149685315E+02  0.95480236919E+01  0.38841636186E+02  0.41265781636E+02  0.10566000000E+00 0.  1.
        994    1    1    2    0    0  0.48372252694E+01 -0.65627874885E+01  0.27546324451E+01  0.17141615130E+03  0.17120000000E+03 0.  0.
        998    1    1    2    0    0 -0.14986910584E+02 -0.29852362034E+01  0.14584037276E+04  0.14585180671E+04  0.10000000000E+02 0.  1.
</event>
<event>
 5    1  0.1666761E-008  0.3804120E+03  0.7957747E-01  0.3449367E+00
         13   -1    0    0    0    0  0.00000000000E+00  0.00000000000E+00  0.14999999963E+04  0.15000000000E+04  0.10566000000E+00 0. -1.
        994   -1    0    0    0    0 -0.00000000000E+00 -0.00000000000E+00  0.11368683772E-12  0.17120000000E+03  0.17120000000E+03 0.  0.
         13    1    1    2    0    0  0.36272427187E+02 -0.17141694793E+02  0.19140958495E+03  0.19556882944E+03  0.10566000000E+00 0. -1.
        994    1    1    2    0    0 -0.34227773113E+02  0.23099621453E+01  0.78641659635E+01  0.17478032350E+03  0.17120000000E+03 0.  0.
        998    1    1    2    0    0 -0.20446540738E+01  0.14831732648E+02  0.13007262454E+04  0.13008508471E+04  0.10000000000E+02 0. -1.
</event>
<event>
 5    1  0.1666761E-008  0.3794887E+03  0.7957747E-01  0.3453388E+00
         13   -1    0    0    0    0  0.00000000000E+00  0.00000000000E+00  0.14999999963E+04  0.15000000000E+04  0.10566000000E+00 0. -1.
        994   -1    0    0    0    0 -0.00000000000E+00 -0.00000000000E+00  0.11368683772E-12  0.17120000000E+03  0.17120000000E+03 0.  0.
         13    1    1    2    0    0 -0.27941333051E+02  0.33605918018E+01  0.90150711161E+02  0.94441376296E+02  0.10566000000E+00 0. -1.
        994    1    1    2    0    0  0.14767235320E+02  0.72272899802E+01  0.52971293775E+01  0.17206918533E+03  0.17120000000E+03 0.  0.
        998    1    1    2    0    0  0.13174097731E+02 -0.10587881782E+02  0.14045521557E+04  0.14046894384E+04  0.10000000000E+02 0. -1.
</event>
<event>
 5    1  0.1666761E-008  0.3822230E+03  0.7957747E-01  0.3441536E+00
         13   -1    0    0    0    0  0.00000000000E+00  0.00000000000E+00  0.14999999963E+04  0.15000000000E+04  0.10566000000E+00 0.  1.
        994   -1    0    0    0    0 -0.00000000000E+00 -0.00000000000E+00  0.11368683772E-12  0.17120000000E+03  0.17120000000E+03 0.  0.
         13    1    1    2    0    0 -0.19482599012E+01  0.20397172628E+02  0.66635525662E+02  0.69714738844E+02  0.10566000000E+00 0.  1.
        994    1    1    2    0    0  0.14212157663E+02 -0.18087680976E+02  0.47731477980E+01  0.17280443446E+03  0.17120000000E+03 0.  0.
        998    1    1    2    0    0 -0.12263897762E+02 -0.23094916516E+01  0.14285913228E+04  0.14286808267E+04  0.10000000000E+02 0.  1.
</event>
<event>
 5    1  0.1666761E-008  0.3687655E+03  0.7957747E-01  0.3501584E+00
         13   -1    0    0    0    0  0.00000000000E+00  0.00000000000E+00  0.14999999963E+04  0.15000000000E+04  0.10566000000E+00 0.  1.
        994   -1    0    0    0    0 -0.00000000000E+00 -0.00000000000E+00  0.11368683772E-12  0.17120000000E+03  0.17120000000E+03 0.  0.
         13    1    1    2    0    0 -0.21456906327E+03 -0.59586840934E+02  0.70418394595E+03  0.73855637254E+03  0.10566000000E+00 0.  1.
        994    1    1    2    0    0  0.23547768670E+03  0.54126581598E+02  0.25351145313E+03  0.38981652689E+03  0.17120000000E+03 0.  0.
        998    1    1    2    0    0 -0.20908623433E+02  0.54602593362E+01  0.54230459720E+03  0.54282710056E+03  0.10000000000E+02 0.  1.
</event>
<event>
 5    1  0.1666761E-008  0.3702219E+03  0.7957747E-01  0.3494872E+00
         13   -1    0    0    0    0  0.00000000000E+00  0.00000000000E+00  0.14999999963E+04  0.15000000000E+04  0.10566000000E+00 0.  1.
        994   -1    0    0    0    0 -0.00000000000E+00 -0.00000000000E+00  0.11368683772E-12  0.17120000000E+03  0.17120000000E+03 0.  0.
         13    1    1    2    0    0 -0.51754248098E+01 -0.12823999717E+03  0.63174850290E+03  0.64465375511E+03  0.10566000000E+00 0.  1.
        994    1    1    2    0    0 -0.37519144098E+02  0.11430380442E+03  0.60956019659E+02  0.21794063919E+03  0.17120000000E+03 0.  0.
        998    1    1    2    0    0  0.42694568908E+02  0.13936192747E+02  0.80729547372E+03  0.80860560570E+03  0.10000000000E+02 0.  1.
</event>
<event>
 5    1  0.1666761E-008  0.3835176E+03  0.7957747E-01  0.3435984E+00
         13   -1    0    0    0    0  0.00000000000E+00  0.00000000000E+00  0.14999999963E+04  0.15000000000E+04  0.10566000000E+00 0.  1.
        994   -1    0    0    0    0 -0.00000000000E+00 -0.00000000000E+00  0.11368683772E-12  0.17120000000E+03  0.17120000000E+03 0.  0.
         13    1    1    2    0    0  0.18481879780E+02 -0.13178203073E+02  0.11334090102E+03  0.11559159106E+03  0.10566000000E+00 0.  1.
        994    1    1    2    0    0 -0.32163337596E+01  0.84346010913E+01  0.26372308807E+01  0.17145810650E+03  0.17120000000E+03 0.  0.
        998    1    1    2    0    0 -0.15265546020E+02  0.47436019820E+01  0.13840218644E+04  0.13841503024E+04  0.10000000000E+02 0.  1.
</event>
<event>
 5    1  0.1666761E-008  0.3854280E+03  0.7957747E-01  0.3427859E+00
         13   -1    0    0    0    0  0.00000000000E+00  0.00000000000E+00  0.14999999963E+04  0.15000000000E+04  0.10566000000E+00 0.  1.
        994   -1    0    0    0    0 -0.00000000000E+00 -0.00000000000E+00  0.11368683772E-12  0.17120000000E+03  0.17120000000E+03 0.  0.
         13    1    1    2    0    0  0.12823293127E+02 -0.52844962315E+01  0.67708555666E+02  0.69114560126E+02  0.10566000000E+00 0.  1.
        994    1    1    2    0    0 -0.97865785400E+01  0.26669615080E+01  0.17557901420E+01  0.17150922017E+03  0.17120000000E+03 0.  0.
        998    1    1    2    0    0 -0.30367145865E+01  0.26175347235E+01  0.14305356505E+04  0.14305762197E+04  0.10000000000E+02 0.  1.
</event>
<event>
 5    1  0.1666761E-008  0.3784145E+03  0.7957747E-01  0.3458092E+00
         13   -1    0    0    0    0  0.00000000000E+00  0.00000000000E+00  0.14999999963E+04  0.15000000000E+04  0.10566000000E+00 0. -1.
        994   -1    0    0    0    0 -0.00000000000E+00 -0.00000000000E+00  0.11368683772E-12  0.17120000000E+03  0.17120000000E+03 0.  0.
         13    1    1    2    0    0  0.16185946510E+02 -0.29125736813E+01  0.24939642911E+02  0.29874151075E+02  0.10566000000E+00 0. -1.
        994    1    1    2    0    0 -0.16311898821E+02  0.75630196316E+01  0.60227967689E+01  0.17224689080E+03  0.17120000000E+03 0.  0.
        998    1    1    2    0    0  0.12595231086E+00 -0.46504459504E+01  0.14690375566E+04  0.14690789581E+04  0.10000000000E+02 0.  1.
</event>
<event>
 5    1  0.1666761E-008  0.3828075E+03  0.7957747E-01  0.3439024E+00
         13   -1    0    0    0    0  0.00000000000E+00  0.00000000000E+00  0.14999999963E+04  0.15000000000E+04  0.10566000000E+00 0.  1.
        994   -1    0    0    0    0 -0.00000000000E+00 -0.00000000000E+00  0.11368683772E-12  0.17120000000E+03  0.17120000000E+03 0.  0.
         13    1    1    2    0    0  0.10022395655E+02 -0.23719240382E+02  0.11606221094E+03  0.11888439238E+03  0.10566000000E+00 0.  1.
        994    1    1    2    0    0  0.42671090101E+01  0.25846095185E+02  0.49988140516E+01  0.17326470211E+03  0.17120000000E+03 0.  0.
        998    1    1    2    0    0 -0.14289504665E+02 -0.21268548027E+01  0.13789389713E+04  0.13790509055E+04  0.10000000000E+02 0.  1.
</event>
<event>
 5    1  0.1666761E-008  0.3846233E+03  0.7957747E-01  0.3431271E+00
         13   -1    0    0    0    0  0.00000000000E+00  0.00000000000E+00  0.14999999963E+04  0.15000000000E+04  0.10566000000E+00 0. -1.
        994   -1    0    0    0    0 -0.00000000000E+00 -0.00000000000E+00  0.11368683772E-12  0.17120000000E+03  0.17120000000E+03 0.  0.
         13    1    1    2    0    0  0.81382876396E+01  0.58862149543E+01  0.27315603681E+02  0.29103824847E+02  0.10566000000E+00 0. -1.
        994    1    1    2    0    0 -0.66580920047E+01 -0.30433565258E+01  0.19937533212E+01  0.17136804621E+03  0.17120000000E+03 0.  0.
        998    1    1    2    0    0 -0.14801956349E+01 -0.28428584286E+01  0.14706906393E+04  0.14707281289E+04  0.10000000000E+02 0. -1.
</event>
<event>
 5    1  0.1666761E-008  0.3804944E+03  0.7957747E-01  0.3449009E+00
         13   -1    0    0    0    0  0.00000000000E+00  0.00000000000E+00  0.14999999963E+04  0.15000000000E+04  0.10566000000E+00 0.  1.
        994   -1    0    0    0    0 -0.00000000000E+00 -0.00000000000E+00  0.11368683772E-12  0.17120000000E+03  0.17120000000E+03 0.  0.
         13    1    1    2    0    0  0.23927137507E+02  0.12268693731E+02  0.10186627288E+03  0.10535548144E+03  0.10566000000E+00 0.  1.
        994    1    1    2    0    0  0.69694330893E+01 -0.74999224755E+01  0.42337121592E+01  0.17155811305E+03  0.17120000000E+03 0.  0.
        998    1    1    2    0    0 -0.30896570596E+02 -0.47687712553E+01  0.13939000112E+04  0.13942864055E+04  0.10000000000E+02 0.  1.
</event>
<event>
 5    1  0.1666761E-008  0.3851320E+03  0.7957747E-01  0.3429113E+00
         13   -1    0    0    0    0  0.00000000000E+00  0.00000000000E+00  0.14999999963E+04  0.15000000000E+04  0.10566000000E+00 0. -1.
        994   -1    0    0    0    0 -0.00000000000E+00 -0.00000000000E+00  0.11368683772E-12  0.17120000000E+03  0.17120000000E+03 0.  0.
         13    1    1    2    0    0 -0.16077160976E+02  0.47957428184E+01  0.87008566626E+02  0.88611376722E+02  0.10566000000E+00 0. -1.
        994    1    1    2    0    0  0.19117920770E+02  0.87165791990E+01  0.30172090222E+01  0.17251091907E+03  0.17120000000E+03 0.  0.
        998    1    1    2    0    0 -0.30407597941E+01 -0.13512322017E+02  0.14099742206E+04  0.14100777042E+04  0.10000000000E+02 0. -1.
</event>
<event>
 5    1  0.1666761E-008  0.3786271E+03  0.7957747E-01  0.3457158E+00
         13   -1    0    0    0    0  0.00000000000E+00  0.00000000000E+00  0.14999999963E+04  0.15000000000E+04  0.10566000000E+00 0.  1.
        994   -1    0    0    0    0 -0.00000000000E+00 -0.00000000000E+00  0.11368683772E-12  0.17120000000E+03  0.17120000000E+03 0.  0.
         13    1    1    2    0    0  0.47435263055E+01  0.96094098130E+01  0.96224960173E+01  0.14402964709E+02  0.10566000000E+00 0.  1.
        994    1    1    2    0    0 -0.81579688194E+01 -0.10158665489E+02  0.53980499038E+01  0.17177988789E+03  0.17120000000E+03 0.  0.
        998    1    1    2    0    0  0.34144425139E+01  0.54925567590E+00  0.14849794504E+04  0.14850171474E+04  0.10000000000E+02 0.  1.
</event>
<event>
 5    1  0.1666761E-008  0.3843471E+03  0.7957747E-01  0.3432446E+00
         13   -1    0    0    0    0  0.00000000000E+00  0.00000000000E+00  0.14999999963E+04  0.15000000000E+04  0.10566000000E+00 0.  1.
        994   -1    0    0    0    0 -0.00000000000E+00 -0.00000000000E+00  0.11368683772E-12  0.17120000000E+03  0.17120000000E+03 0.  0.
         13    1    1    2    0    0 -0.21163226005E+03  0.12220039834E+03  0.12235491943E+04  0.12477154294E+04  0.10566000000E+00 0.  1.
        994    1    1    2    0    0  0.21027176224E+03 -0.12980345258E+03  0.23927508364E+03  0.38422019201E+03  0.17120000000E+03 0.  0.
        998    1    1    2    0    0  0.13604978062E+01  0.76030542397E+01  0.37175718372E+02  0.39264378571E+02  0.10000000000E+02 0.  1.
</event>
<event>
 5    1  0.1666761E-008  0.3759273E+03  0.7957747E-01  0.3469086E+00
         13   -1    0    0    0    0  0.00000000000E+00  0.00000000000E+00  0.14999999963E+04  0.15000000000E+04  0.10566000000E+00 0. -1.
        994   -1    0    0    0    0 -0.00000000000E+00 -0.00000000000E+00  0.11368683772E-12  0.17120000000E+03  0.17120000000E+03 0.  0.
         13    1    1    2    0    0 -0.86431368778E+02  0.12681889876E+02  0.47531675936E+03  0.48327760628E+03  0.10566000000E+00 0. -1.
        994    1    1    2    0    0 -0.18661092185E+02  0.80030199077E+01  0.15581161737E+02  0.17310256292E+03  0.17120000000E+03 0.  0.
        998    1    1    2    0    0  0.10509246096E+03 -0.20684909783E+02  0.10091020752E+04  0.10148198308E+04  0.10000000000E+02 0. -1.
</event>
<event>
 5    1  0.1666761E-008  0.3820444E+03  0.7957747E-01  0.3442305E+00
         13   -1    0    0    0    0  0.00000000000E+00  0.00000000000E+00  0.14999999963E+04  0.15000000000E+04  0.10566000000E+00 0. -1.
        994   -1    0    0    0    0 -0.00000000000E+00 -0.00000000000E+00  0.11368683772E-12  0.17120000000E+03  0.17120000000E+03 0.  0.
         13    1    1    2    0    0 -0.35130169544E+02  0.12282921488E+02  0.19826240193E+03  0.20172503601E+03  0.10566000000E+00 0. -1.
        994    1    1    2    0    0  0.34098312737E+02 -0.95875398168E+01  0.72818466854E+01  0.17497737323E+03  0.17120000000E+03 0.  0.
        998    1    1    2    0    0  0.10318568068E+01 -0.26953816715E+01  0.12944557477E+04  0.12944975908E+04  0.10000000000E+02 0. -1.
</event>
<event>
 5    1  0.1666761E-008  0.3822007E+03  0.7957747E-01  0.3441632E+00
         13   -1    0    0    0    0  0.00000000000E+00  0.00000000000E+00  0.14999999963E+04  0.15000000000E+04  0.10566000000E+00 0. -1.
        994   -1    0    0    0    0 -0.00000000000E+00 -0.00000000000E+00  0.11368683772E-12  0.17120000000E+03  0.17120000000E+03 0.  0.
         13    1    1    2    0    0 -0.19975982957E+02  0.37991000092E+02  0.23946095394E+03  0.24327744575E+03  0.10566000000E+00 0. -1.
        994    1    1    2    0    0  0.24916751112E+02 -0.44278078443E+02  0.11641193467E+02  0.17895907382E+03  0.17120000000E+03 0.  0.
        998    1    1    2    0    0 -0.49407681544E+01  0.62870783512E+01  0.12488978489E+04  0.12489634804E+04  0.10000000000E+02 0. -1.
</event>
<event>
 5    1  0.1666761E-008  0.4209182E+03  0.7957747E-01  0.3290299E+00
         13   -1    0    0    0    0  0.00000000000E+00  0.00000000000E+00  0.14999999963E+04  0.15000000000E+04  0.10566000000E+00 0.  1.
        994   -1    0    0    0    0 -0.00000000000E+00 -0.00000000000E+00  0.11368683772E-12  0.17120000000E+03  0.17120000000E+03 0.  0.
         13    1    1    2    0    0  0.10062800148E+03 -0.36579029812E+02  0.16379760262E+03  0.19568772545E+03  0.10566000000E+00 0.  1.
        994    1    1    2    0    0  0.17741974477E+02  0.52777840860E+02  0.54331337942E+02  0.18804683573E+03  0.17120000000E+03 0.  0.
        998    1    1    2    0    0 -0.11836997595E+03 -0.16198811048E+02  0.12818710557E+04  0.12874654388E+04  0.10000000000E+02 0.  1.
</event>
<event>
 5    1  0.1666761E-008  0.3831878E+03  0.7957747E-01  0.3437395E+00
         13   -1    0    0    0    0  0.00000000000E+00  0.00000000000E+00  0.14999999963E+04  0.15000000000E+04  0.10566000000E+00 0. -1.
        994   -1    0    0    0    0 -0.00000000000E+00 -0.00000000000E+00  0.11368683772E-12  0.17120000000E+03  0.17120000000E+03 0.  0.
         13    1    1    2    0    0 -0.27055967222E+02 -0.10326551033E+02  0.14711223486E+03  0.14993559893E+03  0.10566000000E+00 0. -1.
        994    1    1    2    0    0  0.29625986085E+02  0.12457184426E+02  0.59569167911E+01  0.17429229860E+03  0.17120000000E+03 0.  0.
        998    1    1    2    0    0 -0.25700188632E+01 -0.21306333931E+01  0.13469308446E+04  0.13469721025E+04  0.10000000000E+02 0. -1.
</event>
<event>
 5    1  0.1666761E-008  0.4273156E+03  0.7957747E-01  0.3267904E+00
         13   -1    0    0    0    0  0.00000000000E+00  0.00000000000E+00  0.14999999963E+04  0.15000000000E+04  0.10566000000E+00 0. -1.
        994   -1    0    0    0    0 -0.00000000000E+00 -0.00000000000E+00  0.11368683772E-12  0.17120000000E+03  0.17120000000E+03 0.  0.
         13    1    1    2    0    0  0.78722616991E+02 -0.71201297549E+02  0.10371951523E+03  0.14840695470E+03  0.10566000000E+00 0. -1.
        994    1    1    2    0    0 -0.83082569908E+02  0.66872507989E+02  0.97628359028E+02  0.22408788953E+03  0.17120000000E+03 0.  0.
        998    1    1    2    0    0  0.43599529177E+01  0.43287895600E+01  0.12986521220E+04  0.12987051558E+04  0.10000000000E+02 0. -1.
</event>
<event>
 5    1  0.1666761E-008  0.3854308E+03  0.7957747E-01  0.3427847E+00
         13   -1    0    0    0    0  0.00000000000E+00  0.00000000000E+00  0.14999999963E+04  0.15000000000E+04  0.10566000000E+00 0.  1.
        994   -1    0    0    0    0 -0.00000000000E+00 -0.00000000000E+00  0.11368683772E-12  0.17120000000E+03  0.17120000000E+03 0.  0.
         13    1    1    2    0    0 -0.60278213174E+01 -0.14954352548E+02  0.88659264798E+02  0.90113504474E+02  0.10566000000E+00 0.  1.
        994    1    1    2    0    0  0.89851195740E+01  0.12959997716E+02  0.22335325519E+01  0.17193929912E+03  0.17120000000E+03 0.  0.
        998    1    1    2    0    0 -0.29572982567E+01  0.19943548321E+01  0.14091071989E+04  0.14091471964E+04  0.10000000000E+02 0.  1.
</event>
<event>
 5    1  0.1666761E-008  0.3815791E+03  0.7957747E-01  0.3444312E+00
         13   -1    0    0    0    0  0.00000000000E+00  0.00000000000E+00  0.14999999963E+04  0.15000000000E+04  0.10566000000E+00 0.  1.
        994   -1    0    0    0    0 -0.00000000000E+00 -0.00000000000E+00  0.11368683772E-12  0.17120000000E+03  0.17120000000E+03 0.  0.
         13    1    1    2    0    0  0.11791310511E+03 -0.13354966248E+03  0.10478758512E+04  0.10629124251E+04  0.10566000000E+00 0.  1.
        994    1    1    2    0    0 -0.11105524638E+03  0.14297277038E+03  0.12132961257E+03  0.27713678158E+03  0.17120000000E+03 0.  0.
        998    1    1    2    0    0 -0.68578587306E+01 -0.94231079018E+01  0.33079453247E+03  0.33115079330E+03  0.10000000000E+02 0.  0.
</event>
<event>
 5    1  0.1666761E-008  0.3830559E+03  0.7957747E-01  0.3437959E+00
         13   -1    0    0    0    0  0.00000000000E+00  0.00000000000E+00  0.14999999963E+04  0.15000000000E+04  0.10566000000E+00 0.  1.
        994   -1    0    0    0    0 -0.00000000000E+00 -0.00000000000E+00  0.11368683772E-12  0.17120000000E+03  0.17120000000E+03 0.  0.
         13    1    1    2    0    0  0.10666544783E+02 -0.18951366168E+02  0.86011588736E+02  0.88718284576E+02  0.10566000000E+00 0.  1.
        994    1    1    2    0    0 -0.14824026638E+02  0.16865517335E+02  0.42688551813E+01  0.17271902201E+03  0.17120000000E+03 0.  0.
        998    1    1    2    0    0  0.41574818555E+01  0.20858488329E+01  0.14097195524E+04  0.14097626934E+04  0.10000000000E+02 0.  1.
</event>
<event>
 5    1  0.1666761E-008  0.3772947E+03  0.7957747E-01  0.3463023E+00
         13   -1    0    0    0    0  0.00000000000E+00  0.00000000000E+00  0.14999999963E+04  0.15000000000E+04  0.10566000000E+00 0. -1.
        994   -1    0    0    0    0 -0.00000000000E+00 -0.00000000000E+00  0.11368683772E-12  0.17120000000E+03  0.17120000000E+03 0.  0.
         13    1    1    2    0    0  0.75106091268E+01  0.39805422086E+02  0.15549203892E+03  0.16068187891E+03  0.10566000000E+00 0. -1.
        994    1    1    2    0    0  0.95302044625E+01 -0.16381040686E+02  0.67174792890E+01  0.17237670324E+03  0.17120000000E+03 0.  0.
        998    1    1    2    0    0 -0.17040813589E+02 -0.23424381400E+02  0.13377904781E+04  0.13381414179E+04  0.10000000000E+02 0. -1.
</event>
<event>
 5    1  0.1666761E-008  0.3823550E+03  0.7957747E-01  0.3440968E+00
         13   -1    0    0    0    0  0.00000000000E+00  0.00000000000E+00  0.14999999963E+04  0.15000000000E+04  0.10566000000E+00 0.  1.
        994   -1    0    0    0    0 -0.00000000000E+00 -0.00000000000E+00  0.11368683772E-12  0.17120000000E+03  0.17120000000E+03 0.  0.
         13    1    1    2    0    0  0.10638819413E+02 -0.64647280845E+01  0.24424118519E+02  0.27413973027E+02  0.10566000000E+00 0.  1.
        994    1    1    2    0    0 -0.16273090084E+02  0.79830775560E+01  0.40396419809E+01  0.17220424413E+03  0.17120000000E+03 0.  0.
        998    1    1    2    0    0  0.56342706712E+01 -0.15183494715E+01  0.14715362358E+04  0.14715817828E+04  0.10000000000E+02 0.  1.
</event>
<event>
 5    1  0.1666761E-008  0.3758671E+03  0.7957747E-01  0.3469354E+00
         13   -1    0    0    0    0  0.00000000000E+00  0.00000000000E+00  0.14999999963E+04  0.15000000000E+04  0.10566000000E+00 0.  1.
        994   -1    0    0    0    0 -0.00000000000E+00 -0.00000000000E+00  0.11368683772E-12  0.17120000000E+03  0.17120000000E+03 0.  0.
         13    1    1    2    0    0  0.15207390793E+02  0.32555994619E+01  0.16998006943E+02  0.23039250567E+02  0.10566000000E+00 0.  1.
        994    1    1    2    0    0 -0.38040090016E+01  0.13560916775E+01  0.62894095115E+01  0.17136308278E+03  0.17120000000E+03 0.  0.
        998    1    1    2    0    0 -0.11403381792E+02 -0.46116911394E+01  0.14767125798E+04  0.14767976666E+04  0.10000000000E+02 0.  1.
</event>
<event>
 5    1  0.1666761E-008  0.3856339E+03  0.7957747E-01  0.3426988E+00
         13   -1    0    0    0    0  0.00000000000E+00  0.00000000000E+00  0.14999999963E+04  0.15000000000E+04  0.10566000000E+00 0. -1.
        994   -1    0    0    0    0 -0.00000000000E+00 -0.00000000000E+00  0.11368683772E-12  0.17120000000E+03  0.17120000000E+03 0.  0.
         13    1    1    2    0    0 -0.28627529191E+01  0.10363841900E+02  0.46839879919E+02  0.48058194806E+02  0.10566000000E+00 0. -1.
        994    1    1    2    0    0  0.17057149394E+01  0.29976580488E+01  0.13547914772E+01  0.17124009717E+03  0.17120000000E+03 0.  0.
        998    1    1    2    0    0  0.11570379797E+01 -0.13361499949E+02  0.14518053249E+04  0.14519017080E+04  0.10000000000E+02 0. -1.
</event>
<event>
 5    1  0.1666761E-008  0.3687923E+03  0.7957747E-01  0.3501460E+00
         13   -1    0    0    0    0  0.00000000000E+00  0.00000000000E+00  0.14999999963E+04  0.15000000000E+04  0.10566000000E+00 0. -1.
        994   -1    0    0    0    0 -0.00000000000E+00 -0.00000000000E+00  0.11368683772E-12  0.17120000000E+03  0.17120000000E+03 0.  0.
         13    1    1    2    0    0 -0.36292361226E+02  0.11007259295E+02  0.63332056398E+02  0.73819074582E+02  0.10566000000E+00 0. -1.
        994    1    1    2    0    0  0.49239630076E+02 -0.17892698134E+02  0.19492862679E+02  0.18009470151E+03  0.17120000000E+03 0.  0.
        998    1    1    2    0    0 -0.12947268850E+02  0.68854388392E+01  0.14171750772E+04  0.14172862239E+04  0.10000000000E+02 0. -1.
</event>
<event>
 5    1  0.1666761E-008  0.3838694E+03  0.7957747E-01  0.3434481E+00
         13   -1    0    0    0    0  0.00000000000E+00  0.00000000000E+00  0.14999999963E+04  0.15000000000E+04  0.10566000000E+00 0. -1.
        994   -1    0    0    0    0 -0.00000000000E+00 -0.00000000000E+00  0.11368683772E-12  0.17120000000E+03  0.17120000000E+03 0.  0.
         13    1    1    2    0    0 -0.20713488123E+01  0.22025538621E+02  0.10274588030E+03  0.10510062759E+03  0.10566000000E+00 0. -1.
        994    1    1    2    0    0  0.12047441355E+01 -0.25237251290E+02  0.43024414953E+01  0.17310783132E+03  0.17120000000E+03 0.  0.
        998    1    1    2    0    0  0.86660467684E+00  0.32117126699E+01  0.13929516745E+04  0.13929915411E+04  0.10000000000E+02 0. -1.
</event>
<event>
 5    1  0.1666761E-008  0.3767371E+03  0.7957747E-01  0.3465490E+00
         13   -1    0    0    0    0  0.00000000000E+00  0.00000000000E+00  0.14999999963E+04  0.15000000000E+04  0.10566000000E+00 0. -1.
        994   -1    0    0    0    0 -0.00000000000E+00 -0.00000000000E+00  0.11368683772E-12  0.17120000000E+03  0.17120000000E+03 0.  0.
         13    1    1    2    0    0 -0.85308806136E+02  0.38471359188E+02  0.48827999752E+03  0.49716697902E+03  0.10566000000E+00 0. -1.
        994    1    1    2    0    0  0.87674909177E+02 -0.38792111282E+02  0.37511832516E+02  0.19977060639E+03  0.17120000000E+03 0.  0.
        998    1    1    2    0    0 -0.23661030418E+01  0.32075209388E+00  0.97420816624E+03  0.97426241460E+03  0.10000000000E+02 0. -1.
</event>
<event>
 5    1  0.1666761E-008  0.3714575E+03  0.7957747E-01  0.3489219E+00
         13   -1    0    0    0    0  0.00000000000E+00  0.00000000000E+00  0.14999999963E+04  0.15000000000E+04  0.10566000000E+00 0.  1.
        994   -1    0    0    0    0 -0.00000000000E+00 -0.00000000000E+00  0.11368683772E-12  0.17120000000E+03  0.17120000000E+03 0.  0.
         13    1    1    2    0    0 -0.53551123500E+02 -0.16345305701E+02  0.21835946288E+03  0.22542350818E+03  0.10566000000E+00 0.  1.
        994    1    1    2    0    0  0.39239113845E+01 -0.96833266247E+01  0.88848644223E+01  0.17174849260E+03  0.17120000000E+03 0.  0.
        998    1    1    2    0    0  0.49627212116E+02  0.26028632326E+02  0.12727556690E+04  0.12740279992E+04  0.10000000000E+02 0.  1.
</event>
<event>
 5    1  0.1666761E-008  0.3685771E+03  0.7957747E-01  0.3502456E+00
         13   -1    0    0    0    0  0.00000000000E+00  0.00000000000E+00  0.14999999963E+04  0.15000000000E+04  0.10566000000E+00 0. -1.
        994   -1    0    0    0    0 -0.00000000000E+00 -0.00000000000E+00  0.11368683772E-12  0.17120000000E+03  0.17120000000E+03 0.  0.
         13    1    1    2    0    0 -0.29731884436E+02  0.87930619722E+02  0.30031126277E+03  0.31432887959E+03  0.10566000000E+00 0. -1.
        994    1    1    2    0    0  0.33836855502E+02 -0.10516701224E+03  0.53709290472E+02  0.21071108451E+03  0.17120000000E+03 0.  0.
        998    1    1    2    0    0 -0.41049710655E+01  0.17236392516E+02  0.11459794430E+04  0.11461600359E+04  0.10000000000E+02 0. -1.
</event>
<event>
 5    1  0.1666761E-008  0.3816626E+03  0.7957747E-01  0.3443951E+00
         13   -1    0    0    0    0  0.00000000000E+00  0.00000000000E+00  0.14999999963E+04  0.15000000000E+04  0.10566000000E+00 0. -1.
        994   -1    0    0    0    0 -0.00000000000E+00 -0.00000000000E+00  0.11368683772E-12  0.17120000000E+03  0.17120000000E+03 0.  0.
         13    1    1    2    0    0  0.33276281298E+02  0.50272471050E+01  0.16150782414E+03  0.16497688485E+03  0.10566000000E+00 0. -1.
        994    1    1    2    0    0 -0.27021964436E+02 -0.47513799739E+01  0.58029083211E+01  0.17348162992E+03  0.17120000000E+03 0.  0.
        998    1    1    2    0    0 -0.62543168614E+01 -0.27586713114E+00  0.13326892638E+04  0.13327414852E+04  0.10000000000E+02 0. -1.
</event>
<event>
 5    1  0.1666761E-008  0.3862306E+03  0.7957747E-01  0.3424470E+00
         13   -1    0    0    0    0  0.00000000000E+00  0.00000000000E+00  0.14999999963E+04  0.15000000000E+04  0.10566000000E+00 0.  1.
        994   -1    0    0    0    0 -0.00000000000E+00 -0.00000000000E+00  0.11368683772E-12  0.17120000000E+03  0.17120000000E+03 0.  0.
         13    1    1    2    0    0  0.21363705990E+01  0.11108537072E+02  0.65708851947E+02  0.66675543219E+02  0.10566000000E+00 0.  1.
        994    1    1    2    0    0  0.99382289320E+00 -0.39440125962E+01  0.10745778746E+01  0.17125167922E+03  0.17120000000E+03 0.  0.
        998    1    1    2    0    0 -0.31301934922E+01 -0.71645244757E+01  0.14332165665E+04  0.14332727776E+04  0.10000000000E+02 0.  1.
</event>
<event>
 5    1  0.1666761E-008  0.3794609E+03  0.7957747E-01  0.3453509E+00
         13   -1    0    0    0    0  0.00000000000E+00  0.00000000000E+00  0.14999999963E+04  0.15000000000E+04  0.10566000000E+00 0. -1.
        994   -1    0    0    0    0 -0.00000000000E+00 -0.00000000000E+00  0.11368683772E-12  0.17120000000E+03  0.17120000000E+03 0.  0.
         13    1    1    2    0    0  0.20794526130E+02  0.24274910185E+02  0.10478041451E+03  0.10954738706E+03  0.10566000000E+00 0. -1.
        994    1    1    2    0    0  0.16572012581E+01 -0.50788330013E+02  0.13102018053E+02  0.17906228988E+03  0.17120000000E+03 0.  0.
        998    1    1    2    0    0 -0.22451727388E+02  0.26513419829E+02  0.13821175637E+04  0.13825903231E+04  0.10000000000E+02 0. -1.
</event>
<event>
 5    1  0.1666761E-008  0.3723068E+03  0.7957747E-01  0.3485356E+00
         13   -1    0    0    0    0  0.00000000000E+00  0.00000000000E+00  0.14999999963E+04  0.15000000000E+04  0.10566000000E+00 0. -1.
        994   -1    0    0    0    0 -0.00000000000E+00 -0.00000000000E+00  0.11368683772E-12  0.17120000000E+03  0.17120000000E+03 0.  0.
         13    1    1    2    0    0 -0.16245795007E+03 -0.25892726075E+02  0.75596771606E+03  0.77366027279E+03  0.10566000000E+00 0. -1.
        994    1    1    2    0    0  0.16426254914E+03  0.70988133493E+01  0.10737049992E+03  0.26051956252E+03  0.17120000000E+03 0.  0.
        998    1    1    2    0    0 -0.18045990681E+01  0.18793912726E+02  0.63666178030E+03  0.63702016469E+03  0.10000000000E+02 0. -1.
</event>
<event>
 5    1  0.1666761E-008  0.3847468E+03  0.7957747E-01  0.3430747E+00
         13   -1    0    0    0    0  0.00000000000E+00  0.00000000000E+00  0.14999999963E+04  0.15000000000E+04  0.10566000000E+00 0. -1.
        994   -1    0    0    0    0 -0.00000000000E+00 -0.00000000000E+00  0.11368683772E-12  0.17120000000E+03  0.17120000000E+03 0.  0.
         13    1    1    2    0    0  0.14695502794E+02 -0.10696783107E+01  0.65882044763E+02  0.67509680789E+02  0.10566000000E+00 0. -1.
        994    1    1    2    0    0  0.10820503999E+01  0.36258456936E+01  0.18030166412E+01  0.17125130207E+03  0.17120000000E+03 0.  0.
        998    1    1    2    0    0 -0.15777553194E+02 -0.25561673829E+01  0.14323149349E+04  0.14324390171E+04  0.10000000000E+02 0. -1.
</event>
<event>
 5    1  0.1666761E-008  0.3775670E+03  0.7957747E-01  0.3461821E+00
         13   -1    0    0    0    0  0.00000000000E+00  0.00000000000E+00  0.14999999963E+04  0.15000000000E+04  0.10566000000E+00 0. -1.
        994   -1    0    0    0    0 -0.00000000000E+00 -0.00000000000E+00  0.11368683772E-12  0.17120000000E+03  0.17120000000E+03 0.  0.
         13    1    1    2    0    0  0.13012114200E+01  0.47656710538E+02  0.20628717034E+03  0.21172449793E+03  0.10566000000E+00 0. -1.
        994    1    1    2    0    0 -0.12458850721E+02 -0.29958956547E+02  0.89223816856E+01  0.17447581762E+03  0.17120000000E+03 0.  0.
        998    1    1    2    0    0  0.11157639301E+02 -0.17697753992E+02  0.12847904442E+04  0.12849996845E+04  0.10000000000E+02 0. -1.
</event>
<event>
 5    1  0.1666761E-008  0.3976971E+03  0.7957747E-01  0.3377545E+00
         13   -1    0    0    0    0  0.00000000000E+00  0.00000000000E+00  0.14999999963E+04  0.15000000000E+04  0.10566000000E+00 0.  1.
        994   -1    0    0    0    0 -0.00000000000E+00 -0.00000000000E+00  0.11368683772E-12  0.17120000000E+03  0.17120000000E+03 0.  0.
         13    1    1    2    0    0  0.96148448441E+01 -0.30930138669E+02  0.10812995448E+02  0.34147485325E+02  0.10566000000E+00 0.  1.
        994    1    1    2    0    0 -0.25577830586E+02 -0.46098567470E+02  0.37267175360E+02  0.18296881073E+03  0.17120000000E+03 0.  0.
        998    1    1    2    0    0  0.15962985742E+02  0.77028706139E+02  0.14519198255E+04  0.14540837039E+04  0.10000000000E+02 0.  1.
</event>
<event>
 5    1  0.1666761E-008  0.3825541E+03  0.7957747E-01  0.3440112E+00
         13   -1    0    0    0    0  0.00000000000E+00  0.00000000000E+00  0.14999999963E+04  0.15000000000E+04  0.10566000000E+00 0.  1.
        994   -1    0    0    0    0 -0.00000000000E+00 -0.00000000000E+00  0.11368683772E-12  0.17120000000E+03  0.17120000000E+03 0.  0.
         13    1    1    2    0    0  0.19765143952E+02 -0.12815621091E+02  0.12849895127E+03  0.13064031805E+03  0.10566000000E+00 0.  1.
        994    1    1    2    0    0  0.22424738378E+02 -0.11138554351E+02  0.49304105951E+01  0.17309155159E+03  0.17120000000E+03 0.  0.
        998    1    1    2    0    0 -0.42189882330E+02  0.23954175442E+02  0.13665706344E+04  0.13674681304E+04  0.10000000000E+02 0.  1.
</event>
<event>
 5    1  0.1666761E-008  0.3854416E+03  0.7957747E-01  0.3427801E+00
         13   -1    0    0    0    0  0.00000000000E+00  0.00000000000E+00  0.14999999963E+04  0.15000000000E+04  0.10566000000E+00 0.  1.
        994   -1    0    0    0    0 -0.00000000000E+00 -0.00000000000E+00  0.11368683772E-12  0.17120000000E+03  0.17120000000E+03 0.  0.
         13    1    1    2    0    0 -0.13191830732E+02  0.10333065794E+01  0.61966258568E+02  0.63363400205E+02  0.10566000000E+00 0.  1.
        994    1    1    2    0    0  0.10218860686E+02  0.62605112357E+01  0.18828144541E+01  0.17162926354E+03  0.17120000000E+03 0.  0.
        998    1    1    2    0    0  0.29729700464E+01 -0.72938178151E+01  0.14361509233E+04  0.14362073363E+04  0.10000000000E+02 0.  1.
</event>
<event>
 5    1  0.1666761E-008  0.3862409E+03  0.7957747E-01  0.3424426E+00
         13   -1    0    0    0    0  0.00000000000E+00  0.00000000000E+00  0.14999999963E+04  0.15000000000E+04  0.10566000000E+00 0.  1.
        994   -1    0    0    0    0 -0.00000000000E+00 -0.00000000000E+00  0.11368683772E-12  0.17120000000E+03  0.17120000000E+03 0.  0.
         13    1    1    2    0    0 -0.71865869260E+01 -0.86856444868E+01  0.60523019456E+02  0.61564068253E+02  0.10566000000E+00 0.  1.
        994    1    1    2    0    0 -0.11021464094E+02  0.28854343798E+02  0.41464874548E+01  0.17401344541E+03  0.17120000000E+03 0.  0.
        998    1    1    2    0    0  0.18208051020E+02 -0.20168699311E+02  0.14353304894E+04  0.14356224863E+04  0.10000000000E+02 0.  1.
</event>
<event>
 5    1  0.1666761E-008  0.3839208E+03  0.7957747E-01  0.3434262E+00
         13   -1    0    0    0    0  0.00000000000E+00  0.00000000000E+00  0.14999999963E+04  0.15000000000E+04  0.10566000000E+00 0. -1.
        994   -1    0    0    0    0 -0.00000000000E+00 -0.00000000000E+00  0.11368683772E-12  0.17120000000E+03  0.17120000000E+03 0.  0.
         13    1    1    2    0    0 -0.12000290593E+02  0.40392291061E+01  0.36883348105E+02  0.38996344413E+02  0.10566000000E+00 0. -1.
        994    1    1    2    0    0  0.54106092706E+01 -0.16587616458E+01  0.22726044828E+01  0.17130858389E+03  0.17120000000E+03 0.  0.
        998    1    1    2    0    0  0.65896813227E+01 -0.23804674603E+01  0.14608440437E+04  0.14608950717E+04  0.10000000000E+02 0. -1.
</event>
<event>
 5    1  0.1666761E-008  0.3791807E+03  0.7957747E-01  0.3454734E+00
         13   -1    0    0    0    0  0.00000000000E+00  0.00000000000E+00  0.14999999963E+04  0.15000000000E+04  0.10566000000E+00 0. -1.
        994   -1    0    0    0    0 -0.00000000000E+00 -0.00000000000E+00  0.11368683772E-12  0.17120000000E+03  0.17120000000E+03 0.  0.
         13    1    1    2    0    0  0.18112321013E+02 -0.21015161617E+02  0.82369660787E+02  0.86916427518E+02  0.10566000000E+00 0. -1.
        994    1    1    2    0    0 -0.12930714885E+02  0.13818895161E+02  0.57487997077E+01  0.17233877668E+03  0.17120000000E+03 0.  0.
        998    1    1    2    0    0 -0.51816061287E+01  0.71962664564E+01  0.14118815358E+04  0.14119447958E+04  0.10000000000E+02 0. -1.
</event>
<event>
 5    1  0.1666761E-008  0.3862141E+03  0.7957747E-01  0.3424539E+00
         13   -1    0    0    0    0  0.00000000000E+00  0.00000000000E+00  0.14999999963E+04  0.15000000000E+04  0.10566000000E+00 0. -1.
        994   -1    0    0    0    0 -0.00000000000E+00 -0.00000000000E+00  0.11368683772E-12  0.17120000000E+03  0.17120000000E+03 0.  0.
         13    1    1    2    0    0 -0.57089540327E+01 -0.93410384317E+01  0.58945015548E+02  0.59953091472E+02  0.10566000000E+00 0. -1.
        994    1    1    2    0    0  0.24647803208E+01  0.76977872890E+01  0.12425925331E+01  0.17139520153E+03  0.17120000000E+03 0.  0.
        998    1    1    2    0    0  0.32441737119E+01  0.16432511427E+01  0.14398123882E+04  0.14398517070E+04  0.10000000000E+02 0. -1.
</event>
<event>
 5    1  0.1666761E-008  0.3688305E+03  0.7957747E-01  0.3501283E+00
         13   -1    0    0    0    0  0.00000000000E+00  0.00000000000E+00  0.14999999963E+04  0.15000000000E+04  0.10566000000E+00 0.  1.
        994   -1    0    0    0    0 -0.00000000000E+00 -0.00000000000E+00  0.11368683772E-12  0.17120000000E+03  0.17120000000E+03 0.  0.
         13    1    1    2    0    0 -0.43180872513E+00  0.16752208352E+02  0.98194316000E+01  0.19423062180E+02  0.10566000000E+00 0.  1.
        994    1    1    2    0    0  0.18235474531E+02  0.26746774883E+02  0.13979065416E+02  0.17479352610E+03  0.17120000000E+03 0.  0.
        998    1    1    2    0    0 -0.17803665805E+02 -0.43498983236E+02  0.14762014993E+04  0.14769834117E+04  0.10000000000E+02 0.  1.
</event>
<event>
 5    1  0.1666761E-008  0.3794125E+03  0.7957747E-01  0.3453721E+00
         13   -1    0    0    0    0  0.00000000000E+00  0.00000000000E+00  0.14999999963E+04  0.15000000000E+04  0.10566000000E+00 0.  1.
        994   -1    0    0    0    0 -0.00000000000E+00 -0.00000000000E+00  0.11368683772E-12  0.17120000000E+03  0.17120000000E+03 0.  0.
         13    1    1    2    0    0  0.20853280637E+02  0.14816647638E+02  0.69529747864E+02  0.74086364215E+02  0.10566000000E+00 0.  1.
        994    1    1    2    0    0 -0.18582319483E+02 -0.17449544152E+02  0.66094663929E+01  0.17321349322E+03  0.17120000000E+03 0.  0.
        998    1    1    2    0    0 -0.22709611534E+01  0.26328965140E+01  0.14238607820E+04  0.14239001426E+04  0.10000000000E+02 0.  1.
</event>
<event>
 5    1  0.1666761E-008  0.3768963E+03  0.7957747E-01  0.3464785E+00
         13   -1    0    0    0    0  0.00000000000E+00  0.00000000000E+00  0.14999999963E+04  0.15000000000E+04  0.10566000000E+00 0.  1.
        994   -1    0    0    0    0 -0.00000000000E+00 -0.00000000000E+00  0.11368683772E-12  0.17120000000E+03  0.17120000000E+03 0.  0.
         13    1    1    2    0    0 -0.17006574509E+02 -0.11778387639E+02  0.35800751480E+02  0.41348022473E+02  0.10566000000E+00 0.  1.
        994    1    1    2    0    0  0.59540652667E+01  0.56478940377E+01  0.59356570201E+01  0.17149933418E+03  0.17120000000E+03 0.  0.
        998    1    1    2    0    0  0.11052509242E+02  0.61304936010E+01  0.14582635878E+04  0.14583526433E+04  0.10000000000E+02 0.  1.
</event>
<event>
 5    1  0.1666761E-008  0.3852287E+03  0.7957747E-01  0.3428703E+00
         13   -1    0    0    0    0  0.00000000000E+00  0.00000000000E+00  0.14999999963E+04  0.15000000000E+04  0.10566000000E+00 0.  1.
        994   -1    0    0    0    0 -0.00000000000E+00 -0.00000000000E+00  0.11368683772E-12  0.17120000000E+03  0.17120000000E+03 0.  0.
         13    1    1    2    0    0 -0.79374422491E+01  0.12227460339E+02  0.78222099237E+02  0.79568974789E+02  0.10566000000E+00 0.  1.
        994    1    1    2    0    0 -0.15065321839E+02 -0.40640593789E+01  0.23171774157E+01  0.17192524484E+03  0.17120000000E+03 0.  0.
        998    1    1    2    0    0  0.23002764088E+02 -0.81634009599E+01  0.14194607196E+04  0.14197057804E+04  0.10000000000E+02 0.  1.
</event>
<event>
 5    1  0.1666761E-008  0.3822336E+03  0.7957747E-01  0.3441490E+00
         13   -1    0    0    0    0  0.00000000000E+00  0.00000000000E+00  0.14999999963E+04  0.15000000000E+04  0.10566000000E+00 0. -1.
        994   -1    0    0    0    0 -0.00000000000E+00 -0.00000000000E+00  0.11368683772E-12  0.17120000000E+03  0.17120000000E+03 0.  0.
         13    1    1    2    0    0  0.12515926195E+02  0.62939536871E+00  0.24766551762E+02  0.27756761290E+02  0.10566000000E+00 0. -1.
        994    1    1    2    0    0 -0.11022787895E+02 -0.78613658138E+00  0.34152209860E+01  0.17159027827E+03  0.17120000000E+03 0.  0.
        998    1    1    2    0    0 -0.14931383003E+01  0.15674121267E+00  0.14718182235E+04  0.14718529604E+04  0.10000000000E+02 0. -1.
</event>
<event>
 5    1  0.1666761E-008  0.3843589E+03  0.7957747E-01  0.3432396E+00
         13   -1    0    0    0    0  0.00000000000E+00  0.00000000000E+00  0.14999999963E+04  0.15000000000E+04  0.10566000000E+00 0. -1.
        994   -1    0    0    0    0 -0.00000000000E+00 -0.00000000000E+00  0.11368683772E-12  0.17120000000E+03  0.17120000000E+03 0.  0.
         13    1    1    2    0    0  0.27125274656E+01 -0.12157473095E+02  0.39074878727E+02  0.41012428225E+02  0.10566000000E+00 0. -1.
        994    1    1    2    0    0 -0.51521653073E+01  0.93981231460E+01  0.23274191143E+01  0.17155094405E+03  0.17120000000E+03 0.  0.
        998    1    1    2    0    0  0.24396378417E+01  0.27593499485E+01  0.14585976984E+04  0.14586366277E+04  0.10000000000E+02 0. -1.
</event>
<event>
 5    1  0.1666761E-008  0.3830445E+03  0.7957747E-01  0.3438008E+00
         13   -1    0    0    0    0  0.00000000000E+00  0.00000000000E+00  0.14999999963E+04  0.15000000000E+04  0.10566000000E+00 0. -1.
        994   -1    0    0    0    0 -0.00000000000E+00 -0.00000000000E+00  0.11368683772E-12  0.17120000000E+03  0.17120000000E+03 0.  0.
         13    1    1    2    0    0  0.46953516360E+01  0.11697297450E+02  0.29518292134E+02  0.32096944234E+02  0.10566000000E+00 0. -1.
        994    1    1    2    0    0 -0.74600392186E+01 -0.73783644660E+01  0.29685964156E+01  0.17154691782E+03  0.17120000000E+03 0.  0.
        998    1    1    2    0    0  0.27646875826E+01 -0.43189329840E+01  0.14675131077E+04  0.14675561380E+04  0.10000000000E+02 0. -1.
</event>
<event>
 5    1  0.1666761E-008  0.3841021E+03  0.7957747E-01  0.3433489E+00
         13   -1    0    0    0    0  0.00000000000E+00  0.00000000000E+00  0.14999999963E+04  0.15000000000E+04  0.10566000000E+00 0.  1.
        994   -1    0    0    0    0 -0.00000000000E+00 -0.00000000000E+00  0.11368683772E-12  0.17120000000E+03  0.17120000000E+03 0.  0.
         13    1    1    2    0    0  0.18610378288E+02 -0.76252074165E+01  0.94612619947E+02  0.96726671531E+02  0.10566000000E+00 0.  1.
        994    1    1    2    0    0 -0.16468519763E+02  0.30441836404E+01  0.30022215372E+01  0.17204340305E+03  0.17120000000E+03 0.  0.
        998    1    1    2    0    0 -0.21418585253E+01  0.45810237760E+01  0.14023851548E+04  0.14024299254E+04  0.10000000000E+02 0. -1.
</event>
<event>
 5    1  0.1666761E-008  0.3827980E+03  0.7957747E-01  0.3439065E+00
         13   -1    0    0    0    0  0.00000000000E+00  0.00000000000E+00  0.14999999963E+04  0.15000000000E+04  0.10566000000E+00 0.  1.
        994   -1    0    0    0    0 -0.00000000000E+00 -0.00000000000E+00  0.11368683772E-12  0.17120000000E+03  0.17120000000E+03 0.  0.
         13    1    1    2    0    0  0.66859487723E+01  0.18849937590E+02  0.73077138504E+02  0.75764776738E+02  0.10566000000E+00 0.  1.
        994    1    1    2    0    0 -0.40113692002E+01 -0.10596557688E+02  0.31526742330E+01  0.17160348910E+03  0.17120000000E+03 0.  0.
        998    1    1    2    0    0 -0.26745795722E+01 -0.82533799018E+01  0.14237701835E+04  0.14238317342E+04  0.10000000000E+02 0.  1.
</event>
<event>
 5    1  0.1666761E-008  0.3851337E+03  0.7957747E-01  0.3429106E+00
         13   -1    0    0    0    0  0.00000000000E+00  0.00000000000E+00  0.14999999963E+04  0.15000000000E+04  0.10566000000E+00 0.  1.
        994   -1    0    0    0    0 -0.00000000000E+00 -0.00000000000E+00  0.11368683772E-12  0.17120000000E+03  0.17120000000E+03 0.  0.
         13    1    1    2    0    0 -0.96500620412E+01 -0.11686952894E+02  0.72038983963E+02  0.73616132334E+02  0.10566000000E+00 0.  1.
        994    1    1    2    0    0  0.14258453733E+02  0.52201645193E+01  0.23220426115E+01  0.17188771190E+03  0.17120000000E+03 0.  0.
        998    1    1    2    0    0 -0.46083916919E+01  0.64667883749E+01  0.14256389697E+04  0.14256961558E+04  0.10000000000E+02 0.  1.
</event>
<event>
 5    1  0.1666761E-008  0.3819000E+03  0.7957747E-01  0.3442927E+00
         13   -1    0    0    0    0  0.00000000000E+00  0.00000000000E+00  0.14999999963E+04  0.15000000000E+04  0.10566000000E+00 0. -1.
        994   -1    0    0    0    0 -0.00000000000E+00 -0.00000000000E+00  0.11368683772E-12  0.17120000000E+03  0.17120000000E+03 0.  0.
         13    1    1    2    0    0  0.16009090289E+02 -0.15732257102E+02  0.73852055281E+02  0.77187642267E+02  0.10566000000E+00 0. -1.
        994    1    1    2    0    0 -0.39222466145E+02 -0.22306087678E+01  0.83213271268E+01  0.17584670014E+03  0.17120000000E+03 0.  0.
        998    1    1    2    0    0  0.23213375855E+02  0.17962865870E+02  0.14178266139E+04  0.14181656576E+04  0.10000000000E+02 0. -1.
</event>
<event>
 5    1  0.1666761E-008  0.3820627E+03  0.7957747E-01  0.3442226E+00
         13   -1    0    0    0    0  0.00000000000E+00  0.00000000000E+00  0.14999999963E+04  0.15000000000E+04  0.10566000000E+00 0.  1.
        994   -1    0    0    0    0 -0.00000000000E+00 -0.00000000000E+00  0.11368683772E-12  0.17120000000E+03  0.17120000000E+03 0.  0.
         13    1    1    2    0    0  0.31137762142E+01  0.16707254799E+02  0.47225806900E+02  0.50190795636E+02  0.10566000000E+00 0.  1.
        994    1    1    2    0    0 -0.14241891084E+02 -0.16978106920E+00  0.37693755286E+01  0.17183279221E+03  0.17120000000E+03 0.  0.
        998    1    1    2    0    0  0.11128114869E+02 -0.16537473730E+02  0.14490048139E+04  0.14491764122E+04  0.10000000000E+02 0.  1.
</event>
<event>
 5    1  0.1666761E-008  0.3838622E+03  0.7957747E-01  0.3434512E+00
         13   -1    0    0    0    0  0.00000000000E+00  0.00000000000E+00  0.14999999963E+04  0.15000000000E+04  0.10566000000E+00 0.  1.
        994   -1    0    0    0    0 -0.00000000000E+00 -0.00000000000E+00  0.11368683772E-12  0.17120000000E+03  0.17120000000E+03 0.  0.
         13    1    1    2    0    0 -0.86787388362E+01  0.14278495551E+02  0.61950550864E+02  0.64164459472E+02  0.10566000000E+00 0.  1.
        994    1    1    2    0    0  0.60343613279E+01 -0.13023657806E+02  0.28764740116E+01  0.17182474584E+03  0.17120000000E+03 0.  0.
        998    1    1    2    0    0  0.26443775083E+01 -0.12548377458E+01  0.14351729714E+04  0.14352107947E+04  0.10000000000E+02 0.  1.
</event>
<event>
 5    1  0.1666761E-008  0.3801514E+03  0.7957747E-01  0.3450500E+00
         13   -1    0    0    0    0  0.00000000000E+00  0.00000000000E+00  0.14999999963E+04  0.15000000000E+04  0.10566000000E+00 0.  1.
        994   -1    0    0    0    0 -0.00000000000E+00 -0.00000000000E+00  0.11368683772E-12  0.17120000000E+03  0.17120000000E+03 0.  0.
         13    1    1    2    0    0 -0.12142236469E+02 -0.40624391112E+00  0.16638496956E+02  0.20602176720E+02  0.10566000000E+00 0.  1.
        994    1    1    2    0    0  0.47055254847E+01 -0.16811421135E+00  0.41308285882E+01  0.17131454689E+03  0.17120000000E+03 0.  0.
        998    1    1    2    0    0  0.74367109844E+01  0.57435812247E+00  0.14792306707E+04  0.14792832764E+04  0.10000000000E+02 0.  1.
</event>
<event>
 5    1  0.1666761E-008  0.3769026E+03  0.7957747E-01  0.3464757E+00
         13   -1    0    0    0    0  0.00000000000E+00  0.00000000000E+00  0.14999999963E+04  0.15000000000E+04  0.10566000000E+00 0. -1.
        994   -1    0    0    0    0 -0.00000000000E+00 -0.00000000000E+00  0.11368683772E-12  0.17120000000E+03  0.17120000000E+03 0.  0.
         13    1    1    2    0    0 -0.46608879447E+02  0.84768817872E+02  0.52725421188E+03  0.53605517928E+03  0.10566000000E+00 0. -1.
        994    1    1    2    0    0  0.48447773096E+02 -0.82743685485E+02  0.37416031125E+02  0.19975761210E+03  0.17120000000E+03 0.  0.
        998    1    1    2    0    0 -0.18388936489E+01 -0.20251323865E+01  0.93532975327E+03  0.93538720862E+03  0.10000000000E+02 0.  0.
</event>
<event>
 5    1  0.1666761E-008  0.3762309E+03  0.7957747E-01  0.3467736E+00
         13   -1    0    0    0    0  0.00000000000E+00  0.00000000000E+00  0.14999999963E+04  0.15000000000E+04  0.10566000000E+00 0.  1.
        994   -1    0    0    0    0 -0.00000000000E+00 -0.00000000000E+00  0.11368683772E-12  0.17120000000E+03  0.17120000000E+03 0.  0.
         13    1    1    2    0    0 -0.34208614676E+02 -0.35390565053E+02  0.19420586644E+03  0.20034632798E+03  0.10566000000E+00 0.  1.
        994    1    1    2    0    0  0.62802581022E+01  0.39046624795E+02  0.11361022674E+02  0.17607553318E+03  0.17120000000E+03 0.  0.
        998    1    1    2    0    0  0.27928356574E+02 -0.36560597417E+01  0.12944331072E+04  0.12947781388E+04  0.10000000000E+02 0.  1.
</event>
<event>
 5    1  0.1666761E-008  0.3844655E+03  0.7957747E-01  0.3431942E+00
         13   -1    0    0    0    0  0.00000000000E+00  0.00000000000E+00  0.14999999963E+04  0.15000000000E+04  0.10566000000E+00 0. -1.
        994   -1    0    0    0    0 -0.00000000000E+00 -0.00000000000E+00  0.11368683772E-12  0.17120000000E+03  0.17120000000E+03 0.  0.
         13    1    1    2    0    0  0.58768152715E+01  0.16612681698E+02  0.74092732406E+02  0.76159453191E+02  0.10566000000E+00 0. -1.
        994    1    1    2    0    0 -0.21772628649E+02 -0.21261377228E+02  0.49526083929E+01  0.17395419469E+03  0.17120000000E+03 0.  0.
        998    1    1    2    0    0  0.15895813378E+02  0.46486955302E+01  0.14209546555E+04  0.14210863521E+04  0.10000000000E+02 0. -1.
</event>
<event>
 5    1  0.1666761E-008  0.3924138E+03  0.7957747E-01  0.3398825E+00
         13   -1    0    0    0    0  0.00000000000E+00  0.00000000000E+00  0.14999999963E+04  0.15000000000E+04  0.10566000000E+00 0. -1.
        994   -1    0    0    0    0 -0.00000000000E+00 -0.00000000000E+00  0.11368683772E-12  0.17120000000E+03  0.17120000000E+03 0.  0.
         13    1    1    2    0    0 -0.73614132153E+01 -0.74764649013E+01 -0.83619748429E+01  0.13417217269E+02  0.10566000000E+00 0. -1.
        994    1    1    2    0    0  0.14439859562E+02  0.51121058874E+01  0.24212544670E+02  0.17358090474E+03  0.17120000000E+03 0.  0.
        998    1    1    2    0    0 -0.70784463463E+01  0.23643590140E+01  0.14841494265E+04  0.14842018780E+04  0.10000000000E+02 0. -1.
</event>
<event>
 5    1  0.1666761E-008  0.3852947E+03  0.7957747E-01  0.3428423E+00
         13   -1    0    0    0    0  0.00000000000E+00  0.00000000000E+00  0.14999999963E+04  0.15000000000E+04  0.10566000000E+00 0.  1.
        994   -1    0    0    0    0 -0.00000000000E+00 -0.00000000000E+00  0.11368683772E-12  0.17120000000E+03  0.17120000000E+03 0.  0.
         13    1    1    2    0    0  0.16990745266E+01  0.15982995889E+02  0.84365276925E+02  0.85882792959E+02  0.10566000000E+00 0.  1.
        994    1    1    2    0    0 -0.68963202419E+01 -0.14402715921E+02  0.23221314702E+01  0.17195880249E+03  0.17120000000E+03 0.  0.
        998    1    1    2    0    0  0.51972457152E+01 -0.15802799687E+01  0.14133125879E+04  0.14133584046E+04  0.10000000000E+02 0.  1.
</event>
<event>
 5    1  0.1666761E-008  0.3863167E+03  0.7957747E-01  0.3424107E+00
         13   -1    0    0    0    0  0.00000000000E+00  0.00000000000E+00  0.14999999963E+04  0.15000000000E+04  0.10566000000E+00 0.  1.
        994   -1    0    0    0    0 -0.00000000000E+00 -0.00000000000E+00  0.11368683772E-12  0.17120000000E+03  0.17120000000E+03 0.  0.
         13    1    1    2    0    0 -0.10623025832E+02 -0.75382090930E+00  0.57701899712E+02  0.58676548282E+02  0.10566000000E+00 0.  1.
        994    1    1    2    0    0  0.10071722570E+02  0.11462973824E+01  0.13143740075E+01  0.17150487215E+03  0.17120000000E+03 0.  0.
        998    1    1    2    0    0  0.55130326234E+00 -0.39247647309E+00  0.14409837226E+04  0.14410185796E+04  0.10000000000E+02 0.  0.
</event>
<event>
 5    1  0.1666761E-008  0.3848801E+03  0.7957747E-01  0.3430181E+00
         13   -1    0    0    0    0  0.00000000000E+00  0.00000000000E+00  0.14999999963E+04  0.15000000000E+04  0.10566000000E+00 0. -1.
        994   -1    0    0    0    0 -0.00000000000E+00 -0.00000000000E+00  0.11368683772E-12  0.17120000000E+03  0.17120000000E+03 0.  0.
         13    1    1    2    0    0  0.83426081620E+01  0.10669955464E+02  0.46308436572E+02  0.48248621974E+02  0.10566000000E+00 0. -1.
        994    1    1    2    0    0 -0.27074886535E+02 -0.28783166010E+02  0.68439382507E+01  0.17583458027E+03  0.17120000000E+03 0.  0.
        998    1    1    2    0    0  0.18732278373E+02  0.18113210546E+02  0.14468476215E+04  0.14471167978E+04  0.10000000000E+02 0. -1.
</event>
<event>
 5    1  0.1666761E-008  0.3795737E+03  0.7957747E-01  0.3453017E+00
         13   -1    0    0    0    0  0.00000000000E+00  0.00000000000E+00  0.14999999963E+04  0.15000000000E+04  0.10566000000E+00 0.  1.
        994   -1    0    0    0    0 -0.00000000000E+00 -0.00000000000E+00  0.11368683772E-12  0.17120000000E+03  0.17120000000E+03 0.  0.
         13    1    1    2    0    0 -0.63170911773E-01 -0.16407192245E+02  0.29909813824E+02  0.34114631391E+02  0.10566000000E+00 0.  1.
        994    1    1    2    0    0 -0.15968891725E+01  0.33497744157E+01  0.43946225323E+01  0.17129659585E+03  0.17120000000E+03 0.  0.
        998    1    1    2    0    0  0.16600600842E+01  0.13057417830E+02  0.14656955599E+04  0.14657887728E+04  0.10000000000E+02 0.  1.
</event>
<event>
 5    1  0.1666761E-008  0.3844779E+03  0.7957747E-01  0.3431889E+00
         13   -1    0    0    0    0  0.00000000000E+00  0.00000000000E+00  0.14999999963E+04  0.15000000000E+04  0.10566000000E+00 0.  1.
        994   -1    0    0    0    0 -0.00000000000E+00 -0.00000000000E+00  0.11368683772E-12  0.17120000000E+03  0.17120000000E+03 0.  0.
         13    1    1    2    0    0  0.17107879646E+02 -0.84173266988E+01  0.70312809574E+02  0.72852133043E+02  0.10566000000E+00 0.  1.
        994    1    1    2    0    0 -0.46448441027E+02  0.55238542699E+02  0.19241041930E+02  0.18678439969E+03  0.17120000000E+03 0.  0.
        998    1    1    2    0    0  0.29340561381E+02 -0.46821216000E+02  0.14104461448E+04  0.14115634673E+04  0.10000000000E+02 0.  1.
</event>
<event>
 5    1  0.1666761E-008  0.3822605E+03  0.7957747E-01  0.3441375E+00
         13   -1    0    0    0    0  0.00000000000E+00  0.00000000000E+00  0.14999999963E+04  0.15000000000E+04  0.10566000000E+00 0.  1.
        994   -1    0    0    0    0 -0.00000000000E+00 -0.00000000000E+00  0.11368683772E-12  0.17120000000E+03  0.17120000000E+03 0.  0.
         13    1    1    2    0    0  0.10026997714E+02  0.88302062213E+01  0.28633131483E+02  0.31597161386E+02  0.10566000000E+00 0.  1.
        994    1    1    2    0    0 -0.78950733124E+01 -0.57919862529E+01  0.33146005633E+01  0.17151182427E+03  0.17120000000E+03 0.  0.
        998    1    1    2    0    0 -0.21319244020E+01 -0.30382199684E+01  0.14680522642E+04  0.14680910143E+04  0.10000000000E+02 0.  1.
</event>
<event>
 5    1  0.1666761E-008  0.2777964E+03  0.7957747E-01  0.4068503E+00
         13   -1    0    0    0    0  0.00000000000E+00  0.00000000000E+00  0.14999999963E+04  0.15000000000E+04  0.10566000000E+00 0.  1.
        994   -1    0    0    0    0 -0.00000000000E+00 -0.00000000000E+00  0.11368683772E-12  0.17120000000E+03  0.17120000000E+03 0.  0.
         13    1    1    2    0    0 -0.16254838142E+03  0.88310573919E+02  0.54235520679E+03  0.57303570157E+03  0.10566000000E+00 0.  1.
        994    1    1    2    0    0  0.13446582160E+03 -0.44088305772E+02  0.10823362752E+03  0.24708054155E+03  0.17120000000E+03 0.  0.
        998    1    1    2    0    0  0.28082559815E+02 -0.44222268147E+02  0.84941116196E+03  0.85108375689E+03  0.10000000000E+02 0.  1.
</event>
<event>
 5    1  0.1666761E-008  0.3832397E+03  0.7957747E-01  0.3437172E+00
         13   -1    0    0    0    0  0.00000000000E+00  0.00000000000E+00  0.14999999963E+04  0.15000000000E+04  0.10566000000E+00 0. -1.
        994   -1    0    0    0    0 -0.00000000000E+00 -0.00000000000E+00  0.11368683772E-12  0.17120000000E+03  0.17120000000E+03 0.  0.
         13    1    1    2    0    0 -0.11986055722E+02 -0.26480326341E+02  0.15530162460E+03  0.15799835120E+03  0.10566000000E+00 0. -1.
        994    1    1    2    0    0 -0.71001735836E+02  0.80436685850E+02  0.41560852770E+02  0.20627179013E+03  0.17120000000E+03 0.  0.
        998    1    1    2    0    0  0.82987791558E+02 -0.53956359509E+02  0.13031375189E+04  0.13069298587E+04  0.10000000000E+02 0. -1.
</event>
<event>
 5    1  0.1666761E-008  0.3788952E+03  0.7957747E-01  0.3455983E+00
         13   -1    0    0    0    0  0.00000000000E+00  0.00000000000E+00  0.14999999963E+04  0.15000000000E+04  0.10566000000E+00 0.  1.
        994   -1    0    0    0    0 -0.00000000000E+00 -0.00000000000E+00  0.11368683772E-12  0.17120000000E+03  0.17120000000E+03 0.  0.
         13    1    1    2    0    0 -0.26503103285E+01 -0.40489262602E+02  0.20001999585E+03  0.20409413131E+03  0.10566000000E+00 0.  1.
        994    1    1    2    0    0 -0.29432145665E+01  0.40844697192E+01  0.47769233270E+01  0.17134060932E+03  0.17120000000E+03 0.  0.
        998    1    1    2    0    0  0.55935248950E+01  0.36404792883E+02  0.12952030771E+04  0.12957652594E+04  0.10000000000E+02 0.  1.
</event>
<event>
 5    1  0.1666761E-008  0.3860773E+03  0.7957747E-01  0.3425116E+00
         13   -1    0    0    0    0  0.00000000000E+00  0.00000000000E+00  0.14999999963E+04  0.15000000000E+04  0.10566000000E+00 0.  1.
        994   -1    0    0    0    0 -0.00000000000E+00 -0.00000000000E+00  0.11368683772E-12  0.17120000000E+03  0.17120000000E+03 0.  0.
         13    1    1    2    0    0 -0.82230675981E+01  0.87230629410E+01  0.68465744682E+02  0.69507409869E+02  0.10566000000E+00 0.  1.
        994    1    1    2    0    0  0.48763429881E+01 -0.10603646007E+01  0.11778225276E+01  0.17127676538E+03  0.17120000000E+03 0.  0.
        998    1    1    2    0    0  0.33467246100E+01 -0.76626983403E+01  0.14303564291E+04  0.14304158247E+04  0.10000000000E+02 0.  1.
</event>
<event>
 5    1  0.1666761E-008  0.3774016E+03  0.7957747E-01  0.3462551E+00
         13   -1    0    0    0    0  0.00000000000E+00  0.00000000000E+00  0.14999999963E+04  0.15000000000E+04  0.10566000000E+00 0.  1.
        994   -1    0    0    0    0 -0.00000000000E+00 -0.00000000000E+00  0.11368683772E-12  0.17120000000E+03  0.17120000000E+03 0.  0.
         13    1    1    2    0    0  0.36336614153E+01  0.76443453353E+02  0.44705789154E+03  0.45356099326E+03  0.10566000000E+00 0.  1.
        994    1    1    2    0    0  0.15659972690E+02 -0.62751487610E+02  0.19687560597E+02  0.18406527099E+03  0.17120000000E+03 0.  0.
        998    1    1    2    0    0 -0.19293634105E+02 -0.13691965743E+02  0.10332545441E+04  0.10335737358E+04  0.10000000000E+02 0.  1.
</event>
<event>
 5    1  0.1666761E-008  0.3856078E+03  0.7957747E-01  0.3427098E+00
         13   -1    0    0    0    0  0.00000000000E+00  0.00000000000E+00  0.14999999963E+04  0.15000000000E+04  0.10566000000E+00 0. -1.
        994   -1    0    0    0    0 -0.00000000000E+00 -0.00000000000E+00  0.11368683772E-12  0.17120000000E+03  0.17120000000E+03 0.  0.
         13    1    1    2    0    0  0.12004648468E+02  0.42257727311E+01  0.65670692285E+02  0.66892598464E+02  0.10566000000E+00 0. -1.
        994    1    1    2    0    0  0.17985160664E+01 -0.16779542127E+01  0.13485148089E+01  0.17122297942E+03  0.17120000000E+03 0.  0.
        998    1    1    2    0    0 -0.13803164534E+02 -0.25478185183E+01  0.14329807892E+04  0.14330844221E+04  0.10000000000E+02 0. -1.
</event>
<event>
 5    1  0.1666761E-008  0.3721715E+03  0.7957747E-01  0.3485970E+00
         13   -1    0    0    0    0  0.00000000000E+00  0.00000000000E+00  0.14999999963E+04  0.15000000000E+04  0.10566000000E+00 0. -1.
        994   -1    0    0    0    0 -0.00000000000E+00 -0.00000000000E+00  0.11368683772E-12  0.17120000000E+03  0.17120000000E+03 0.  0.
         13    1    1    2    0    0  0.28973483807E+02 -0.37449308187E+02  0.12236047221E+03  0.13120217137E+03  0.10566000000E+00 0. -1.
        994    1    1    2    0    0 -0.26801276857E+02  0.44451613530E+02  0.17442272499E+02  0.17974406042E+03  0.17120000000E+03 0.  0.
        998    1    1    2    0    0 -0.21722069499E+01 -0.70023053431E+01  0.13601972516E+04  0.13602537682E+04  0.10000000000E+02 0. -1.
</event>
<event>
 5    1  0.1666761E-008  0.3710926E+03  0.7957747E-01  0.3490885E+00
         13   -1    0    0    0    0  0.00000000000E+00  0.00000000000E+00  0.14999999963E+04  0.15000000000E+04  0.10566000000E+00 0. -1.
        994   -1    0    0    0    0 -0.00000000000E+00 -0.00000000000E+00  0.11368683772E-12  0.17120000000E+03  0.17120000000E+03 0.  0.
         13    1    1    2    0    0  0.12207092176E+03 -0.74929638265E+02  0.73014103411E+03  0.74405759286E+03  0.10566000000E+00 0. -1.
        994    1    1    2    0    0 -0.99778577021E+02  0.77688720587E+02  0.65976982873E+02  0.22283111095E+03  0.17120000000E+03 0.  0.
        998    1    1    2    0    0 -0.22292344740E+02 -0.27590823224E+01  0.70388197929E+03  0.70431129619E+03  0.10000000000E+02 0.  0.
</event>
<event>
 5    1  0.1666761E-008  0.3845530E+03  0.7957747E-01  0.3431570E+00
         13   -1    0    0    0    0  0.00000000000E+00  0.00000000000E+00  0.14999999963E+04  0.15000000000E+04  0.10566000000E+00 0. -1.
        994   -1    0    0    0    0 -0.00000000000E+00 -0.00000000000E+00  0.11368683772E-12  0.17120000000E+03  0.17120000000E+03 0.  0.
         13    1    1    2    0    0  0.32924540005E+01 -0.99656560265E+01  0.28233109325E+02  0.30120992340E+02  0.10566000000E+00 0. -1.
        994    1    1    2    0    0 -0.82977334862E+01  0.14653907293E+02  0.27867408568E+01  0.17204881663E+03  0.17120000000E+03 0.  0.
        998    1    1    2    0    0  0.50052794857E+01 -0.46882512664E+01  0.14689801461E+04  0.14690301910E+04  0.10000000000E+02 0. -1.
</event>
<event>
 5    1  0.1666761E-008  0.3710190E+03  0.7957747E-01  0.3491221E+00
         13   -1    0    0    0    0  0.00000000000E+00  0.00000000000E+00  0.14999999963E+04  0.15000000000E+04  0.10566000000E+00 0. -1.
        994   -1    0    0    0    0 -0.00000000000E+00 -0.00000000000E+00  0.11368683772E-12  0.17120000000E+03  0.17120000000E+03 0.  0.
         13    1    1    2    0    0  0.94097838827E+02 -0.43173727713E+02  0.46986090312E+03  0.48113163841E+03  0.10566000000E+00 0. -1.
        994    1    1    2    0    0 -0.84511220977E+02  0.31339421643E+02  0.37273584211E+02  0.19703569702E+03  0.17120000000E+03 0.  0.
        998    1    1    2    0    0 -0.95866178493E+01  0.11834306070E+02  0.99286550895E+03  0.99303266457E+03  0.10000000000E+02 0.  1.
</event>
<event>
 5    1  0.1666761E-008  0.3996756E+03  0.7957747E-01  0.3369720E+00
         13   -1    0    0    0    0  0.00000000000E+00  0.00000000000E+00  0.14999999963E+04  0.15000000000E+04  0.10566000000E+00 0.  1.
        994   -1    0    0    0    0 -0.00000000000E+00 -0.00000000000E+00  0.11368683772E-12  0.17120000000E+03  0.17120000000E+03 0.  0.
         13    1    1    2    0    0  0.24663738333E+02  0.38056986172E+02  0.25998087299E+02  0.52273759117E+02  0.10566000000E+00 0.  1.
        994    1    1    2    0    0 -0.32486245949E+02 -0.36227911375E+02  0.36898598182E+02  0.18176568512E+03  0.17120000000E+03 0.  0.
        998    1    1    2    0    0  0.78225076154E+01 -0.18290747964E+01  0.14371033108E+04  0.14371605558E+04  0.10000000000E+02 0.  1.
</event>
<event>
 5    1  0.1666761E-008  0.3825537E+03  0.7957747E-01  0.3440114E+00
         13   -1    0    0    0    0  0.00000000000E+00  0.00000000000E+00  0.14999999963E+04  0.15000000000E+04  0.10566000000E+00 0.  1.
        994   -1    0    0    0    0 -0.00000000000E+00 -0.00000000000E+00  0.11368683772E-12  0.17120000000E+03  0.17120000000E+03 0.  0.
         13    1    1    2    0    0  0.20560344234E+02 -0.16729337461E+01  0.73496939071E+02  0.76337000722E+02  0.10566000000E+00 0.  1.
        994    1    1    2    0    0 -0.13722112584E+02  0.24245096304E+01  0.34935084628E+01  0.17180168574E+03  0.17120000000E+03 0.  0.
        998    1    1    2    0    0 -0.68382316502E+01 -0.75157588430E+00  0.14230095487E+04  0.14230613135E+04  0.10000000000E+02 0.  1.
</event>
<event>
 5    1  0.1666761E-008  0.3853938E+03  0.7957747E-01  0.3428004E+00
         13   -1    0    0    0    0  0.00000000000E+00  0.00000000000E+00  0.14999999963E+04  0.15000000000E+04  0.10566000000E+00 0. -1.
        994   -1    0    0    0    0 -0.00000000000E+00 -0.00000000000E+00  0.11368683772E-12  0.17120000000E+03  0.17120000000E+03 0.  0.
         13    1    1    2    0    0 -0.97792529236E+01  0.80978897709E+01  0.55254184774E+02  0.56694318107E+02  0.10566000000E+00 0. -1.
        994    1    1    2    0    0  0.56198354251E+01 -0.11673055694E+02  0.19861935986E+01  0.17170098353E+03  0.17120000000E+03 0.  0.
        998    1    1    2    0    0  0.41594174985E+01  0.35751659236E+01  0.14427596179E+04  0.14428046984E+04  0.10000000000E+02 0. -1.
</event>
<event>
 5    1  0.1666761E-008  0.3750523E+03  0.7957747E-01  0.3472989E+00
         13   -1    0    0    0    0  0.00000000000E+00  0.00000000000E+00  0.14999999963E+04  0.15000000000E+04  0.10566000000E+00 0.  1.
        994   -1    0    0    0    0 -0.00000000000E+00 -0.00000000000E+00  0.11368683772E-12  0.17120000000E+03  0.17120000000E+03 0.  0.
         13    1    1    2    0    0  0.10865384673E+03  0.10964207837E+02  0.28774435686E+03  0.30777052869E+03  0.10566000000E+00 0.  1.
        994    1    1    2    0    0 -0.13967573320E+03  0.33076302120E+01  0.86799015424E+02  0.23741053039E+03  0.17120000000E+03 0.  0.
        998    1    1    2    0    0  0.31021886467E+02 -0.14271838048E+02  0.11254566240E+04  0.11260189409E+04  0.10000000000E+02 0.  1.
</event>
<event>
 5    1  0.1666761E-008  0.3773756E+03  0.7957747E-01  0.3462666E+00
         13   -1    0    0    0    0  0.00000000000E+00  0.00000000000E+00  0.14999999963E+04  0.15000000000E+04  0.10566000000E+00 0.  1.
        994   -1    0    0    0    0 -0.00000000000E+00 -0.00000000000E+00  0.11368683772E-12  0.17120000000E+03  0.17120000000E+03 0.  0.
         13    1    1    2    0    0 -0.76058953137E+01 -0.83296059930E+01  0.92807675561E+01  0.14607388199E+02  0.10566000000E+00 0.  1.
        994    1    1    2    0    0  0.10617043691E+01  0.37222514932E+01  0.55143598994E+01  0.17133251454E+03  0.17120000000E+03 0.  0.
        998    1    1    2    0    0  0.65441909446E+01  0.46073544998E+01  0.14852048688E+04  0.14852600973E+04  0.10000000000E+02 0.  1.
</event>
<event>
 5    1  0.1666761E-008  0.3850666E+03  0.7957747E-01  0.3429390E+00
         13   -1    0    0    0    0  0.00000000000E+00  0.00000000000E+00  0.14999999963E+04  0.15000000000E+04  0.10566000000E+00 0. -1.
        994   -1    0    0    0    0 -0.00000000000E+00 -0.00000000000E+00  0.11368683772E-12  0.17120000000E+03  0.17120000000E+03 0.  0.
         13    1    1    2    0    0  0.10238608515E-01 -0.13434650128E+02  0.55736282630E+02  0.57332663416E+02  0.10566000000E+00 0. -1.
        994    1    1    2    0    0  0.33053991619E+01  0.11309012105E+02  0.20536629714E+01  0.17161723966E+03  0.17120000000E+03 0.  0.
        998    1    1    2    0    0 -0.33156377704E+01  0.21256380235E+01  0.14422100507E+04  0.14422500969E+04  0.10000000000E+02 0. -1.
</event>
<event>
 5    1  0.1666761E-008  0.3973795E+03  0.7957747E-01  0.3378808E+00
         13   -1    0    0    0    0  0.00000000000E+00  0.00000000000E+00  0.14999999963E+04  0.15000000000E+04  0.10566000000E+00 0.  1.
        994   -1    0    0    0    0 -0.00000000000E+00 -0.00000000000E+00  0.11368683772E-12  0.17120000000E+03  0.17120000000E+03 0.  0.
         13    1    1    2    0    0  0.57531774000E+02  0.11061751947E+02  0.55113994069E+02  0.80435258948E+02  0.10566000000E+00 0.  1.
        994    1    1    2    0    0 -0.51691475574E+02 -0.13839304170E+02  0.37396927416E+02  0.18322528528E+03  0.17120000000E+03 0.  0.
        998    1    1    2    0    0 -0.58402984259E+01  0.27775522225E+01  0.14074890748E+04  0.14075394558E+04  0.10000000000E+02 0.  1.
</event>
<event>
 5    1  0.1666761E-008  0.3791869E+03  0.7957747E-01  0.3454706E+00
         13   -1    0    0    0    0  0.00000000000E+00  0.00000000000E+00  0.14999999963E+04  0.15000000000E+04  0.10566000000E+00 0.  1.
        994   -1    0    0    0    0 -0.00000000000E+00 -0.00000000000E+00  0.11368683772E-12  0.17120000000E+03  0.17120000000E+03 0.  0.
         13    1    1    2    0    0 -0.24296161353E+02 -0.20772672188E+02  0.11157737343E+03  0.11606605357E+03  0.10566000000E+00 0.  1.
        994    1    1    2    0    0  0.16016020078E+02  0.89947927096E+01  0.56759445320E+01  0.17227616069E+03  0.17120000000E+03 0.  0.
        998    1    1    2    0    0  0.82801412752E+01  0.11777879479E+02  0.13827466783E+04  0.13828577857E+04  0.10000000000E+02 0.  1.
</event>
<event>
 5    1  0.1666761E-008  0.3784192E+03  0.7957747E-01  0.3458071E+00
         13   -1    0    0    0    0  0.00000000000E+00  0.00000000000E+00  0.14999999963E+04  0.15000000000E+04  0.10566000000E+00 0. -1.
        994   -1    0    0    0    0 -0.00000000000E+00 -0.00000000000E+00  0.11368683772E-12  0.17120000000E+03  0.17120000000E+03 0.  0.
         13    1    1    2    0    0 -0.45351690014E+02  0.26989358406E+01  0.21288074632E+03  0.21767471915E+03  0.10566000000E+00 0. -1.
        994    1    1    2    0    0  0.22912243895E+02 -0.50114490906E+02  0.15205770389E+02  0.18049124237E+03  0.17120000000E+03 0.  0.
        998    1    1    2    0    0  0.22439446119E+02  0.47415555065E+02  0.12719134796E+04  0.12730340385E+04  0.10000000000E+02 0. -1.
</event>
<event>
 5    1  0.1666761E-008  0.3767205E+03  0.7957747E-01  0.3465564E+00
         13   -1    0    0    0    0  0.00000000000E+00  0.00000000000E+00  0.14999999963E+04  0.15000000000E+04  0.10566000000E+00 0. -1.
        994   -1    0    0    0    0 -0.00000000000E+00 -0.00000000000E+00  0.11368683772E-12  0.17120000000E+03  0.17120000000E+03 0.  0.
         13    1    1    2    0    0  0.38530362981E+02  0.81543624249E+01  0.12223402486E+03  0.12842215734E+03  0.10566000000E+00 0. -1.
        994    1    1    2    0    0 -0.34889313760E+02 -0.23698341346E+02  0.11833462947E+02  0.17671543917E+03  0.17120000000E+03 0.  0.
        998    1    1    2    0    0 -0.36410492215E+01  0.15543978921E+02  0.13659325085E+04  0.13660624035E+04  0.10000000000E+02 0. -1.
</event>
<event>
 5    1  0.1666761E-008  0.3732587E+03  0.7957747E-01  0.3481047E+00
         13   -1    0    0    0    0  0.00000000000E+00  0.00000000000E+00  0.14999999963E+04  0.15000000000E+04  0.10566000000E+00 0.  1.
        994   -1    0    0    0    0 -0.00000000000E+00 -0.00000000000E+00  0.11368683772E-12  0.17120000000E+03  0.17120000000E+03 0.  0.
         13    1    1    2    0    0 -0.14443623096E+03  0.25507431103E+02  0.78894833079E+03  0.80246615734E+03  0.10566000000E+00 0.  1.
        994    1    1    2    0    0  0.13216944105E+03 -0.12317522265E+02  0.70449494630E+02  0.22780046926E+03  0.17120000000E+03 0.  0.
        998    1    1    2    0    0  0.12266789914E+02 -0.13189908838E+02  0.64060217086E+03  0.64093337340E+03  0.10000000000E+02 0.  1.
</event>
<event>
 5    1  0.1666761E-008  0.3731437E+03  0.7957747E-01  0.3481567E+00
         13   -1    0    0    0    0  0.00000000000E+00  0.00000000000E+00  0.14999999963E+04  0.15000000000E+04  0.10566000000E+00 0. -1.
        994   -1    0    0    0    0 -0.00000000000E+00 -0.00000000000E+00  0.11368683772E-12  0.17120000000E+03  0.17120000000E+03 0.  0.
         13    1    1    2    0    0  0.99005168850E+01 -0.31100818598E+02  0.62476932761E+02  0.70488718553E+02  0.10566000000E+00 0. -1.
        994    1    1    2    0    0 -0.26079466664E+02  0.35401158608E+02  0.14277439824E+02  0.17733207804E+03  0.17120000000E+03 0.  0.
        998    1    1    2    0    0  0.16178949779E+02 -0.43003400100E+01  0.14232456237E+04  0.14233792034E+04  0.10000000000E+02 0. -1.
</event>
<event>
 5    1  0.1666761E-008  0.3769681E+03  0.7957747E-01  0.3464467E+00
         13   -1    0    0    0    0  0.00000000000E+00  0.00000000000E+00  0.14999999963E+04  0.15000000000E+04  0.10566000000E+00 0.  1.
        994   -1    0    0    0    0 -0.00000000000E+00 -0.00000000000E+00  0.11368683772E-12  0.17120000000E+03  0.17120000000E+03 0.  0.
         13    1    1    2    0    0 -0.17834860528E+02 -0.30331876492E+02  0.10753740238E+03  0.11314773112E+03  0.10566000000E+00 0.  1.
        994    1    1    2    0    0  0.20265423275E+02  0.12006745390E+02  0.75473976093E+01  0.17297760701E+03  0.17120000000E+03 0.  0.
        998    1    1    2    0    0 -0.24305627472E+01  0.18325131103E+02  0.13849151963E+04  0.13850746619E+04  0.10000000000E+02 0.  1.
</event>
<event>
 5    1  0.1666761E-008  0.3854771E+03  0.7957747E-01  0.3427651E+00
         13   -1    0    0    0    0  0.00000000000E+00  0.00000000000E+00  0.14999999963E+04  0.15000000000E+04  0.10566000000E+00 0.  1.
        994   -1    0    0    0    0 -0.00000000000E+00 -0.00000000000E+00  0.11368683772E-12  0.17120000000E+03  0.17120000000E+03 0.  0.
         13    1    1    2    0    0  0.11291042153E+02  0.12655542287E+02  0.98421465590E+02  0.99872150454E+02  0.10566000000E+00 0.  1.
        994    1    1    2    0    0 -0.67794142970E+01 -0.16988656838E+02  0.24928210082E+01  0.17219241875E+03  0.17120000000E+03 0.  0.
        998    1    1    2    0    0 -0.45116278555E+01  0.43331145512E+01  0.13990857097E+04  0.13991354308E+04  0.10000000000E+02 0.  1.
</event>
<event>
 5    1  0.1666761E-008  0.3843810E+03  0.7957747E-01  0.3432302E+00
         13   -1    0    0    0    0  0.00000000000E+00  0.00000000000E+00  0.14999999963E+04  0.15000000000E+04  0.10566000000E+00 0.  1.
        994   -1    0    0    0    0 -0.00000000000E+00 -0.00000000000E+00  0.11368683772E-12  0.17120000000E+03  0.17120000000E+03 0.  0.
         13    1    1    2    0    0 -0.18852394220E+02  0.81390294532E+01  0.11776490891E+03  0.11954179814E+03  0.10566000000E+00 0.  1.
        994    1    1    2    0    0 -0.18462523756E+01 -0.11469561287E+02  0.23826186325E+01  0.17161024549E+03  0.17120000000E+03 0.  0.
        998    1    1    2    0    0  0.20698646595E+02  0.33305318335E+01  0.13798524687E+04  0.13800479564E+04  0.10000000000E+02 0.  1.
</event>
<event>
 5    1  0.1666761E-008  0.3740392E+03  0.7957747E-01  0.3477531E+00
         13   -1    0    0    0    0  0.00000000000E+00  0.00000000000E+00  0.14999999963E+04  0.15000000000E+04  0.10566000000E+00 0.  1.
        994   -1    0    0    0    0 -0.00000000000E+00 -0.00000000000E+00  0.11368683772E-12  0.17120000000E+03  0.17120000000E+03 0.  0.
         13    1    1    2    0    0 -0.56447150370E+02  0.45395715973E+02  0.17252148175E+03  0.18711152996E+03  0.10566000000E+00 0.  1.
        994    1    1    2    0    0  0.70879827809E+02 -0.30759812488E+02  0.34576655501E+02  0.19098455739E+03  0.17120000000E+03 0.  0.
        998    1    1    2    0    0 -0.14432677439E+02 -0.14635903485E+02  0.12929018590E+04  0.12931039127E+04  0.10000000000E+02 0.  1.
</event>
<event>
 5    1  0.1666761E-008  0.3853158E+03  0.7957747E-01  0.3428334E+00
         13   -1    0    0    0    0  0.00000000000E+00  0.00000000000E+00  0.14999999963E+04  0.15000000000E+04  0.10566000000E+00 0. -1.
        994   -1    0    0    0    0 -0.00000000000E+00 -0.00000000000E+00  0.11368683772E-12  0.17120000000E+03  0.17120000000E+03 0.  0.
         13    1    1    2    0    0  0.97790864777E+01 -0.12574168317E+02  0.92983374660E+02  0.94338005959E+02  0.10566000000E+00 0. -1.
        994    1    1    2    0    0  0.38910004136E+00  0.18036815284E+01  0.14846237890E+01  0.17121637998E+03  0.17120000000E+03 0.  0.
        998    1    1    2    0    0 -0.10168186519E+02  0.10770486789E+02  0.14055319978E+04  0.14056456141E+04  0.10000000000E+02 0. -1.
</event>
<event>
 5    1  0.1666761E-008  0.3712719E+03  0.7957747E-01  0.3490066E+00
         13   -1    0    0    0    0  0.00000000000E+00  0.00000000000E+00  0.14999999963E+04  0.15000000000E+04  0.10566000000E+00 0.  1.
        994   -1    0    0    0    0 -0.00000000000E+00 -0.00000000000E+00  0.11368683772E-12  0.17120000000E+03  0.17120000000E+03 0.  0.
         13    1    1    2    0    0  0.25927032384E+02 -0.77276899592E+02  0.39706812610E+03  0.40534804569E+03  0.10566000000E+00 0.  1.
        994    1    1    2    0    0 -0.50761989686E+02  0.30265073453E+02  0.20727307886E+02  0.18229595596E+03  0.17120000000E+03 0.  0.
        998    1    1    2    0    0  0.24834957302E+02  0.47011826139E+02  0.10822045623E+04  0.10835559983E+04  0.10000000000E+02 0.  1.
</event>
<event>
 5    1  0.1666761E-008  0.3733779E+03  0.7957747E-01  0.3480509E+00
         13   -1    0    0    0    0  0.00000000000E+00  0.00000000000E+00  0.14999999963E+04  0.15000000000E+04  0.10566000000E+00 0.  1.
        994   -1    0    0    0    0 -0.00000000000E+00 -0.00000000000E+00  0.11368683772E-12  0.17120000000E+03  0.17120000000E+03 0.  0.
         13    1    1    2    0    0  0.84215893900E+02  0.29826284100E+02  0.25325156586E+03  0.26854848870E+03  0.10566000000E+00 0.  1.
        994    1    1    2    0    0 -0.89414942375E+02 -0.20848900571E+02  0.43192587601E+02  0.19900941736E+03  0.17120000000E+03 0.  0.
        998    1    1    2    0    0  0.51990484755E+01 -0.89773835295E+01  0.12035558428E+04  0.12036420939E+04  0.10000000000E+02 0.  1.
</event>
<event>
 5    1  0.1666761E-008  0.3780774E+03  0.7957747E-01  0.3459573E+00
         13   -1    0    0    0    0  0.00000000000E+00  0.00000000000E+00  0.14999999963E+04  0.15000000000E+04  0.10566000000E+00 0.  1.
        994   -1    0    0    0    0 -0.00000000000E+00 -0.00000000000E+00  0.11368683772E-12  0.17120000000E+03  0.17120000000E+03 0.  0.
         13    1    1    2    0    0  0.20822887942E+02 -0.25129390901E+02  0.28178141677E+02  0.43117256194E+02  0.10566000000E+00 0.  1.
        994    1    1    2    0    0 -0.17874069137E+02  0.26736928218E+02  0.19005853860E+02  0.17522844563E+03  0.17120000000E+03 0.  0.
        998    1    1    2    0    0 -0.29488188042E+01 -0.16075373162E+01  0.14528160007E+04  0.14528542982E+04  0.10000000000E+02 0.  1.
</event>
<event>
 5    1  0.1666761E-008  0.3844734E+03  0.7957747E-01  0.3431909E+00
         13   -1    0    0    0    0  0.00000000000E+00  0.00000000000E+00  0.14999999963E+04  0.15000000000E+04  0.10566000000E+00 0. -1.
        994   -1    0    0    0    0 -0.00000000000E+00 -0.00000000000E+00  0.11368683772E-12  0.17120000000E+03  0.17120000000E+03 0.  0.
         13    1    1    2    0    0  0.12312873197E+03  0.19553437717E+03  0.11366426156E+04  0.11598925916E+04  0.10566000000E+00 0. -1.
        994    1    1    2    0    0 -0.12578930873E+03 -0.19988687107E+03  0.21461472886E+03  0.36214173091E+03  0.17120000000E+03 0.  0.
        998    1    1    2    0    0  0.26605767643E+01  0.43524939002E+01  0.14874265178E+03  0.14916567745E+03  0.10000000000E+02 0. -1.
</event>
<event>
 5    1  0.1666761E-008  0.3836746E+03  0.7957747E-01  0.3435313E+00
         13   -1    0    0    0    0  0.00000000000E+00  0.00000000000E+00  0.14999999963E+04  0.15000000000E+04  0.10566000000E+00 0. -1.
        994   -1    0    0    0    0 -0.00000000000E+00 -0.00000000000E+00  0.11368683772E-12  0.17120000000E+03  0.17120000000E+03 0.  0.
         13    1    1    2    0    0 -0.20530172297E+02  0.26614156473E+01  0.91213879566E+02  0.93533705675E+02  0.10566000000E+00 0. -1.
        994    1    1    2    0    0  0.16237983364E+02 -0.48177869234E+00  0.31617196692E+01  0.17199808338E+03  0.17120000000E+03 0.  0.
        998    1    1    2    0    0  0.42921889330E+01 -0.21796369549E+01  0.14056243970E+04  0.14056682109E+04  0.10000000000E+02 0. -1.
</event>
<event>
 5    1  0.1666761E-008  0.3755068E+03  0.7957747E-01  0.3470959E+00
         13   -1    0    0    0    0  0.00000000000E+00  0.00000000000E+00  0.14999999963E+04  0.15000000000E+04  0.10566000000E+00 0.  1.
        994   -1    0    0    0    0 -0.00000000000E+00 -0.00000000000E+00  0.11368683772E-12  0.17120000000E+03  0.17120000000E+03 0.  0.
         13    1    1    2    0    0 -0.20932364701E+02  0.51563257827E+02  0.21085036268E+03  0.21807067675E+03  0.10566000000E+00 0.  1.
        994    1    1    2    0    0  0.10943936378E+02 -0.52346078466E+02  0.16185957167E+02  0.18008694257E+03  0.17120000000E+03 0.  0.
        998    1    1    2    0    0  0.99884283237E+01  0.78282063908E+00  0.12729636764E+04  0.12730423807E+04  0.10000000000E+02 0.  1.
</event>
<event>
 5    1  0.1666761E-008  0.3842690E+03  0.7957747E-01  0.3432778E+00
         13   -1    0    0    0    0  0.00000000000E+00  0.00000000000E+00  0.14999999963E+04  0.15000000000E+04  0.10566000000E+00 0. -1.
        994   -1    0    0    0    0 -0.00000000000E+00 -0.00000000000E+00  0.11368683772E-12  0.17120000000E+03  0.17120000000E+03 0.  0.
         13    1    1    2    0    0  0.97903141064E+01 -0.57773624337E+01  0.33223879674E+02  0.35115032559E+02  0.10566000000E+00 0. -1.
        994    1    1    2    0    0  0.72960915486E+00 -0.19292520559E+01  0.20075253887E+01  0.17122419368E+03  0.17120000000E+03 0.  0.
        998    1    1    2    0    0 -0.10519923261E+02  0.77066144896E+01  0.14647685912E+04  0.14648607738E+04  0.10000000000E+02 0. -1.
</event>
<event>
 5    1  0.1666761E-008  0.3807381E+03  0.7957747E-01  0.3447951E+00
         13   -1    0    0    0    0  0.00000000000E+00  0.00000000000E+00  0.14999999963E+04  0.15000000000E+04  0.10566000000E+00 0.  1.
        994   -1    0    0    0    0 -0.00000000000E+00 -0.00000000000E+00  0.11368683772E-12  0.17120000000E+03  0.17120000000E+03 0.  0.
         13    1    1    2    0    0 -0.16001484364E+02 -0.16343499551E+02  0.65906191593E+02  0.69762416341E+02  0.10566000000E+00 0.  1.
        994    1    1    2    0    0  0.13943354687E+02  0.17700215062E+02  0.54559639605E+01  0.17276261834E+03  0.17120000000E+03 0.  0.
        998    1    1    2    0    0  0.20581296769E+01 -0.13567155113E+01  0.14286378407E+04  0.14286749653E+04  0.10000000000E+02 0.  1.
</event>
<event>
 5    1  0.1666761E-008  0.3855761E+03  0.7957747E-01  0.3427233E+00
         13   -1    0    0    0    0  0.00000000000E+00  0.00000000000E+00  0.14999999963E+04  0.15000000000E+04  0.10566000000E+00 0. -1.
        994   -1    0    0    0    0 -0.00000000000E+00 -0.00000000000E+00  0.11368683772E-12  0.17120000000E+03  0.17120000000E+03 0.  0.
         13    1    1    2    0    0 -0.26807978039E+01 -0.14169246118E+02  0.78614044619E+02  0.79925799263E+02  0.10566000000E+00 0. -1.
        994    1    1    2    0    0  0.18325158424E+01  0.78815288234E+01  0.15593569393E+01  0.17139821529E+03  0.17120000000E+03 0.  0.
        998    1    1    2    0    0  0.84828196142E+00  0.62877172948E+01  0.14198265947E+04  0.14198759854E+04  0.10000000000E+02 0. -1.
</event>
<event>
 5    1  0.1666761E-008  0.3832239E+03  0.7957747E-01  0.3437240E+00
         13   -1    0    0    0    0  0.00000000000E+00  0.00000000000E+00  0.14999999963E+04  0.15000000000E+04  0.10566000000E+00 0.  1.
        994   -1    0    0    0    0 -0.00000000000E+00 -0.00000000000E+00  0.11368683772E-12  0.17120000000E+03  0.17120000000E+03 0.  0.
         13    1    1    2    0    0 -0.13413884592E+02 -0.13041859756E+02  0.72021273265E+02  0.74411674974E+02  0.10566000000E+00 0.  1.
        994    1    1    2    0    0  0.58498373691E+01 -0.26507370865E+00  0.26279345888E+01  0.17132027580E+03  0.17120000000E+03 0.  0.
        998    1    1    2    0    0  0.75640472230E+01  0.13306933465E+02  0.14253507884E+04  0.14254680492E+04  0.10000000000E+02 0.  1.
</event>
<event>
 5    1  0.1666761E-008  0.3740450E+03  0.7957747E-01  0.3477505E+00
         13   -1    0    0    0    0  0.00000000000E+00  0.00000000000E+00  0.14999999963E+04  0.15000000000E+04  0.10566000000E+00 0. -1.
        994   -1    0    0    0    0 -0.00000000000E+00 -0.00000000000E+00  0.11368683772E-12  0.17120000000E+03  0.17120000000E+03 0.  0.
         13    1    1    2    0    0 -0.12932430403E+02  0.78385220766E+01  0.13055660923E+02  0.19978779509E+02  0.10566000000E+00 0. -1.
        994    1    1    2    0    0  0.12536457638E+02  0.19093235117E+02  0.89511136705E+01  0.17294876939E+03  0.17120000000E+03 0.  0.
        998    1    1    2    0    0  0.39597276487E+00 -0.26931757194E+02  0.14779932217E+04  0.14782724511E+04  0.10000000000E+02 0. -1.
</event>
<event>
 5    1  0.1666761E-008  0.3271515E+03  0.7957747E-01  0.3719421E+00
         13   -1    0    0    0    0  0.00000000000E+00  0.00000000000E+00  0.14999999963E+04  0.15000000000E+04  0.10566000000E+00 0.  1.
        994   -1    0    0    0    0 -0.00000000000E+00 -0.00000000000E+00  0.11368683772E-12  0.17120000000E+03  0.17120000000E+03 0.  0.
         13    1    1    2    0    0 -0.56072494872E+02 -0.19749195745E+03  0.84767547154E+03  0.87218169790E+03  0.10566000000E+00 0.  1.
        994    1    1    2    0    0  0.10994732365E+03  0.17141238011E+03  0.17633783046E+03  0.31917877198E+03  0.17120000000E+03 0.  0.
        998    1    1    2    0    0 -0.53874828774E+02  0.26079577336E+02  0.47598669429E+03  0.47983953012E+03  0.10000000000E+02 0. -1.
</event>
<event>
 5    1  0.1666761E-008  0.3852342E+03  0.7957747E-01  0.3428679E+00
         13   -1    0    0    0    0  0.00000000000E+00  0.00000000000E+00  0.14999999963E+04  0.15000000000E+04  0.10566000000E+00 0.  1.
        994   -1    0    0    0    0 -0.00000000000E+00 -0.00000000000E+00  0.11368683772E-12  0.17120000000E+03  0.17120000000E+03 0.  0.
         13    1    1    2    0    0 -0.99356119152E+01 -0.18384317310E+02  0.12272379555E+03  0.12449032358E+03  0.10566000000E+00 0.  1.
        994    1    1    2    0    0  0.14231563205E+02  0.28282269814E+02  0.48149631452E+01  0.17416959565E+03  0.17120000000E+03 0.  0.
        998    1    1    2    0    0 -0.42959512902E+01 -0.98979525039E+01  0.13724612376E+04  0.13725400808E+04  0.10000000000E+02 0.  1.
</event>
<event>
 5    1  0.1666761E-008  0.3783007E+03  0.7957747E-01  0.3458591E+00
         13   -1    0    0    0    0  0.00000000000E+00  0.00000000000E+00  0.14999999963E+04  0.15000000000E+04  0.10566000000E+00 0. -1.
        994   -1    0    0    0    0 -0.00000000000E+00 -0.00000000000E+00  0.11368683772E-12  0.17120000000E+03  0.17120000000E+03 0.  0.
         13    1    1    2    0    0  0.32322742233E+02 -0.16429995557E+02  0.12032359236E+03  0.12566814418E+03  0.10566000000E+00 0. -1.
        994    1    1    2    0    0 -0.35008426365E+02  0.11750804764E+02  0.95915172638E+01  0.17539985329E+03  0.17120000000E+03 0.  0.
        998    1    1    2    0    0  0.26856841313E+01  0.46791907931E+01  0.13700848867E+04  0.13701320025E+04  0.10000000000E+02 0. -1.
</event>
<event>
 5    1  0.1666761E-008  0.3764966E+03  0.7957747E-01  0.3466556E+00
         13   -1    0    0    0    0  0.00000000000E+00  0.00000000000E+00  0.14999999963E+04  0.15000000000E+04  0.10566000000E+00 0.  1.
        994   -1    0    0    0    0 -0.00000000000E+00 -0.00000000000E+00  0.11368683772E-12  0.17120000000E+03  0.17120000000E+03 0.  0.
         13    1    1    2    0    0  0.63586055107E+02  0.41647344490E+01  0.30568416963E+03  0.31225527080E+03  0.10566000000E+00 0.  1.
        994    1    1    2    0    0 -0.50205078207E+02 -0.24960344439E+01  0.14506323509E+02  0.17901579117E+03  0.17120000000E+03 0.  0.
        998    1    1    2    0    0 -0.13380976901E+02 -0.16687000051E+01  0.11798095031E+04  0.11799289380E+04  0.10000000000E+02 0.  1.
</event>
<event>
 5    1  0.1666761E-008  0.3850664E+03  0.7957747E-01  0.3429391E+00
         13   -1    0    0    0    0  0.00000000000E+00  0.00000000000E+00  0.14999999963E+04  0.15000000000E+04  0.10566000000E+00 0. -1.
        994   -1    0    0    0    0 -0.00000000000E+00 -0.00000000000E+00  0.11368683772E-12  0.17120000000E+03  0.17120000000E+03 0.  0.
         13    1    1    2    0    0 -0.10758659279E+02 -0.83209487652E+01  0.55133526612E+02  0.56786476018E+02  0.10566000000E+00 0. -1.
        994    1    1    2    0    0  0.22374174031E+02 -0.13047411710E-01  0.32448514618E+01  0.17268634253E+03  0.17120000000E+03 0.  0.
        998    1    1    2    0    0 -0.11615514752E+02  0.83339961769E+01  0.14416216182E+04  0.14417271815E+04  0.10000000000E+02 0. -1.
</event>
<event>
 5    1  0.1666761E-008  0.3834929E+03  0.7957747E-01  0.3436089E+00
         13   -1    0    0    0    0  0.00000000000E+00  0.00000000000E+00  0.14999999963E+04  0.15000000000E+04  0.10566000000E+00 0. -1.
        994   -1    0    0    0    0 -0.00000000000E+00 -0.00000000000E+00  0.11368683772E-12  0.17120000000E+03  0.17120000000E+03 0.  0.
         13    1    1    2    0    0 -0.14731437427E+02  0.31628644732E+00  0.46314370530E+02  0.48601927610E+02  0.10566000000E+00 0. -1.
        994    1    1    2    0    0  0.32452257099E+01 -0.98955478467E+00  0.24183046328E+01  0.17125069023E+03  0.17120000000E+03 0.  0.
        998    1    1    2    0    0  0.11486211718E+02  0.67326833735E+00  0.14512673211E+04  0.14513473822E+04  0.10000000000E+02 0. -1.
</event>
<event>
 5    1  0.1666761E-008  0.3857061E+03  0.7957747E-01  0.3426683E+00
         13   -1    0    0    0    0  0.00000000000E+00  0.00000000000E+00  0.14999999963E+04  0.15000000000E+04  0.10566000000E+00 0. -1.
        994   -1    0    0    0    0 -0.00000000000E+00 -0.00000000000E+00  0.11368683772E-12  0.17120000000E+03  0.17120000000E+03 0.  0.
         13    1    1    2    0    0 -0.11334059723E+02 -0.27995526007E+01  0.53891371196E+02  0.55141540221E+02  0.10566000000E+00 0. -1.
        994    1    1    2    0    0  0.82859326051E+01 -0.38364028088E+01  0.15536019925E+01  0.17145036700E+03  0.17120000000E+03 0.  0.
        998    1    1    2    0    0  0.30481271184E+01  0.66359554095E+01  0.14445550231E+04  0.14446080928E+04  0.10000000000E+02 0. -1.
</event>
<event>
 5    1  0.1666761E-008  0.3802248E+03  0.7957747E-01  0.3450180E+00
         13   -1    0    0    0    0  0.00000000000E+00  0.00000000000E+00  0.14999999963E+04  0.15000000000E+04  0.10566000000E+00 0.  1.
        994   -1    0    0    0    0 -0.00000000000E+00 -0.00000000000E+00  0.11368683772E-12  0.17120000000E+03  0.17120000000E+03 0.  0.
         13    1    1    2    0    0  0.17539526709E+02 -0.20293606437E+01  0.36164480786E+02  0.40244678361E+02  0.10566000000E+00 0.  1.
        994    1    1    2    0    0 -0.18616142286E+02  0.18027148913E+02  0.62661935570E+01  0.17326351039E+03  0.17120000000E+03 0.  0.
        998    1    1    2    0    0  0.10766155766E+01 -0.15997788269E+02  0.14575693219E+04  0.14576918112E+04  0.10000000000E+02 0.  1.
</event>
<event>
 5    1  0.1666761E-008  0.3766582E+03  0.7957747E-01  0.3465840E+00
         13   -1    0    0    0    0  0.00000000000E+00  0.00000000000E+00  0.14999999963E+04  0.15000000000E+04  0.10566000000E+00 0. -1.
        994   -1    0    0    0    0 -0.00000000000E+00 -0.00000000000E+00  0.11368683772E-12  0.17120000000E+03  0.17120000000E+03 0.  0.
         13    1    1    2    0    0 -0.40040279115E+02  0.22997400234E+02  0.18490419105E+03  0.19058246352E+03  0.10566000000E+00 0. -1.
        994    1    1    2    0    0  0.19114115856E+02 -0.13390159596E+02  0.76728888844E+01  0.17295363258E+03  0.17120000000E+03 0.  0.
        998    1    1    2    0    0  0.20926163259E+02 -0.96072406388E+01  0.13074229163E+04  0.13076639039E+04  0.10000000000E+02 0. -1.
</event>
<event>
 5    1  0.1666761E-008  0.3841724E+03  0.7957747E-01  0.3433190E+00
         13   -1    0    0    0    0  0.00000000000E+00  0.00000000000E+00  0.14999999963E+04  0.15000000000E+04  0.10566000000E+00 0. -1.
        994   -1    0    0    0    0 -0.00000000000E+00 -0.00000000000E+00  0.11368683772E-12  0.17120000000E+03  0.17120000000E+03 0.  0.
         13    1    1    2    0    0 -0.14268617072E+02  0.74175877385E+01  0.64406669065E+02  0.66384066048E+02  0.10566000000E+00 0. -1.
        994    1    1    2    0    0  0.56130465472E+01 -0.34175432580E+01  0.21839882101E+01  0.17134000029E+03  0.17120000000E+03 0.  0.
        998    1    1    2    0    0  0.86555705248E+01 -0.40000444805E+01  0.14334093390E+04  0.14334759337E+04  0.10000000000E+02 0. -1.
</event>
<event>
 5    1  0.1666761E-008  0.3812521E+03  0.7957747E-01  0.3445725E+00
         13   -1    0    0    0    0  0.00000000000E+00  0.00000000000E+00  0.14999999963E+04  0.15000000000E+04  0.10566000000E+00 0.  1.
        994   -1    0    0    0    0 -0.00000000000E+00 -0.00000000000E+00  0.11368683772E-12  0.17120000000E+03  0.17120000000E+03 0.  0.
         13    1    1    2    0    0 -0.15950256963E+02 -0.23539451827E+02  0.10286284531E+03  0.10672062874E+03  0.10566000000E+00 0.  1.
        994    1    1    2    0    0  0.33114379812E+02  0.21584074964E+02  0.87215204213E+01  0.17592026421E+03  0.17120000000E+03 0.  0.
        998    1    1    2    0    0 -0.17164122849E+02  0.19553768628E+01  0.13884156305E+04  0.13885591070E+04  0.10000000000E+02 0.  1.
</event>
<event>
 5    1  0.1666761E-008  0.3849542E+03  0.7957747E-01  0.3429866E+00
         13   -1    0    0    0    0  0.00000000000E+00  0.00000000000E+00  0.14999999963E+04  0.15000000000E+04  0.10566000000E+00 0. -1.
        994   -1    0    0    0    0 -0.00000000000E+00 -0.00000000000E+00  0.11368683772E-12  0.17120000000E+03  0.17120000000E+03 0.  0.
         13    1    1    2    0    0 -0.10609536376E+02 -0.61544315909E+01  0.45289552110E+02  0.46921146455E+02  0.10566000000E+00 0. -1.
        994    1    1    2    0    0  0.96486077602E+01  0.73274035523E+00  0.19608952499E+01  0.17148445309E+03  0.17120000000E+03 0.  0.
        998    1    1    2    0    0  0.96092861541E+00  0.54216912357E+01  0.14527495489E+04  0.14527944005E+04  0.10000000000E+02 0. -1.
</event>
<event>
 5    1  0.1666761E-008  0.3844674E+03  0.7957747E-01  0.3431934E+00
         13   -1    0    0    0    0  0.00000000000E+00  0.00000000000E+00  0.14999999963E+04  0.15000000000E+04  0.10566000000E+00 0.  1.
        994   -1    0    0    0    0 -0.00000000000E+00 -0.00000000000E+00  0.11368683772E-12  0.17120000000E+03  0.17120000000E+03 0.  0.
         13    1    1    2    0    0 -0.45855972857E+01 -0.12429754722E+02  0.43120264885E+02  0.45109809495E+02  0.10566000000E+00 0.  1.
        994    1    1    2    0    0  0.10441787394E+02  0.19898427311E+02  0.35601531931E+01  0.17270522003E+03  0.17120000000E+03 0.  0.
        998    1    1    2    0    0 -0.58561901079E+01 -0.74686725891E+01  0.14533195782E+04  0.14533849705E+04  0.10000000000E+02 0.  1.
</event>
<event>
 5    1  0.1666761E-008  0.3762022E+03  0.7957747E-01  0.3467864E+00
         13   -1    0    0    0    0  0.00000000000E+00  0.00000000000E+00  0.14999999963E+04  0.15000000000E+04  0.10566000000E+00 0.  1.
        994   -1    0    0    0    0 -0.00000000000E+00 -0.00000000000E+00  0.11368683772E-12  0.17120000000E+03  0.17120000000E+03 0.  0.
         13    1    1    2    0    0  0.11174637068E+02 -0.12611070696E+02  0.34220946127E+01  0.17193996431E+02  0.10566000000E+00 0.  1.
        994    1    1    2    0    0 -0.80003551139E+01  0.19310631749E+02  0.15819494792E+02  0.17319527302E+03  0.17120000000E+03 0.  0.
        998    1    1    2    0    0 -0.31742819538E+01 -0.66995610528E+01  0.14807584069E+04  0.14808107306E+04  0.10000000000E+02 0.  1.
</event>
<event>
 5    1  0.1666761E-008  0.3823076E+03  0.7957747E-01  0.3441172E+00
         13   -1    0    0    0    0  0.00000000000E+00  0.00000000000E+00  0.14999999963E+04  0.15000000000E+04  0.10566000000E+00 0.  1.
        994   -1    0    0    0    0 -0.00000000000E+00 -0.00000000000E+00  0.11368683772E-12  0.17120000000E+03  0.17120000000E+03 0.  0.
         13    1    1    2    0    0  0.11641323107E+02 -0.88931776301E+01  0.34810779481E+02  0.37767850669E+02  0.10566000000E+00 0.  1.
        994    1    1    2    0    0 -0.70325301538E+01  0.10192081312E+02  0.34816634654E+01  0.17168254711E+03  0.17120000000E+03 0.  0.
        998    1    1    2    0    0 -0.46087929535E+01 -0.12989036824E+01  0.14617075533E+04  0.14617496022E+04  0.10000000000E+02 0.  1.
</event>
<event>
 5    1  0.1666761E-008  0.3891016E+03  0.7957747E-01  0.3412461E+00
         13   -1    0    0    0    0  0.00000000000E+00  0.00000000000E+00  0.14999999963E+04  0.15000000000E+04  0.10566000000E+00 0. -1.
        994   -1    0    0    0    0 -0.00000000000E+00 -0.00000000000E+00  0.11368683772E-12  0.17120000000E+03  0.17120000000E+03 0.  0.
         13    1    1    2    0    0  0.24845941824E+02 -0.17451718813E+02  0.11895488851E+02  0.32609770525E+02  0.10566000000E+00 0. -1.
        994    1    1    2    0    0 -0.24877492183E+02  0.38756962016E+02  0.29413929051E+02  0.17970979646E+03  0.17120000000E+03 0.  0.
        998    1    1    2    0    0  0.31550358323E-01 -0.21305243203E+02  0.14586905784E+04  0.14588804330E+04  0.10000000000E+02 0. -1.
</event>
<event>
 5    1  0.1666761E-008  0.3836742E+03  0.7957747E-01  0.3435315E+00
         13   -1    0    0    0    0  0.00000000000E+00  0.00000000000E+00  0.14999999963E+04  0.15000000000E+04  0.10566000000E+00 0.  1.
        994   -1    0    0    0    0 -0.00000000000E+00 -0.00000000000E+00  0.11368683772E-12  0.17120000000E+03  0.17120000000E+03 0.  0.
         13    1    1    2    0    0 -0.52539122278E+01  0.16627284963E+02  0.73230851865E+02  0.75278410105E+02  0.10566000000E+00 0.  1.
        994    1    1    2    0    0 -0.31649610028E+02 -0.38536966610E+01  0.56545519838E+01  0.17423536596E+03  0.17120000000E+03 0.  0.
        998    1    1    2    0    0  0.36903522256E+02 -0.12773588302E+02  0.14211145924E+04  0.14216862239E+04  0.10000000000E+02 0.  1.
</event>
<event>
 5    1  0.1666761E-008  0.3830575E+03  0.7957747E-01  0.3437953E+00
         13   -1    0    0    0    0  0.00000000000E+00  0.00000000000E+00  0.14999999963E+04  0.15000000000E+04  0.10566000000E+00 0.  1.
        994   -1    0    0    0    0 -0.00000000000E+00 -0.00000000000E+00  0.11368683772E-12  0.17120000000E+03  0.17120000000E+03 0.  0.
         13    1    1    2    0    0 -0.13976989471E+02  0.13076583299E+02  0.72824161367E+02  0.75297562433E+02  0.10566000000E+00 0.  1.
        994    1    1    2    0    0 -0.24247826280E+01 -0.91522563154E+01  0.28943794190E+01  0.17148603675E+03  0.17120000000E+03 0.  0.
        998    1    1    2    0    0  0.16401772099E+02 -0.39243269838E+01  0.14242814555E+04  0.14244164008E+04  0.10000000000E+02 0.  1.
</event>
<event>
 5    1  0.1666761E-008  0.3718384E+03  0.7957747E-01  0.3487485E+00
         13   -1    0    0    0    0  0.00000000000E+00  0.00000000000E+00  0.14999999963E+04  0.15000000000E+04  0.10566000000E+00 0. -1.
        994   -1    0    0    0    0 -0.00000000000E+00 -0.00000000000E+00  0.11368683772E-12  0.17120000000E+03  0.17120000000E+03 0.  0.
         13    1    1    2    0    0  0.12305418885E+02  0.57188597309E+01  0.73149575979E+01  0.15415850909E+02  0.10566000000E+00 0. -1.
        994    1    1    2    0    0 -0.42718138064E+01 -0.12658443123E+02  0.89248144951E+01  0.17195225177E+03  0.17120000000E+03 0.  0.
        998    1    1    2    0    0 -0.80336050782E+01  0.69395833922E+01  0.14837602242E+04  0.14838318973E+04  0.10000000000E+02 0. -1.
</event>
<event>
 5    1  0.1666761E-008  0.3826861E+03  0.7957747E-01  0.3439545E+00
         13   -1    0    0    0    0  0.00000000000E+00  0.00000000000E+00  0.14999999963E+04  0.15000000000E+04  0.10566000000E+00 0. -1.
        994   -1    0    0    0    0 -0.00000000000E+00 -0.00000000000E+00  0.11368683772E-12  0.17120000000E+03  0.17120000000E+03 0.  0.
         13    1    1    2    0    0  0.73579874227E+01  0.31191530782E+02  0.15771361541E+03  0.16093678020E+03  0.10566000000E+00 0. -1.
        994    1    1    2    0    0 -0.12301696243E+02 -0.37190415744E+02  0.78844767548E+01  0.17580120514E+03  0.17120000000E+03 0.  0.
        998    1    1    2    0    0  0.49437088203E+01  0.59988849623E+01  0.13344019041E+04  0.13344620147E+04  0.10000000000E+02 0. -1.
</event>
<event>
 5    1  0.1666761E-008  0.3715978E+03  0.7957747E-01  0.3488580E+00
         13   -1    0    0    0    0  0.00000000000E+00  0.00000000000E+00  0.14999999963E+04  0.15000000000E+04  0.10566000000E+00 0. -1.
        994   -1    0    0    0    0 -0.00000000000E+00 -0.00000000000E+00  0.11368683772E-12  0.17120000000E+03  0.17120000000E+03 0.  0.
         13    1    1    2    0    0 -0.10760786025E+02 -0.29892374296E+02  0.54402322344E+02  0.62999780931E+02  0.10566000000E+00 0. -1.
        994    1    1    2    0    0  0.70624653803E+01  0.33456794220E+02  0.12467592198E+02  0.17502604478E+03  0.17120000000E+03 0.  0.
        998    1    1    2    0    0  0.36983206445E+01 -0.35644199241E+01  0.14331300817E+04  0.14331741743E+04  0.10000000000E+02 0. -1.
</event>
<event>
 5    1  0.1666761E-008  0.3704281E+03  0.7957747E-01  0.3493926E+00
         13   -1    0    0    0    0  0.00000000000E+00  0.00000000000E+00  0.14999999963E+04  0.15000000000E+04  0.10566000000E+00 0.  1.
        994   -1    0    0    0    0 -0.00000000000E+00 -0.00000000000E+00  0.11368683772E-12  0.17120000000E+03  0.17120000000E+03 0.  0.
         13    1    1    2    0    0  0.63679219198E+02  0.74806151158E+02  0.32694924124E+03  0.34138954395E+03  0.10566000000E+00 0.  1.
        994    1    1    2    0    0 -0.67981622592E+02 -0.11163943051E+03  0.70567691109E+02  0.22665855926E+03  0.17120000000E+03 0.  0.
        998    1    1    2    0    0  0.43024033938E+01  0.36833279355E+02  0.11024830639E+04  0.11031518968E+04  0.10000000000E+02 0. -1.
</event>
<event>
 5    1  0.1666761E-008  0.3849475E+03  0.7957747E-01  0.3429895E+00
         13   -1    0    0    0    0  0.00000000000E+00  0.00000000000E+00  0.14999999963E+04  0.15000000000E+04  0.10566000000E+00 0. -1.
        994   -1    0    0    0    0 -0.00000000000E+00 -0.00000000000E+00  0.11368683772E-12  0.17120000000E+03  0.17120000000E+03 0.  0.
         13    1    1    2    0    0 -0.11577263621E+02 -0.17988775420E+02  0.12629605217E+03  0.12809501564E+03  0.10566000000E+00 0. -1.
        994    1    1    2    0    0  0.21341435459E+02  0.14653428058E+02  0.38636586868E+01  0.17318934055E+03  0.17120000000E+03 0.  0.
        998    1    1    2    0    0 -0.97641718381E+01  0.33353473615E+01  0.13698402854E+04  0.13699156438E+04  0.10000000000E+02 0. -1.
</event>
<event>
 5    1  0.1666761E-008  0.3866047E+03  0.7957747E-01  0.3422895E+00
         13   -1    0    0    0    0  0.00000000000E+00  0.00000000000E+00  0.14999999963E+04  0.15000000000E+04  0.10566000000E+00 0. -1.
        994   -1    0    0    0    0 -0.00000000000E+00 -0.00000000000E+00  0.11368683772E-12  0.17120000000E+03  0.17120000000E+03 0.  0.
         13    1    1    2    0    0  0.10387247433E+02  0.14847485922E+03  0.41266728708E+03  0.43868779299E+03  0.10566000000E+00 0. -1.
        994    1    1    2    0    0 -0.15669716788E+02 -0.13442621909E+03  0.91699090795E+02  0.23671525438E+03  0.17120000000E+03 0.  0.
        998    1    1    2    0    0  0.52824693546E+01 -0.14048640130E+02  0.99563361841E+03  0.99579695263E+03  0.10000000000E+02 0. -1.
</event>
<event>
 5    1  0.1666761E-008  0.3792409E+03  0.7957747E-01  0.3454470E+00
         13   -1    0    0    0    0  0.00000000000E+00  0.00000000000E+00  0.14999999963E+04  0.15000000000E+04  0.10566000000E+00 0.  1.
        994   -1    0    0    0    0 -0.00000000000E+00 -0.00000000000E+00  0.11368683772E-12  0.17120000000E+03  0.17120000000E+03 0.  0.
         13    1    1    2    0    0 -0.32515251187E+02  0.10221028919E+02  0.12967871621E+03  0.13408315179E+03  0.10566000000E+00 0.  1.
        994    1    1    2    0    0 -0.16350994702E+01 -0.79471127839E+02  0.25991460391E+02  0.19053432689E+03  0.17120000000E+03 0.  0.
        998    1    1    2    0    0  0.34150350657E+02  0.69250098920E+02  0.13443298197E+04  0.13465825213E+04  0.10000000000E+02 0.  1.
</event>
<event>
 5    1  0.1666761E-008  0.3845279E+03  0.7957747E-01  0.3431677E+00
         13   -1    0    0    0    0  0.00000000000E+00  0.00000000000E+00  0.14999999963E+04  0.15000000000E+04  0.10566000000E+00 0. -1.
        994   -1    0    0    0    0 -0.00000000000E+00 -0.00000000000E+00  0.11368683772E-12  0.17120000000E+03  0.17120000000E+03 0.  0.
         13    1    1    2    0    0 -0.12537382297E+02  0.10383405381E+02  0.64927823023E+02  0.66937541251E+02  0.10566000000E+00 0. -1.
        994    1    1    2    0    0  0.26752445960E+02 -0.78857325088E+01  0.44310114968E+01  0.17351354992E+03  0.17120000000E+03 0.  0.
        998    1    1    2    0    0 -0.14215063662E+02 -0.24976728723E+01  0.14306411618E+04  0.14307489088E+04  0.10000000000E+02 0. -1.
</event>
<event>
 5    1  0.1666761E-008  0.3847629E+03  0.7957747E-01  0.3430679E+00
         13   -1    0    0    0    0  0.00000000000E+00  0.00000000000E+00  0.14999999963E+04  0.15000000000E+04  0.10566000000E+00 0. -1.
        994   -1    0    0    0    0 -0.00000000000E+00 -0.00000000000E+00  0.11368683772E-12  0.17120000000E+03  0.17120000000E+03 0.  0.
         13    1    1    2    0    0  0.17285060342E+02 -0.11596881174E+02  0.12572320997E+03  0.12743467995E+03  0.10566000000E+00 0. -1.
        994    1    1    2    0    0 -0.10604512552E+02  0.43507969918E+01  0.21804446217E+01  0.17159714292E+03  0.17120000000E+03 0.  0.
        998    1    1    2    0    0 -0.66805477901E+01  0.72460841825E+01  0.13720963417E+04  0.13721681771E+04  0.10000000000E+02 0. -1.
</event>
<event>
 5    1  0.1666761E-008  0.3797550E+03  0.7957747E-01  0.3452226E+00
         13   -1    0    0    0    0  0.00000000000E+00  0.00000000000E+00  0.14999999963E+04  0.15000000000E+04  0.10566000000E+00 0. -1.
        994   -1    0    0    0    0 -0.00000000000E+00 -0.00000000000E+00  0.11368683772E-12  0.17120000000E+03  0.17120000000E+03 0.  0.
         13    1    1    2    0    0 -0.25756615876E+02  0.61108298094E+02  0.39268741170E+03  0.39824746306E+03  0.10566000000E+00 0. -1.
        994    1    1    2    0    0  0.31523555505E+02 -0.56021603223E+02  0.18207735871E+02  0.18377463433E+03  0.17120000000E+03 0.  0.
        998    1    1    2    0    0 -0.57669396294E+01 -0.50866948703E+01  0.10891048487E+04  0.10891779026E+04  0.10000000000E+02 0. -1.
</event>
<event>
 5    1  0.1666761E-008  0.3848156E+03  0.7957747E-01  0.3430455E+00
         13   -1    0    0    0    0  0.00000000000E+00  0.00000000000E+00  0.14999999963E+04  0.15000000000E+04  0.10566000000E+00 0. -1.
        994   -1    0    0    0    0 -0.00000000000E+00 -0.00000000000E+00  0.11368683772E-12  0.17120000000E+03  0.17120000000E+03 0.  0.
         13    1    1    2    0    0  0.31036144831E+01 -0.10212440709E+02  0.38788797293E+02  0.40230688878E+02  0.10566000000E+00 0. -1.
        994    1    1    2    0    0  0.18786094596E+02 -0.21859750734E+02  0.44602571992E+01  0.17366663452E+03  0.17120000000E+03 0.  0.
        998    1    1    2    0    0 -0.21889709079E+02  0.32072191443E+02  0.14567509418E+04  0.14573026766E+04  0.10000000000E+02 0. -1.
</event>
<event>
 5    1  0.1666761E-008  0.3739698E+03  0.7957747E-01  0.3477843E+00
         13   -1    0    0    0    0  0.00000000000E+00  0.00000000000E+00  0.14999999963E+04  0.15000000000E+04  0.10566000000E+00 0.  1.
        994   -1    0    0    0    0 -0.00000000000E+00 -0.00000000000E+00  0.11368683772E-12  0.17120000000E+03  0.17120000000E+03 0.  0.
         13    1    1    2    0    0  0.51373081804E+02  0.12086624546E+03  0.40432007832E+03  0.42511478417E+03  0.10566000000E+00 0.  1.
        994    1    1    2    0    0 -0.43155299168E+02 -0.14266168414E+03  0.96609516322E+02  0.24669328044E+03  0.17120000000E+03 0.  0.
        998    1    1    2    0    0 -0.82177826359E+01  0.21795438681E+02  0.99907040164E+03  0.99939193539E+03  0.10000000000E+02 0.  1.
</event>
<event>
 5    1  0.1666761E-008  0.3856862E+03  0.7957747E-01  0.3426767E+00
         13   -1    0    0    0    0  0.00000000000E+00  0.00000000000E+00  0.14999999963E+04  0.15000000000E+04  0.10566000000E+00 0. -1.
        994   -1    0    0    0    0 -0.00000000000E+00 -0.00000000000E+00  0.11368683772E-12  0.17120000000E+03  0.17120000000E+03 0.  0.
         13    1    1    2    0    0  0.12257586566E+01 -0.12855330259E+02 -0.52020970096E+01  0.13922463061E+02  0.10566000000E+00 0. -1.
        994    1    1    2    0    0 -0.82872287856E+02  0.42912649864E+02  0.52486645160E+02  0.20192473730E+03  0.17120000000E+03 0.  0.
        998    1    1    2    0    0  0.81646529199E+02 -0.30057319605E+02  0.14527154481E+04  0.14553527996E+04  0.10000000000E+02 0. -1.
</event>
<event>
 5    1  0.1666761E-008  0.3706761E+03  0.7957747E-01  0.3492790E+00
         13   -1    0    0    0    0  0.00000000000E+00  0.00000000000E+00  0.14999999963E+04  0.15000000000E+04  0.10566000000E+00 0.  1.
        994   -1    0    0    0    0 -0.00000000000E+00 -0.00000000000E+00  0.11368683772E-12  0.17120000000E+03  0.17120000000E+03 0.  0.
         13    1    1    2    0    0  0.25614221119E+02  0.36158416952E+02  0.78862876217E+02  0.90459293880E+02  0.10566000000E+00 0.  1.
        994    1    1    2    0    0 -0.17960245197E+02 -0.41539831317E+02  0.18508585809E+02  0.17804531935E+03  0.17120000000E+03 0.  0.
        998    1    1    2    0    0 -0.76539759222E+01  0.53814143656E+01  0.14026285343E+04  0.14026953868E+04  0.10000000000E+02 0.  1.
</event>
<event>
 5    1  0.1666761E-008  0.3790234E+03  0.7957747E-01  0.3455422E+00
         13   -1    0    0    0    0  0.00000000000E+00  0.00000000000E+00  0.14999999963E+04  0.15000000000E+04  0.10566000000E+00 0.  1.
        994   -1    0    0    0    0 -0.00000000000E+00 -0.00000000000E+00  0.11368683772E-12  0.17120000000E+03  0.17120000000E+03 0.  0.
         13    1    1    2    0    0 -0.16060243919E+02 -0.34162284060E+02  0.16015083183E+03  0.16453964017E+03  0.10566000000E+00 0.  1.
        994    1    1    2    0    0  0.31648760452E+02  0.18086492826E+01  0.80045288683E+01  0.17429408404E+03  0.17120000000E+03 0.  0.
        998    1    1    2    0    0 -0.15588516534E+02  0.32353634777E+02  0.13318446356E+04  0.13323662758E+04  0.10000000000E+02 0.  1.
</event>
<event>
 5    1  0.1666761E-008  0.3795363E+03  0.7957747E-01  0.3453180E+00
         13   -1    0    0    0    0  0.00000000000E+00  0.00000000000E+00  0.14999999963E+04  0.15000000000E+04  0.10566000000E+00 0.  1.
        994   -1    0    0    0    0 -0.00000000000E+00 -0.00000000000E+00  0.11368683772E-12  0.17120000000E+03  0.17120000000E+03 0.  0.
         13    1    1    2    0    0 -0.33417352833E+02 -0.14514558196E+01  0.15430261899E+03  0.15788646422E+03  0.10566000000E+00 0.  1.
        994    1    1    2    0    0 -0.10618314334E+02  0.38887184429E+02  0.98270916493E+01  0.17615610532E+03  0.17120000000E+03 0.  0.
        998    1    1    2    0    0  0.44035667167E+02 -0.37435728609E+02  0.13358702856E+04  0.13371574305E+04  0.10000000000E+02 0.  1.
</event>
<event>
 5    1  0.1666761E-008  0.3822655E+03  0.7957747E-01  0.3441353E+00
         13   -1    0    0    0    0  0.00000000000E+00  0.00000000000E+00  0.14999999963E+04  0.15000000000E+04  0.10566000000E+00 0. -1.
        994   -1    0    0    0    0 -0.00000000000E+00 -0.00000000000E+00  0.11368683772E-12  0.17120000000E+03  0.17120000000E+03 0.  0.
         13    1    1    2    0    0 -0.10829180552E+02  0.12587419098E+01  0.18548988707E+02  0.21515848316E+02  0.10566000000E+00 0. -1.
        994    1    1    2    0    0  0.98490196321E+01 -0.10132896032E+01  0.33192103337E+01  0.17151818300E+03  0.17120000000E+03 0.  0.
        998    1    1    2    0    0  0.98016092032E+00 -0.24545230658E+00  0.14781317972E+04  0.14781659687E+04  0.10000000000E+02 0. -1.
</event>
<event>
 5    1  0.1666761E-008  0.3802616E+03  0.7957747E-01  0.3450020E+00
         13   -1    0    0    0    0  0.00000000000E+00  0.00000000000E+00  0.14999999963E+04  0.15000000000E+04  0.10566000000E+00 0. -1.
        994   -1    0    0    0    0 -0.00000000000E+00 -0.00000000000E+00  0.11368683772E-12  0.17120000000E+03  0.17120000000E+03 0.  0.
         13    1    1    2    0    0  0.18577913729E+02 -0.39264827813E+01  0.42912107479E+02  0.46925646270E+02  0.10566000000E+00 0. -1.
        994    1    1    2    0    0 -0.16142715183E+02  0.43431571910E+01  0.49350617214E+01  0.17208499383E+03  0.17120000000E+03 0.  0.
        998    1    1    2    0    0 -0.24351985461E+01 -0.41667440970E+00  0.14521528271E+04  0.14521893599E+04  0.10000000000E+02 0. -1.
</event>
<event>
 5    1  0.1666761E-008  0.3857352E+03  0.7957747E-01  0.3426560E+00
         13   -1    0    0    0    0  0.00000000000E+00  0.00000000000E+00  0.14999999963E+04  0.15000000000E+04  0.10566000000E+00 0. -1.
        994   -1    0    0    0    0 -0.00000000000E+00 -0.00000000000E+00  0.11368683772E-12  0.17120000000E+03  0.17120000000E+03 0.  0.
         13    1    1    2    0    0  0.11604256212E+02 -0.57113720128E+01  0.68367084144E+02  0.69579795134E+02  0.10566000000E+00 0. -1.
        994    1    1    2    0    0 -0.35407085928E+01  0.42451748172E+01  0.13658152493E+01  0.17129466885E+03  0.17120000000E+03 0.  0.
        998    1    1    2    0    0 -0.80635476197E+01  0.14661971956E+01  0.14302670969E+04  0.14303255360E+04  0.10000000000E+02 0. -1.
</event>
<event>
 5    1  0.1666761E-008  0.3850283E+03  0.7957747E-01  0.3429552E+00
         13   -1    0    0    0    0  0.00000000000E+00  0.00000000000E+00  0.14999999963E+04  0.15000000000E+04  0.10566000000E+00 0.  1.
        994   -1    0    0    0    0 -0.00000000000E+00 -0.00000000000E+00  0.11368683772E-12  0.17120000000E+03  0.17120000000E+03 0.  0.
         13    1    1    2    0    0  0.81429943506E+01  0.85307551920E+01  0.42802395945E+02  0.44397504477E+02  0.10566000000E+00 0.  1.
        994    1    1    2    0    0 -0.66594616070E+01 -0.54598886066E+01  0.18599959679E+01  0.17142653936E+03  0.17120000000E+03 0.  0.
        998    1    1    2    0    0 -0.14835327436E+01 -0.30708665854E+01  0.14553376044E+04  0.14553759562E+04  0.10000000000E+02 0.  1.
</event>
<event>
 5    1  0.1666761E-008  0.3706626E+03  0.7957747E-01  0.3492851E+00
         13   -1    0    0    0    0  0.00000000000E+00  0.00000000000E+00  0.14999999963E+04  0.15000000000E+04  0.10566000000E+00 0. -1.
        994   -1    0    0    0    0 -0.00000000000E+00 -0.00000000000E+00  0.11368683772E-12  0.17120000000E+03  0.17120000000E+03 0.  0.
         13    1    1    2    0    0 -0.12637987885E+02  0.40128958486E+02  0.75432547286E+02  0.86372057988E+02  0.10566000000E+00 0. -1.
        994    1    1    2    0    0 -0.56601847045E+01 -0.25721320099E+02  0.13723909311E+02  0.17375675436E+03  0.17120000000E+03 0.  0.
        998    1    1    2    0    0  0.18298172590E+02 -0.14407638388E+02  0.14108435397E+04  0.14110711877E+04  0.10000000000E+02 0. -1.
</event>
<event>
 5    1  0.1666761E-008  0.3738853E+03  0.7957747E-01  0.3478223E+00
         13   -1    0    0    0    0  0.00000000000E+00  0.00000000000E+00  0.14999999963E+04  0.15000000000E+04  0.10566000000E+00 0.  1.
        994   -1    0    0    0    0 -0.00000000000E+00 -0.00000000000E+00  0.11368683772E-12  0.17120000000E+03  0.17120000000E+03 0.  0.
         13    1    1    2    0    0  0.12190586600E+03 -0.63389960169E+02  0.41416927834E+03  0.43636627906E+03  0.10566000000E+00 0.  1.
        994    1    1    2    0    0 -0.13911762111E+03  0.80041743521E+02  0.11089486410E+03  0.25955250739E+03  0.17120000000E+03 0.  0.
        998    1    1    2    0    0  0.17211755111E+02 -0.16651783352E+02  0.97493585384E+03  0.97528121355E+03  0.10000000000E+02 0.  1.
</event>
<event>
 5    1  0.1666761E-008  0.3733907E+03  0.7957747E-01  0.3480452E+00
         13   -1    0    0    0    0  0.00000000000E+00  0.00000000000E+00  0.14999999963E+04  0.15000000000E+04  0.10566000000E+00 0. -1.
        994   -1    0    0    0    0 -0.00000000000E+00 -0.00000000000E+00  0.11368683772E-12  0.17120000000E+03  0.17120000000E+03 0.  0.
         13    1    1    2    0    0  0.48757948984E+02  0.78675067104E+02  0.42675515008E+03  0.43667730998E+03  0.10566000000E+00 0. -1.
        994    1    1    2    0    0 -0.49765417783E+02 -0.70620845189E+02  0.33463551719E+02  0.19466162918E+03  0.17120000000E+03 0.  0.
        998    1    1    2    0    0  0.10074687981E+01 -0.80542219148E+01  0.10397812945E+04  0.10398610608E+04  0.10000000000E+02 0. -1.
</event>
<event>
 5    1  0.1666761E-008  0.3711607E+03  0.7957747E-01  0.3490573E+00
         13   -1    0    0    0    0  0.00000000000E+00  0.00000000000E+00  0.14999999963E+04  0.15000000000E+04  0.10566000000E+00 0. -1.
        994   -1    0    0    0    0 -0.00000000000E+00 -0.00000000000E+00  0.11368683772E-12  0.17120000000E+03  0.17120000000E+03 0.  0.
         13    1    1    2    0    0  0.68404467059E+02 -0.15291898918E+02  0.18251079315E+03  0.19550758058E+03  0.10566000000E+00 0. -1.
        994    1    1    2    0    0 -0.69526800096E+02  0.17679063454E+02  0.29845555922E+02  0.18800724035E+03  0.17120000000E+03 0.  0.
        998    1    1    2    0    0  0.11223330376E+01 -0.23871645354E+01  0.12876436472E+04  0.12876851791E+04  0.10000000000E+02 0. -1.
</event>
<event>
 5    1  0.1666761E-008  0.3779074E+03  0.7957747E-01  0.3460321E+00
         13   -1    0    0    0    0  0.00000000000E+00  0.00000000000E+00  0.14999999963E+04  0.15000000000E+04  0.10566000000E+00 0. -1.
        994   -1    0    0    0    0 -0.00000000000E+00 -0.00000000000E+00  0.11368683772E-12  0.17120000000E+03  0.17120000000E+03 0.  0.
         13    1    1    2    0    0 -0.35417777851E+02 -0.47242884815E+02  0.27027608084E+03  0.27665046574E+03  0.10566000000E+00 0. -1.
        994    1    1    2    0    0  0.39791198060E+02  0.46706254508E+02  0.17972875138E+02  0.18274922132E+03  0.17120000000E+03 0.  0.
        998    1    1    2    0    0 -0.43734202089E+01  0.53663030730E+00  0.12117510403E+04  0.12118003129E+04  0.10000000000E+02 0. -1.
</event>
<event>
 5    1  0.1666761E-008  0.3861952E+03  0.7957747E-01  0.3424619E+00
         13   -1    0    0    0    0  0.00000000000E+00  0.00000000000E+00  0.14999999963E+04  0.15000000000E+04  0.10566000000E+00 0.  1.
        994   -1    0    0    0    0 -0.00000000000E+00 -0.00000000000E+00  0.11368683772E-12  0.17120000000E+03  0.17120000000E+03 0.  0.
         13    1    1    2    0    0 -0.12148684299E+02  0.34286251640E+01  0.73956621608E+02  0.75026255701E+02  0.10566000000E+00 0.  1.
        994    1    1    2    0    0  0.14427371532E+02 -0.25505692932E+01  0.17414202165E+01  0.17183459197E+03  0.17120000000E+03 0.  0.
        998    1    1    2    0    0 -0.22786872326E+01 -0.87805587085E+00  0.14243019545E+04  0.14243391523E+04  0.10000000000E+02 0.  1.
</event>
<event>
 5    1  0.1666761E-008  0.3846147E+03  0.7957747E-01  0.3431308E+00
         13   -1    0    0    0    0  0.00000000000E+00  0.00000000000E+00  0.14999999963E+04  0.15000000000E+04  0.10566000000E+00 0. -1.
        994   -1    0    0    0    0 -0.00000000000E+00 -0.00000000000E+00  0.11368683772E-12  0.17120000000E+03  0.17120000000E+03 0.  0.
         13    1    1    2    0    0  0.88771991561E+01  0.78051601357E+01  0.38191302395E+02  0.39978893585E+02  0.10566000000E+00 0. -1.
        994    1    1    2    0    0 -0.67087449390E+01 -0.32366084553E+01  0.20042827270E+01  0.17137368538E+03  0.17120000000E+03 0.  0.
        998    1    1    2    0    0 -0.21684542170E+01 -0.45685516804E+01  0.14598044112E+04  0.14598474210E+04  0.10000000000E+02 0. -1.
</event>
<event>
 5    1  0.1666761E-008  0.3784635E+03  0.7957747E-01  0.3457876E+00
         13   -1    0    0    0    0  0.00000000000E+00  0.00000000000E+00  0.14999999963E+04  0.15000000000E+04  0.10566000000E+00 0. -1.
        994   -1    0    0    0    0 -0.00000000000E+00 -0.00000000000E+00  0.11368683772E-12  0.17120000000E+03  0.17120000000E+03 0.  0.
         13    1    1    2    0    0 -0.33091666679E+02 -0.13806482658E+01  0.10904533784E+03  0.11396429907E+03  0.10566000000E+00 0. -1.
        994    1    1    2    0    0  0.22015430474E+02 -0.66126844862E+01  0.66882501817E+01  0.17286578454E+03  0.17120000000E+03 0.  0.
        998    1    1    2    0    0  0.11076236205E+02  0.79933327520E+01  0.13842664083E+04  0.13843699164E+04  0.10000000000E+02 0. -1.
</event>
<event>
 5    1  0.1666761E-008  0.3815388E+03  0.7957747E-01  0.3444485E+00
         13   -1    0    0    0    0  0.00000000000E+00  0.00000000000E+00  0.14999999963E+04  0.15000000000E+04  0.10566000000E+00 0. -1.
        994   -1    0    0    0    0 -0.00000000000E+00 -0.00000000000E+00  0.11368683772E-12  0.17120000000E+03  0.17120000000E+03 0.  0.
         13    1    1    2    0    0  0.81260526090E+01 -0.61600930623E+01  0.16141800109E+02  0.19093149356E+02  0.10566000000E+00 0. -1.
        994    1    1    2    0    0  0.31468888242E+02 -0.32975028557E+02  0.10299662292E+02  0.17746314118E+03  0.17120000000E+03 0.  0.
        998    1    1    2    0    0 -0.39594940851E+02  0.39135121619E+02  0.14735585339E+04  0.14746437095E+04  0.10000000000E+02 0. -1.
</event>
<event>
 5    1  0.1666761E-008  0.3705032E+03  0.7957747E-01  0.3493582E+00
         13   -1    0    0    0    0  0.00000000000E+00  0.00000000000E+00  0.14999999963E+04  0.15000000000E+04  0.10566000000E+00 0. -1.
        994   -1    0    0    0    0 -0.00000000000E+00 -0.00000000000E+00  0.11368683772E-12  0.17120000000E+03  0.17120000000E+03 0.  0.
         13    1    1    2    0    0  0.18664094069E+02 -0.28647500954E+02  0.59039398226E+02  0.68225284355E+02  0.10566000000E+00 0. -1.
        994    1    1    2    0    0 -0.13965480139E+02  0.33506431016E+02  0.13568259158E+02  0.17553134538E+03  0.17120000000E+03 0.  0.
        998    1    1    2    0    0 -0.46986139304E+01 -0.48589300614E+01  0.14273923389E+04  0.14274433703E+04  0.10000000000E+02 0. -1.
</event>
<event>
 5    1  0.1666761E-008  0.3836555E+03  0.7957747E-01  0.3435394E+00
         13   -1    0    0    0    0  0.00000000000E+00  0.00000000000E+00  0.14999999963E+04  0.15000000000E+04  0.10566000000E+00 0. -1.
        994   -1    0    0    0    0 -0.00000000000E+00 -0.00000000000E+00  0.11368683772E-12  0.17120000000E+03  0.17120000000E+03 0.  0.
         13    1    1    2    0    0 -0.33906009690E+01 -0.99092977623E+01  0.20313374856E+02  0.22854643274E+02  0.10566000000E+00 0. -1.
        994    1    1    2    0    0  0.24638515773E+02  0.40398076412E+02  0.97302447562E+01  0.17788529647E+03  0.17120000000E+03 0.  0.
        998    1    1    2    0    0 -0.21247914804E+02 -0.30488778650E+02  0.14699563767E+04  0.14704600603E+04  0.10000000000E+02 0. -1.
</event>
<event>
 5    1  0.1666761E-008  0.3841591E+03  0.7957747E-01  0.3433246E+00
         13   -1    0    0    0    0  0.00000000000E+00  0.00000000000E+00  0.14999999963E+04  0.15000000000E+04  0.10566000000E+00 0. -1.
        994   -1    0    0    0    0 -0.00000000000E+00 -0.00000000000E+00  0.11368683772E-12  0.17120000000E+03  0.17120000000E+03 0.  0.
         13    1    1    2    0    0 -0.12886307030E+02 -0.15332843216E+02  0.97633158470E+02  0.99666432598E+02  0.10566000000E+00 0. -1.
        994    1    1    2    0    0  0.86138918458E+01  0.91350387978E+01  0.25682438698E+01  0.17167901428E+03  0.17120000000E+03 0.  0.
        998    1    1    2    0    0  0.42724151843E+01  0.61978044185E+01  0.13997985939E+04  0.13998545531E+04  0.10000000000E+02 0. -1.
</event>
<event>
 5    1  0.1666761E-008  0.3861501E+03  0.7957747E-01  0.3424809E+00
         13   -1    0    0    0    0  0.00000000000E+00  0.00000000000E+00  0.14999999963E+04  0.15000000000E+04  0.10566000000E+00 0.  1.
        994   -1    0    0    0    0 -0.00000000000E+00 -0.00000000000E+00  0.11368683772E-12  0.17120000000E+03  0.17120000000E+03 0.  0.
         13    1    1    2    0    0 -0.37325670725E+01  0.10119438816E+02  0.58676463262E+02  0.59659648037E+02  0.10566000000E+00 0.  1.
        994    1    1    2    0    0 -0.32940193829E+01 -0.14270115874E+01  0.11024497946E+01  0.17124118173E+03  0.17120000000E+03 0.  0.
        998    1    1    2    0    0  0.70265864554E+01 -0.86924272289E+01  0.14402210832E+04  0.14402991702E+04  0.10000000000E+02 0.  1.
</event>
<event>
 5    1  0.1666761E-008  0.3757675E+03  0.7957747E-01  0.3469797E+00
         13   -1    0    0    0    0  0.00000000000E+00  0.00000000000E+00  0.14999999963E+04  0.15000000000E+04  0.10566000000E+00 0. -1.
        994   -1    0    0    0    0 -0.00000000000E+00 -0.00000000000E+00  0.11368683772E-12  0.17120000000E+03  0.17120000000E+03 0.  0.
         13    1    1    2    0    0  0.81996891598E+02  0.23637622652E+02  0.40929226572E+03  0.41809376626E+03  0.10566000000E+00 0. -1.
        994    1    1    2    0    0  0.53123537072E+01  0.32091811094E+02  0.17806366103E+02  0.17517023753E+03  0.17120000000E+03 0.  0.
        998    1    1    2    0    0 -0.87309245305E+02 -0.55729433746E+02  0.10729013645E+04  0.10779359962E+04  0.10000000000E+02 0. -1.
</event>
<event>
 5    1  0.1666761E-008  0.3700217E+03  0.7957747E-01  0.3495791E+00
         13   -1    0    0    0    0  0.00000000000E+00  0.00000000000E+00  0.14999999963E+04  0.15000000000E+04  0.10566000000E+00 0. -1.
        994   -1    0    0    0    0 -0.00000000000E+00 -0.00000000000E+00  0.11368683772E-12  0.17120000000E+03  0.17120000000E+03 0.  0.
         13    1    1    2    0    0  0.58493045467E+02 -0.66520058159E+02  0.31090451699E+03  0.32327694684E+03  0.10566000000E+00 0. -1.
        994    1    1    2    0    0 -0.63170493602E+02  0.41892399549E+02  0.31317730570E+02  0.18983077898E+03  0.17120000000E+03 0.  0.
        998    1    1    2    0    0  0.46774481349E+01  0.24627658610E+02  0.11577777487E+04  0.11580922742E+04  0.10000000000E+02 0. -1.
</event>
<event>
 5    1  0.1666761E-008  0.3777990E+03  0.7957747E-01  0.3460798E+00
         13   -1    0    0    0    0  0.00000000000E+00  0.00000000000E+00  0.14999999963E+04  0.15000000000E+04  0.10566000000E+00 0. -1.
        994   -1    0    0    0    0 -0.00000000000E+00 -0.00000000000E+00  0.11368683772E-12  0.17120000000E+03  0.17120000000E+03 0.  0.
         13    1    1    2    0    0 -0.14556330087E+02 -0.36256491818E+02  0.21394661999E+03  0.21748468294E+03  0.10566000000E+00 0. -1.
        994    1    1    2    0    0 -0.37703139244E+02 -0.17054638105E+02  0.11036427889E+02  0.17647557942E+03  0.17120000000E+03 0.  0.
        998    1    1    2    0    0  0.52259469331E+02  0.53311129923E+02  0.12750169484E+04  0.12772397376E+04  0.10000000000E+02 0. -1.
</event>
<event>
 5    1  0.1666761E-008  0.3842533E+03  0.7957747E-01  0.3432845E+00
         13   -1    0    0    0    0  0.00000000000E+00  0.00000000000E+00  0.14999999963E+04  0.15000000000E+04  0.10566000000E+00 0. -1.
        994   -1    0    0    0    0 -0.00000000000E+00 -0.00000000000E+00  0.11368683772E-12  0.17120000000E+03  0.17120000000E+03 0.  0.
         13    1    1    2    0    0 -0.98273092393E+01 -0.19926697641E+01  0.25527241635E+02  0.27426227761E+02  0.10566000000E+00 0. -1.
        994    1    1    2    0    0 -0.58752466927E+01  0.12604401305E+02  0.26391134709E+01  0.17178415054E+03  0.17120000000E+03 0.  0.
        998    1    1    2    0    0  0.15702555932E+02 -0.10611731541E+02  0.14718336412E+04  0.14719896217E+04  0.10000000000E+02 0. -1.
</event>
<event>
 5    1  0.1666761E-008  0.3727353E+03  0.7957747E-01  0.3483414E+00
         13   -1    0    0    0    0  0.00000000000E+00  0.00000000000E+00  0.14999999963E+04  0.15000000000E+04  0.10566000000E+00 0.  1.
        994   -1    0    0    0    0 -0.00000000000E+00 -0.00000000000E+00  0.11368683772E-12  0.17120000000E+03  0.17120000000E+03 0.  0.
         13    1    1    2    0    0 -0.51332575423E+00 -0.30609764776E+02  0.55257218149E+02  0.63171136799E+02  0.10566000000E+00 0.  1.
        994    1    1    2    0    0  0.29565004476E+01  0.28368580758E+02  0.10637987922E+02  0.17388537620E+03  0.17120000000E+03 0.  0.
        998    1    1    2    0    0 -0.24431746934E+01  0.22411840184E+01  0.14341047902E+04  0.14341434870E+04  0.10000000000E+02 0.  1.
</event>
<event>
 5    1  0.1666761E-008  0.3817057E+03  0.7957747E-01  0.3443765E+00
         13   -1    0    0    0    0  0.00000000000E+00  0.00000000000E+00  0.14999999963E+04  0.15000000000E+04  0.10566000000E+00 0.  1.
        994   -1    0    0    0    0 -0.00000000000E+00 -0.00000000000E+00  0.11368683772E-12  0.17120000000E+03  0.17120000000E+03 0.  0.
         13    1    1    2    0    0  0.36359024923E+01  0.23169726082E+02  0.78887954136E+02  0.82300525305E+02  0.10566000000E+00 0.  1.
        994    1    1    2    0    0 -0.90172929219E+01 -0.23425165568E+02  0.53718150373E+01  0.17311368043E+03  0.17120000000E+03 0.  0.
        998    1    1    2    0    0  0.53813904297E+01  0.25543948584E+00  0.14157402271E+04  0.14157857943E+04  0.10000000000E+02 0.  1.
</event>
<event>
 5    1  0.1666761E-008  0.3759852E+03  0.7957747E-01  0.3468828E+00
         13   -1    0    0    0    0  0.00000000000E+00  0.00000000000E+00  0.14999999963E+04  0.15000000000E+04  0.10566000000E+00 0. -1.
        994   -1    0    0    0    0 -0.00000000000E+00 -0.00000000000E+00  0.11368683772E-12  0.17120000000E+03  0.17120000000E+03 0.  0.
         13    1    1    2    0    0 -0.19266248521E+03  0.18476443078E+03  0.11122629694E+04  0.11438468657E+04  0.10566000000E+00 0. -1.
        994    1    1    2    0    0  0.18224941730E+03 -0.19185713847E+03  0.28996774196E+03  0.42826947483E+03  0.17120000000E+03 0.  0.
        998    1    1    2    0    0  0.10413067912E+02  0.70927076960E+01  0.97769284948E+02  0.99083659425E+02  0.10000000000E+02 0. -1.
</event>
<event>
 5    1  0.1666761E-008  0.3830715E+03  0.7957747E-01  0.3437893E+00
         13   -1    0    0    0    0  0.00000000000E+00  0.00000000000E+00  0.14999999963E+04  0.15000000000E+04  0.10566000000E+00 0. -1.
        994   -1    0    0    0    0 -0.00000000000E+00 -0.00000000000E+00  0.11368683772E-12  0.17120000000E+03  0.17120000000E+03 0.  0.
         13    1    1    2    0    0  0.12814836607E+02 -0.20126204806E+02  0.10334013661E+03  0.10605884761E+03  0.10566000000E+00 0. -1.
        994    1    1    2    0    0 -0.29123067694E+02  0.95721555322E+01  0.57069181959E+01  0.17401663182E+03  0.17120000000E+03 0.  0.
        998    1    1    2    0    0  0.16308231087E+02  0.10554049274E+02  0.13909529415E+04  0.13911245206E+04  0.10000000000E+02 0. -1.
</event>
<event>
 5    1  0.1666761E-008  0.3774114E+03  0.7957747E-01  0.3462508E+00
         13   -1    0    0    0    0  0.00000000000E+00  0.00000000000E+00  0.14999999963E+04  0.15000000000E+04  0.10566000000E+00 0. -1.
        994   -1    0    0    0    0 -0.00000000000E+00 -0.00000000000E+00  0.11368683772E-12  0.17120000000E+03  0.17120000000E+03 0.  0.
         13    1    1    2    0    0 -0.20787641149E+02 -0.28118229455E+02  0.10195847232E+03  0.10778822799E+03  0.10566000000E+00 0. -1.
        994    1    1    2    0    0  0.50201628610E+02  0.11383206888E+02  0.14432751473E+02  0.17935307421E+03  0.17120000000E+03 0.  0.
        998    1    1    2    0    0 -0.29413987462E+02  0.16735022566E+02  0.13836087725E+04  0.13840586978E+04  0.10000000000E+02 0. -1.
</event>
<event>
 5    1  0.1666761E-008  0.3859409E+03  0.7957747E-01  0.3425692E+00
         13   -1    0    0    0    0  0.00000000000E+00  0.00000000000E+00  0.14999999963E+04  0.15000000000E+04  0.10566000000E+00 0. -1.
        994   -1    0    0    0    0 -0.00000000000E+00 -0.00000000000E+00  0.11368683772E-12  0.17120000000E+03  0.17120000000E+03 0.  0.
         13    1    1    2    0    0  0.94391368322E+01  0.82740078175E+01  0.61259826822E+02  0.62532663911E+02  0.10566000000E+00 0. -1.
        994    1    1    2    0    0 -0.19191972362E+02 -0.14488401641E+02  0.30618994419E+01  0.17290766557E+03  0.17120000000E+03 0.  0.
        998    1    1    2    0    0  0.97528355302E+01  0.62143938238E+01  0.14356782700E+04  0.14357596705E+04  0.10000000000E+02 0. -1.
</event>
<event>
 5    1  0.1666761E-008  0.3745322E+03  0.7957747E-01  0.3475318E+00
         13   -1    0    0    0    0  0.00000000000E+00  0.00000000000E+00  0.14999999963E+04  0.15000000000E+04  0.10566000000E+00 0.  1.
        994   -1    0    0    0    0 -0.00000000000E+00 -0.00000000000E+00  0.11368683772E-12  0.17120000000E+03  0.17120000000E+03 0.  0.
         13    1    1    2    0    0 -0.16527884509E+02  0.24600528681E+02  0.63349661768E+02  0.69939600999E+02  0.10566000000E+00 0.  1.
        994    1    1    2    0    0  0.12114003476E+02 -0.74651449565E+00  0.74208090357E+01  0.17179003106E+03  0.17120000000E+03 0.  0.
        998    1    1    2    0    0  0.44138810331E+01 -0.23854014186E+02  0.14292295255E+04  0.14294703679E+04  0.10000000000E+02 0.  1.
</event>
<event>
 5    1  0.1666761E-008  0.3804026E+03  0.7957747E-01  0.3449407E+00
         13   -1    0    0    0    0  0.00000000000E+00  0.00000000000E+00  0.14999999963E+04  0.15000000000E+04  0.10566000000E+00 0. -1.
        994   -1    0    0    0    0 -0.00000000000E+00 -0.00000000000E+00  0.11368683772E-12  0.17120000000E+03  0.17120000000E+03 0.  0.
         13    1    1    2    0    0 -0.97230027455E+01  0.20900632228E+02  0.47794269331E+02  0.53062948984E+02  0.10566000000E+00 0. -1.
        994    1    1    2    0    0  0.71819717838E+02 -0.77838660100E+02  0.42333696427E+02  0.20571463421E+03  0.17120000000E+03 0.  0.
        998    1    1    2    0    0 -0.62096715092E+02  0.56938027872E+02  0.14098720305E+04  0.14124224168E+04  0.10000000000E+02 0. -1.
</event>
<event>
 5    1  0.1666761E-008  0.3781214E+03  0.7957747E-01  0.3459380E+00
         13   -1    0    0    0    0  0.00000000000E+00  0.00000000000E+00  0.14999999963E+04  0.15000000000E+04  0.10566000000E+00 0.  1.
        994   -1    0    0    0    0 -0.00000000000E+00 -0.00000000000E+00  0.11368683772E-12  0.17120000000E+03  0.17120000000E+03 0.  0.
         13    1    1    2    0    0  0.40579584818E+02  0.41329343514E+01  0.15543412203E+03  0.16069711045E+03  0.10566000000E+00 0.  1.
        994    1    1    2    0    0 -0.31086714080E+02  0.70824906389E+00  0.83437630011E+01  0.17420087196E+03  0.17120000000E+03 0.  0.
        998    1    1    2    0    0 -0.94928707379E+01 -0.48411834153E+01  0.13362221112E+04  0.13363020176E+04  0.10000000000E+02 0.  1.
</event>
<event>
 5    1  0.1666761E-008  0.3926060E+03  0.7957747E-01  0.3398041E+00
         13   -1    0    0    0    0  0.00000000000E+00  0.00000000000E+00  0.14999999963E+04  0.15000000000E+04  0.10566000000E+00 0.  1.
        994   -1    0    0    0    0 -0.00000000000E+00 -0.00000000000E+00  0.11368683772E-12  0.17120000000E+03  0.17120000000E+03 0.  0.
         13    1    1    2    0    0 -0.12564987182E+03  0.67600638591E+02  0.35387960537E+03  0.38156064117E+03  0.10566000000E+00 0.  1.
        994    1    1    2    0    0  0.10104414031E+03 -0.70493074844E+02  0.83764240649E+02  0.22694730645E+03  0.17120000000E+03 0.  0.
        998    1    1    2    0    0  0.24605731508E+02  0.28924362531E+01  0.10623561503E+04  0.10626920524E+04  0.10000000000E+02 0.  1.
</event>
<event>
 5    1  0.1666761E-008  0.3766209E+03  0.7957747E-01  0.3466005E+00
         13   -1    0    0    0    0  0.00000000000E+00  0.00000000000E+00  0.14999999963E+04  0.15000000000E+04  0.10566000000E+00 0. -1.
        994   -1    0    0    0    0 -0.00000000000E+00 -0.00000000000E+00  0.11368683772E-12  0.17120000000E+03  0.17120000000E+03 0.  0.
         13    1    1    2    0    0 -0.22575330482E+02  0.19871781046E+02  0.71998955566E+02  0.78028161551E+02  0.10566000000E+00 0. -1.
        994    1    1    2    0    0  0.17224213099E+02 -0.26096803676E+02  0.91612044265E+01  0.17427301669E+03  0.17120000000E+03 0.  0.
        998    1    1    2    0    0  0.53511173830E+01  0.62250226295E+01  0.14188398363E+04  0.14188988218E+04  0.10000000000E+02 0. -1.
</event>
<event>
 5    1  0.1666761E-008  0.3851839E+03  0.7957747E-01  0.3428893E+00
         13   -1    0    0    0    0  0.00000000000E+00  0.00000000000E+00  0.14999999963E+04  0.15000000000E+04  0.10566000000E+00 0.  1.
        994   -1    0    0    0    0 -0.00000000000E+00 -0.00000000000E+00  0.11368683772E-12  0.17120000000E+03  0.17120000000E+03 0.  0.
         13    1    1    2    0    0 -0.43855893944E+01 -0.11678784766E+02  0.53272442107E+02  0.54713724603E+02  0.10566000000E+00 0.  1.
        994    1    1    2    0    0  0.13503290756E+01 -0.78245211006E+00  0.15468865603E+01  0.17121410128E+03  0.17120000000E+03 0.  0.
        998    1    1    2    0    0  0.30352603189E+01  0.12461236876E+02  0.14451806676E+04  0.14452721741E+04  0.10000000000E+02 0.  1.
</event>
<event>
 5    1  0.1666761E-008  0.3693497E+03  0.7957747E-01  0.3498885E+00
         13   -1    0    0    0    0  0.00000000000E+00  0.00000000000E+00  0.14999999963E+04  0.15000000000E+04  0.10566000000E+00 0.  1.
        994   -1    0    0    0    0 -0.00000000000E+00 -0.00000000000E+00  0.11368683772E-12  0.17120000000E+03  0.17120000000E+03 0.  0.
         13    1    1    2    0    0 -0.75033915312E+02  0.48196149070E+02  0.48224689289E+03  0.49042332133E+03  0.10566000000E+00 0.  1.
        994    1    1    2    0    0  0.20813567038E+02 -0.89546849090E+01  0.12388143069E+02  0.17313664269E+03  0.17120000000E+03 0.  0.
        998    1    1    2    0    0  0.54220348274E+02 -0.39241464161E+02  0.10053649603E+04  0.10076400360E+04  0.10000000000E+02 0.  1.
</event>
<event>
 5    1  0.1666761E-008  0.3851482E+03  0.7957747E-01  0.3429044E+00
         13   -1    0    0    0    0  0.00000000000E+00  0.00000000000E+00  0.14999999963E+04  0.15000000000E+04  0.10566000000E+00 0.  1.
        994   -1    0    0    0    0 -0.00000000000E+00 -0.00000000000E+00  0.11368683772E-12  0.17120000000E+03  0.17120000000E+03 0.  0.
         13    1    1    2    0    0 -0.11789586989E+02  0.58403974161E+01  0.57069461709E+02  0.58566536752E+02  0.10566000000E+00 0.  1.
        994    1    1    2    0    0  0.32961300377E+01 -0.38463633009E+01  0.16409491902E+01  0.17128278284E+03  0.17120000000E+03 0.  0.
        998    1    1    2    0    0  0.84934569515E+01 -0.19940341152E+01  0.14412895854E+04  0.14413506804E+04  0.10000000000E+02 0.  1.
</event>
<event>
 5    1  0.1666761E-008  0.3781469E+03  0.7957747E-01  0.3459267E+00
         13   -1    0    0    0    0  0.00000000000E+00  0.00000000000E+00  0.14999999963E+04  0.15000000000E+04  0.10566000000E+00 0.  1.
        994   -1    0    0    0    0 -0.00000000000E+00 -0.00000000000E+00  0.11368683772E-12  0.17120000000E+03  0.17120000000E+03 0.  0.
         13    1    1    2    0    0 -0.42543284784E+02 -0.11538736118E+02  0.21150184872E+03  0.21604656139E+03  0.10566000000E+00 0.  1.
        994    1    1    2    0    0  0.10786324675E+02 -0.88886734590E+00  0.54655959943E+01  0.17162880768E+03  0.17120000000E+03 0.  0.
        998    1    1    2    0    0  0.31756960108E+02  0.12427603464E+02  0.12830325516E+04  0.12835246309E+04  0.10000000000E+02 0.  1.
</event>
<event>
 5    1  0.1666761E-008  0.3850838E+03  0.7957747E-01  0.3429317E+00
         13   -1    0    0    0    0  0.00000000000E+00  0.00000000000E+00  0.14999999963E+04  0.15000000000E+04  0.10566000000E+00 0.  1.
        994   -1    0    0    0    0 -0.00000000000E+00 -0.00000000000E+00  0.11368683772E-12  0.17120000000E+03  0.17120000000E+03 0.  0.
         13    1    1    2    0    0 -0.45093910587E+01  0.18282651360E+02  0.10704343801E+03  0.10868715993E+03  0.10566000000E+00 0.  1.
        994    1    1    2    0    0  0.18091251873E+01 -0.17259813844E+02  0.25793572320E+01  0.17209667978E+03  0.17120000000E+03 0.  0.
        998    1    1    2    0    0  0.27002658714E+01 -0.10228375168E+01  0.13903772010E+04  0.13904161603E+04  0.10000000000E+02 0.  0.
</event>
<event>
 5    1  0.1666761E-008  0.3847291E+03  0.7957747E-01  0.3430822E+00
         13   -1    0    0    0    0  0.00000000000E+00  0.00000000000E+00  0.14999999963E+04  0.15000000000E+04  0.10566000000E+00 0.  1.
        994   -1    0    0    0    0 -0.00000000000E+00 -0.00000000000E+00  0.11368683772E-12  0.17120000000E+03  0.17120000000E+03 0.  0.
         13    1    1    2    0    0  0.12532876146E+02 -0.63202625101E+01  0.59310962830E+02  0.60949324676E+02  0.10566000000E+00 0.  1.
        994    1    1    2    0    0  0.24190996525E+01  0.16237053445E+01  0.17926247229E+01  0.17123417289E+03  0.17120000000E+03 0.  0.
        998    1    1    2    0    0 -0.14951975798E+02  0.46965571656E+01  0.14388964087E+04  0.14390165024E+04  0.10000000000E+02 0.  1.
</event>
<event>
 5    1  0.1666761E-008  0.3828459E+03  0.7957747E-01  0.3438860E+00
         13   -1    0    0    0    0  0.00000000000E+00  0.00000000000E+00  0.14999999963E+04  0.15000000000E+04  0.10566000000E+00 0. -1.
        994   -1    0    0    0    0 -0.00000000000E+00 -0.00000000000E+00  0.11368683772E-12  0.17120000000E+03  0.17120000000E+03 0.  0.
         13    1    1    2    0    0  0.76451596116E+01  0.15722489934E+02  0.54293986450E+02  0.57039401153E+02  0.10566000000E+00 0. -1.
        994    1    1    2    0    0 -0.13982805402E+02 -0.12139746682E+02  0.38397985820E+01  0.17224133171E+03  0.17120000000E+03 0.  0.
        998    1    1    2    0    0  0.63376457905E+01 -0.35827432524E+01  0.14418662112E+04  0.14419192671E+04  0.10000000000E+02 0. -1.
</event>
<event>
 5    1  0.1666761E-008  0.3704351E+03  0.7957747E-01  0.3493894E+00
         13   -1    0    0    0    0  0.00000000000E+00  0.00000000000E+00  0.14999999963E+04  0.15000000000E+04  0.10566000000E+00 0.  1.
        994   -1    0    0    0    0 -0.00000000000E+00 -0.00000000000E+00  0.11368683772E-12  0.17120000000E+03  0.17120000000E+03 0.  0.
         13    1    1    2    0    0  0.18623034464E+02  0.31048560528E+01  0.16254740865E+02  0.24913556718E+02  0.10566000000E+00 0.  1.
        994    1    1    2    0    0 -0.14207085870E+01  0.37186052400E+01  0.90965398117E+01  0.17148770648E+03  0.17120000000E+03 0.  0.
        998    1    1    2    0    0 -0.17202325877E+02 -0.68234612928E+01  0.14746487156E+04  0.14747987368E+04  0.10000000000E+02 0.  1.
</event>
<event>
 5    1  0.1666761E-008  0.3816045E+03  0.7957747E-01  0.3444202E+00
         13   -1    0    0    0    0  0.00000000000E+00  0.00000000000E+00  0.14999999963E+04  0.15000000000E+04  0.10566000000E+00 0. -1.
        994   -1    0    0    0    0 -0.00000000000E+00 -0.00000000000E+00  0.11368683772E-12  0.17120000000E+03  0.17120000000E+03 0.  0.
         13    1    1    2    0    0  0.31111053472E+02  0.15882695947E+01  0.13508522451E+03  0.13863062178E+03  0.10566000000E+00 0. -1.
        994    1    1    2    0    0 -0.28980706760E+02 -0.48809996918E+01  0.62027529611E+01  0.17381490059E+03  0.17120000000E+03 0.  0.
        998    1    1    2    0    0 -0.21303467124E+01  0.32927300972E+01  0.13587120188E+04  0.13587544776E+04  0.10000000000E+02 0. -1.
</event>
<event>
 5    1  0.1666761E-008  0.3841480E+03  0.7957747E-01  0.3433294E+00
         13   -1    0    0    0    0  0.00000000000E+00  0.00000000000E+00  0.14999999963E+04  0.15000000000E+04  0.10566000000E+00 0.  1.
        994   -1    0    0    0    0 -0.00000000000E+00 -0.00000000000E+00  0.11368683772E-12  0.17120000000E+03  0.17120000000E+03 0.  0.
         13    1    1    2    0    0  0.50499475211E+02  0.97437290521E+01  0.31068242970E+03  0.31491065485E+03  0.10566000000E+00 0.  1.
        994    1    1    2    0    0 -0.94501414825E+02 -0.38348521509E+01  0.32132676727E+02  0.19820992006E+03  0.17120000000E+03 0.  0.
        998    1    1    2    0    0  0.44001939614E+02 -0.59088769012E+01  0.11571848899E+04  0.11580794251E+04  0.10000000000E+02 0.  1.
</event>
<event>
 5    1  0.1666761E-008  0.3849719E+03  0.7957747E-01  0.3429791E+00
         13   -1    0    0    0    0  0.00000000000E+00  0.00000000000E+00  0.14999999963E+04  0.15000000000E+04  0.10566000000E+00 0.  1.
        994   -1    0    0    0    0 -0.00000000000E+00 -0.00000000000E+00  0.11368683772E-12  0.17120000000E+03  0.17120000000E+03 0.  0.
         13    1    1    2    0    0  0.62958271623E+01 -0.78396371319E+01  0.33691681027E+02  0.35160174693E+02  0.10566000000E+00 0.  1.
        994    1    1    2    0    0  0.13708474169E+02 -0.72850949559E+01  0.24371163360E+01  0.17191967429E+03  0.17120000000E+03 0.  0.
        998    1    1    2    0    0 -0.20004301331E+02  0.15124732088E+02  0.14638711989E+04  0.14641201510E+04  0.10000000000E+02 0.  1.
</event>
<event>
 5    1  0.1666761E-008  0.3837182E+03  0.7957747E-01  0.3435127E+00
         13   -1    0    0    0    0  0.00000000000E+00  0.00000000000E+00  0.14999999963E+04  0.15000000000E+04  0.10566000000E+00 0. -1.
        994   -1    0    0    0    0 -0.00000000000E+00 -0.00000000000E+00  0.11368683772E-12  0.17120000000E+03  0.17120000000E+03 0.  0.
         13    1    1    2    0    0  0.11639919915E+02  0.91128198096E+01  0.49108740025E+02  0.51285580151E+02  0.10566000000E+00 0. -1.
        994    1    1    2    0    0 -0.19848959519E+01 -0.28737474902E+01  0.23081400223E+01  0.17125117736E+03  0.17120000000E+03 0.  0.
        998    1    1    2    0    0 -0.96550239631E+01 -0.62390723194E+01  0.14485831162E+04  0.14486632425E+04  0.10000000000E+02 0. -1.
</event>
<event>
 5    1  0.1666761E-008  0.3836065E+03  0.7957747E-01  0.3435604E+00
         13   -1    0    0    0    0  0.00000000000E+00  0.00000000000E+00  0.14999999963E+04  0.15000000000E+04  0.10566000000E+00 0.  1.
        994   -1    0    0    0    0 -0.00000000000E+00 -0.00000000000E+00  0.11368683772E-12  0.17120000000E+03  0.17120000000E+03 0.  0.
         13    1    1    2    0    0  0.74061083378E+01 -0.14459909368E+02  0.55945138453E+02  0.58256408233E+02  0.10566000000E+00 0.  1.
        994    1    1    2    0    0 -0.70254075240E+01  0.94487970460E+01  0.27816800580E+01  0.17162696134E+03  0.17120000000E+03 0.  0.
        998    1    1    2    0    0 -0.38070081381E+00  0.50111123216E+01  0.14412731778E+04  0.14413166304E+04  0.10000000000E+02 0.  1.
</event>
<event>
 5    1  0.1666761E-008  0.3769335E+03  0.7957747E-01  0.3464621E+00
         13   -1    0    0    0    0  0.00000000000E+00  0.00000000000E+00  0.14999999963E+04  0.15000000000E+04  0.10566000000E+00 0.  1.
        994   -1    0    0    0    0 -0.00000000000E+00 -0.00000000000E+00  0.11368683772E-12  0.17120000000E+03  0.17120000000E+03 0.  0.
         13    1    1    2    0    0 -0.24330779207E+02 -0.38377749617E+02  0.73051982836E+02  0.86031632803E+02  0.10566000000E+00 0.  1.
        994    1    1    2    0    0 -0.72329044376E+01 -0.58061047657E+01  0.14961341326E+02  0.17210260746E+03  0.17120000000E+03 0.  0.
        998    1    1    2    0    0  0.31563683645E+02  0.44183854383E+02  0.14119866721E+04  0.14130657597E+04  0.10000000000E+02 0.  1.
</event>
<event>
 5    1  0.1666761E-008  0.3790666E+03  0.7957747E-01  0.3455233E+00
         13   -1    0    0    0    0  0.00000000000E+00  0.00000000000E+00  0.14999999963E+04  0.15000000000E+04  0.10566000000E+00 0.  1.
        994   -1    0    0    0    0 -0.00000000000E+00 -0.00000000000E+00  0.11368683772E-12  0.17120000000E+03  0.17120000000E+03 0.  0.
         13    1    1    2    0    0  0.15055968130E+02 -0.11121125907E+02  0.36901020331E+02  0.41377023616E+02  0.10566000000E+00 0.  1.
        994    1    1    2    0    0 -0.56157036537E+01  0.38342807772E+01  0.47601417521E+01  0.17140109914E+03  0.17120000000E+03 0.  0.
        998    1    1    2    0    0 -0.94402644764E+01  0.72868451294E+01  0.14583388342E+04  0.14584218772E+04  0.10000000000E+02 0.  1.
</event>
<event>
 5    1  0.1666761E-008  0.2721760E+03  0.7957747E-01  0.4117141E+00
         13   -1    0    0    0    0  0.00000000000E+00  0.00000000000E+00  0.14999999963E+04  0.15000000000E+04  0.10566000000E+00 0.  1.
        994   -1    0    0    0    0 -0.00000000000E+00 -0.00000000000E+00  0.11368683772E-12  0.17120000000E+03  0.17120000000E+03 0.  0.
         13    1    1    2    0    0 -0.13038634509E+03 -0.15161271104E+02  0.64031903568E+03  0.65363517481E+03  0.10566000000E+00 0.  1.
        994    1    1    2    0    0  0.24056912876E+02  0.10457593588E+02  0.23741484744E+02  0.17481760329E+03  0.17120000000E+03 0.  0.
        998    1    1    2    0    0  0.10632943222E+03  0.47036775156E+01  0.83593947585E+03  0.84274722190E+03  0.10000000000E+02 0.  1.
</event>
<event>
 5    1  0.1666761E-008  0.3757382E+03  0.7957747E-01  0.3469928E+00
         13   -1    0    0    0    0  0.00000000000E+00  0.00000000000E+00  0.14999999963E+04  0.15000000000E+04  0.10566000000E+00 0. -1.
        994   -1    0    0    0    0 -0.00000000000E+00 -0.00000000000E+00  0.11368683772E-12  0.17120000000E+03  0.17120000000E+03 0.  0.
         13    1    1    2    0    0  0.14321912213E+02 -0.17604243547E+02  0.42731054905E+02  0.48383682969E+02  0.10566000000E+00 0. -1.
        994    1    1    2    0    0  0.15203018832E+02 -0.14048114767E+02  0.77543630019E+01  0.17262112112E+03  0.17120000000E+03 0.  0.
        998    1    1    2    0    0 -0.29524931045E+02  0.31652358314E+02  0.14495145784E+04  0.14501951959E+04  0.10000000000E+02 0. -1.
</event>
<event>
 5    1  0.1666761E-008  0.3726808E+03  0.7957747E-01  0.3483660E+00
         13   -1    0    0    0    0  0.00000000000E+00  0.00000000000E+00  0.14999999963E+04  0.15000000000E+04  0.10566000000E+00 0. -1.
        994   -1    0    0    0    0 -0.00000000000E+00 -0.00000000000E+00  0.11368683772E-12  0.17120000000E+03  0.17120000000E+03 0.  0.
         13    1    1    2    0    0  0.79488137989E+02  0.29814748700E+02  0.23634673803E+03  0.25113158913E+03  0.10566000000E+00 0. -1.
        994    1    1    2    0    0 -0.82688228171E+02 -0.32733256891E+02  0.40826294389E+02  0.19719288907E+03  0.17120000000E+03 0.  0.
        998    1    1    2    0    0  0.32000901821E+01  0.29185081911E+01  0.12228269639E+04  0.12228755218E+04  0.10000000000E+02 0.  0.
</event>
<event>
 5    1  0.1666761E-008  0.3848032E+03  0.7957747E-01  0.3430507E+00
         13   -1    0    0    0    0  0.00000000000E+00  0.00000000000E+00  0.14999999963E+04  0.15000000000E+04  0.10566000000E+00 0.  1.
        994   -1    0    0    0    0 -0.00000000000E+00 -0.00000000000E+00  0.11368683772E-12  0.17120000000E+03  0.17120000000E+03 0.  0.
         13    1    1    2    0    0  0.83140708149E+01  0.82260348567E+01  0.40433307752E+02  0.42091031857E+02  0.10566000000E+00 0.  1.
        994    1    1    2    0    0  0.12407367910E+01 -0.47876252031E+01  0.18083570468E+01  0.17128097074E+03  0.17120000000E+03 0.  0.
        998    1    1    2    0    0 -0.95548076059E+01 -0.34384096536E+01  0.14577583315E+04  0.14578279974E+04  0.10000000000E+02 0.  1.
</event>
<event>
 5    1  0.1666761E-008  0.3708568E+03  0.7957747E-01  0.3491962E+00
         13   -1    0    0    0    0  0.00000000000E+00  0.00000000000E+00  0.14999999963E+04  0.15000000000E+04  0.10566000000E+00 0.  1.
        994   -1    0    0    0    0 -0.00000000000E+00 -0.00000000000E+00  0.11368683772E-12  0.17120000000E+03  0.17120000000E+03 0.  0.
         13    1    1    2    0    0 -0.46925058097E+02 -0.50212155117E+02  0.16304476079E+03  0.17693735271E+03  0.10566000000E+00 0.  1.
        994    1    1    2    0    0  0.53213096116E+02  0.76847879988E+02  0.42693855534E+02  0.19967332210E+03  0.17120000000E+03 0.  0.
        998    1    1    2    0    0 -0.62880380187E+01 -0.26635724871E+02  0.12942613800E+04  0.12945893252E+04  0.10000000000E+02 0.  1.
</event>
<event>
 5    1  0.1666761E-008  0.3859747E+03  0.7957747E-01  0.3425549E+00
         13   -1    0    0    0    0  0.00000000000E+00  0.00000000000E+00  0.14999999963E+04  0.15000000000E+04  0.10566000000E+00 0. -1.
        994   -1    0    0    0    0 -0.00000000000E+00 -0.00000000000E+00  0.11368683772E-12  0.17120000000E+03  0.17120000000E+03 0.  0.
         13    1    1    2    0    0 -0.77430652060E+01 -0.98511035930E+01  0.75265424804E+02  0.76301340982E+02  0.10566000000E+00 0. -1.
        994    1    1    2    0    0 -0.73466244449E+00 -0.18688643763E+01  0.11602260964E+01  0.17121570754E+03  0.17120000000E+03 0.  0.
        998    1    1    2    0    0  0.84777276505E+01  0.11719967969E+02  0.14235743454E+04  0.14236829515E+04  0.10000000000E+02 0. -1.
</event>
<event>
 5    1  0.1666761E-008  0.3812792E+03  0.7957747E-01  0.3445608E+00
         13   -1    0    0    0    0  0.00000000000E+00  0.00000000000E+00  0.14999999963E+04  0.15000000000E+04  0.10566000000E+00 0. -1.
        994   -1    0    0    0    0 -0.00000000000E+00 -0.00000000000E+00  0.11368683772E-12  0.17120000000E+03  0.17120000000E+03 0.  0.
         13    1    1    2    0    0 -0.39784309992E+01 -0.18354496551E+02  0.52812125627E+02  0.56052183134E+02  0.10566000000E+00 0. -1.
        994    1    1    2    0    0  0.51677226855E+01 -0.55351354176E+01  0.36797407082E+01  0.17140689477E+03  0.17120000000E+03 0.  0.
        998    1    1    2    0    0 -0.11892916863E+01  0.23889631969E+02  0.14435081299E+04  0.14437409221E+04  0.10000000000E+02 0. -1.
</event>
<event>
 5    1  0.1666761E-008  0.3838294E+03  0.7957747E-01  0.3434652E+00
         13   -1    0    0    0    0  0.00000000000E+00  0.00000000000E+00  0.14999999963E+04  0.15000000000E+04  0.10566000000E+00 0. -1.
        994   -1    0    0    0    0 -0.00000000000E+00 -0.00000000000E+00  0.11368683772E-12  0.17120000000E+03  0.17120000000E+03 0.  0.
         13    1    1    2    0    0  0.59916755954E+01  0.10291591785E+02  0.32105338732E+02  0.34242969746E+02  0.10566000000E+00 0. -1.
        994    1    1    2    0    0 -0.30700672385E+01 -0.13474115432E+01  0.22495459711E+01  0.17124760228E+03  0.17120000000E+03 0.  0.
        998    1    1    2    0    0 -0.29216083569E+01 -0.89441802423E+01  0.14656451116E+04  0.14657094280E+04  0.10000000000E+02 0. -1.
</event>
<event>
 5    1  0.1666761E-008  0.3799108E+03  0.7957747E-01  0.3451547E+00
         13   -1    0    0    0    0  0.00000000000E+00  0.00000000000E+00  0.14999999963E+04  0.15000000000E+04  0.10566000000E+00 0. -1.
        994   -1    0    0    0    0 -0.00000000000E+00 -0.00000000000E+00  0.11368683772E-12  0.17120000000E+03  0.17120000000E+03 0.  0.
         13    1    1    2    0    0 -0.54189806998E+01 -0.15674145474E+02  0.31144985056E+02  0.35285484925E+02  0.10566000000E+00 0. -1.
        994    1    1    2    0    0 -0.37875263840E+01  0.14488716068E+02  0.49284754267E+01  0.17192439652E+03  0.17120000000E+03 0.  0.
        998    1    1    2    0    0  0.92065070838E+01  0.11854294066E+01  0.14639265358E+04  0.14639901186E+04  0.10000000000E+02 0. -1.
</event>
<event>
 5    1  0.1666761E-008  0.3773884E+03  0.7957747E-01  0.3462609E+00
         13   -1    0    0    0    0  0.00000000000E+00  0.00000000000E+00  0.14999999963E+04  0.15000000000E+04  0.10566000000E+00 0.  1.
        994   -1    0    0    0    0 -0.00000000000E+00 -0.00000000000E+00  0.11368683772E-12  0.17120000000E+03  0.17120000000E+03 0.  0.
         13    1    1    2    0    0  0.20555239534E+02 -0.17965831701E+02  0.63819489059E+02  0.69413452074E+02  0.10566000000E+00 0.  1.
        994    1    1    2    0    0 -0.33621642095E+02  0.31884973580E+01  0.93130245907E+01  0.17474768599E+03  0.17120000000E+03 0.  0.
        998    1    1    2    0    0  0.13066402561E+02  0.14777334343E+02  0.14268674826E+04  0.14270388619E+04  0.10000000000E+02 0.  1.
</event>
<event>
 5    1  0.1666761E-008  0.3774427E+03  0.7957747E-01  0.3462370E+00
         13   -1    0    0    0    0  0.00000000000E+00  0.00000000000E+00  0.14999999963E+04  0.15000000000E+04  0.10566000000E+00 0.  1.
        994   -1    0    0    0    0 -0.00000000000E+00 -0.00000000000E+00  0.11368683772E-12  0.17120000000E+03  0.17120000000E+03 0.  0.
         13    1    1    2    0    0 -0.47591565672E+01 -0.27654366926E+02  0.73179310829E+02  0.78374972273E+02  0.10566000000E+00 0.  1.
        994    1    1    2    0    0 -0.14186467313E+01  0.87110917835E+01  0.56923433998E+01  0.17152183083E+03  0.17120000000E+03 0.  0.
        998    1    1    2    0    0  0.61778032985E+01  0.18943275143E+02  0.14211283421E+04  0.14213031969E+04  0.10000000000E+02 0.  1.
</event>
<event>
 5    1  0.1666761E-008  0.3852788E+03  0.7957747E-01  0.3428491E+00
         13   -1    0    0    0    0  0.00000000000E+00  0.00000000000E+00  0.14999999963E+04  0.15000000000E+04  0.10566000000E+00 0.  1.
        994   -1    0    0    0    0 -0.00000000000E+00 -0.00000000000E+00  0.11368683772E-12  0.17120000000E+03  0.17120000000E+03 0.  0.
         13    1    1    2    0    0  0.81785317565E+00  0.11693496993E+02  0.46600669818E+02  0.48052474934E+02  0.10566000000E+00 0.  1.
        994    1    1    2    0    0  0.25540383457E+01 -0.62175774375E+01  0.16402401051E+01  0.17133975537E+03  0.17120000000E+03 0.  0.
        998    1    1    2    0    0 -0.33718915214E+01 -0.54759195560E+01  0.14517590864E+04  0.14518077697E+04  0.10000000000E+02 0.  1.
</event>
<event>
 5    1  0.1666761E-008  0.3813542E+03  0.7957747E-01  0.3445283E+00
         13   -1    0    0    0    0  0.00000000000E+00  0.00000000000E+00  0.14999999963E+04  0.15000000000E+04  0.10566000000E+00 0. -1.
        994   -1    0    0    0    0 -0.00000000000E+00 -0.00000000000E+00  0.11368683772E-12  0.17120000000E+03  0.17120000000E+03 0.  0.
         13    1    1    2    0    0  0.23760816872E+02  0.34917147756E+01  0.78703376848E+02  0.82286093490E+02  0.10566000000E+00 0. -1.
        994    1    1    2    0    0 -0.24278701118E+02 -0.19945797485E+01  0.54285745943E+01  0.17300966186E+03  0.17120000000E+03 0.  0.
        998    1    1    2    0    0  0.51788424613E+00 -0.14971350271E+01  0.14158680448E+04  0.14159042446E+04  0.10000000000E+02 0.  0.
</event>
<event>
 5    1  0.1666761E-008  0.3840806E+03  0.7957747E-01  0.3433581E+00
         13   -1    0    0    0    0  0.00000000000E+00  0.00000000000E+00  0.14999999963E+04  0.15000000000E+04  0.10566000000E+00 0. -1.
        994   -1    0    0    0    0 -0.00000000000E+00 -0.00000000000E+00  0.11368683772E-12  0.17120000000E+03  0.17120000000E+03 0.  0.
         13    1    1    2    0    0 -0.53089308184E+01 -0.16611509522E+02  0.73244397353E+02  0.75291964396E+02  0.10566000000E+00 0. -1.
        994    1    1    2    0    0  0.15595634005E+01  0.94515074280E+01  0.23900431074E+01  0.17148444692E+03  0.17120000000E+03 0.  0.
        998    1    1    2    0    0  0.37493674179E+01  0.71600020943E+01  0.14243655558E+04  0.14244235887E+04  0.10000000000E+02 0. -1.
</event>
<event>
 5    1  0.1666761E-008  0.3731798E+03  0.7957747E-01  0.3481404E+00
         13   -1    0    0    0    0  0.00000000000E+00  0.00000000000E+00  0.14999999963E+04  0.15000000000E+04  0.10566000000E+00 0. -1.
        994   -1    0    0    0    0 -0.00000000000E+00 -0.00000000000E+00  0.11368683772E-12  0.17120000000E+03  0.17120000000E+03 0.  0.
         13    1    1    2    0    0 -0.55018638303E+02  0.31804438644E+03  0.45288719461E+03  0.55613496970E+03  0.10566000000E+00 0. -1.
        994    1    1    2    0    0  0.66311954243E+02 -0.30634330852E+03  0.92653718912E+03  0.99298746255E+03  0.17120000000E+03 0.  0.
        998    1    1    2    0    0 -0.11293315940E+02 -0.11701077924E+02  0.12057561254E+03  0.12207756776E+03  0.10000000000E+02 0.  0.
</event>
<event>
 5    1  0.1666761E-008  0.3722506E+03  0.7957747E-01  0.3485611E+00
         13   -1    0    0    0    0  0.00000000000E+00  0.00000000000E+00  0.14999999963E+04  0.15000000000E+04  0.10566000000E+00 0.  1.
        994   -1    0    0    0    0 -0.00000000000E+00 -0.00000000000E+00  0.11368683772E-12  0.17120000000E+03  0.17120000000E+03 0.  0.
         13    1    1    2    0    0 -0.80222677198E+02 -0.18537235055E+03  0.82466599612E+03  0.84904216775E+03  0.10566000000E+00 0.  1.
        994    1    1    2    0    0  0.82943531718E+02  0.18763271818E+03  0.16996006035E+03  0.31667258880E+03  0.17120000000E+03 0.  0.
        998    1    1    2    0    0 -0.27208545197E+01 -0.22603676270E+01  0.50537393981E+03  0.50548524345E+03  0.10000000000E+02 0.  0.
</event>
<event>
 5    1  0.1666761E-008  0.3833764E+03  0.7957747E-01  0.3436588E+00
         13   -1    0    0    0    0  0.00000000000E+00  0.00000000000E+00  0.14999999963E+04  0.15000000000E+04  0.10566000000E+00 0.  1.
        994   -1    0    0    0    0 -0.00000000000E+00 -0.00000000000E+00  0.11368683772E-12  0.17120000000E+03  0.17120000000E+03 0.  0.
         13    1    1    2    0    0  0.26071656354E+02  0.20688964911E+01  0.11369602391E+03  0.11666537024E+03  0.10566000000E+00 0.  1.
        994    1    1    2    0    0 -0.46965063363E+02  0.36771782004E+01  0.98101749329E+01  0.17783396287E+03  0.17120000000E+03 0.  0.
        998    1    1    2    0    0  0.20893407009E+02 -0.57460746915E+01  0.13764937974E+04  0.13767006669E+04  0.10000000000E+02 0.  1.
</event>
<event>
 5    1  0.1666761E-008  0.3814621E+03  0.7957747E-01  0.3444817E+00
         13   -1    0    0    0    0  0.00000000000E+00  0.00000000000E+00  0.14999999963E+04  0.15000000000E+04  0.10566000000E+00 0. -1.
        994   -1    0    0    0    0 -0.00000000000E+00 -0.00000000000E+00  0.11368683772E-12  0.17120000000E+03  0.17120000000E+03 0.  0.
         13    1    1    2    0    0 -0.28564146704E+02 -0.32321159659E+01  0.14595539041E+03  0.14875934998E+03  0.10566000000E+00 0. -1.
        994    1    1    2    0    0 -0.11134270260E+02  0.66197614759E+02  0.18535926711E+02  0.18482185140E+03  0.17120000000E+03 0.  0.
        998    1    1    2    0    0  0.39698416965E+02 -0.62965498794E+02  0.13355086792E+04  0.13376187986E+04  0.10000000000E+02 0. -1.
</event>
<event>
 5    1  0.1666761E-008  0.3768476E+03  0.7957747E-01  0.3465000E+00
         13   -1    0    0    0    0  0.00000000000E+00  0.00000000000E+00  0.14999999963E+04  0.15000000000E+04  0.10566000000E+00 0. -1.
        994   -1    0    0    0    0 -0.00000000000E+00 -0.00000000000E+00  0.11368683772E-12  0.17120000000E+03  0.17120000000E+03 0.  0.
         13    1    1    2    0    0 -0.38167073381E+02 -0.20505550031E+02  0.15043012606E+03  0.15654531951E+03  0.10566000000E+00 0. -1.
        994    1    1    2    0    0  0.50141922546E+02 -0.95041757216E+01  0.14582625806E+02  0.17923904354E+03  0.17120000000E+03 0.  0.
        998    1    1    2    0    0 -0.11974849165E+02  0.30009725752E+02  0.13349872444E+04  0.13354156369E+04  0.10000000000E+02 0. -1.
</event>
<event>
 5    1  0.1666761E-008  0.3699718E+03  0.7957747E-01  0.3496020E+00
         13   -1    0    0    0    0  0.00000000000E+00  0.00000000000E+00  0.14999999963E+04  0.15000000000E+04  0.10566000000E+00 0. -1.
        994   -1    0    0    0    0 -0.00000000000E+00 -0.00000000000E+00  0.11368683772E-12  0.17120000000E+03  0.17120000000E+03 0.  0.
         13    1    1    2    0    0 -0.10722101545E+03  0.47549949287E+02  0.46210380388E+03  0.47675704562E+03  0.10566000000E+00 0. -1.
        994    1    1    2    0    0  0.11395054797E+03 -0.50022103483E+02  0.64913325250E+02  0.22138228930E+03  0.17120000000E+03 0.  0.
        998    1    1    2    0    0 -0.67295325164E+01  0.24721541957E+01  0.97298286715E+03  0.97306066508E+03  0.10000000000E+02 0. -1.
</event>
<event>
 5    1  0.1666761E-008  0.3818044E+03  0.7957747E-01  0.3443339E+00
         13   -1    0    0    0    0  0.00000000000E+00  0.00000000000E+00  0.14999999963E+04  0.15000000000E+04  0.10566000000E+00 0.  1.
        994   -1    0    0    0    0 -0.00000000000E+00 -0.00000000000E+00  0.11368683772E-12  0.17120000000E+03  0.17120000000E+03 0.  0.
         13    1    1    2    0    0  0.10437067620E+02  0.21810591604E+01  0.16131548852E+02  0.19337203313E+02  0.10566000000E+00 0.  1.
        994    1    1    2    0    0 -0.11092279121E+02 -0.30894286992E+01  0.36657872427E+01  0.17162593400E+03  0.17120000000E+03 0.  0.
        998    1    1    2    0    0  0.65521150102E+00  0.90836953878E+00  0.14802026602E+04  0.14802368627E+04  0.10000000000E+02 0.  1.
</event>
<event>
 5    1  0.1666761E-008  0.3825826E+03  0.7957747E-01  0.3439990E+00
         13   -1    0    0    0    0  0.00000000000E+00  0.00000000000E+00  0.14999999963E+04  0.15000000000E+04  0.10566000000E+00 0. -1.
        994   -1    0    0    0    0 -0.00000000000E+00 -0.00000000000E+00  0.11368683772E-12  0.17120000000E+03  0.17120000000E+03 0.  0.
         13    1    1    2    0    0 -0.70243468920E+01  0.18040308292E+02  0.69434628926E+02  0.72083098093E+02  0.10566000000E+00 0. -1.
        994    1    1    2    0    0 -0.15647120149E+01 -0.85516262338E+00  0.28456727487E+01  0.17123293340E+03  0.17120000000E+03 0.  0.
        998    1    1    2    0    0  0.85890589069E+01 -0.17185145669E+02  0.14277196946E+04  0.14278839685E+04  0.10000000000E+02 0. -1.
</event>
<event>
 5    1  0.1666761E-008  0.3845258E+03  0.7957747E-01  0.3431686E+00
         13   -1    0    0    0    0  0.00000000000E+00  0.00000000000E+00  0.14999999963E+04  0.15000000000E+04  0.10566000000E+00 0. -1.
        994   -1    0    0    0    0 -0.00000000000E+00 -0.00000000000E+00  0.11368683772E-12  0.17120000000E+03  0.17120000000E+03 0.  0.
         13    1    1    2    0    0 -0.72720193853E+01 -0.10639286695E+02  0.43189182879E+02  0.45070981453E+02  0.10566000000E+00 0. -1.
        994    1    1    2    0    0  0.99470814956E+01  0.94459048269E+01  0.24857938537E+01  0.17176666941E+03  0.17120000000E+03 0.  0.
        998    1    1    2    0    0 -0.26750621103E+01  0.11933818685E+01  0.14543250195E+04  0.14543623491E+04  0.10000000000E+02 0. -1.
</event>
<event>
 5    1  0.1666761E-008  0.3813287E+03  0.7957747E-01  0.3445393E+00
         13   -1    0    0    0    0  0.00000000000E+00  0.00000000000E+00  0.14999999963E+04  0.15000000000E+04  0.10566000000E+00 0.  1.
        994   -1    0    0    0    0 -0.00000000000E+00 -0.00000000000E+00  0.11368683772E-12  0.17120000000E+03  0.17120000000E+03 0.  0.
         13    1    1    2    0    0 -0.31042586324E+02  0.30798981350E+02  0.21596128420E+03  0.22034406472E+03  0.10566000000E+00 0.  1.
        994    1    1    2    0    0  0.39729582176E+02 -0.38293810541E+02  0.13665282177E+02  0.18039134004E+03  0.17120000000E+03 0.  0.
        998    1    1    2    0    0 -0.86869958520E+01  0.74948291911E+01  0.12703734299E+04  0.12704645952E+04  0.10000000000E+02 0.  1.
</event>
<event>
 5    1  0.1666761E-008  0.3838716E+03  0.7957747E-01  0.3434472E+00
         13   -1    0    0    0    0  0.00000000000E+00  0.00000000000E+00  0.14999999963E+04  0.15000000000E+04  0.10566000000E+00 0. -1.
        994   -1    0    0    0    0 -0.00000000000E+00 -0.00000000000E+00  0.11368683772E-12  0.17120000000E+03  0.17120000000E+03 0.  0.
         13    1    1    2    0    0 -0.75898818264E+00  0.23568936037E+02  0.12713833025E+03  0.12930675540E+03  0.10566000000E+00 0. -1.
        994    1    1    2    0    0  0.32872007809E+01 -0.13595211176E+02  0.28374002438E+01  0.17179384825E+03  0.17120000000E+03 0.  0.
        998    1    1    2    0    0 -0.25282125982E+01 -0.99737248611E+01  0.13700242658E+04  0.13700993964E+04  0.10000000000E+02 0. -1.
</event>
<event>
 5    1  0.1666761E-008  0.3781362E+03  0.7957747E-01  0.3459314E+00
         13   -1    0    0    0    0  0.00000000000E+00  0.00000000000E+00  0.14999999963E+04  0.15000000000E+04  0.10566000000E+00 0. -1.
        994   -1    0    0    0    0 -0.00000000000E+00 -0.00000000000E+00  0.11368683772E-12  0.17120000000E+03  0.17120000000E+03 0.  0.
         13    1    1    2    0    0  0.30538990717E+02  0.35153076577E+02  0.14835468122E+03  0.15549112949E+03  0.10566000000E+00 0. -1.
        994    1    1    2    0    0 -0.84115065765E+02 -0.49048055536E+02  0.37661123227E+02  0.20052146080E+03  0.17120000000E+03 0.  0.
        998    1    1    2    0    0  0.53576075049E+02  0.13894978959E+02  0.13139841918E+04  0.13151874097E+04  0.10000000000E+02 0. -1.
</event>
<event>
 5    1  0.1666761E-008  0.3862856E+03  0.7957747E-01  0.3424238E+00
         13   -1    0    0    0    0  0.00000000000E+00  0.00000000000E+00  0.14999999963E+04  0.15000000000E+04  0.10566000000E+00 0. -1.
        994   -1    0    0    0    0 -0.00000000000E+00 -0.00000000000E+00  0.11368683772E-12  0.17120000000E+03  0.17120000000E+03 0.  0.
         13    1    1    2    0    0 -0.92741653327E+01 -0.39096092785E+01  0.50534388817E+02  0.51526991029E+02  0.10566000000E+00 0. -1.
        994    1    1    2    0    0  0.11702562671E+02 -0.66967992279E+00  0.14432855597E+01  0.17160688074E+03  0.17120000000E+03 0.  0.
        998    1    1    2    0    0 -0.24283973383E+01  0.45792892013E+01  0.14480223219E+04  0.14480661282E+04  0.10000000000E+02 0. -1.
</event>
<event>
 5    1  0.1666761E-008  0.3747663E+03  0.7957747E-01  0.3474269E+00
         13   -1    0    0    0    0  0.00000000000E+00  0.00000000000E+00  0.14999999963E+04  0.15000000000E+04  0.10566000000E+00 0. -1.
        994   -1    0    0    0    0 -0.00000000000E+00 -0.00000000000E+00  0.11368683772E-12  0.17120000000E+03  0.17120000000E+03 0.  0.
         13    1    1    2    0    0 -0.13542299352E+02 -0.48621459619E+02  0.15477873973E+03  0.16280021389E+03  0.10566000000E+00 0. -1.
        994    1    1    2    0    0  0.27713679708E+02  0.59492915061E+02  0.21596369534E+02  0.18461662483E+03  0.17120000000E+03 0.  0.
        998    1    1    2    0    0 -0.14171380355E+02 -0.10871455442E+02  0.13236248870E+04  0.13237831613E+04  0.10000000000E+02 0. -1.
</event>
<event>
 5    1  0.1666761E-008  0.3701181E+03  0.7957747E-01  0.3495348E+00
         13   -1    0    0    0    0  0.00000000000E+00  0.00000000000E+00  0.14999999963E+04  0.15000000000E+04  0.10566000000E+00 0. -1.
        994   -1    0    0    0    0 -0.00000000000E+00 -0.00000000000E+00  0.11368683772E-12  0.17120000000E+03  0.17120000000E+03 0.  0.
         13    1    1    2    0    0  0.22360747734E+02  0.43279387573E+02  0.11445945639E+03  0.12439488233E+03  0.10566000000E+00 0. -1.
        994    1    1    2    0    0 -0.36610104623E+02 -0.41355687918E+02  0.19825891278E+02  0.18097817175E+03  0.17120000000E+03 0.  0.
        998    1    1    2    0    0  0.14249356889E+02 -0.19236996558E+01  0.13657146486E+04  0.13658269459E+04  0.10000000000E+02 0. -1.
</event>
<event>
 5    1  0.1666761E-008  0.3804117E+03  0.7957747E-01  0.3449368E+00
         13   -1    0    0    0    0  0.00000000000E+00  0.00000000000E+00  0.14999999963E+04  0.15000000000E+04  0.10566000000E+00 0.  1.
        994   -1    0    0    0    0 -0.00000000000E+00 -0.00000000000E+00  0.11368683772E-12  0.17120000000E+03  0.17120000000E+03 0.  0.
         13    1    1    2    0    0  0.18747021868E+01  0.16272649802E+02  0.32394044188E+02  0.36300122627E+02  0.10566000000E+00 0.  1.
        994    1    1    2    0    0 -0.22402617962E+01 -0.13354323464E+02  0.45378166163E+01  0.17179461140E+03  0.17120000000E+03 0.  0.
        998    1    1    2    0    0  0.36555960941E+00 -0.29183263374E+01  0.14630681355E+04  0.14631052660E+04  0.10000000000E+02 0.  1.
</event>
<event>
 5    1  0.1666761E-008  0.3702477E+03  0.7957747E-01  0.3494753E+00
         13   -1    0    0    0    0  0.00000000000E+00  0.00000000000E+00  0.14999999963E+04  0.15000000000E+04  0.10566000000E+00 0.  1.
        994   -1    0    0    0    0 -0.00000000000E+00 -0.00000000000E+00  0.11368683772E-12  0.17120000000E+03  0.17120000000E+03 0.  0.
         13    1    1    2    0    0  0.62439114673E+01  0.19811057188E+02  0.19530029522E+02  0.28511359745E+02  0.10566000000E+00 0.  1.
        994    1    1    2    0    0 -0.22018976894E+02 -0.12148684662E+02  0.11327582983E+02  0.17340755468E+03  0.17120000000E+03 0.  0.
        998    1    1    2    0    0  0.15775065426E+02 -0.76623725257E+01  0.14691423838E+04  0.14692810856E+04  0.10000000000E+02 0.  1.
</event>
<event>
 5    1  0.3465003E-008  0.3862244E+03  0.7957747E-01  0.3424496E+00
         13   -1    0    0    0    0  0.00000000000E+00  0.00000000000E+00  0.14999999963E+04  0.15000000000E+04  0.10566000000E+00 0.  1.
        994   -1    0    0    0    0 -0.00000000000E+00 -0.00000000000E+00  0.11368683772E-12  0.17120000000E+03  0.17120000000E+03 0.  0.
         13    1    1    2    0    0 -0.74299254931E+01 -0.81778644789E+01  0.62397346711E+02  0.63368141056E+02  0.10566000000E+00 0.  1.
        994    1    1    2    0    0  0.30811459890E+01  0.20930154689E+01  0.10689168689E+01  0.17124385174E+03  0.17120000000E+03 0.  0.
        998    1    1    2    0    0  0.43487795041E+01  0.60848490100E+01  0.14365337327E+04  0.14365880072E+04  0.10000000000E+02 0.  1.
</event>
<event>
 5    1  0.1666761E-008  0.3787259E+03  0.7957747E-01  0.3456725E+00
         13   -1    0    0    0    0  0.00000000000E+00  0.00000000000E+00  0.14999999963E+04  0.15000000000E+04  0.10566000000E+00 0. -1.
        994   -1    0    0    0    0 -0.00000000000E+00 -0.00000000000E+00  0.11368683772E-12  0.17120000000E+03  0.17120000000E+03 0.  0.
         13    1    1    2    0    0  0.22130713964E+02 -0.14941030129E+02  0.73330037336E+02  0.78040428123E+02  0.10566000000E+00 0. -1.
        994    1    1    2    0    0 -0.12254148285E+02  0.91676837978E+01  0.55643245565E+01  0.17197270796E+03  0.17120000000E+03 0.  0.
        998    1    1    2    0    0 -0.98765656785E+01  0.57733463314E+01  0.14211056344E+04  0.14211868639E+04  0.10000000000E+02 0. -1.
</event>
<event>
 5    1  0.1666761E-008  0.3802064E+03  0.7957747E-01  0.3450260E+00
         13   -1    0    0    0    0  0.00000000000E+00  0.00000000000E+00  0.14999999963E+04  0.15000000000E+04  0.10566000000E+00 0. -1.
        994   -1    0    0    0    0 -0.00000000000E+00 -0.00000000000E+00  0.11368683772E-12  0.17120000000E+03  0.17120000000E+03 0.  0.
         13    1    1    2    0    0 -0.12550104634E+03  0.19776971606E+03  0.75168170771E+03  0.78733015571E+03  0.10566000000E+00 0. -1.
        994    1    1    2    0    0  0.18308301081E+03 -0.22110453484E+03  0.36298220039E+03  0.49342894318E+03  0.17120000000E+03 0.  0.
        998    1    1    2    0    0 -0.57581964472E+02  0.23334818789E+02  0.38533608818E+03  0.39044090111E+03  0.10000000000E+02 0.  1.
</event>
<event>
 5    1  0.1666761E-008  0.3854776E+03  0.7957747E-01  0.3427649E+00
         13   -1    0    0    0    0  0.00000000000E+00  0.00000000000E+00  0.14999999963E+04  0.15000000000E+04  0.10566000000E+00 0. -1.
        994   -1    0    0    0    0 -0.00000000000E+00 -0.00000000000E+00  0.11368683772E-12  0.17120000000E+03  0.17120000000E+03 0.  0.
         13    1    1    2    0    0  0.12101031550E+02  0.37594820410E+01  0.61667875749E+02  0.62956387549E+02  0.10566000000E+00 0. -1.
        994    1    1    2    0    0  0.21906026437E+01 -0.39487798170E+01  0.14601583673E+01  0.17126576910E+03  0.17120000000E+03 0.  0.
        998    1    1    2    0    0 -0.14291634194E+02  0.18929777599E+00  0.14368719622E+04  0.14369778434E+04  0.10000000000E+02 0. -1.
</event>
<event>
 5    1  0.1666761E-008  0.3744317E+03  0.7957747E-01  0.3475768E+00
         13   -1    0    0    0    0  0.00000000000E+00  0.00000000000E+00  0.14999999963E+04  0.15000000000E+04  0.10566000000E+00 0. -1.
        994   -1    0    0    0    0 -0.00000000000E+00 -0.00000000000E+00  0.11368683772E-12  0.17120000000E+03  0.17120000000E+03 0.  0.
         13    1    1    2    0    0  0.13428145711E+02 -0.47412732629E+02  0.16933817193E+03  0.17636243916E+03  0.10566000000E+00 0. -1.
        994    1    1    2    0    0 -0.31863335713E+02  0.24370923753E+02  0.12471146957E+02  0.17627870998E+03  0.17120000000E+03 0.  0.
        998    1    1    2    0    0  0.18435190002E+02  0.23041808876E+02  0.13181906774E+04  0.13185588509E+04  0.10000000000E+02 0. -1.
</event>
<event>
 5    1  0.1666761E-008  0.3797822E+03  0.7957747E-01  0.3452107E+00
         13   -1    0    0    0    0  0.00000000000E+00  0.00000000000E+00  0.14999999963E+04  0.15000000000E+04  0.10566000000E+00 0. -1.
        994   -1    0    0    0    0 -0.00000000000E+00 -0.00000000000E+00  0.11368683772E-12  0.17120000000E+03  0.17120000000E+03 0.  0.
         13    1    1    2    0    0  0.14519391363E+03 -0.59442386301E+02  0.84621982960E+03  0.86064085484E+03  0.10566000000E+00 0. -1.
        994    1    1    2    0    0 -0.16758811242E+03  0.43056446636E+02  0.11194080310E+03  0.26791755527E+03  0.17120000000E+03 0.  0.
        998    1    1    2    0    0  0.22394198795E+02  0.16385939665E+02  0.54183936357E+03  0.54264158989E+03  0.10000000000E+02 0.  1.
</event>
<event>
 5    1  0.1666761E-008  0.3785266E+03  0.7957747E-01  0.3457599E+00
         13   -1    0    0    0    0  0.00000000000E+00  0.00000000000E+00  0.14999999963E+04  0.15000000000E+04  0.10566000000E+00 0.  1.
        994   -1    0    0    0    0 -0.00000000000E+00 -0.00000000000E+00  0.11368683772E-12  0.17120000000E+03  0.17120000000E+03 0.  0.
         13    1    1    2    0    0  0.84868110378E+01  0.49754555906E+02  0.22905470819E+03  0.23454980772E+03  0.10566000000E+00 0.  1.
        994    1    1    2    0    0  0.45613465477E+01 -0.47721558904E+02  0.12637989918E+02  0.17823386843E+03  0.17120000000E+03 0.  0.
        998    1    1    2    0    0 -0.13048157585E+02 -0.20329970024E+01  0.12583072982E+04  0.12584163238E+04  0.10000000000E+02 0.  1.
</event>
<event>
 5    1  0.1666761E-008  0.3830219E+03  0.7957747E-01  0.3438105E+00
         13   -1    0    0    0    0  0.00000000000E+00  0.00000000000E+00  0.14999999963E+04  0.15000000000E+04  0.10566000000E+00 0. -1.
        994   -1    0    0    0    0 -0.00000000000E+00 -0.00000000000E+00  0.11368683772E-12  0.17120000000E+03  0.17120000000E+03 0.  0.
         13    1    1    2    0    0 -0.14442389440E+02 -0.24083858417E+02  0.16605118215E+03  0.16840908855E+03  0.10566000000E+00 0. -1.
        994    1    1    2    0    0  0.10813980929E+02 -0.92695531327E+00  0.30054123108E+01  0.17157002632E+03  0.17120000000E+03 0.  0.
        998    1    1    2    0    0  0.36284085114E+01  0.25010813730E+02  0.13309434018E+04  0.13312208851E+04  0.10000000000E+02 0. -1.
</event>
<event>
 5    1  0.1666761E-008  0.3769919E+03  0.7957747E-01  0.3464362E+00
         13   -1    0    0    0    0  0.00000000000E+00  0.00000000000E+00  0.14999999963E+04  0.15000000000E+04  0.10566000000E+00 0.  1.
        994   -1    0    0    0    0 -0.00000000000E+00 -0.00000000000E+00  0.11368683772E-12  0.17120000000E+03  0.17120000000E+03 0.  0.
         13    1    1    2    0    0  0.16283274122E+01 -0.29426838687E+02  0.80790760797E+02  0.85998537659E+02  0.10566000000E+00 0.  1.
        994    1    1    2    0    0 -0.37353272267E+01 -0.94605719629E+00  0.57095056086E+01  0.17133851332E+03  0.17120000000E+03 0.  0.
        998    1    1    2    0    0  0.21069998146E+01  0.30372895884E+02  0.14134997299E+04  0.14138629490E+04  0.10000000000E+02 0.  1.
</event>
<event>
 5    1  0.1666761E-008  0.3733774E+03  0.7957747E-01  0.3480512E+00
         13   -1    0    0    0    0  0.00000000000E+00  0.00000000000E+00  0.14999999963E+04  0.15000000000E+04  0.10566000000E+00 0.  1.
        994   -1    0    0    0    0 -0.00000000000E+00 -0.00000000000E+00  0.11368683772E-12  0.17120000000E+03  0.17120000000E+03 0.  0.
         13    1    1    2    0    0  0.16097226295E+02  0.24657281418E+02  0.52416114688E+02  0.60121231394E+02  0.10566000000E+00 0.  1.
        994    1    1    2    0    0 -0.17701458480E+02 -0.28577854206E+02  0.11386463557E+02  0.17484028980E+03  0.17120000000E+03 0.  0.
        998    1    1    2    0    0  0.16042321857E+01  0.39205727888E+01  0.14361974180E+04  0.14362384788E+04  0.10000000000E+02 0.  1.
</event>
<event>
 5    1  0.1666761E-008  0.3775349E+03  0.7957747E-01  0.3461963E+00
         13   -1    0    0    0    0  0.00000000000E+00  0.00000000000E+00  0.14999999963E+04  0.15000000000E+04  0.10566000000E+00 0.  1.
        994   -1    0    0    0    0 -0.00000000000E+00 -0.00000000000E+00  0.11368683772E-12  0.17120000000E+03  0.17120000000E+03 0.  0.
         13    1    1    2    0    0 -0.13245220973E+03  0.21073088719E+02  0.79479907840E+03  0.80603551356E+03  0.10566000000E+00 0.  1.
        994    1    1    2    0    0  0.12750268036E+03 -0.23753801221E+02  0.64353254935E+02  0.22421408964E+03  0.17120000000E+03 0.  0.
        998    1    1    2    0    0  0.49495293635E+01  0.26807125026E+01  0.64084766294E+03  0.64095039680E+03  0.10000000000E+02 0.  0.
</event>
<event>
 5    1  0.1666761E-008  0.3810250E+03  0.7957747E-01  0.3446708E+00
         13   -1    0    0    0    0  0.00000000000E+00  0.00000000000E+00  0.14999999963E+04  0.15000000000E+04  0.10566000000E+00 0. -1.
        994   -1    0    0    0    0 -0.00000000000E+00 -0.00000000000E+00  0.11368683772E-12  0.17120000000E+03  0.17120000000E+03 0.  0.
         13    1    1    2    0    0  0.65174031315E+01  0.92111344964E+01  0.16244351051E+02  0.19779070943E+02  0.10566000000E+00 0. -1.
        994    1    1    2    0    0 -0.19397806515E+01 -0.39291019615E+01  0.36806158832E+01  0.17129561443E+03  0.17120000000E+03 0.  0.
        998    1    1    2    0    0 -0.45776224800E+01 -0.52820325349E+01  0.14800750293E+04  0.14801253146E+04  0.10000000000E+02 0. -1.
</event>
<event>
 5    1  0.1666761E-008  0.3835260E+03  0.7957747E-01  0.3435948E+00
         13   -1    0    0    0    0  0.00000000000E+00  0.00000000000E+00  0.14999999963E+04  0.15000000000E+04  0.10566000000E+00 0. -1.
        994   -1    0    0    0    0 -0.00000000000E+00 -0.00000000000E+00  0.11368683772E-12  0.17120000000E+03  0.17120000000E+03 0.  0.
         13    1    1    2    0    0 -0.12253121725E+02 -0.12351936199E+02  0.64610733072E+02  0.66912385341E+02  0.10566000000E+00 0. -1.
        994    1    1    2    0    0  0.97825791738E+01  0.14050989501E+01  0.26865625388E+01  0.17150606630E+03  0.17120000000E+03 0.  0.
        998    1    1    2    0    0  0.24705425514E+01  0.10946837249E+02  0.14327027007E+04  0.14327815484E+04  0.10000000000E+02 0. -1.
</event>
