<event>
 5    1  0.1488417E-008  0.3744394E+03  0.7957747E-01  0.3475734E+00
         13   -1    0    0    0    0  0.00000000000E+00  0.00000000000E+00  0.14999999963E+04  0.15000000000E+04  0.10566000000E+00 0.  1.
        994   -1    0    0    0    0 -0.00000000000E+00 -0.00000000000E+00  0.11368683772E-12  0.17120000000E+03  0.17120000000E+03 0.  0.
         13    1    1    2    0    0  0.19703369208E+01 -0.80748407732E+02  0.39671352865E+03  0.40485284062E+03  0.10566000000E+00 0.  1.
        994    1    1    2    0    0 -0.16406343368E+02  0.64792727533E+02  0.22336455729E+02  0.18513676809E+03  0.17120000000E+03 0.  0.
        998    1    1    2    0    0  0.14436006448E+02  0.15955680199E+02  0.10809500119E+04  0.10812103913E+04  0.10000000000E+02 0.  1.
</event>
<event>
 5    1  0.1488417E-008  0.3831806E+03  0.7957747E-01  0.3437425E+00
         13   -1    0    0    0    0  0.00000000000E+00  0.00000000000E+00  0.14999999963E+04  0.15000000000E+04  0.10566000000E+00 0.  1.
        994   -1    0    0    0    0 -0.00000000000E+00 -0.00000000000E+00  0.11368683772E-12  0.17120000000E+03  0.17120000000E+03 0.  0.
         13    1    1    2    0    0  0.12420930204E+02 -0.14634824159E+02  0.69783358926E+02  0.72375313004E+02  0.10566000000E+00 0.  1.
        994    1    1    2    0    0 -0.11320397879E+02  0.14029500037E+02  0.36119417867E+01  0.17218439071E+03  0.17120000000E+03 0.  0.
        998    1    1    2    0    0 -0.11005323255E+01  0.60532412255E+00  0.14266046956E+04  0.14266402963E+04  0.10000000000E+02 0.  1.
</event>
<event>
 5    1  0.1488417E-008  0.3796641E+03  0.7957747E-01  0.3452622E+00
         13   -1    0    0    0    0  0.00000000000E+00  0.00000000000E+00  0.14999999963E+04  0.15000000000E+04  0.10566000000E+00 0. -1.
        994   -1    0    0    0    0 -0.00000000000E+00 -0.00000000000E+00  0.11368683772E-12  0.17120000000E+03  0.17120000000E+03 0.  0.
         13    1    1    2    0    0 -0.24063559349E+02  0.11870549335E+02  0.78840396345E+02  0.83281354996E+02  0.10566000000E+00 0. -1.
        994    1    1    2    0    0  0.24688474592E+02 -0.82154623140E+01  0.65717922288E+01  0.17329063175E+03  0.17120000000E+03 0.  0.
        998    1    1    2    0    0 -0.62491524293E+00 -0.36550870210E+01  0.14145878077E+04  0.14146280133E+04  0.10000000000E+02 0. -1.
</event>
<event>
 5    1  0.1488417E-008  0.3921029E+03  0.7957747E-01  0.3400096E+00
         13   -1    0    0    0    0  0.00000000000E+00  0.00000000000E+00  0.14999999963E+04  0.15000000000E+04  0.10566000000E+00 0.  1.
        994   -1    0    0    0    0 -0.00000000000E+00 -0.00000000000E+00  0.11368683772E-12  0.17120000000E+03  0.17120000000E+03 0.  0.
         13    1    1    2    0    0 -0.13486800214E+01  0.13599401695E+02 -0.66670808638E+01  0.15206044704E+02  0.10566000000E+00 0.  1.
        994    1    1    2    0    0 -0.38243523792E+02 -0.31705675002E+02  0.32560892934E+02  0.18121111635E+03  0.17120000000E+03 0.  0.
        998    1    1    2    0    0  0.39592203813E+02  0.18106273307E+02  0.14741061842E+04  0.14747828389E+04  0.10000000000E+02 0.  1.
</event>
<event>
 5    1  0.1488417E-008  0.3958103E+03  0.7957747E-01  0.3385080E+00
         13   -1    0    0    0    0  0.00000000000E+00  0.00000000000E+00  0.14999999963E+04  0.15000000000E+04  0.10566000000E+00 0.  1.
        994   -1    0    0    0    0 -0.00000000000E+00 -0.00000000000E+00  0.11368683772E-12  0.17120000000E+03  0.17120000000E+03 0.  0.
         13    1    1    2    0    0 -0.44520651729E+02  0.41396592107E+02  0.68804803313E+02  0.91814369199E+02  0.10566000000E+00 0.  1.
        994    1    1    2    0    0 -0.80410937481E+01 -0.37946330718E+02  0.31110538071E+02  0.17827475644E+03  0.17120000000E+03 0.  0.
        998    1    1    2    0    0  0.52561745477E+02 -0.34502613883E+01  0.14000846549E+04  0.14011108744E+04  0.10000000000E+02 0.  1.
</event>
<event>
 5    1  0.1488417E-008  0.3767867E+03  0.7957747E-01  0.3465270E+00
         13   -1    0    0    0    0  0.00000000000E+00  0.00000000000E+00  0.14999999963E+04  0.15000000000E+04  0.10566000000E+00 0.  1.
        994   -1    0    0    0    0 -0.00000000000E+00 -0.00000000000E+00  0.11368683772E-12  0.17120000000E+03  0.17120000000E+03 0.  0.
         13    1    1    2    0    0  0.21087786588E+02 -0.11008809403E+02  0.13331742997E+02  0.27269674788E+02  0.10566000000E+00 0.  1.
        994    1    1    2    0    0 -0.10989058613E+02  0.64183764992E+01  0.15153572875E+02  0.17233985534E+03  0.17120000000E+03 0.  0.
        998    1    1    2    0    0 -0.10098727975E+02  0.45904329041E+01  0.14715146804E+04  0.14715904699E+04  0.10000000000E+02 0.  1.
</event>
<event>
 5    1  0.1488417E-008  0.3807520E+03  0.7957747E-01  0.3447891E+00
         13   -1    0    0    0    0  0.00000000000E+00  0.00000000000E+00  0.14999999963E+04  0.15000000000E+04  0.10566000000E+00 0.  1.
        994   -1    0    0    0    0 -0.00000000000E+00 -0.00000000000E+00  0.11368683772E-12  0.17120000000E+03  0.17120000000E+03 0.  0.
         13    1    1    2    0    0 -0.14940783375E+03 -0.36701867330E+02  0.85134159530E+03  0.86513134893E+03  0.10566000000E+00 0.  1.
        994    1    1    2    0    0  0.16142801040E+03  0.51340480676E+02  0.10624796861E+03  0.26323548076E+03  0.17120000000E+03 0.  0.
        998    1    1    2    0    0 -0.12020176650E+02 -0.14638613346E+02  0.54241043236E+03  0.54283317030E+03  0.10000000000E+02 0.  1.
</event>
<event>
 5    1  0.1488417E-008  0.3848606E+03  0.7957747E-01  0.3430264E+00
         13   -1    0    0    0    0  0.00000000000E+00  0.00000000000E+00  0.14999999963E+04  0.15000000000E+04  0.10566000000E+00 0.  1.
        994   -1    0    0    0    0 -0.00000000000E+00 -0.00000000000E+00  0.11368683772E-12  0.17120000000E+03  0.17120000000E+03 0.  0.
         13    1    1    2    0    0 -0.61680339212E+01 -0.16430497445E+02  0.96950307317E+02  0.98526032812E+02  0.10566000000E+00 0.  1.
        994    1    1    2    0    0  0.12434113381E+02 -0.18091833420E+01  0.22189863193E+01  0.17167482116E+03  0.17120000000E+03 0.  0.
        998    1    1    2    0    0 -0.62660794594E+01  0.18239680787E+02  0.14008307026E+04  0.14009991460E+04  0.10000000000E+02 0.  1.
</event>
<event>
 5    1  0.1488417E-008  0.3816930E+03  0.7957747E-01  0.3443820E+00
         13   -1    0    0    0    0  0.00000000000E+00  0.00000000000E+00  0.14999999963E+04  0.15000000000E+04  0.10566000000E+00 0.  1.
        994   -1    0    0    0    0 -0.00000000000E+00 -0.00000000000E+00  0.11368683772E-12  0.17120000000E+03  0.17120000000E+03 0.  0.
         13    1    1    2    0    0 -0.12290486195E+02  0.16682995457E+02  0.44295663775E+01  0.21189870473E+02  0.10566000000E+00 0.  1.
        994    1    1    2    0    0  0.26294300116E+02 -0.24872139503E+02  0.22051695442E+02  0.17636816837E+03  0.17120000000E+03 0.  0.
        998    1    1    2    0    0 -0.14003813921E+02  0.81891440465E+01  0.14735187345E+04  0.14736419612E+04  0.10000000000E+02 0.  1.
</event>
<event>
 5    1  0.1488417E-008  0.3781400E+03  0.7957747E-01  0.3459297E+00
         13   -1    0    0    0    0  0.00000000000E+00  0.00000000000E+00  0.14999999963E+04  0.15000000000E+04  0.10566000000E+00 0. -1.
        994   -1    0    0    0    0 -0.00000000000E+00 -0.00000000000E+00  0.11368683772E-12  0.17120000000E+03  0.17120000000E+03 0.  0.
         13    1    1    2    0    0 -0.51138241912E+01  0.35469378166E+02  0.11558598525E+03  0.12101387993E+03  0.10566000000E+00 0. -1.
        994    1    1    2    0    0 -0.11595932974E+02 -0.38924102925E+02  0.10643548448E+02  0.17627330080E+03  0.17120000000E+03 0.  0.
        998    1    1    2    0    0  0.16709757166E+02  0.34547247590E+01  0.13737704626E+04  0.13739128193E+04  0.10000000000E+02 0. -1.
</event>
<event>
 5    1  0.1488417E-008  0.3813096E+03  0.7957747E-01  0.3445476E+00
         13   -1    0    0    0    0  0.00000000000E+00  0.00000000000E+00  0.14999999963E+04  0.15000000000E+04  0.10566000000E+00 0. -1.
        994   -1    0    0    0    0 -0.00000000000E+00 -0.00000000000E+00  0.11368683772E-12  0.17120000000E+03  0.17120000000E+03 0.  0.
         13    1    1    2    0    0  0.13030364155E+02 -0.39934291443E+01  0.25653311520E+02  0.29048948730E+02  0.10566000000E+00 0. -1.
        994    1    1    2    0    0 -0.52275161841E+01  0.29850779744E+01  0.35941748114E+01  0.17134350209E+03  0.17120000000E+03 0.  0.
        998    1    1    2    0    0 -0.78028479704E+01  0.10083511700E+01  0.14707525099E+04  0.14708075492E+04  0.10000000000E+02 0. -1.
</event>
<event>
 5    1  0.1488417E-008  0.3804727E+03  0.7957747E-01  0.3449103E+00
         13   -1    0    0    0    0  0.00000000000E+00  0.00000000000E+00  0.14999999963E+04  0.15000000000E+04  0.10566000000E+00 0.  1.
        994   -1    0    0    0    0 -0.00000000000E+00 -0.00000000000E+00  0.11368683772E-12  0.17120000000E+03  0.17120000000E+03 0.  0.
         13    1    1    2    0    0 -0.18242681926E+02 -0.27566262528E+02  0.14119465247E+03  0.14501253506E+03  0.10566000000E+00 0.  1.
        994    1    1    2    0    0  0.83909942067E+01  0.14871037572E+02  0.48684302829E+01  0.17211826793E+03  0.17120000000E+03 0.  0.
        998    1    1    2    0    0  0.98516877190E+01  0.12695224956E+02  0.13539369135E+04  0.13540691970E+04  0.10000000000E+02 0.  1.
</event>
<event>
 5    1  0.1488417E-008  0.3757643E+03  0.7957747E-01  0.3469812E+00
         13   -1    0    0    0    0  0.00000000000E+00  0.00000000000E+00  0.14999999963E+04  0.15000000000E+04  0.10566000000E+00 0. -1.
        994   -1    0    0    0    0 -0.00000000000E+00 -0.00000000000E+00  0.11368683772E-12  0.17120000000E+03  0.17120000000E+03 0.  0.
         13    1    1    2    0    0  0.15729402650E+02  0.89878770966E+02  0.52768794876E+03  0.53551861780E+03  0.10566000000E+00 0. -1.
        994    1    1    2    0    0 -0.37143656694E+02 -0.69317313488E+02  0.27552393639E+02  0.19040250938E+03  0.17120000000E+03 0.  0.
        998    1    1    2    0    0  0.21414254045E+02 -0.20561457478E+02  0.94475965388E+03  0.94527887283E+03  0.10000000000E+02 0.  1.
</event>
<event>
 5    1  0.1488417E-008  0.4038531E+03  0.7957747E-01  0.3353449E+00
         13   -1    0    0    0    0  0.00000000000E+00  0.00000000000E+00  0.14999999963E+04  0.15000000000E+04  0.10566000000E+00 0.  1.
        994   -1    0    0    0    0 -0.00000000000E+00 -0.00000000000E+00  0.11368683772E-12  0.17120000000E+03  0.17120000000E+03 0.  0.
         13    1    1    2    0    0  0.68466582143E+02  0.49122559870E+02  0.99420237911E+02  0.13032687224E+03  0.10566000000E+00 0.  1.
        994    1    1    2    0    0 -0.59294324750E+02 -0.73203435075E+02  0.66360987231E+02  0.20636807040E+03  0.17120000000E+03 0.  0.
        998    1    1    2    0    0 -0.91722573935E+01  0.24080875205E+02  0.13342187711E+04  0.13345050574E+04  0.10000000000E+02 0.  1.
</event>
<event>
 5    1  0.1488417E-008  0.3808062E+03  0.7957747E-01  0.3447656E+00
         13   -1    0    0    0    0  0.00000000000E+00  0.00000000000E+00  0.14999999963E+04  0.15000000000E+04  0.10566000000E+00 0.  1.
        994   -1    0    0    0    0 -0.00000000000E+00 -0.00000000000E+00  0.11368683772E-12  0.17120000000E+03  0.17120000000E+03 0.  0.
         13    1    1    2    0    0 -0.44026425484E+00  0.15291005960E+02  0.31564875848E+02  0.35076505630E+02  0.10566000000E+00 0.  1.
        994    1    1    2    0    0 -0.81043517298E+01  0.55661240325E+01  0.40490903994E+01  0.17152987316E+03  0.17120000000E+03 0.  0.
        998    1    1    2    0    0  0.85446159846E+01 -0.20857129992E+02  0.14643860300E+04  0.14645936212E+04  0.10000000000E+02 0.  1.
</event>
<event>
 5    1  0.2245305E-008  0.3861498E+03  0.7957747E-01  0.3424811E+00
         13   -1    0    0    0    0  0.00000000000E+00  0.00000000000E+00  0.14999999963E+04  0.15000000000E+04  0.10566000000E+00 0.  1.
        994   -1    0    0    0    0 -0.00000000000E+00 -0.00000000000E+00  0.11368683772E-12  0.17120000000E+03  0.17120000000E+03 0.  0.
         13    1    1    2    0    0  0.10873401398E+02 -0.28563473046E+01  0.60451239236E+02  0.61487828609E+02  0.10566000000E+00 0.  1.
        994    1    1    2    0    0 -0.80522155753E+01 -0.95252105747E+00  0.12758136933E+01  0.17139665450E+03  0.17120000000E+03 0.  0.
        998    1    1    2    0    0 -0.28211858223E+01  0.38088683621E+01  0.14382729433E+04  0.14383155169E+04  0.10000000000E+02 0.  1.
</event>
<event>
 5    1  0.1488417E-008  0.3837000E+03  0.7957747E-01  0.3435205E+00
         13   -1    0    0    0    0  0.00000000000E+00  0.00000000000E+00  0.14999999963E+04  0.15000000000E+04  0.10566000000E+00 0. -1.
        994   -1    0    0    0    0 -0.00000000000E+00 -0.00000000000E+00  0.11368683772E-12  0.17120000000E+03  0.17120000000E+03 0.  0.
         13    1    1    2    0    0  0.26137637503E+02  0.17121079650E+02  0.19441525270E+02  0.36800700150E+02  0.10566000000E+00 0. -1.
        994    1    1    2    0    0 -0.29848030354E+01 -0.22578831732E+02  0.20282290190E+02  0.17389515228E+03  0.17120000000E+03 0.  0.
        998    1    1    2    0    0 -0.23152834468E+02  0.54577520821E+01  0.14602761808E+04  0.14605041476E+04  0.10000000000E+02 0. -1.
</event>
<event>
 5    1  0.1488417E-008  0.3850311E+03  0.7957747E-01  0.3429540E+00
         13   -1    0    0    0    0  0.00000000000E+00  0.00000000000E+00  0.14999999963E+04  0.15000000000E+04  0.10566000000E+00 0. -1.
        994   -1    0    0    0    0 -0.00000000000E+00 -0.00000000000E+00  0.11368683772E-12  0.17120000000E+03  0.17120000000E+03 0.  0.
         13    1    1    2    0    0  0.12508053173E+03 -0.43948598237E+02  0.49096127145E+03  0.50854655631E+03  0.10566000000E+00 0. -1.
        994    1    1    2    0    0 -0.65575110518E+02  0.17399263842E+02  0.36316107370E+02  0.18769957154E+03  0.17120000000E+03 0.  0.
        998    1    1    2    0    0 -0.59505421210E+02  0.26549334394E+02  0.97272261746E+03  0.97495387215E+03  0.10000000000E+02 0. -1.
</event>
<event>
 5    1  0.1488417E-008  0.3816498E+03  0.7957747E-01  0.3444006E+00
         13   -1    0    0    0    0  0.00000000000E+00  0.00000000000E+00  0.14999999963E+04  0.15000000000E+04  0.10566000000E+00 0. -1.
        994   -1    0    0    0    0 -0.00000000000E+00 -0.00000000000E+00  0.11368683772E-12  0.17120000000E+03  0.17120000000E+03 0.  0.
         13    1    1    2    0    0 -0.17643457180E+03 -0.95787005789E+02  0.11441963559E+04  0.11616753508E+04  0.10566000000E+00 0. -1.
        994    1    1    2    0    0  0.17315708368E+03  0.93088257904E+02  0.14472576204E+03  0.29816737848E+03  0.17120000000E+03 0.  0.
        998    1    1    2    0    0  0.32774881191E+01  0.26987478855E+01  0.21107787835E+03  0.21135727075E+03  0.10000000000E+02 0.  0.
</event>
<event>
 5    1  0.1488417E-008  0.4180602E+03  0.7957747E-01  0.3300521E+00
         13   -1    0    0    0    0  0.00000000000E+00  0.00000000000E+00  0.14999999963E+04  0.15000000000E+04  0.10566000000E+00 0.  1.
        994   -1    0    0    0    0 -0.00000000000E+00 -0.00000000000E+00  0.11368683772E-12  0.17120000000E+03  0.17120000000E+03 0.  0.
         13    1    1    2    0    0  0.32512819676E+02 -0.70948752548E+02  0.69760690012E+02  0.10467747593E+03  0.10566000000E+00 0.  1.
        994    1    1    2    0    0 -0.17961104184E+02  0.37889702269E+02  0.46520154785E+02  0.18229590122E+03  0.17120000000E+03 0.  0.
        998    1    1    2    0    0 -0.14551715492E+02  0.33059050279E+02  0.13837191515E+04  0.13842266228E+04  0.10000000000E+02 0.  1.
</event>
<event>
 5    1  0.1488417E-008  0.3718854E+03  0.7957747E-01  0.3487271E+00
         13   -1    0    0    0    0  0.00000000000E+00  0.00000000000E+00  0.14999999963E+04  0.15000000000E+04  0.10566000000E+00 0.  1.
        994   -1    0    0    0    0 -0.00000000000E+00 -0.00000000000E+00  0.11368683772E-12  0.17120000000E+03  0.17120000000E+03 0.  0.
         13    1    1    2    0    0  0.24008105443E+02 -0.66214980758E+01  0.34015188534E+02  0.42157770087E+02  0.10566000000E+00 0.  1.
        994    1    1    2    0    0 -0.16289754432E+02  0.70451637899E+01  0.93697509728E+01  0.17237233730E+03  0.17120000000E+03 0.  0.
        998    1    1    2    0    0 -0.77183510110E+01 -0.42366571404E+00  0.14566150568E+04  0.14566698926E+04  0.10000000000E+02 0.  1.
</event>
<event>
 5    1  0.1488417E-008  0.3703348E+03  0.7957747E-01  0.3494354E+00
         13   -1    0    0    0    0  0.00000000000E+00  0.00000000000E+00  0.14999999963E+04  0.15000000000E+04  0.10566000000E+00 0.  1.
        994   -1    0    0    0    0 -0.00000000000E+00 -0.00000000000E+00  0.11368683772E-12  0.17120000000E+03  0.17120000000E+03 0.  0.
         13    1    1    2    0    0 -0.17306848615E+02  0.46298733655E+02  0.14580043653E+03  0.15395089543E+03  0.10566000000E+00 0.  1.
        994    1    1    2    0    0  0.32245753264E+02  0.43973899201E+01  0.12760820439E+02  0.17473237874E+03  0.17120000000E+03 0.  0.
        998    1    1    2    0    0 -0.14938904649E+02 -0.50696123575E+02  0.13414387393E+04  0.13425167258E+04  0.10000000000E+02 0.  1.
</event>
<event>
 5    1  0.1488417E-008  0.3805803E+03  0.7957747E-01  0.3448636E+00
         13   -1    0    0    0    0  0.00000000000E+00  0.00000000000E+00  0.14999999963E+04  0.15000000000E+04  0.10566000000E+00 0.  1.
        994   -1    0    0    0    0 -0.00000000000E+00 -0.00000000000E+00  0.11368683772E-12  0.17120000000E+03  0.17120000000E+03 0.  0.
         13    1    1    2    0    0  0.39709416214E+01  0.95051032528E+01  0.12269430036E+02  0.16020781587E+02  0.10566000000E+00 0.  1.
        994    1    1    2    0    0  0.17912516360E+01 -0.43802350116E+01  0.39152221878E+01  0.17131013982E+03  0.17120000000E+03 0.  0.
        998    1    1    2    0    0 -0.57621932574E+01 -0.51248682412E+01  0.14838153441E+04  0.14838690786E+04  0.10000000000E+02 0.  1.
</event>
<event>
 5    1  0.1488417E-008  0.3819027E+03  0.7957747E-01  0.3442915E+00
         13   -1    0    0    0    0  0.00000000000E+00  0.00000000000E+00  0.14999999963E+04  0.15000000000E+04  0.10566000000E+00 0. -1.
        994   -1    0    0    0    0 -0.00000000000E+00 -0.00000000000E+00  0.11368683772E-12  0.17120000000E+03  0.17120000000E+03 0.  0.
         13    1    1    2    0    0  0.31176892255E+02  0.93016345849E+01  0.18800983660E+03  0.19080416358E+03  0.10566000000E+00 0. -1.
        994    1    1    2    0    0 -0.25346111527E+01 -0.43996346271E+01  0.32614129907E+01  0.17130632753E+03  0.17120000000E+03 0.  0.
        998    1    1    2    0    0 -0.28642281103E+02 -0.49019999579E+01  0.13087287467E+04  0.13090895089E+04  0.10000000000E+02 0. -1.
</event>
<event>
 5    1  0.1488417E-008  0.3846853E+03  0.7957747E-01  0.3431008E+00
         13   -1    0    0    0    0  0.00000000000E+00  0.00000000000E+00  0.14999999963E+04  0.15000000000E+04  0.10566000000E+00 0.  1.
        994   -1    0    0    0    0 -0.00000000000E+00 -0.00000000000E+00  0.11368683772E-12  0.17120000000E+03  0.17120000000E+03 0.  0.
         13    1    1    2    0    0 -0.10614058749E+02  0.37849857495E+01  0.34567424199E+02  0.36357974917E+02  0.10566000000E+00 0.  1.
        994    1    1    2    0    0  0.13431812592E+02  0.21801133016E+01  0.23962504790E+01  0.17175665489E+03  0.17120000000E+03 0.  0.
        998    1    1    2    0    0 -0.28177538427E+01 -0.59650990511E+01  0.14630363216E+04  0.14630853702E+04  0.10000000000E+02 0.  1.
</event>
<event>
 5    1  0.1488417E-008  0.3843481E+03  0.7957747E-01  0.3432442E+00
         13   -1    0    0    0    0  0.00000000000E+00  0.00000000000E+00  0.14999999963E+04  0.15000000000E+04  0.10566000000E+00 0.  1.
        994   -1    0    0    0    0 -0.00000000000E+00 -0.00000000000E+00  0.11368683772E-12  0.17120000000E+03  0.17120000000E+03 0.  0.
         13    1    1    2    0    0  0.55550072630E+01 -0.22431675081E+02  0.10759133695E+03  0.11004519573E+03  0.10566000000E+00 0.  1.
        994    1    1    2    0    0 -0.77602146500E+01  0.46801094394E+02  0.94066674277E+01  0.17790022136E+03  0.17120000000E+03 0.  0.
        998    1    1    2    0    0  0.22052073870E+01 -0.24369419313E+02  0.13830019919E+04  0.13832545829E+04  0.10000000000E+02 0.  1.
</event>
<event>
 5    1  0.1488417E-008  0.3862473E+03  0.7957747E-01  0.3424399E+00
         13   -1    0    0    0    0  0.00000000000E+00  0.00000000000E+00  0.14999999963E+04  0.15000000000E+04  0.10566000000E+00 0.  1.
        994   -1    0    0    0    0 -0.00000000000E+00 -0.00000000000E+00  0.11368683772E-12  0.17120000000E+03  0.17120000000E+03 0.  0.
         13    1    1    2    0    0 -0.26374697956E+01 -0.10644782855E+02  0.60480975795E+02  0.61467285983E+02  0.10566000000E+00 0.  1.
        994    1    1    2    0    0  0.18659680545E+02  0.32253353578E+01  0.21875168593E+01  0.17225798007E+03  0.17120000000E+03 0.  0.
        998    1    1    2    0    0 -0.16022210749E+02  0.74194474972E+01  0.14373315036E+04  0.14374747340E+04  0.10000000000E+02 0.  1.
</event>
<event>
 5    1  0.1488417E-008  0.3778908E+03  0.7957747E-01  0.3460394E+00
         13   -1    0    0    0    0  0.00000000000E+00  0.00000000000E+00  0.14999999963E+04  0.15000000000E+04  0.10566000000E+00 0. -1.
        994   -1    0    0    0    0 -0.00000000000E+00 -0.00000000000E+00  0.11368683772E-12  0.17120000000E+03  0.17120000000E+03 0.  0.
         13    1    1    2    0    0 -0.18713780279E+03 -0.22045449298E+03  0.86297887162E+03  0.91013915680E+03  0.10566000000E+00 0. -1.
        994    1    1    2    0    0  0.17437256609E+03  0.25009322818E+03  0.44423889364E+03  0.56534064882E+03  0.17120000000E+03 0.  0.
        998    1    1    2    0    0  0.12765236705E+02 -0.29638735205E+02  0.19278223102E+03  0.19572019438E+03  0.10000000000E+02 0.  1.
</event>
<event>
 5    1  0.1488417E-008  0.3838111E+03  0.7957747E-01  0.3434730E+00
         13   -1    0    0    0    0  0.00000000000E+00  0.00000000000E+00  0.14999999963E+04  0.15000000000E+04  0.10566000000E+00 0.  1.
        994   -1    0    0    0    0 -0.00000000000E+00 -0.00000000000E+00  0.11368683772E-12  0.17120000000E+03  0.17120000000E+03 0.  0.
         13    1    1    2    0    0 -0.53247518919E+00  0.10258723183E+02  0.23062734389E+02  0.25247293176E+02  0.10566000000E+00 0.  1.
        994    1    1    2    0    0 -0.73306024040E+01 -0.71637693256E+01  0.25684660819E+01  0.17152578331E+03  0.17120000000E+03 0.  0.
        998    1    1    2    0    0  0.78630775932E+01 -0.30949538570E+01  0.14743687958E+04  0.14744269235E+04  0.10000000000E+02 0.  1.
</event>
<event>
 5    1  0.1488417E-008  0.3822500E+03  0.7957747E-01  0.3441419E+00
         13   -1    0    0    0    0  0.00000000000E+00  0.00000000000E+00  0.14999999963E+04  0.15000000000E+04  0.10566000000E+00 0. -1.
        994   -1    0    0    0    0 -0.00000000000E+00 -0.00000000000E+00  0.11368683772E-12  0.17120000000E+03  0.17120000000E+03 0.  0.
         13    1    1    2    0    0 -0.23545471100E+02  0.19559951848E+02  0.16754383099E+03  0.17031713769E+03  0.10566000000E+00 0. -1.
        994    1    1    2    0    0  0.54488447863E+01 -0.63927330005E+01  0.32357865110E+01  0.17143648170E+03  0.17120000000E+03 0.  0.
        998    1    1    2    0    0  0.18096626314E+02 -0.13167218848E+02  0.13292203788E+04  0.13294463806E+04  0.10000000000E+02 0. -1.
</event>
<event>
 5    1  0.1656282E-008  0.3863792E+03  0.7957747E-01  0.3423844E+00
         13   -1    0    0    0    0  0.00000000000E+00  0.00000000000E+00  0.14999999963E+04  0.15000000000E+04  0.10566000000E+00 0. -1.
        994   -1    0    0    0    0 -0.00000000000E+00 -0.00000000000E+00  0.11368683772E-12  0.17120000000E+03  0.17120000000E+03 0.  0.
         13    1    1    2    0    0 -0.42531958153E+01 -0.10359549757E+02  0.65695150034E+02  0.66642882950E+02  0.10566000000E+00 0. -1.
        994    1    1    2    0    0  0.53708874400E+01  0.93649497366E+01  0.13285970958E+01  0.17154519488E+03  0.17120000000E+03 0.  0.
        998    1    1    2    0    0 -0.11176916247E+01  0.99460002052E+00  0.14329762491E+04  0.14330119222E+04  0.10000000000E+02 0.  0.
</event>
<event>
 5    1  0.1488417E-008  0.3813203E+03  0.7957747E-01  0.3445430E+00
         13   -1    0    0    0    0  0.00000000000E+00  0.00000000000E+00  0.14999999963E+04  0.15000000000E+04  0.10566000000E+00 0.  1.
        994   -1    0    0    0    0 -0.00000000000E+00 -0.00000000000E+00  0.11368683772E-12  0.17120000000E+03  0.17120000000E+03 0.  0.
         13    1    1    2    0    0 -0.85220483473E+01 -0.78735578232E+01  0.17386876183E+02  0.20902938747E+02  0.10566000000E+00 0.  1.
        994    1    1    2    0    0  0.14806649820E+02  0.14223180976E+02  0.48724536074E+01  0.17249555519E+03  0.17120000000E+03 0.  0.
        998    1    1    2    0    0 -0.62846014731E+01 -0.63496231526E+01  0.14777406665E+04  0.14778015061E+04  0.10000000000E+02 0.  1.
</event>
<event>
 5    1  0.1488417E-008  0.3827676E+03  0.7957747E-01  0.3439196E+00
         13   -1    0    0    0    0  0.00000000000E+00  0.00000000000E+00  0.14999999963E+04  0.15000000000E+04  0.10566000000E+00 0. -1.
        994   -1    0    0    0    0 -0.00000000000E+00 -0.00000000000E+00  0.11368683772E-12  0.17120000000E+03  0.17120000000E+03 0.  0.
         13    1    1    2    0    0 -0.38649337640E+02 -0.19659449785E+03  0.11121705840E+04  0.11300737086E+04  0.10566000000E+00 0. -1.
        994    1    1    2    0    0  0.41462837451E+02  0.19827497855E+03  0.15325239963E+03  0.30631335590E+03  0.17120000000E+03 0.  0.
        998    1    1    2    0    0 -0.28134998115E+01 -0.16804806942E+01  0.23457701265E+03  0.23481293546E+03  0.10000000000E+02 0.  0.
</event>
<event>
 5    1  0.1488417E-008  0.3727758E+03  0.7957747E-01  0.3483230E+00
         13   -1    0    0    0    0  0.00000000000E+00  0.00000000000E+00  0.14999999963E+04  0.15000000000E+04  0.10566000000E+00 0. -1.
        994   -1    0    0    0    0 -0.00000000000E+00 -0.00000000000E+00  0.11368683772E-12  0.17120000000E+03  0.17120000000E+03 0.  0.
         13    1    1    2    0    0  0.54690501822E+02 -0.12532963909E+03  0.61598325833E+03  0.63097856947E+03  0.10566000000E+00 0. -1.
        994    1    1    2    0    0 -0.65049799423E+02  0.12668849560E+03  0.80832051035E+02  0.23690654655E+03  0.17120000000E+03 0.  0.
        998    1    1    2    0    0  0.10359297601E+02 -0.13588565056E+01  0.80318468691E+03  0.80331488398E+03  0.10000000000E+02 0. -1.
</event>
<event>
 5    1  0.1488417E-008  0.3826670E+03  0.7957747E-01  0.3439627E+00
         13   -1    0    0    0    0  0.00000000000E+00  0.00000000000E+00  0.14999999963E+04  0.15000000000E+04  0.10566000000E+00 0. -1.
        994   -1    0    0    0    0 -0.00000000000E+00 -0.00000000000E+00  0.11368683772E-12  0.17120000000E+03  0.17120000000E+03 0.  0.
         13    1    1    2    0    0  0.15952000882E+02 -0.58858261382E+01  0.54894080851E+02  0.57467212895E+02  0.10566000000E+00 0. -1.
        994    1    1    2    0    0  0.39585134605E+01 -0.44168876018E+01  0.29094380313E+01  0.17132741624E+03  0.17120000000E+03 0.  0.
        998    1    1    2    0    0 -0.19910514342E+02  0.10302713740E+02  0.14421964774E+04  0.14424053709E+04  0.10000000000E+02 0. -1.
</event>
<event>
 5    1  0.1488417E-008  0.3730414E+03  0.7957747E-01  0.3482029E+00
         13   -1    0    0    0    0  0.00000000000E+00  0.00000000000E+00  0.14999999963E+04  0.15000000000E+04  0.10566000000E+00 0. -1.
        994   -1    0    0    0    0 -0.00000000000E+00 -0.00000000000E+00  0.11368683772E-12  0.17120000000E+03  0.17120000000E+03 0.  0.
         13    1    1    2    0    0 -0.50525862583E+01 -0.22743247252E+02  0.20886325230E+02  0.31289513725E+02  0.10566000000E+00 0. -1.
        994    1    1    2    0    0  0.22465472137E+02 -0.11639138200E+03  0.64021224821E+02  0.21785272197E+03  0.17120000000E+03 0.  0.
        998    1    1    2    0    0 -0.17412885879E+02  0.13913462925E+03  0.14150924462E+04  0.14220577643E+04  0.10000000000E+02 0. -1.
</event>
<event>
 5    1  0.1488417E-008  0.3784334E+03  0.7957747E-01  0.3458008E+00
         13   -1    0    0    0    0  0.00000000000E+00  0.00000000000E+00  0.14999999963E+04  0.15000000000E+04  0.10566000000E+00 0.  1.
        994   -1    0    0    0    0 -0.00000000000E+00 -0.00000000000E+00  0.11368683772E-12  0.17120000000E+03  0.17120000000E+03 0.  0.
         13    1    1    2    0    0 -0.22025335806E+02  0.25820766281E+02  0.12217622551E+03  0.12680247881E+03  0.10566000000E+00 0.  1.
        994    1    1    2    0    0 -0.44994619318E+01 -0.16213532428E+02  0.58779920909E+01  0.17212528746E+03  0.17120000000E+03 0.  0.
        998    1    1    2    0    0  0.26524797738E+02 -0.96072338527E+01  0.13719457787E+04  0.13722722337E+04  0.10000000000E+02 0.  1.
</event>
<event>
 5    1  0.1488417E-008  0.3767368E+03  0.7957747E-01  0.3465491E+00
         13   -1    0    0    0    0  0.00000000000E+00  0.00000000000E+00  0.14999999963E+04  0.15000000000E+04  0.10566000000E+00 0.  1.
        994   -1    0    0    0    0 -0.00000000000E+00 -0.00000000000E+00  0.11368683772E-12  0.17120000000E+03  0.17120000000E+03 0.  0.
         13    1    1    2    0    0 -0.20056246918E+02  0.94753113745E+00  0.34058194345E+02  0.39536345580E+02  0.10566000000E+00 0.  1.
        994    1    1    2    0    0 -0.32301484051E+01 -0.46412801114E+01  0.58976039136E+01  0.17139485719E+03  0.17120000000E+03 0.  0.
        998    1    1    2    0    0  0.23286395323E+02  0.36937489740E+01  0.14600441980E+04  0.14602687972E+04  0.10000000000E+02 0.  1.
</event>
<event>
 5    1  0.1488417E-008  0.3852141E+03  0.7957747E-01  0.3428765E+00
         13   -1    0    0    0    0  0.00000000000E+00  0.00000000000E+00  0.14999999963E+04  0.15000000000E+04  0.10566000000E+00 0. -1.
        994   -1    0    0    0    0 -0.00000000000E+00 -0.00000000000E+00  0.11368683772E-12  0.17120000000E+03  0.17120000000E+03 0.  0.
         13    1    1    2    0    0  0.10123079053E+02  0.11193627515E+02  0.77352485602E+02  0.78811117359E+02  0.10566000000E+00 0. -1.
        994    1    1    2    0    0 -0.47289462663E+01 -0.30037805998E+01  0.16270168552E+01  0.17129936607E+03  0.17120000000E+03 0.  0.
        998    1    1    2    0    0 -0.53941327864E+01 -0.81898469152E+01  0.14210204938E+04  0.14210895166E+04  0.10000000000E+02 0. -1.
</event>
<event>
 5    1  0.1488417E-008  0.3760242E+03  0.7957747E-01  0.3468655E+00
         13   -1    0    0    0    0  0.00000000000E+00  0.00000000000E+00  0.14999999963E+04  0.15000000000E+04  0.10566000000E+00 0.  1.
        994   -1    0    0    0    0 -0.00000000000E+00 -0.00000000000E+00  0.11368683772E-12  0.17120000000E+03  0.17120000000E+03 0.  0.
         13    1    1    2    0    0  0.44953468174E+02 -0.28134711642E+02  0.23146695256E+03  0.23746439226E+03  0.10566000000E+00 0.  1.
        994    1    1    2    0    0 -0.26783762936E+02  0.86632137305E+01  0.88426913387E+01  0.17372407553E+03  0.17120000000E+03 0.  0.
        998    1    1    2    0    0 -0.18169705237E+02  0.19471497912E+02  0.12596903524E+04  0.12600115322E+04  0.10000000000E+02 0.  1.
</event>
<event>
 5    1  0.1488417E-008  0.3848753E+03  0.7957747E-01  0.3430201E+00
         13   -1    0    0    0    0  0.00000000000E+00  0.00000000000E+00  0.14999999963E+04  0.15000000000E+04  0.10566000000E+00 0.  1.
        994   -1    0    0    0    0 -0.00000000000E+00 -0.00000000000E+00  0.11368683772E-12  0.17120000000E+03  0.17120000000E+03 0.  0.
         13    1    1    2    0    0 -0.11273275791E+02  0.11486502526E+02  0.77808523017E+02  0.79455672582E+02  0.10566000000E+00 0.  1.
        994    1    1    2    0    0  0.86847254695E+01 -0.27371635818E+01  0.19649106086E+01  0.17145325134E+03  0.17120000000E+03 0.  0.
        998    1    1    2    0    0  0.25885503214E+01 -0.87493389445E+01  0.14202265627E+04  0.14202910761E+04  0.10000000000E+02 0.  1.
</event>
<event>
 5    1  0.1488417E-008  0.3721189E+03  0.7957747E-01  0.3486209E+00
         13   -1    0    0    0    0  0.00000000000E+00  0.00000000000E+00  0.14999999963E+04  0.15000000000E+04  0.10566000000E+00 0.  1.
        994   -1    0    0    0    0 -0.00000000000E+00 -0.00000000000E+00  0.11368683772E-12  0.17120000000E+03  0.17120000000E+03 0.  0.
         13    1    1    2    0    0  0.54565859289E+01  0.15727576998E+02  0.13238485496E+02  0.21269689008E+02  0.10566000000E+00 0.  1.
        994    1    1    2    0    0 -0.23975326835E+01 -0.16453210261E+02  0.91152511703E+01  0.17224686962E+03  0.17120000000E+03 0.  0.
        998    1    1    2    0    0 -0.30590532454E+01  0.72563326299E+00  0.14776462596E+04  0.14776834414E+04  0.10000000000E+02 0.  1.
</event>
<event>
 5    1  0.1488417E-008  0.3828159E+03  0.7957747E-01  0.3438988E+00
         13   -1    0    0    0    0  0.00000000000E+00  0.00000000000E+00  0.14999999963E+04  0.15000000000E+04  0.10566000000E+00 0.  1.
        994   -1    0    0    0    0 -0.00000000000E+00 -0.00000000000E+00  0.11368683772E-12  0.17120000000E+03  0.17120000000E+03 0.  0.
         13    1    1    2    0    0 -0.10437998159E+02 -0.11489906942E+02  0.46177003626E+02  0.48716492023E+02  0.10566000000E+00 0.  1.
        994    1    1    2    0    0 -0.81154397456E+01  0.23898950300E+01  0.29554832393E+01  0.17143438057E+03  0.17120000000E+03 0.  0.
        998    1    1    2    0    0  0.18553437905E+02  0.91000119124E+01  0.14508675094E+04  0.14510491274E+04  0.10000000000E+02 0.  1.
</event>
<event>
 5    1  0.1488417E-008  0.3829193E+03  0.7957747E-01  0.3438545E+00
         13   -1    0    0    0    0  0.00000000000E+00  0.00000000000E+00  0.14999999963E+04  0.15000000000E+04  0.10566000000E+00 0. -1.
        994   -1    0    0    0    0 -0.00000000000E+00 -0.00000000000E+00  0.11368683772E-12  0.17120000000E+03  0.17120000000E+03 0.  0.
         13    1    1    2    0    0 -0.49620343974E+01  0.10625078629E+02  0.24575442903E+02  0.27230087021E+02  0.10566000000E+00 0. -1.
        994    1    1    2    0    0  0.38117121363E+01 -0.10611005610E+02  0.30876984352E+01  0.17159864939E+03  0.17120000000E+03 0.  0.
        998    1    1    2    0    0  0.11503222611E+01 -0.14073019477E-01  0.14723368549E+04  0.14723712636E+04  0.10000000000E+02 0. -1.
</event>
<event>
 5    1  0.1488417E-008  0.3981543E+03  0.7957747E-01  0.3375730E+00
         13   -1    0    0    0    0  0.00000000000E+00  0.00000000000E+00  0.14999999963E+04  0.15000000000E+04  0.10566000000E+00 0.  1.
        994   -1    0    0    0    0 -0.00000000000E+00 -0.00000000000E+00  0.11368683772E-12  0.17120000000E+03  0.17120000000E+03 0.  0.
         13    1    1    2    0    0 -0.37197269389E+02  0.61789108490E+02  0.83758713094E+02  0.11053082810E+03  0.10566000000E+00 0.  1.
        994    1    1    2    0    0  0.31601549147E+02 -0.66931176589E+02  0.48296373993E+02  0.19266660336E+03  0.17120000000E+03 0.  0.
        998    1    1    2    0    0  0.55957202418E+01  0.51420680984E+01  0.13679449092E+04  0.13680025685E+04  0.10000000000E+02 0.  1.
</event>
<event>
 5    1  0.1488417E-008  0.3774401E+03  0.7957747E-01  0.3462381E+00
         13   -1    0    0    0    0  0.00000000000E+00  0.00000000000E+00  0.14999999963E+04  0.15000000000E+04  0.10566000000E+00 0. -1.
        994   -1    0    0    0    0 -0.00000000000E+00 -0.00000000000E+00  0.11368683772E-12  0.17120000000E+03  0.17120000000E+03 0.  0.
         13    1    1    2    0    0  0.45378349253E+00  0.11181733133E+02  0.90169724762E+01  0.14371987753E+02  0.10566000000E+00 0. -1.
        994    1    1    2    0    0 -0.76190251346E+01 -0.10901914299E+02  0.60276280729E+01  0.17182163304E+03  0.17120000000E+03 0.  0.
        998    1    1    2    0    0  0.71652416420E+01 -0.27981883436E+00  0.14849553957E+04  0.14850063792E+04  0.10000000000E+02 0. -1.
</event>
<event>
 5    1  0.1488417E-008  0.3732361E+03  0.7957747E-01  0.3481149E+00
         13   -1    0    0    0    0  0.00000000000E+00  0.00000000000E+00  0.14999999963E+04  0.15000000000E+04  0.10566000000E+00 0.  1.
        994   -1    0    0    0    0 -0.00000000000E+00 -0.00000000000E+00  0.11368683772E-12  0.17120000000E+03  0.17120000000E+03 0.  0.
         13    1    1    2    0    0 -0.11408986500E+02 -0.29813822850E+01 -0.26554149995E+00  0.11795562285E+02  0.10566000000E+00 0.  1.
        994    1    1    2    0    0 -0.18376596803E+02  0.29254003746E+02  0.16892315828E+02  0.17546591230E+03  0.17120000000E+03 0.  0.
        998    1    1    2    0    0  0.29785583304E+02 -0.26272621461E+02  0.14833732220E+04  0.14839385254E+04  0.10000000000E+02 0.  1.
</event>
<event>
 5    1  0.1488417E-008  0.3836696E+03  0.7957747E-01  0.3435334E+00
         13   -1    0    0    0    0  0.00000000000E+00  0.00000000000E+00  0.14999999963E+04  0.15000000000E+04  0.10566000000E+00 0. -1.
        994   -1    0    0    0    0 -0.00000000000E+00 -0.00000000000E+00  0.11368683772E-12  0.17120000000E+03  0.17120000000E+03 0.  0.
         13    1    1    2    0    0 -0.10874851376E+02  0.13845168247E+02  0.64339172041E+02  0.66704507338E+02  0.10566000000E+00 0. -1.
        994    1    1    2    0    0  0.14642435531E+02 -0.12877294874E+02  0.35489659263E+01  0.17234343852E+03  0.17120000000E+03 0.  0.
        998    1    1    2    0    0 -0.37675841547E+01 -0.96787337296E+00  0.14321118583E+04  0.14321520541E+04  0.10000000000E+02 0. -1.
</event>
<event>
 5    1  0.1488417E-008  0.3820688E+03  0.7957747E-01  0.3442200E+00
         13   -1    0    0    0    0  0.00000000000E+00  0.00000000000E+00  0.14999999963E+04  0.15000000000E+04  0.10566000000E+00 0.  1.
        994   -1    0    0    0    0 -0.00000000000E+00 -0.00000000000E+00  0.11368683772E-12  0.17120000000E+03  0.17120000000E+03 0.  0.
         13    1    1    2    0    0 -0.84636520965E+00  0.10353718856E+02  0.16124737373E+02  0.19181609619E+02  0.10566000000E+00 0.  1.
        994    1    1    2    0    0 -0.30890010738E+00 -0.89401138053E+01  0.33582013887E+01  0.17146643570E+03  0.17120000000E+03 0.  0.
        998    1    1    2    0    0  0.11552653170E+01 -0.14136050507E+01  0.14805170575E+04  0.14805519547E+04  0.10000000000E+02 0.  1.
</event>
<event>
 5    1  0.1488417E-008  0.3834366E+03  0.7957747E-01  0.3436330E+00
         13   -1    0    0    0    0  0.00000000000E+00  0.00000000000E+00  0.14999999963E+04  0.15000000000E+04  0.10566000000E+00 0.  1.
        994   -1    0    0    0    0 -0.00000000000E+00 -0.00000000000E+00  0.11368683772E-12  0.17120000000E+03  0.17120000000E+03 0.  0.
         13    1    1    2    0    0  0.50020390283E+01 -0.10004330426E+02  0.26308514927E+02  0.28587692167E+02  0.10566000000E+00 0.  1.
        994    1    1    2    0    0 -0.51406702682E+01 -0.78052459583E+01  0.26971043356E+01  0.17147612874E+03  0.17120000000E+03 0.  0.
        998    1    1    2    0    0  0.13863123993E+00  0.17809576384E+02  0.14709943770E+04  0.14711361791E+04  0.10000000000E+02 0.  1.
</event>
<event>
 5    1  0.1488417E-008  0.4158300E+03  0.7957747E-01  0.3308593E+00
         13   -1    0    0    0    0  0.00000000000E+00  0.00000000000E+00  0.14999999963E+04  0.15000000000E+04  0.10566000000E+00 0.  1.
        994   -1    0    0    0    0 -0.00000000000E+00 -0.00000000000E+00  0.11368683772E-12  0.17120000000E+03  0.17120000000E+03 0.  0.
         13    1    1    2    0    0  0.76636908301E+02  0.15077212699E+02  0.70685972746E+02  0.10534256482E+03  0.10566000000E+00 0.  1.
        994    1    1    2    0    0 -0.57172348339E+02  0.27768948018E+01  0.51450519205E+02  0.18770451376E+03  0.17120000000E+03 0.  0.
        998    1    1    2    0    0 -0.19464559962E+02 -0.17854107501E+02  0.13778635043E+04  0.13781529214E+04  0.10000000000E+02 0.  1.
</event>
<event>
 5    1  0.1488417E-008  0.3812135E+03  0.7957747E-01  0.3445892E+00
         13   -1    0    0    0    0  0.00000000000E+00  0.00000000000E+00  0.14999999963E+04  0.15000000000E+04  0.10566000000E+00 0.  1.
        994   -1    0    0    0    0 -0.00000000000E+00 -0.00000000000E+00  0.11368683772E-12  0.17120000000E+03  0.17120000000E+03 0.  0.
         13    1    1    2    0    0 -0.13800678518E+01  0.12475411441E+02  0.20812834584E+02  0.24304849833E+02  0.10566000000E+00 0.  1.
        994    1    1    2    0    0  0.39702162046E+00 -0.11001174258E+02  0.39254304258E+01  0.17159846289E+03  0.17120000000E+03 0.  0.
        998    1    1    2    0    0  0.98304623134E+00 -0.14742371834E+01  0.14752617313E+04  0.14752966873E+04  0.10000000000E+02 0.  1.
</event>
<event>
 5    1  0.1488417E-008  0.3778583E+03  0.7957747E-01  0.3460537E+00
         13   -1    0    0    0    0  0.00000000000E+00  0.00000000000E+00  0.14999999963E+04  0.15000000000E+04  0.10566000000E+00 0.  1.
        994   -1    0    0    0    0 -0.00000000000E+00 -0.00000000000E+00  0.11368683772E-12  0.17120000000E+03  0.17120000000E+03 0.  0.
         13    1    1    2    0    0 -0.14882214227E+02  0.18405292039E+00  0.19632896170E+02  0.24636881942E+02  0.10566000000E+00 0.  1.
        994    1    1    2    0    0 -0.26024245203E+01 -0.34791592666E+01  0.52817287258E+01  0.17133655133E+03  0.17120000000E+03 0.  0.
        998    1    1    2    0    0  0.17484638747E+02  0.32951063462E+01  0.14750853714E+04  0.14752265667E+04  0.10000000000E+02 0.  1.
</event>
<event>
 5    1  0.1488417E-008  0.3860775E+03  0.7957747E-01  0.3425115E+00
         13   -1    0    0    0    0  0.00000000000E+00  0.00000000000E+00  0.14999999963E+04  0.15000000000E+04  0.10566000000E+00 0.  1.
        994   -1    0    0    0    0 -0.00000000000E+00 -0.00000000000E+00  0.11368683772E-12  0.17120000000E+03  0.17120000000E+03 0.  0.
         13    1    1    2    0    0 -0.77351259196E+01 -0.11390540187E+02  0.81469840358E+02  0.82625193681E+02  0.10566000000E+00 0.  1.
        994    1    1    2    0    0  0.77951988495E+01  0.15880561059E+02  0.21224376917E+01  0.17212467019E+03  0.17120000000E+03 0.  0.
        998    1    1    2    0    0 -0.60072929883E-01 -0.44900208725E+01  0.14164077182E+04  0.14164501361E+04  0.10000000000E+02 0.  1.
</event>
<event>
 5    1  0.1488417E-008  0.3860372E+03  0.7957747E-01  0.3425285E+00
         13   -1    0    0    0    0  0.00000000000E+00  0.00000000000E+00  0.14999999963E+04  0.15000000000E+04  0.10566000000E+00 0.  1.
        994   -1    0    0    0    0 -0.00000000000E+00 -0.00000000000E+00  0.11368683772E-12  0.17120000000E+03  0.17120000000E+03 0.  0.
         13    1    1    2    0    0 -0.73425313560E+01  0.11250985655E+02  0.75999666725E+02  0.77178092431E+02  0.10566000000E+00 0.  1.
        994    1    1    2    0    0  0.10953364341E+02 -0.14299562165E+02  0.21802252304E+01  0.17215878441E+03  0.17120000000E+03 0.  0.
        998    1    1    2    0    0 -0.36108329848E+01  0.30485765099E+01  0.14218201043E+04  0.14218631232E+04  0.10000000000E+02 0.  1.
</event>
<event>
 5    1  0.1488417E-008  0.3786251E+03  0.7957747E-01  0.3457167E+00
         13   -1    0    0    0    0  0.00000000000E+00  0.00000000000E+00  0.14999999963E+04  0.15000000000E+04  0.10566000000E+00 0.  1.
        994   -1    0    0    0    0 -0.00000000000E+00 -0.00000000000E+00  0.11368683772E-12  0.17120000000E+03  0.17120000000E+03 0.  0.
         13    1    1    2    0    0 -0.44568299176E+02  0.20957117733E+02  0.21866830122E+03  0.22414587036E+03  0.10566000000E+00 0.  1.
        994    1    1    2    0    0  0.48249840384E+02 -0.80335927715E+01  0.12905912206E+02  0.17851775340E+03  0.17120000000E+03 0.  0.
        998    1    1    2    0    0 -0.36815412076E+01 -0.12923524961E+02  0.12684257829E+04  0.12685363762E+04  0.10000000000E+02 0.  1.
</event>
<event>
 5    1  0.1488417E-008  0.3862789E+03  0.7957747E-01  0.3424266E+00
         13   -1    0    0    0    0  0.00000000000E+00  0.00000000000E+00  0.14999999963E+04  0.15000000000E+04  0.10566000000E+00 0. -1.
        994   -1    0    0    0    0 -0.00000000000E+00 -0.00000000000E+00  0.11368683772E-12  0.17120000000E+03  0.17120000000E+03 0.  0.
         13    1    1    2    0    0  0.98605994860E+01 -0.52271882929E+01  0.64188462755E+02  0.65151552818E+02  0.10566000000E+00 0. -1.
        994    1    1    2    0    0 -0.32662789039E+01  0.71639159724E+01  0.11995497177E+01  0.17138514868E+03  0.17120000000E+03 0.  0.
        998    1    1    2    0    0 -0.65943205821E+01 -0.19367276795E+01  0.14346119838E+04  0.14346632985E+04  0.10000000000E+02 0. -1.
</event>
<event>
 5    1  0.1488417E-008  0.3747504E+03  0.7957747E-01  0.3474340E+00
         13   -1    0    0    0    0  0.00000000000E+00  0.00000000000E+00  0.14999999963E+04  0.15000000000E+04  0.10566000000E+00 0.  1.
        994   -1    0    0    0    0 -0.00000000000E+00 -0.00000000000E+00  0.11368683772E-12  0.17120000000E+03  0.17120000000E+03 0.  0.
         13    1    1    2    0    0 -0.72011762783E+01  0.72061950097E+01  0.44364042904E+01  0.11112112012E+02  0.10566000000E+00 0. -1.
        994    1    1    2    0    0  0.75198158828E+01 -0.71700019257E+01  0.71743174460E+01  0.17166498592E+03  0.17120000000E+03 0.  0.
        998    1    1    2    0    0 -0.31863960457E+00 -0.36193084006E-01  0.14883892745E+04  0.14884229021E+04  0.10000000000E+02 0.  1.
</event>
<event>
 5    1  0.1488417E-008  0.3860790E+03  0.7957747E-01  0.3425109E+00
         13   -1    0    0    0    0  0.00000000000E+00  0.00000000000E+00  0.14999999963E+04  0.15000000000E+04  0.10566000000E+00 0. -1.
        994   -1    0    0    0    0 -0.00000000000E+00 -0.00000000000E+00  0.11368683772E-12  0.17120000000E+03  0.17120000000E+03 0.  0.
         13    1    1    2    0    0 -0.55128622264E+01  0.13816470898E+02  0.89589944963E+02  0.90816605974E+02  0.10566000000E+00 0. -1.
        994    1    1    2    0    0  0.13916503661E+02 -0.21040787751E+02  0.31837234219E+01  0.17307790130E+03  0.17120000000E+03 0.  0.
        998    1    1    2    0    0 -0.84036414346E+01  0.72243168528E+01  0.14072263279E+04  0.14073054927E+04  0.10000000000E+02 0. -1.
</event>
<event>
 5    1  0.1488417E-008  0.3787933E+03  0.7957747E-01  0.3456430E+00
         13   -1    0    0    0    0  0.00000000000E+00  0.00000000000E+00  0.14999999963E+04  0.15000000000E+04  0.10566000000E+00 0.  1.
        994   -1    0    0    0    0 -0.00000000000E+00 -0.00000000000E+00  0.11368683772E-12  0.17120000000E+03  0.17120000000E+03 0.  0.
         13    1    1    2    0    0 -0.79735400555E+01  0.62321651595E+02  0.32278172345E+03  0.32883980561E+03  0.10566000000E+00 0.  1.
        994    1    1    2    0    0  0.10522005203E+02 -0.63252310754E+02  0.18669348438E+02  0.18376493675E+03  0.17120000000E+03 0.  0.
        998    1    1    2    0    0 -0.25484651472E+01  0.93065915916E+00  0.11585489244E+04  0.11585952576E+04  0.10000000000E+02 0. -1.
</event>
<event>
 5    1  0.1488417E-008  0.3779374E+03  0.7957747E-01  0.3460189E+00
         13   -1    0    0    0    0  0.00000000000E+00  0.00000000000E+00  0.14999999963E+04  0.15000000000E+04  0.10566000000E+00 0. -1.
        994   -1    0    0    0    0 -0.00000000000E+00 -0.00000000000E+00  0.11368683772E-12  0.17120000000E+03  0.17120000000E+03 0.  0.
         13    1    1    2    0    0 -0.44181925944E+01 -0.22951459828E+02  0.50304964434E+02  0.55469726381E+02  0.10566000000E+00 0. -1.
        994    1    1    2    0    0  0.67680553073E+01  0.16898072914E+02  0.62940267181E+01  0.17228002268E+03  0.17120000000E+03 0.  0.
        998    1    1    2    0    0 -0.23498627130E+01  0.60533869136E+01  0.14434010051E+04  0.14434502509E+04  0.10000000000E+02 0. -1.
</event>
<event>
 5    1  0.1488417E-008  0.3795231E+03  0.7957747E-01  0.3453238E+00
         13   -1    0    0    0    0  0.00000000000E+00  0.00000000000E+00  0.14999999963E+04  0.15000000000E+04  0.10566000000E+00 0.  1.
        994   -1    0    0    0    0 -0.00000000000E+00 -0.00000000000E+00  0.11368683772E-12  0.17120000000E+03  0.17120000000E+03 0.  0.
         13    1    1    2    0    0  0.83438900677E+01  0.96241840625E+01  0.16803049513E+02  0.21085517715E+02  0.10566000000E+00 0.  1.
        994    1    1    2    0    0 -0.39653842997E+01 -0.46684308550E+01  0.44996894272E+01  0.17136862526E+03  0.17120000000E+03 0.  0.
        998    1    1    2    0    0 -0.43785057679E+01 -0.49557532075E+01  0.14786972573E+04  0.14787458570E+04  0.10000000000E+02 0.  1.
</event>
<event>
 5    1  0.1488417E-008  0.3759153E+03  0.7957747E-01  0.3469139E+00
         13   -1    0    0    0    0  0.00000000000E+00  0.00000000000E+00  0.14999999963E+04  0.15000000000E+04  0.10566000000E+00 0.  1.
        994   -1    0    0    0    0 -0.00000000000E+00 -0.00000000000E+00  0.11368683772E-12  0.17120000000E+03  0.17120000000E+03 0.  0.
         13    1    1    2    0    0 -0.11991657879E+02  0.91092839575E+02  0.44889085364E+03  0.45819724456E+03  0.10566000000E+00 0.  1.
        994    1    1    2    0    0 -0.34840548609E+02 -0.10625007105E+03  0.49830303172E+02  0.21046482020E+03  0.17120000000E+03 0.  0.
        998    1    1    2    0    0  0.46832206487E+02  0.15157231477E+02  0.10012788395E+04  0.10025379352E+04  0.10000000000E+02 0.  1.
</event>
<event>
 5    1  0.1488417E-008  0.3729108E+03  0.7957747E-01  0.3482619E+00
         13   -1    0    0    0    0  0.00000000000E+00  0.00000000000E+00  0.14999999963E+04  0.15000000000E+04  0.10566000000E+00 0. -1.
        994   -1    0    0    0    0 -0.00000000000E+00 -0.00000000000E+00  0.11368683772E-12  0.17120000000E+03  0.17120000000E+03 0.  0.
         13    1    1    2    0    0  0.33283708936E+02  0.31421891596E+02  0.13719226478E+03  0.14462665464E+03  0.10566000000E+00 0. -1.
        994    1    1    2    0    0  0.84333003029E+01 -0.38862617641E+02  0.13188603140E+02  0.17625210029E+03  0.17120000000E+03 0.  0.
        998    1    1    2    0    0 -0.41717009238E+02  0.74407260451E+01  0.13496191284E+04  0.13503212451E+04  0.10000000000E+02 0. -1.
</event>
<event>
 5    1  0.1488417E-008  0.3858021E+03  0.7957747E-01  0.3426277E+00
         13   -1    0    0    0    0  0.00000000000E+00  0.00000000000E+00  0.14999999963E+04  0.15000000000E+04  0.10566000000E+00 0.  1.
        994   -1    0    0    0    0 -0.00000000000E+00 -0.00000000000E+00  0.11368683772E-12  0.17120000000E+03  0.17120000000E+03 0.  0.
         13    1    1    2    0    0 -0.76407230242E+01 -0.10703770775E+02  0.68564167493E+02  0.69814093027E+02  0.10566000000E+00 0.  1.
        994    1    1    2    0    0  0.17150875616E+01  0.14863645415E+02  0.19670716445E+01  0.17186383811E+03  0.17120000000E+03 0.  0.
        998    1    1    2    0    0  0.59256354626E+01 -0.41598746403E+01  0.14294687571E+04  0.14295220689E+04  0.10000000000E+02 0.  1.
</event>
<event>
 5    1  0.1488417E-008  0.3856074E+03  0.7957747E-01  0.3427100E+00
         13   -1    0    0    0    0  0.00000000000E+00  0.00000000000E+00  0.14999999963E+04  0.15000000000E+04  0.10566000000E+00 0. -1.
        994   -1    0    0    0    0 -0.00000000000E+00 -0.00000000000E+00  0.11368683772E-12  0.17120000000E+03  0.17120000000E+03 0.  0.
         13    1    1    2    0    0 -0.27046438731E+01 -0.11664248487E+02  0.60662016966E+02  0.61832525887E+02  0.10566000000E+00 0. -1.
        994    1    1    2    0    0 -0.27442281087E+02 -0.99515895185E+00  0.38077731522E+01  0.17343012503E+03  0.17120000000E+03 0.  0.
        998    1    1    2    0    0  0.30146924960E+02  0.12659407439E+02  0.14355302062E+04  0.14359373491E+04  0.10000000000E+02 0. -1.
</event>
<event>
 5    1  0.1488417E-008  0.3811764E+03  0.7957747E-01  0.3446052E+00
         13   -1    0    0    0    0  0.00000000000E+00  0.00000000000E+00  0.14999999963E+04  0.15000000000E+04  0.10566000000E+00 0.  1.
        994   -1    0    0    0    0 -0.00000000000E+00 -0.00000000000E+00  0.11368683772E-12  0.17120000000E+03  0.17120000000E+03 0.  0.
         13    1    1    2    0    0  0.31619880421E+02  0.11601124300E+02  0.15053549751E+03  0.15425741505E+03  0.10566000000E+00 0.  1.
        994    1    1    2    0    0 -0.32135641853E+02  0.54054248936E+01  0.70847298863E+01  0.17441774994E+03  0.17120000000E+03 0.  0.
        998    1    1    2    0    0  0.51576143187E+00 -0.17006549194E+02  0.13423797689E+04  0.13425248350E+04  0.10000000000E+02 0.  1.
</event>
<event>
 5    1  0.1488417E-008  0.3848975E+03  0.7957747E-01  0.3430107E+00
         13   -1    0    0    0    0  0.00000000000E+00  0.00000000000E+00  0.14999999963E+04  0.15000000000E+04  0.10566000000E+00 0. -1.
        994   -1    0    0    0    0 -0.00000000000E+00 -0.00000000000E+00  0.11368683772E-12  0.17120000000E+03  0.17120000000E+03 0.  0.
         13    1    1    2    0    0 -0.12797661922E+02 -0.28299939468E+01  0.47269107214E+02  0.49052713251E+02  0.10566000000E+00 0. -1.
        994    1    1    2    0    0  0.21352440982E+02  0.10397129933E+02  0.35387570089E+01  0.17287564851E+03  0.17120000000E+03 0.  0.
        998    1    1    2    0    0 -0.85547790604E+01 -0.75671359864E+01  0.14491921321E+04  0.14492716382E+04  0.10000000000E+02 0. -1.
</event>
<event>
 5    1  0.1488417E-008  0.3753594E+03  0.7957747E-01  0.3471617E+00
         13   -1    0    0    0    0  0.00000000000E+00  0.00000000000E+00  0.14999999963E+04  0.15000000000E+04  0.10566000000E+00 0.  1.
        994   -1    0    0    0    0 -0.00000000000E+00 -0.00000000000E+00  0.11368683772E-12  0.17120000000E+03  0.17120000000E+03 0.  0.
         13    1    1    2    0    0  0.13018523061E+02 -0.14761510965E+02  0.27387986880E+02  0.33726801479E+02  0.10566000000E+00 0.  1.
        994    1    1    2    0    0 -0.22849931914E+02 -0.72401103582E+01  0.84473553557E+01  0.17307610002E+03  0.17120000000E+03 0.  0.
        998    1    1    2    0    0  0.98314088529E+01  0.22001621323E+02  0.14641646540E+04  0.14643970985E+04  0.10000000000E+02 0.  1.
</event>
<event>
 5    1  0.1488417E-008  0.3699090E+03  0.7957747E-01  0.3496309E+00
         13   -1    0    0    0    0  0.00000000000E+00  0.00000000000E+00  0.14999999963E+04  0.15000000000E+04  0.10566000000E+00 0.  1.
        994   -1    0    0    0    0 -0.00000000000E+00 -0.00000000000E+00  0.11368683772E-12  0.17120000000E+03  0.17120000000E+03 0.  0.
         13    1    1    2    0    0 -0.75023538623E+01  0.70778475065E+01  0.13445281637E+01  0.10401930533E+02  0.10566000000E+00 0.  1.
        994    1    1    2    0    0  0.59167032263E+01 -0.67463137860E+01  0.95951698045E+01  0.17170331217E+03  0.17120000000E+03 0.  0.
        998    1    1    2    0    0  0.15856506359E+01 -0.33153372052E+00  0.14890602983E+04  0.14890947573E+04  0.10000000000E+02 0.  1.
</event>
<event>
 5    1  0.1488417E-008  0.3841264E+03  0.7957747E-01  0.3433386E+00
         13   -1    0    0    0    0  0.00000000000E+00  0.00000000000E+00  0.14999999963E+04  0.15000000000E+04  0.10566000000E+00 0.  1.
        994   -1    0    0    0    0 -0.00000000000E+00 -0.00000000000E+00  0.11368683772E-12  0.17120000000E+03  0.17120000000E+03 0.  0.
         13    1    1    2    0    0 -0.92847303695E+00 -0.19136679341E+02  0.90141602195E+02  0.92155272061E+02  0.10566000000E+00 0.  1.
        994    1    1    2    0    0  0.19156296898E+01  0.94047347508E+01  0.23683625896E+01  0.17148518249E+03  0.17120000000E+03 0.  0.
        998    1    1    2    0    0 -0.98715665286E+00  0.97319445901E+01  0.14074900315E+04  0.14075595454E+04  0.10000000000E+02 0.  1.
</event>
<event>
 5    1  0.1488417E-008  0.4289237E+03  0.7957747E-01  0.3262377E+00
         13   -1    0    0    0    0  0.00000000000E+00  0.00000000000E+00  0.14999999963E+04  0.15000000000E+04  0.10566000000E+00 0. -1.
        994   -1    0    0    0    0 -0.00000000000E+00 -0.00000000000E+00  0.11368683772E-12  0.17120000000E+03  0.17120000000E+03 0.  0.
         13    1    1    2    0    0  0.36175510843E+02  0.20142767961E+02  0.22505418670E+01  0.41466550237E+02  0.10566000000E+00 0. -1.
        994    1    1    2    0    0  0.59587382515E+02 -0.40508307773E+02  0.69846103221E+02  0.19844268011E+03  0.17120000000E+03 0.  0.
        998    1    1    2    0    0 -0.95762893358E+02  0.20365539812E+02  0.14279033512E+04  0.14312907697E+04  0.10000000000E+02 0. -1.
</event>
<event>
 5    1  0.1488417E-008  0.3827369E+03  0.7957747E-01  0.3439327E+00
         13   -1    0    0    0    0  0.00000000000E+00  0.00000000000E+00  0.14999999963E+04  0.15000000000E+04  0.10566000000E+00 0. -1.
        994   -1    0    0    0    0 -0.00000000000E+00 -0.00000000000E+00  0.11368683772E-12  0.17120000000E+03  0.17120000000E+03 0.  0.
         13    1    1    2    0    0 -0.28740632255E-01  0.15918403197E+02  0.40965814671E+02  0.43950034381E+02  0.10566000000E+00 0. -1.
        994    1    1    2    0    0 -0.15622318391E+02 -0.34311964666E+02  0.74811653473E+01  0.17546160716E+03  0.17120000000E+03 0.  0.
        998    1    1    2    0    0  0.15651059023E+02  0.18393561468E+02  0.14515530163E+04  0.14517883585E+04  0.10000000000E+02 0. -1.
</event>
<event>
 5    1  0.1488417E-008  0.3854533E+03  0.7957747E-01  0.3427752E+00
         13   -1    0    0    0    0  0.00000000000E+00  0.00000000000E+00  0.14999999963E+04  0.15000000000E+04  0.10566000000E+00 0.  1.
        994   -1    0    0    0    0 -0.00000000000E+00 -0.00000000000E+00  0.11368683772E-12  0.17120000000E+03  0.17120000000E+03 0.  0.
         13    1    1    2    0    0  0.14123452893E+02  0.15352319690E+01  0.78875550078E+02  0.80144821560E+02  0.10566000000E+00 0.  1.
        994    1    1    2    0    0  0.27560454309E+01 -0.35460526428E+01  0.14714724633E+01  0.17126521978E+03  0.17120000000E+03 0.  0.
        998    1    1    2    0    0 -0.16879498324E+02  0.20108206738E+01  0.14196529737E+04  0.14197899587E+04  0.10000000000E+02 0.  1.
</event>
<event>
 5    1  0.1488417E-008  0.3796363E+03  0.7957747E-01  0.3452744E+00
         13   -1    0    0    0    0  0.00000000000E+00  0.00000000000E+00  0.14999999963E+04  0.15000000000E+04  0.10566000000E+00 0.  1.
        994   -1    0    0    0    0 -0.00000000000E+00 -0.00000000000E+00  0.11368683772E-12  0.17120000000E+03  0.17120000000E+03 0.  0.
         13    1    1    2    0    0 -0.17436525695E+02  0.33659226709E+02  0.36930639223E+02  0.52923144733E+02  0.10566000000E+00 0.  1.
        994    1    1    2    0    0  0.13363798949E+02 -0.40584148342E+02  0.22763283504E+02  0.17791366247E+03  0.17120000000E+03 0.  0.
        998    1    1    2    0    0  0.40727267469E+01  0.69249216328E+01  0.14403060736E+04  0.14403631928E+04  0.10000000000E+02 0.  1.
</event>
<event>
 5    1  0.1488417E-008  0.3688301E+03  0.7957747E-01  0.3501285E+00
         13   -1    0    0    0    0  0.00000000000E+00  0.00000000000E+00  0.14999999963E+04  0.15000000000E+04  0.10566000000E+00 0. -1.
        994   -1    0    0    0    0 -0.00000000000E+00 -0.00000000000E+00  0.11368683772E-12  0.17120000000E+03  0.17120000000E+03 0.  0.
         13    1    1    2    0    0 -0.38413128765E+02 -0.39527180614E+02  0.13519344420E+03  0.14599741432E+03  0.10566000000E+00 0. -1.
        994    1    1    2    0    0  0.24920802528E+02  0.58313130443E+02  0.23975861397E+02  0.18413513926E+03  0.17120000000E+03 0.  0.
        998    1    1    2    0    0  0.13492326236E+02 -0.18785949828E+02  0.13408306907E+04  0.13410674464E+04  0.10000000000E+02 0. -1.
</event>
<event>
 5    1  0.1488417E-008  0.3761766E+03  0.7957747E-01  0.3467977E+00
         13   -1    0    0    0    0  0.00000000000E+00  0.00000000000E+00  0.14999999963E+04  0.15000000000E+04  0.10566000000E+00 0. -1.
        994   -1    0    0    0    0 -0.00000000000E+00 -0.00000000000E+00  0.11368683772E-12  0.17120000000E+03  0.17120000000E+03 0.  0.
         13    1    1    2    0    0 -0.82960884442E+02 -0.96879632041E+02  0.75116653632E+03  0.76191820290E+03  0.10566000000E+00 0. -1.
        994    1    1    2    0    0  0.72116769063E+02  0.92859049112E+02  0.54415317198E+02  0.21469536122E+03  0.17120000000E+03 0.  0.
        998    1    1    2    0    0  0.10844115378E+02  0.40205829288E+01  0.69441814276E+03  0.69458643588E+03  0.10000000000E+02 0. -1.
</event>
<event>
 5    1  0.1488417E-008  0.3953731E+03  0.7957747E-01  0.3386836E+00
         13   -1    0    0    0    0  0.00000000000E+00  0.00000000000E+00  0.14999999963E+04  0.15000000000E+04  0.10566000000E+00 0.  1.
        994   -1    0    0    0    0 -0.00000000000E+00 -0.00000000000E+00  0.11368683772E-12  0.17120000000E+03  0.17120000000E+03 0.  0.
         13    1    1    2    0    0  0.60247517423E+02  0.43751055307E+02  0.99224075526E+02  0.12405380496E+03  0.10566000000E+00 0.  1.
        994    1    1    2    0    0 -0.13156431916E+03  0.97179345400E+02  0.13711052063E+03  0.27360871718E+03  0.17120000000E+03 0.  0.
        998    1    1    2    0    0  0.71316801737E+02 -0.14093040071E+03  0.12636654001E+04  0.12735374779E+04  0.10000000000E+02 0.  1.
</event>
<event>
 5    1  0.1488417E-008  0.3859826E+03  0.7957747E-01  0.3425516E+00
         13   -1    0    0    0    0  0.00000000000E+00  0.00000000000E+00  0.14999999963E+04  0.15000000000E+04  0.10566000000E+00 0. -1.
        994   -1    0    0    0    0 -0.00000000000E+00 -0.00000000000E+00  0.11368683772E-12  0.17120000000E+03  0.17120000000E+03 0.  0.
         13    1    1    2    0    0 -0.14443210913E+01 -0.10993777308E+02  0.55015906651E+02  0.56122280349E+02  0.10566000000E+00 0. -1.
        994    1    1    2    0    0 -0.42309878781E+01  0.64585177160E+01  0.13385271283E+01  0.17137924426E+03  0.17120000000E+03 0.  0.
        998    1    1    2    0    0  0.56753089694E+01  0.45352595917E+01  0.14436455625E+04  0.14436984754E+04  0.10000000000E+02 0. -1.
</event>
<event>
 5    1  0.1488417E-008  0.3840769E+03  0.7957747E-01  0.3433597E+00
         13   -1    0    0    0    0  0.00000000000E+00  0.00000000000E+00  0.14999999963E+04  0.15000000000E+04  0.10566000000E+00 0.  1.
        994   -1    0    0    0    0 -0.00000000000E+00 -0.00000000000E+00  0.11368683772E-12  0.17120000000E+03  0.17120000000E+03 0.  0.
         13    1    1    2    0    0  0.16895893814E+02  0.13505541890E+02  0.11064715423E+03  0.11274162848E+03  0.10566000000E+00 0.  1.
        994    1    1    2    0    0 -0.16431448858E+02 -0.29679689620E+01  0.30093108944E+01  0.17203865061E+03  0.17120000000E+03 0.  0.
        998    1    1    2    0    0 -0.46444495524E+00 -0.10537572928E+02  0.13863435312E+04  0.13864197209E+04  0.10000000000E+02 0.  1.
</event>
<event>
 5    1  0.1488417E-008  0.3806959E+03  0.7957747E-01  0.3448134E+00
         13   -1    0    0    0    0  0.00000000000E+00  0.00000000000E+00  0.14999999963E+04  0.15000000000E+04  0.10566000000E+00 0. -1.
        994   -1    0    0    0    0 -0.00000000000E+00 -0.00000000000E+00  0.11368683772E-12  0.17120000000E+03  0.17120000000E+03 0.  0.
         13    1    1    2    0    0 -0.26517753147E+02  0.80317881468E+01  0.98364811504E+02  0.10219270110E+03  0.10566000000E+00 0. -1.
        994    1    1    2    0    0  0.18030006219E+02 -0.10921263604E+02  0.52657164303E+01  0.17257323921E+03  0.17120000000E+03 0.  0.
        998    1    1    2    0    0  0.84877469284E+01  0.28894754576E+01  0.13963694683E+04  0.13964340597E+04  0.10000000000E+02 0. -1.
</event>
<event>
 5    1  0.1488417E-008  0.3770931E+03  0.7957747E-01  0.3463914E+00
         13   -1    0    0    0    0  0.00000000000E+00  0.00000000000E+00  0.14999999963E+04  0.15000000000E+04  0.10566000000E+00 0. -1.
        994   -1    0    0    0    0 -0.00000000000E+00 -0.00000000000E+00  0.11368683772E-12  0.17120000000E+03  0.17120000000E+03 0.  0.
         13    1    1    2    0    0 -0.22784977732E+02  0.44982965349E+02  0.20841464622E+03  0.21442783939E+03  0.10566000000E+00 0. -1.
        994    1    1    2    0    0  0.18203211041E+02 -0.36351104691E+02  0.11206840034E+02  0.17631730762E+03  0.17120000000E+03 0.  0.
        998    1    1    2    0    0  0.45817666910E+01 -0.86318606576E+01  0.12803785100E+04  0.12804548530E+04  0.10000000000E+02 0. -1.
</event>
<event>
 5    1  0.1488417E-008  0.3695611E+03  0.7957747E-01  0.3497910E+00
         13   -1    0    0    0    0  0.00000000000E+00  0.00000000000E+00  0.14999999963E+04  0.15000000000E+04  0.10566000000E+00 0.  1.
        994   -1    0    0    0    0 -0.00000000000E+00 -0.00000000000E+00  0.11368683772E-12  0.17120000000E+03  0.17120000000E+03 0.  0.
         13    1    1    2    0    0 -0.22514257849E+00  0.19931426189E+02  0.16748798346E+02  0.26035472902E+02  0.10566000000E+00 0.  1.
        994    1    1    2    0    0  0.19086620672E+01 -0.15950013395E+02  0.10392729023E+02  0.17226576774E+03  0.17120000000E+03 0.  0.
        998    1    1    2    0    0 -0.16835194887E+01 -0.39814127949E+01  0.14728584689E+04  0.14728987594E+04  0.10000000000E+02 0.  1.
</event>
<event>
 5    1  0.1488417E-008  0.3808943E+03  0.7957747E-01  0.3447274E+00
         13   -1    0    0    0    0  0.00000000000E+00  0.00000000000E+00  0.14999999963E+04  0.15000000000E+04  0.10566000000E+00 0.  1.
        994   -1    0    0    0    0 -0.00000000000E+00 -0.00000000000E+00  0.11368683772E-12  0.17120000000E+03  0.17120000000E+03 0.  0.
         13    1    1    2    0    0 -0.88843930423E+02  0.20550623287E+02  0.44398519980E+03  0.45325317528E+03  0.10566000000E+00 0.  1.
        994    1    1    2    0    0  0.13397425506E+03 -0.32537023541E+02  0.69873797870E+02  0.23065026891E+03  0.17120000000E+03 0.  0.
        998    1    1    2    0    0 -0.45130324634E+02  0.11986400254E+02  0.98614099861E+03  0.98729655582E+03  0.10000000000E+02 0.  1.
</event>
<event>
 5    1  0.1488417E-008  0.3834046E+03  0.7957747E-01  0.3436467E+00
         13   -1    0    0    0    0  0.00000000000E+00  0.00000000000E+00  0.14999999963E+04  0.15000000000E+04  0.10566000000E+00 0.  1.
        994   -1    0    0    0    0 -0.00000000000E+00 -0.00000000000E+00  0.11368683772E-12  0.17120000000E+03  0.17120000000E+03 0.  0.
         13    1    1    2    0    0  0.11246882748E+02 -0.49695721086E-02  0.25481587683E+02  0.27853453486E+02  0.10566000000E+00 0.  1.
        994    1    1    2    0    0 -0.54548501520E+01  0.10650642671E+01  0.25264282791E+01  0.17130882228E+03  0.17120000000E+03 0.  0.
        998    1    1    2    0    0 -0.57920325956E+01 -0.10600946950E+01  0.14719919803E+04  0.14720377242E+04  0.10000000000E+02 0.  1.
</event>
<event>
 5    1  0.1488417E-008  0.3858781E+03  0.7957747E-01  0.3425956E+00
         13   -1    0    0    0    0  0.00000000000E+00  0.00000000000E+00  0.14999999963E+04  0.15000000000E+04  0.10566000000E+00 0. -1.
        994   -1    0    0    0    0 -0.00000000000E+00 -0.00000000000E+00  0.11368683772E-12  0.17120000000E+03  0.17120000000E+03 0.  0.
         13    1    1    2    0    0  0.23496701462E+01 -0.13925359491E+02  0.80338436965E+02  0.81570289964E+02  0.10566000000E+00 0. -1.
        994    1    1    2    0    0 -0.22153794525E+00  0.15307365818E+02  0.19637182108E+01  0.17189433009E+03  0.17120000000E+03 0.  0.
        998    1    1    2    0    0 -0.21281322010E+01 -0.13820063276E+01  0.14176978411E+04  0.14177353799E+04  0.10000000000E+02 0. -1.
</event>
<event>
 5    1  0.1488417E-008  0.3830650E+03  0.7957747E-01  0.3437920E+00
         13   -1    0    0    0    0  0.00000000000E+00  0.00000000000E+00  0.14999999963E+04  0.15000000000E+04  0.10566000000E+00 0.  1.
        994   -1    0    0    0    0 -0.00000000000E+00 -0.00000000000E+00  0.11368683772E-12  0.17120000000E+03  0.17120000000E+03 0.  0.
         13    1    1    2    0    0  0.12072626831E+02 -0.93918656385E+01  0.43591888506E+02  0.46197612127E+02  0.10566000000E+00 0.  1.
        994    1    1    2    0    0 -0.11223782553E+02  0.83704421653E+01  0.32429289631E+01  0.17180219494E+03  0.17120000000E+03 0.  0.
        998    1    1    2    0    0 -0.84884427738E+00  0.10214234732E+01  0.14531651788E+04  0.14532001929E+04  0.10000000000E+02 0.  1.
</event>
<event>
 5    1  0.1488417E-008  0.3772222E+03  0.7957747E-01  0.3463344E+00
         13   -1    0    0    0    0  0.00000000000E+00  0.00000000000E+00  0.14999999963E+04  0.15000000000E+04  0.10566000000E+00 0.  1.
        994   -1    0    0    0    0 -0.00000000000E+00 -0.00000000000E+00  0.11368683772E-12  0.17120000000E+03  0.17120000000E+03 0.  0.
         13    1    1    2    0    0 -0.10353328663E+02 -0.73218879639E+01  0.12450382967E+02  0.17771456266E+02  0.10566000000E+00 0.  1.
        994    1    1    2    0    0 -0.42378786539E+01 -0.28037663071E+01  0.56291016425E+01  0.17136787186E+03  0.17120000000E+03 0.  0.
        998    1    1    2    0    0  0.14591207317E+02  0.10125654271E+02  0.14819205117E+04  0.14820606719E+04  0.10000000000E+02 0.  1.
</event>
<event>
 5    1  0.1488417E-008  0.3789290E+03  0.7957747E-01  0.3455835E+00
         13   -1    0    0    0    0  0.00000000000E+00  0.00000000000E+00  0.14999999963E+04  0.15000000000E+04  0.10566000000E+00 0.  1.
        994   -1    0    0    0    0 -0.00000000000E+00 -0.00000000000E+00  0.11368683772E-12  0.17120000000E+03  0.17120000000E+03 0.  0.
         13    1    1    2    0    0  0.24682929729E+02  0.43086095739E+02  0.27727696319E+03  0.28168809727E+03  0.10566000000E+00 0.  1.
        994    1    1    2    0    0 -0.21806409375E+02 -0.12852762112E+02  0.68271970272E+01  0.17319573783E+03  0.17120000000E+03 0.  0.
        998    1    1    2    0    0 -0.28765203540E+01 -0.30233333627E+02  0.12158958361E+04  0.12163161649E+04  0.10000000000E+02 0.  1.
</event>
<event>
 5    1  0.1488417E-008  0.3770405E+03  0.7957747E-01  0.3464147E+00
         13   -1    0    0    0    0  0.00000000000E+00  0.00000000000E+00  0.14999999963E+04  0.15000000000E+04  0.10566000000E+00 0.  1.
        994   -1    0    0    0    0 -0.00000000000E+00 -0.00000000000E+00  0.11368683772E-12  0.17120000000E+03  0.17120000000E+03 0.  0.
         13    1    1    2    0    0  0.55457338257E+01  0.18397715999E+02  0.32408861066E+02  0.37677268443E+02  0.10566000000E+00 0.  1.
        994    1    1    2    0    0  0.87494744487E+01  0.63755907513E+01  0.60303564112E+01  0.17164791481E+03  0.17120000000E+03 0.  0.
        998    1    1    2    0    0 -0.14295208274E+02 -0.24773306750E+02  0.14615607788E+04  0.14618748167E+04  0.10000000000E+02 0.  1.
</event>
<event>
 5    1  0.1488417E-008  0.3824793E+03  0.7957747E-01  0.3440434E+00
         13   -1    0    0    0    0  0.00000000000E+00  0.00000000000E+00  0.14999999963E+04  0.15000000000E+04  0.10566000000E+00 0. -1.
        994   -1    0    0    0    0 -0.00000000000E+00 -0.00000000000E+00  0.11368683772E-12  0.17120000000E+03  0.17120000000E+03 0.  0.
         13    1    1    2    0    0 -0.39443439839E+01 -0.10364025132E+02  0.20655954809E+02  0.23444626239E+02  0.10566000000E+00 0. -1.
        994    1    1    2    0    0  0.27822771377E+01 -0.81857039364E+00  0.29147072242E+01  0.17124936976E+03  0.17120000000E+03 0.  0.
        998    1    1    2    0    0  0.11620668462E+01  0.11182595525E+02  0.14764293342E+04  0.14765060040E+04  0.10000000000E+02 0. -1.
</event>
<event>
 5    1  0.1488417E-008  0.3852632E+03  0.7957747E-01  0.3428557E+00
         13   -1    0    0    0    0  0.00000000000E+00  0.00000000000E+00  0.14999999963E+04  0.15000000000E+04  0.10566000000E+00 0. -1.
        994   -1    0    0    0    0 -0.00000000000E+00 -0.00000000000E+00  0.11368683772E-12  0.17120000000E+03  0.17120000000E+03 0.  0.
         13    1    1    2    0    0 -0.96158524984E+01 -0.60954739337E+01  0.43564842542E+02  0.45028058936E+02  0.10566000000E+00 0. -1.
        994    1    1    2    0    0  0.11925772328E+01  0.10022480670E+02  0.18343507692E+01  0.17150707624E+03  0.17120000000E+03 0.  0.
        998    1    1    2    0    0  0.84232752656E+01 -0.39270067364E+01  0.14546008030E+04  0.14546648648E+04  0.10000000000E+02 0. -1.
</event>
<event>
 5    1  0.1488417E-008  0.3844234E+03  0.7957747E-01  0.3432121E+00
         13   -1    0    0    0    0  0.00000000000E+00  0.00000000000E+00  0.14999999963E+04  0.15000000000E+04  0.10566000000E+00 0. -1.
        994   -1    0    0    0    0 -0.00000000000E+00 -0.00000000000E+00  0.11368683772E-12  0.17120000000E+03  0.17120000000E+03 0.  0.
         13    1    1    2    0    0  0.18350797091E+02 -0.59327920247E+01  0.10344230983E+03  0.10522486589E+03  0.10566000000E+00 0. -1.
        994    1    1    2    0    0 -0.43902183022E+01 -0.26839200720E+01  0.20039326718E+01  0.17128903406E+03  0.17120000000E+03 0.  0.
        998    1    1    2    0    0 -0.13960578789E+02  0.86167120967E+01  0.13945537538E+04  0.13946861000E+04  0.10000000000E+02 0. -1.
</event>
<event>
 5    1  0.1488417E-008  0.3715273E+03  0.7957747E-01  0.3488901E+00
         13   -1    0    0    0    0  0.00000000000E+00  0.00000000000E+00  0.14999999963E+04  0.15000000000E+04  0.10566000000E+00 0. -1.
        994   -1    0    0    0    0 -0.00000000000E+00 -0.00000000000E+00  0.11368683772E-12  0.17120000000E+03  0.17120000000E+03 0.  0.
         13    1    1    2    0    0 -0.41708419645E+01  0.27664894625E+02  0.42011183821E+02  0.50474677289E+02  0.10566000000E+00 0. -1.
        994    1    1    2    0    0  0.33996592759E+01 -0.25649032806E+02  0.10778913435E+02  0.17347926545E+03  0.17120000000E+03 0.  0.
        998    1    1    2    0    0  0.77118268864E+00 -0.20158618188E+01  0.14472098990E+04  0.14472460573E+04  0.10000000000E+02 0. -1.
</event>
<event>
 5    1  0.1488417E-008  0.3782464E+03  0.7957747E-01  0.3458830E+00
         13   -1    0    0    0    0  0.00000000000E+00  0.00000000000E+00  0.14999999963E+04  0.15000000000E+04  0.10566000000E+00 0.  1.
        994   -1    0    0    0    0 -0.00000000000E+00 -0.00000000000E+00  0.11368683772E-12  0.17120000000E+03  0.17120000000E+03 0.  0.
         13    1    1    2    0    0 -0.32728119963E+02  0.10637551514E+02  0.12634913907E+03  0.13095191273E+03  0.10566000000E+00 0.  1.
        994    1    1    2    0    0  0.23969430133E+02  0.49298376430E+02  0.15191905435E+02  0.18040259835E+03  0.17120000000E+03 0.  0.
        998    1    1    2    0    0  0.87586898300E+01 -0.59935927944E+02  0.13584589518E+04  0.13598454889E+04  0.10000000000E+02 0.  1.
</event>
<event>
 5    1  0.1488417E-008  0.3843796E+03  0.7957747E-01  0.3432308E+00
         13   -1    0    0    0    0  0.00000000000E+00  0.00000000000E+00  0.14999999963E+04  0.15000000000E+04  0.10566000000E+00 0.  1.
        994   -1    0    0    0    0 -0.00000000000E+00 -0.00000000000E+00  0.11368683772E-12  0.17120000000E+03  0.17120000000E+03 0.  0.
         13    1    1    2    0    0 -0.15528459979E+02  0.77635566899E+01  0.73278628247E+02  0.75307200210E+02  0.10566000000E+00 0.  1.
        994    1    1    2    0    0  0.19025983207E+02 -0.73471964423E+01  0.33104143295E+01  0.17244236189E+03  0.17120000000E+03 0.  0.
        998    1    1    2    0    0 -0.34975232285E+01 -0.41636024755E+00  0.14234109537E+04  0.14234504379E+04  0.10000000000E+02 0.  1.
</event>
<event>
 5    1  0.1488417E-008  0.3825087E+03  0.7957747E-01  0.3440307E+00
         13   -1    0    0    0    0  0.00000000000E+00  0.00000000000E+00  0.14999999963E+04  0.15000000000E+04  0.10566000000E+00 0.  1.
        994   -1    0    0    0    0 -0.00000000000E+00 -0.00000000000E+00  0.11368683772E-12  0.17120000000E+03  0.17120000000E+03 0.  0.
         13    1    1    2    0    0 -0.27624923395E+02  0.10413787101E+01  0.11018412029E+03  0.11359917425E+03  0.10566000000E+00 0.  1.
        994    1    1    2    0    0  0.46084155853E+02 -0.37060474285E+01  0.99913765250E+01  0.17761405297E+03  0.17120000000E+03 0.  0.
        998    1    1    2    0    0 -0.18459232458E+02  0.26646687184E+01  0.13798244995E+04  0.13799867728E+04  0.10000000000E+02 0.  1.
</event>
<event>
 5    1  0.1488417E-008  0.3846464E+03  0.7957747E-01  0.3431173E+00
         13   -1    0    0    0    0  0.00000000000E+00  0.00000000000E+00  0.14999999963E+04  0.15000000000E+04  0.10566000000E+00 0. -1.
        994   -1    0    0    0    0 -0.00000000000E+00 -0.00000000000E+00  0.11368683772E-12  0.17120000000E+03  0.17120000000E+03 0.  0.
         13    1    1    2    0    0  0.13544734988E+02  0.32881851427E+01  0.54136030340E+02  0.55901636402E+02  0.10566000000E+00 0. -1.
        994    1    1    2    0    0 -0.86467316076E+01  0.39832309901E+01  0.21042559362E+01  0.17147740373E+03  0.17120000000E+03 0.  0.
        998    1    1    2    0    0 -0.48980033808E+01 -0.72714161328E+01  0.14437597100E+04  0.14438209599E+04  0.10000000000E+02 0. -1.
</event>
<event>
 5    1  0.1488417E-008  0.3690815E+03  0.7957747E-01  0.3500123E+00
         13   -1    0    0    0    0  0.00000000000E+00  0.00000000000E+00  0.14999999963E+04  0.15000000000E+04  0.10566000000E+00 0.  1.
        994   -1    0    0    0    0 -0.00000000000E+00 -0.00000000000E+00  0.11368683772E-12  0.17120000000E+03  0.17120000000E+03 0.  0.
         13    1    1    2    0    0  0.94677293382E+02 -0.20731119482E+02  0.34387799598E+03  0.35727532308E+03  0.10566000000E+00 0.  1.
        994    1    1    2    0    0 -0.91792034316E+02  0.26100746927E+02  0.42900113497E+02  0.20064118792E+03  0.17120000000E+03 0.  0.
        998    1    1    2    0    0 -0.28852590666E+01 -0.53696274446E+01  0.11132218868E+04  0.11132834890E+04  0.10000000000E+02 0.  1.
</event>
<event>
 5    1  0.1488417E-008  0.3784854E+03  0.7957747E-01  0.3457780E+00
         13   -1    0    0    0    0  0.00000000000E+00  0.00000000000E+00  0.14999999963E+04  0.15000000000E+04  0.10566000000E+00 0. -1.
        994   -1    0    0    0    0 -0.00000000000E+00 -0.00000000000E+00  0.11368683772E-12  0.17120000000E+03  0.17120000000E+03 0.  0.
         13    1    1    2    0    0  0.65263949571E+00  0.16096751288E+02  0.24407085225E+02  0.29244628798E+02  0.10566000000E+00 0. -1.
        994    1    1    2    0    0  0.11381994397E+01 -0.11888493114E+02  0.53789973578E+01  0.17170033599E+03  0.17120000000E+03 0.  0.
        998    1    1    2    0    0 -0.17908389354E+01 -0.42082581737E+01  0.14702139137E+04  0.14702550352E+04  0.10000000000E+02 0. -1.
</event>
<event>
 5    1  0.1488417E-008  0.3792622E+03  0.7957747E-01  0.3454377E+00
         13   -1    0    0    0    0  0.00000000000E+00  0.00000000000E+00  0.14999999963E+04  0.15000000000E+04  0.10566000000E+00 0. -1.
        994   -1    0    0    0    0 -0.00000000000E+00 -0.00000000000E+00  0.11368683772E-12  0.17120000000E+03  0.17120000000E+03 0.  0.
         13    1    1    2    0    0 -0.11456057531E+03 -0.78931543460E+02  0.81507420809E+03  0.82686171143E+03  0.10566000000E+00 0. -1.
        994    1    1    2    0    0  0.12765542479E+03  0.69742349032E+02  0.79030640856E+02  0.23814950120E+03  0.17120000000E+03 0.  0.
        998    1    1    2    0    0 -0.13094849474E+02  0.91891944281E+01  0.60589514733E+03  0.60618878737E+03  0.10000000000E+02 0. -1.
</event>
<event>
 5    1  0.1488417E-008  0.3859516E+03  0.7957747E-01  0.3425646E+00
         13   -1    0    0    0    0  0.00000000000E+00  0.00000000000E+00  0.14999999963E+04  0.15000000000E+04  0.10566000000E+00 0. -1.
        994   -1    0    0    0    0 -0.00000000000E+00 -0.00000000000E+00  0.11368683772E-12  0.17120000000E+03  0.17120000000E+03 0.  0.
         13    1    1    2    0    0 -0.90091266222E+01  0.85294110421E+01  0.64050125358E+02  0.65240669353E+02  0.10566000000E+00 0. -1.
        994    1    1    2    0    0  0.11579832486E+02 -0.91757262268E+01  0.18744143853E+01  0.17184655918E+03  0.17120000000E+03 0.  0.
        998    1    1    2    0    0 -0.25707058639E+01  0.64631518477E+00  0.14340754565E+04  0.14341127715E+04  0.10000000000E+02 0. -1.
</event>
<event>
 5    1  0.1488417E-008  0.3795241E+03  0.7957747E-01  0.3453233E+00
         13   -1    0    0    0    0  0.00000000000E+00  0.00000000000E+00  0.14999999963E+04  0.15000000000E+04  0.10566000000E+00 0.  1.
        994   -1    0    0    0    0 -0.00000000000E+00 -0.00000000000E+00  0.11368683772E-12  0.17120000000E+03  0.17120000000E+03 0.  0.
         13    1    1    2    0    0  0.32051667135E+02 -0.31338056732E+01  0.11349431805E+03  0.11797500370E+03  0.10566000000E+00 0.  1.
        994    1    1    2    0    0 -0.25686089073E+02 -0.39185991578E+01  0.66373134049E+01  0.17328769293E+03  0.17120000000E+03 0.  0.
        998    1    1    2    0    0 -0.63655780613E+01  0.70524048310E+01  0.13798683648E+04  0.13799373034E+04  0.10000000000E+02 0.  1.
</event>
<event>
 5    1  0.1488417E-008  0.3818964E+03  0.7957747E-01  0.3442942E+00
         13   -1    0    0    0    0  0.00000000000E+00  0.00000000000E+00  0.14999999963E+04  0.15000000000E+04  0.10566000000E+00 0.  1.
        994   -1    0    0    0    0 -0.00000000000E+00 -0.00000000000E+00  0.11368683772E-12  0.17120000000E+03  0.17120000000E+03 0.  0.
         13    1    1    2    0    0 -0.74609987444E+02  0.84814950751E+02  0.59577688797E+03  0.60639124128E+03  0.10566000000E+00 0.  1.
        994    1    1    2    0    0  0.47704326424E+02  0.21705480287E+02  0.27464624738E+02  0.18113689918E+03  0.17120000000E+03 0.  0.
        998    1    1    2    0    0  0.26905661020E+02 -0.10652043104E+03  0.87675848357E+03  0.88367185954E+03  0.10000000000E+02 0.  1.
</event>
<event>
 5    1  0.1488417E-008  0.3847055E+03  0.7957747E-01  0.3430922E+00
         13   -1    0    0    0    0  0.00000000000E+00  0.00000000000E+00  0.14999999963E+04  0.15000000000E+04  0.10566000000E+00 0. -1.
        994   -1    0    0    0    0 -0.00000000000E+00 -0.00000000000E+00  0.11368683772E-12  0.17120000000E+03  0.17120000000E+03 0.  0.
         13    1    1    2    0    0  0.17276576845E+02 -0.12963585176E+02  0.12491718061E+03  0.12677084769E+03  0.10566000000E+00 0. -1.
        994    1    1    2    0    0 -0.14286461247E+02  0.13024952246E+02  0.30077237147E+01  0.17231436028E+03  0.17120000000E+03 0.  0.
        998    1    1    2    0    0 -0.29901155986E+01 -0.61367069642E-01  0.13720750920E+04  0.13721147920E+04  0.10000000000E+02 0. -1.
</event>
<event>
 5    1  0.1488417E-008  0.3825771E+03  0.7957747E-01  0.3440014E+00
         13   -1    0    0    0    0  0.00000000000E+00  0.00000000000E+00  0.14999999963E+04  0.15000000000E+04  0.10566000000E+00 0.  1.
        994   -1    0    0    0    0 -0.00000000000E+00 -0.00000000000E+00  0.11368683772E-12  0.17120000000E+03  0.17120000000E+03 0.  0.
         13    1    1    2    0    0 -0.14367320068E+02  0.29884564010E+01  0.36184272467E+02  0.39046939645E+02  0.10566000000E+00 0.  1.
        994    1    1    2    0    0  0.14789043721E+02 -0.55897734064E+01  0.36668603060E+01  0.17196757615E+03  0.17120000000E+03 0.  0.
        998    1    1    2    0    0 -0.42172365296E+00  0.26013170053E+01  0.14601488635E+04  0.14601854842E+04  0.10000000000E+02 0.  1.
</event>
<event>
 5    1  0.1488417E-008  0.3836707E+03  0.7957747E-01  0.3435330E+00
         13   -1    0    0    0    0  0.00000000000E+00  0.00000000000E+00  0.14999999963E+04  0.15000000000E+04  0.10566000000E+00 0.  1.
        994   -1    0    0    0    0 -0.00000000000E+00 -0.00000000000E+00  0.11368683772E-12  0.17120000000E+03  0.17120000000E+03 0.  0.
         13    1    1    2    0    0  0.17623835671E+02  0.17930430491E+02  0.12569793339E+03  0.12818768093E+03  0.10566000000E+00 0.  1.
        994    1    1    2    0    0 -0.18055529248E+02 -0.20467591117E+02  0.47558373217E+01  0.17342716745E+03  0.17120000000E+03 0.  0.
        998    1    1    2    0    0  0.43169357653E+00  0.25371606257E+01  0.13695462256E+04  0.13695851516E+04  0.10000000000E+02 0.  1.
</event>
<event>
 5    1  0.1488417E-008  0.3833332E+03  0.7957747E-01  0.3436772E+00
         13   -1    0    0    0    0  0.00000000000E+00  0.00000000000E+00  0.14999999963E+04  0.15000000000E+04  0.10566000000E+00 0.  1.
        994   -1    0    0    0    0 -0.00000000000E+00 -0.00000000000E+00  0.11368683772E-12  0.17120000000E+03  0.17120000000E+03 0.  0.
         13    1    1    2    0    0 -0.40424285449E+01 -0.24750909174E+02  0.14450353894E+03  0.14666367193E+03  0.10566000000E+00 0.  1.
        994    1    1    2    0    0  0.59665264780E+01 -0.16078379523E+01  0.25862006199E+01  0.17133100424E+03  0.17120000000E+03 0.  0.
        998    1    1    2    0    0 -0.19240979330E+01  0.26358747126E+02  0.13529102567E+04  0.13532053238E+04  0.10000000000E+02 0.  1.
</event>
<event>
 5    1  0.1488417E-008  0.3848668E+03  0.7957747E-01  0.3430237E+00
         13   -1    0    0    0    0  0.00000000000E+00  0.00000000000E+00  0.14999999963E+04  0.15000000000E+04  0.10566000000E+00 0. -1.
        994   -1    0    0    0    0 -0.00000000000E+00 -0.00000000000E+00  0.11368683772E-12  0.17120000000E+03  0.17120000000E+03 0.  0.
         13    1    1    2    0    0  0.14822550677E+02  0.63159913955E+01  0.83135930395E+02  0.84682901713E+02  0.10566000000E+00 0. -1.
        994    1    1    2    0    0 -0.64808407243E+00  0.45498627457E+01  0.17657773740E+01  0.17127077752E+03  0.17120000000E+03 0.  0.
        998    1    1    2    0    0 -0.14174466604E+02 -0.10865854141E+02  0.14150982885E+04  0.14152463208E+04  0.10000000000E+02 0. -1.
</event>
<event>
 5    1  0.1488417E-008  0.3851910E+03  0.7957747E-01  0.3428862E+00
         13   -1    0    0    0    0  0.00000000000E+00  0.00000000000E+00  0.14999999963E+04  0.15000000000E+04  0.10566000000E+00 0. -1.
        994   -1    0    0    0    0 -0.00000000000E+00 -0.00000000000E+00  0.11368683772E-12  0.17120000000E+03  0.17120000000E+03 0.  0.
         13    1    1    2    0    0 -0.67347438844E+00 -0.12381933910E+02  0.51574576570E+02  0.53044452749E+02  0.10566000000E+00 0. -1.
        994    1    1    2    0    0  0.48529310315E+01  0.31742822488E+01  0.16458551189E+01  0.17130608818E+03  0.17120000000E+03 0.  0.
        998    1    1    2    0    0 -0.41794566431E+01  0.92076516608E+01  0.14467795646E+04  0.14468494591E+04  0.10000000000E+02 0. -1.
</event>
<event>
 5    1  0.1488417E-008  0.3842302E+03  0.7957747E-01  0.3432943E+00
         13   -1    0    0    0    0  0.00000000000E+00  0.00000000000E+00  0.14999999963E+04  0.15000000000E+04  0.10566000000E+00 0.  1.
        994   -1    0    0    0    0 -0.00000000000E+00 -0.00000000000E+00  0.11368683772E-12  0.17120000000E+03  0.17120000000E+03 0.  0.
         13    1    1    2    0    0  0.15016758763E+02  0.68572051510E+01  0.62781983995E+02  0.64916199709E+02  0.10566000000E+00 0.  1.
        994    1    1    2    0    0 -0.29287629428E+02  0.71106641255E+01  0.50131797005E+01  0.17390485546E+03  0.17120000000E+03 0.  0.
        998    1    1    2    0    0  0.14270870665E+02 -0.13967869277E+02  0.14322048326E+04  0.14323789448E+04  0.10000000000E+02 0.  1.
</event>
<event>
 5    1  0.1488417E-008  0.3798909E+03  0.7957747E-01  0.3451634E+00
         13   -1    0    0    0    0  0.00000000000E+00  0.00000000000E+00  0.14999999963E+04  0.15000000000E+04  0.10566000000E+00 0. -1.
        994   -1    0    0    0    0 -0.00000000000E+00 -0.00000000000E+00  0.11368683772E-12  0.17120000000E+03  0.17120000000E+03 0.  0.
         13    1    1    2    0    0 -0.71492019695E+01 -0.52920428052E+02  0.28330013601E+03  0.28828919685E+03  0.10566000000E+00 0. -1.
        994    1    1    2    0    0 -0.37037930510E+02  0.60250688181E+02  0.21100893059E+02  0.18643133162E+03  0.17120000000E+03 0.  0.
        998    1    1    2    0    0  0.44187132480E+02 -0.73302601286E+01  0.11955989672E+04  0.11964794715E+04  0.10000000000E+02 0. -1.
</event>
<event>
 5    1  0.1488417E-008  0.3808309E+03  0.7957747E-01  0.3447549E+00
         13   -1    0    0    0    0  0.00000000000E+00  0.00000000000E+00  0.14999999963E+04  0.15000000000E+04  0.10566000000E+00 0.  1.
        994   -1    0    0    0    0 -0.00000000000E+00 -0.00000000000E+00  0.11368683772E-12  0.17120000000E+03  0.17120000000E+03 0.  0.
         13    1    1    2    0    0  0.24945301784E+02  0.19550564073E+02  0.13433996147E+03  0.13802800096E+03  0.10566000000E+00 0.  1.
        994    1    1    2    0    0 -0.17734672392E+02 -0.72487200238E+01  0.49389687723E+01  0.17233947882E+03  0.17120000000E+03 0.  0.
        998    1    1    2    0    0 -0.72106293913E+01 -0.12301844049E+02  0.13607210660E+04  0.13608325202E+04  0.10000000000E+02 0.  1.
</event>
<event>
 5    1  0.1488417E-008  0.3795787E+03  0.7957747E-01  0.3452995E+00
         13   -1    0    0    0    0  0.00000000000E+00  0.00000000000E+00  0.14999999963E+04  0.15000000000E+04  0.10566000000E+00 0.  1.
        994   -1    0    0    0    0 -0.00000000000E+00 -0.00000000000E+00  0.11368683772E-12  0.17120000000E+03  0.17120000000E+03 0.  0.
         13    1    1    2    0    0  0.12598458049E+02 -0.36339738439E+02  0.20602078783E+03  0.20958023264E+03  0.10566000000E+00 0.  1.
        994    1    1    2    0    0 -0.21709711090E+02 -0.10788858407E+02  0.63158618942E+01  0.17302323871E+03  0.17120000000E+03 0.  0.
        998    1    1    2    0    0  0.91112530404E+01  0.47128596846E+02  0.12876633466E+04  0.12885965286E+04  0.10000000000E+02 0.  1.
</event>
<event>
 5    1  0.1488417E-008  0.3684500E+03  0.7957747E-01  0.3503045E+00
         13   -1    0    0    0    0  0.00000000000E+00  0.00000000000E+00  0.14999999963E+04  0.15000000000E+04  0.10566000000E+00 0.  1.
        994   -1    0    0    0    0 -0.00000000000E+00 -0.00000000000E+00  0.11368683772E-12  0.17120000000E+03  0.17120000000E+03 0.  0.
         13    1    1    2    0    0 -0.53687955930E+02 -0.81391796104E+02  0.39095364433E+03  0.40292900648E+03  0.10566000000E+00 0.  1.
        994    1    1    2    0    0  0.68476419117E+02  0.52353709159E+02  0.36421716438E+02  0.19510487504E+03  0.17120000000E+03 0.  0.
        998    1    1    2    0    0 -0.14788463187E+02  0.29038086945E+02  0.10726246355E+04  0.10731661185E+04  0.10000000000E+02 0.  1.
</event>
<event>
 5    1  0.1488417E-008  0.3822577E+03  0.7957747E-01  0.3441386E+00
         13   -1    0    0    0    0  0.00000000000E+00  0.00000000000E+00  0.14999999963E+04  0.15000000000E+04  0.10566000000E+00 0. -1.
        994   -1    0    0    0    0 -0.00000000000E+00 -0.00000000000E+00  0.11368683772E-12  0.17120000000E+03  0.17120000000E+03 0.  0.
         13    1    1    2    0    0  0.24148146348E+02  0.58669654431E+01  0.98248833348E+02  0.10134297545E+03  0.10566000000E+00 0. -1.
        994    1    1    2    0    0 -0.21936739918E+02 -0.20917445489E+01  0.46107309240E+01  0.17267395517E+03  0.17120000000E+03 0.  0.
        998    1    1    2    0    0 -0.22114064296E+01 -0.37752208942E+01  0.13971404320E+04  0.13971830694E+04  0.10000000000E+02 0. -1.
</event>
<event>
 5    1  0.1488417E-008  0.3820104E+03  0.7957747E-01  0.3442451E+00
         13   -1    0    0    0    0  0.00000000000E+00  0.00000000000E+00  0.14999999963E+04  0.15000000000E+04  0.10566000000E+00 0. -1.
        994   -1    0    0    0    0 -0.00000000000E+00 -0.00000000000E+00  0.11368683772E-12  0.17120000000E+03  0.17120000000E+03 0.  0.
         13    1    1    2    0    0 -0.13399139518E+02  0.68510328449E+00  0.28790377286E+02  0.31763238101E+02  0.10566000000E+00 0. -1.
        994    1    1    2    0    0 -0.27267178716E+01  0.39098645026E+00  0.31469479590E+01  0.17125107632E+03  0.17120000000E+03 0.  0.
        998    1    1    2    0    0  0.16125857389E+02 -0.10760897348E+01  0.14680626710E+04  0.14681856856E+04  0.10000000000E+02 0. -1.
</event>
<event>
 5    1  0.1488417E-008  0.3812429E+03  0.7957747E-01  0.3445764E+00
         13   -1    0    0    0    0  0.00000000000E+00  0.00000000000E+00  0.14999999963E+04  0.15000000000E+04  0.10566000000E+00 0. -1.
        994   -1    0    0    0    0 -0.00000000000E+00 -0.00000000000E+00  0.11368683772E-12  0.17120000000E+03  0.17120000000E+03 0.  0.
         13    1    1    2    0    0 -0.11460155441E+02  0.22001927824E+02  0.87894562647E+02  0.91328447362E+02  0.10566000000E+00 0. -1.
        994    1    1    2    0    0  0.46819435300E+01 -0.11573757414E+02  0.40261588132E+01  0.17170184161E+03  0.17120000000E+03 0.  0.
        998    1    1    2    0    0  0.67782119113E+01 -0.10428170409E+02  0.14080792748E+04  0.14081697110E+04  0.10000000000E+02 0. -1.
</event>
<event>
 5    1  0.1488417E-008  0.3846964E+03  0.7957747E-01  0.3430961E+00
         13   -1    0    0    0    0  0.00000000000E+00  0.00000000000E+00  0.14999999963E+04  0.15000000000E+04  0.10566000000E+00 0. -1.
        994   -1    0    0    0    0 -0.00000000000E+00 -0.00000000000E+00  0.11368683772E-12  0.17120000000E+03  0.17120000000E+03 0.  0.
         13    1    1    2    0    0 -0.11656319911E+02 -0.45060213958E+01  0.44264029317E+02  0.45994450514E+02  0.10566000000E+00 0. -1.
        994    1    1    2    0    0  0.38029323727E+01  0.53645032672E+01  0.19233081506E+01  0.17133703425E+03  0.17120000000E+03 0.  0.
        998    1    1    2    0    0  0.78533875381E+01 -0.85848187141E+00  0.14538126588E+04  0.14538685152E+04  0.10000000000E+02 0. -1.
</event>
<event>
 5    1  0.1488417E-008  0.3966266E+03  0.7957747E-01  0.3381811E+00
         13   -1    0    0    0    0  0.00000000000E+00  0.00000000000E+00  0.14999999963E+04  0.15000000000E+04  0.10566000000E+00 0.  1.
        994   -1    0    0    0    0 -0.00000000000E+00 -0.00000000000E+00  0.11368683772E-12  0.17120000000E+03  0.17120000000E+03 0.  0.
         13    1    1    2    0    0  0.55597580977E+01 -0.18154466821E+02 -0.45713232826E+01  0.19529560575E+02  0.10566000000E+00 0.  1.
        994    1    1    2    0    0 -0.10268477506E+01  0.28900766093E+02  0.29013638829E+02  0.17603278085E+03  0.17120000000E+03 0.  0.
        998    1    1    2    0    0 -0.45329103471E+01 -0.10746299272E+02  0.14755576807E+04  0.14756376586E+04  0.10000000000E+02 0.  1.
</event>
<event>
 5    1  0.1488417E-008  0.3744156E+03  0.7957747E-01  0.3475840E+00
         13   -1    0    0    0    0  0.00000000000E+00  0.00000000000E+00  0.14999999963E+04  0.15000000000E+04  0.10566000000E+00 0. -1.
        994   -1    0    0    0    0 -0.00000000000E+00 -0.00000000000E+00  0.11368683772E-12  0.17120000000E+03  0.17120000000E+03 0.  0.
         13    1    1    2    0    0  0.84517356306E+02 -0.12049221475E+03  0.52757744054E+03  0.54772212322E+03  0.10566000000E+00 0. -1.
        994    1    1    2    0    0 -0.78689050611E+02  0.11525426972E+03  0.86095674191E+02  0.23705994704E+03  0.17120000000E+03 0.  0.
        998    1    1    2    0    0 -0.58283056953E+01  0.52379450218E+01  0.88632688155E+03  0.88641792974E+03  0.10000000000E+02 0.  0.
</event>
<event>
 5    1  0.1488417E-008  0.3816038E+03  0.7957747E-01  0.3444205E+00
         13   -1    0    0    0    0  0.00000000000E+00  0.00000000000E+00  0.14999999963E+04  0.15000000000E+04  0.10566000000E+00 0.  1.
        994   -1    0    0    0    0 -0.00000000000E+00 -0.00000000000E+00  0.11368683772E-12  0.17120000000E+03  0.17120000000E+03 0.  0.
         13    1    1    2    0    0  0.27548194563E+01 -0.19175841577E+02  0.59602588600E+02  0.62672016581E+02  0.10566000000E+00 0.  1.
        994    1    1    2    0    0  0.46329099945E+01 -0.37118922028E+01  0.34429604850E+01  0.17133749145E+03  0.17120000000E+03 0.  0.
        998    1    1    2    0    0 -0.73877294507E+01  0.22887733780E+02  0.14369544472E+04  0.14371904920E+04  0.10000000000E+02 0.  1.
</event>
<event>
 5    1  0.1488417E-008  0.3856204E+03  0.7957747E-01  0.3427045E+00
         13   -1    0    0    0    0  0.00000000000E+00  0.00000000000E+00  0.14999999963E+04  0.15000000000E+04  0.10566000000E+00 0.  1.
        994   -1    0    0    0    0 -0.00000000000E+00 -0.00000000000E+00  0.11368683772E-12  0.17120000000E+03  0.17120000000E+03 0.  0.
         13    1    1    2    0    0  0.14047525868E+02  0.11207453273E+01  0.75118609871E+02  0.76429089790E+02  0.10566000000E+00 0.  1.
        994    1    1    2    0    0 -0.10464710431E+02  0.42085469560E+01  0.17400782933E+01  0.17157998107E+03  0.17120000000E+03 0.  0.
        998    1    1    2    0    0 -0.35828154363E+01 -0.53292922833E+01  0.14231413081E+04  0.14231909291E+04  0.10000000000E+02 0.  1.
</event>
<event>
 5    1  0.1488417E-008  0.3788644E+03  0.7957747E-01  0.3456118E+00
         13   -1    0    0    0    0  0.00000000000E+00  0.00000000000E+00  0.14999999963E+04  0.15000000000E+04  0.10566000000E+00 0. -1.
        994   -1    0    0    0    0 -0.00000000000E+00 -0.00000000000E+00  0.11368683772E-12  0.17120000000E+03  0.17120000000E+03 0.  0.
         13    1    1    2    0    0  0.11837106761E+02  0.13278975681E+02  0.31798983029E+02  0.36436722923E+02  0.10566000000E+00 0. -1.
        994    1    1    2    0    0 -0.58610500700E+01 -0.98699845526E+01  0.51497557472E+01  0.17166166866E+03  0.17120000000E+03 0.  0.
        998    1    1    2    0    0 -0.59760566912E+01 -0.34089911279E+01  0.14630512575E+04  0.14631016084E+04  0.10000000000E+02 0. -1.
</event>
<event>
 5    1  0.1488417E-008  0.3686070E+03  0.7957747E-01  0.3502317E+00
         13   -1    0    0    0    0  0.00000000000E+00  0.00000000000E+00  0.14999999963E+04  0.15000000000E+04  0.10566000000E+00 0.  1.
        994   -1    0    0    0    0 -0.00000000000E+00 -0.00000000000E+00  0.11368683772E-12  0.17120000000E+03  0.17120000000E+03 0.  0.
         13    1    1    2    0    0  0.21432240251E+02 -0.29387076729E+01  0.18768559249E+02  0.28639952955E+02  0.10566000000E+00 0.  1.
        994    1    1    2    0    0 -0.23829115437E+02  0.33402831178E+00  0.11974718717E+02  0.17326503457E+03  0.17120000000E+03 0.  0.
        998    1    1    2    0    0  0.23968751868E+01  0.26046793611E+01  0.14692567183E+04  0.14692950125E+04  0.10000000000E+02 0.  1.
</event>
<event>
 5    1  0.1488417E-008  0.3784807E+03  0.7957747E-01  0.3457801E+00
         13   -1    0    0    0    0  0.00000000000E+00  0.00000000000E+00  0.14999999963E+04  0.15000000000E+04  0.10566000000E+00 0.  1.
        994   -1    0    0    0    0 -0.00000000000E+00 -0.00000000000E+00  0.11368683772E-12  0.17120000000E+03  0.17120000000E+03 0.  0.
         13    1    1    2    0    0  0.75230051246E+02  0.42806484577E+02  0.27522108367E+03  0.28851102543E+03  0.10566000000E+00 0.  1.
        994    1    1    2    0    0 -0.30282898864E+02  0.58004282025E+01  0.18928534167E+02  0.17498122281E+03  0.17120000000E+03 0.  0.
        998    1    1    2    0    0 -0.44947152381E+02 -0.48606912780E+02  0.12058503784E+04  0.12077077518E+04  0.10000000000E+02 0.  1.
</event>
<event>
 5    1  0.1488417E-008  0.3797388E+03  0.7957747E-01  0.3452297E+00
         13   -1    0    0    0    0  0.00000000000E+00  0.00000000000E+00  0.14999999963E+04  0.15000000000E+04  0.10566000000E+00 0. -1.
        994   -1    0    0    0    0 -0.00000000000E+00 -0.00000000000E+00  0.11368683772E-12  0.17120000000E+03  0.17120000000E+03 0.  0.
         13    1    1    2    0    0 -0.12041934988E+02 -0.40173763688E+01  0.17022569525E+02  0.21235031161E+02  0.10566000000E+00 0. -1.
        994    1    1    2    0    0  0.10984974117E+02 -0.44793228563E+00  0.46695876583E+01  0.17161618615E+03  0.17120000000E+03 0.  0.
        998    1    1    2    0    0  0.10569608709E+01  0.44653086544E+01  0.14783078391E+04  0.14783487827E+04  0.10000000000E+02 0. -1.
</event>
<event>
 5    1  0.1488417E-008  0.3809152E+03  0.7957747E-01  0.3447183E+00
         13   -1    0    0    0    0  0.00000000000E+00  0.00000000000E+00  0.14999999963E+04  0.15000000000E+04  0.10566000000E+00 0.  1.
        994   -1    0    0    0    0 -0.00000000000E+00 -0.00000000000E+00  0.11368683772E-12  0.17120000000E+03  0.17120000000E+03 0.  0.
         13    1    1    2    0    0  0.31370070739E+02  0.27976911680E+01  0.14154375686E+03  0.14500536088E+03  0.10566000000E+00 0.  1.
        994    1    1    2    0    0 -0.98411853765E+01 -0.35225361851E+01  0.40360743089E+01  0.17156627608E+03  0.17120000000E+03 0.  0.
        998    1    1    2    0    0 -0.21528885363E+02  0.72484501712E+00  0.13544201651E+04  0.13546283630E+04  0.10000000000E+02 0.  1.
</event>
<event>
 5    1  0.1488417E-008  0.3747392E+03  0.7957747E-01  0.3474390E+00
         13   -1    0    0    0    0  0.00000000000E+00  0.00000000000E+00  0.14999999963E+04  0.15000000000E+04  0.10566000000E+00 0.  1.
        994   -1    0    0    0    0 -0.00000000000E+00 -0.00000000000E+00  0.11368683772E-12  0.17120000000E+03  0.17120000000E+03 0.  0.
         13    1    1    2    0    0  0.66959757961E+01 -0.51752996330E+02  0.10134993607E+03  0.11399574302E+03  0.10566000000E+00 0.  1.
        994    1    1    2    0    0  0.41669830588E+00  0.19477647182E+02  0.14817408244E+02  0.17294087997E+03  0.17120000000E+03 0.  0.
        998    1    1    2    0    0 -0.71126741020E+01  0.32275349148E+02  0.13838326520E+04  0.13842633770E+04  0.10000000000E+02 0.  1.
</event>
<event>
 5    1  0.1488417E-008  0.3786653E+03  0.7957747E-01  0.3456991E+00
         13   -1    0    0    0    0  0.00000000000E+00  0.00000000000E+00  0.14999999963E+04  0.15000000000E+04  0.10566000000E+00 0. -1.
        994   -1    0    0    0    0 -0.00000000000E+00 -0.00000000000E+00  0.11368683772E-12  0.17120000000E+03  0.17120000000E+03 0.  0.
         13    1    1    2    0    0  0.11380789071E+02  0.13491136006E+02  0.31961245409E+02  0.36511169288E+02  0.10566000000E+00 0. -1.
        994    1    1    2    0    0 -0.34846444991E+00  0.57626224284E+01  0.49203202470E+01  0.17136796316E+03  0.17120000000E+03 0.  0.
        998    1    1    2    0    0 -0.11032324621E+02 -0.19253758434E+02  0.14631184306E+04  0.14633208676E+04  0.10000000000E+02 0. -1.
</event>
<event>
 5    1  0.1488417E-008  0.3798565E+03  0.7957747E-01  0.3451784E+00
         13   -1    0    0    0    0  0.00000000000E+00  0.00000000000E+00  0.14999999963E+04  0.15000000000E+04  0.10566000000E+00 0.  1.
        994   -1    0    0    0    0 -0.00000000000E+00 -0.00000000000E+00  0.11368683772E-12  0.17120000000E+03  0.17120000000E+03 0.  0.
         13    1    1    2    0    0 -0.11680073794E+02 -0.34620812351E+02  0.18065837309E+03  0.18431626001E+03  0.10566000000E+00 0.  1.
        994    1    1    2    0    0  0.62186105065E+01 -0.16404160206E+00  0.43350393656E+01  0.17136782251E+03  0.17120000000E+03 0.  0.
        998    1    1    2    0    0  0.54614632878E+01  0.34784853953E+02  0.13150065838E+04  0.13155159175E+04  0.10000000000E+02 0.  1.
</event>
<event>
 5    1  0.1488417E-008  0.3845763E+03  0.7957747E-01  0.3431471E+00
         13   -1    0    0    0    0  0.00000000000E+00  0.00000000000E+00  0.14999999963E+04  0.15000000000E+04  0.10566000000E+00 0. -1.
        994   -1    0    0    0    0 -0.00000000000E+00 -0.00000000000E+00  0.11368683772E-12  0.17120000000E+03  0.17120000000E+03 0.  0.
         13    1    1    2    0    0  0.12862503311E+02  0.16005833195E+02  0.11076876731E+03  0.11265594376E+03  0.10566000000E+00 0. -1.
        994    1    1    2    0    0 -0.11860040621E+02 -0.12231419643E+02  0.27971297092E+01  0.17206839374E+03  0.17120000000E+03 0.  0.
        998    1    1    2    0    0 -0.10024626906E+01 -0.37744135526E+01  0.13864340993E+04  0.13864756625E+04  0.10000000000E+02 0. -1.
</event>
<event>
 5    1  0.1488417E-008  0.3809720E+03  0.7957747E-01  0.3446937E+00
         13   -1    0    0    0    0  0.00000000000E+00  0.00000000000E+00  0.14999999963E+04  0.15000000000E+04  0.10566000000E+00 0. -1.
        994   -1    0    0    0    0 -0.00000000000E+00 -0.00000000000E+00  0.11368683772E-12  0.17120000000E+03  0.17120000000E+03 0.  0.
         13    1    1    2    0    0  0.99444564793E+01  0.26386726203E+02  0.11650242078E+03  0.11986649551E+03  0.10566000000E+00 0. -1.
        994    1    1    2    0    0  0.21016522273E+01 -0.52134249733E+01  0.37486000976E+01  0.17133326806E+03  0.17120000000E+03 0.  0.
        998    1    1    2    0    0 -0.12046108707E+02 -0.21173301229E+02  0.13797489754E+04  0.13800002364E+04  0.10000000000E+02 0. -1.
</event>
<event>
 5    1  0.1488417E-008  0.3729558E+03  0.7957747E-01  0.3482416E+00
         13   -1    0    0    0    0  0.00000000000E+00  0.00000000000E+00  0.14999999963E+04  0.15000000000E+04  0.10566000000E+00 0.  1.
        994   -1    0    0    0    0 -0.00000000000E+00 -0.00000000000E+00  0.11368683772E-12  0.17120000000E+03  0.17120000000E+03 0.  0.
         13    1    1    2    0    0 -0.29473172040E+02 -0.30482048894E+02  0.10793498887E+03  0.11596463323E+03  0.10566000000E+00 0.  1.
        994    1    1    2    0    0  0.27299098757E+02  0.26797004014E+02  0.12757469226E+02  0.17588494318E+03  0.17120000000E+03 0.  0.
        998    1    1    2    0    0  0.21740732838E+01  0.36850448799E+01  0.13793075382E+04  0.13793504236E+04  0.10000000000E+02 0.  1.
</event>
<event>
 5    1  0.1488417E-008  0.3801864E+03  0.7957747E-01  0.3450347E+00
         13   -1    0    0    0    0  0.00000000000E+00  0.00000000000E+00  0.14999999963E+04  0.15000000000E+04  0.10566000000E+00 0. -1.
        994   -1    0    0    0    0 -0.00000000000E+00 -0.00000000000E+00  0.11368683772E-12  0.17120000000E+03  0.17120000000E+03 0.  0.
         13    1    1    2    0    0  0.37066227077E+02 -0.87465782489E+01  0.15796165236E+03  0.16248785370E+03  0.10566000000E+00 0. -1.
        994    1    1    2    0    0 -0.39419244581E+02  0.11163864007E+02  0.96671809136E+01  0.17629918630E+03  0.17120000000E+03 0.  0.
        998    1    1    2    0    0  0.23530175038E+01 -0.24172857581E+01  0.13323711630E+04  0.13324129600E+04  0.10000000000E+02 0. -1.
</event>
<event>
 5    1  0.1488417E-008  0.3724938E+03  0.7957747E-01  0.3484508E+00
         13   -1    0    0    0    0  0.00000000000E+00  0.00000000000E+00  0.14999999963E+04  0.15000000000E+04  0.10566000000E+00 0.  1.
        994   -1    0    0    0    0 -0.00000000000E+00 -0.00000000000E+00  0.11368683772E-12  0.17120000000E+03  0.17120000000E+03 0.  0.
         13    1    1    2    0    0 -0.11902203354E+02 -0.17464328022E+02  0.23370333519E+02  0.31509504134E+02  0.10566000000E+00 0.  1.
        994    1    1    2    0    0  0.16649258748E+02  0.32705818476E+02  0.12602757845E+02  0.17554241050E+03  0.17120000000E+03 0.  0.
        998    1    1    2    0    0 -0.47470553938E+01 -0.15241490453E+02  0.14640269049E+04  0.14641480854E+04  0.10000000000E+02 0.  1.
</event>
<event>
 5    1  0.1488417E-008  0.3709970E+03  0.7957747E-01  0.3491321E+00
         13   -1    0    0    0    0  0.00000000000E+00  0.00000000000E+00  0.14999999963E+04  0.15000000000E+04  0.10566000000E+00 0. -1.
        994   -1    0    0    0    0 -0.00000000000E+00 -0.00000000000E+00  0.11368683772E-12  0.17120000000E+03  0.17120000000E+03 0.  0.
         13    1    1    2    0    0  0.16297243281E+02 -0.26270120264E+02  0.36046359526E+02  0.47487583181E+02  0.10566000000E+00 0. -1.
        994    1    1    2    0    0 -0.18101473846E+02  0.27681583293E+02  0.15314412299E+02  0.17503686650E+03  0.17120000000E+03 0.  0.
        998    1    1    2    0    0  0.18042305649E+01 -0.14114630281E+01  0.14486392245E+04  0.14486755503E+04  0.10000000000E+02 0. -1.
</event>
<event>
 5    1  0.1488417E-008  0.3787964E+03  0.7957747E-01  0.3456416E+00
         13   -1    0    0    0    0  0.00000000000E+00  0.00000000000E+00  0.14999999963E+04  0.15000000000E+04  0.10566000000E+00 0.  1.
        994   -1    0    0    0    0 -0.00000000000E+00 -0.00000000000E+00  0.11368683772E-12  0.17120000000E+03  0.17120000000E+03 0.  0.
         13    1    1    2    0    0  0.19134614967E+02  0.53331520964E+02  0.28925446275E+03  0.29475165819E+03  0.10566000000E+00 0.  1.
        994    1    1    2    0    0 -0.73092140227E+01 -0.51143341832E+02  0.13752779911E+02  0.17935340805E+03  0.17120000000E+03 0.  0.
        998    1    1    2    0    0 -0.11825400944E+02 -0.21881791317E+01  0.11969927536E+04  0.11970949338E+04  0.10000000000E+02 0.  1.
</event>
<event>
 5    1  0.1488417E-008  0.3775902E+03  0.7957747E-01  0.3461719E+00
         13   -1    0    0    0    0  0.00000000000E+00  0.00000000000E+00  0.14999999963E+04  0.15000000000E+04  0.10566000000E+00 0.  1.
        994   -1    0    0    0    0 -0.00000000000E+00 -0.00000000000E+00  0.11368683772E-12  0.17120000000E+03  0.17120000000E+03 0.  0.
         13    1    1    2    0    0  0.12103875053E+03  0.26454008275E+02  0.72971520527E+03  0.74015841930E+03  0.10566000000E+00 0.  1.
        994    1    1    2    0    0 -0.11862229039E+03 -0.24939475938E+02  0.56584987594E+02  0.21726602601E+03  0.17120000000E+03 0.  0.
        998    1    1    2    0    0 -0.24164601457E+01 -0.15145323375E+01  0.71369980341E+03  0.71377555469E+03  0.10000000000E+02 0.  0.
</event>
<event>
 5    1  0.1488417E-008  0.3856879E+03  0.7957747E-01  0.3426760E+00
         13   -1    0    0    0    0  0.00000000000E+00  0.00000000000E+00  0.14999999963E+04  0.15000000000E+04  0.10566000000E+00 0.  1.
        994   -1    0    0    0    0 -0.00000000000E+00 -0.00000000000E+00  0.11368683772E-12  0.17120000000E+03  0.17120000000E+03 0.  0.
         13    1    1    2    0    0 -0.72330322022E+01 -0.11772553088E+02  0.73633448897E+02  0.74918660703E+02  0.10566000000E+00 0.  1.
        994    1    1    2    0    0 -0.28453247202E+01  0.14626927688E+02  0.20179397733E+01  0.17185911372E+03  0.17120000000E+03 0.  0.
        998    1    1    2    0    0  0.10078356922E+02 -0.28543746000E+01  0.14243486076E+04  0.14244222256E+04  0.10000000000E+02 0.  1.
</event>
<event>
 5    1  0.1488417E-008  0.3773876E+03  0.7957747E-01  0.3462613E+00
         13   -1    0    0    0    0  0.00000000000E+00  0.00000000000E+00  0.14999999963E+04  0.15000000000E+04  0.10566000000E+00 0.  1.
        994   -1    0    0    0    0 -0.00000000000E+00 -0.00000000000E+00  0.11368683772E-12  0.17120000000E+03  0.17120000000E+03 0.  0.
         13    1    1    2    0    0 -0.13296853740E+01  0.30619736834E+02  0.80632874825E+02  0.86261277602E+02  0.10566000000E+00 0.  1.
        994    1    1    2    0    0 -0.98790360938E+00 -0.29212490039E+02  0.83440048311E+01  0.17387756596E+03  0.17120000000E+03 0.  0.
        998    1    1    2    0    0  0.23175889834E+01 -0.14072467956E+01  0.14110231166E+04  0.14110611564E+04  0.10000000000E+02 0.  1.
</event>
<event>
 5    1  0.3931962E-008  0.3865560E+03  0.7957747E-01  0.3423100E+00
         13   -1    0    0    0    0  0.00000000000E+00  0.00000000000E+00  0.14999999963E+04  0.15000000000E+04  0.10566000000E+00 0. -1.
        994   -1    0    0    0    0 -0.00000000000E+00 -0.00000000000E+00  0.11368683772E-12  0.17120000000E+03  0.17120000000E+03 0.  0.
         13    1    1    2    0    0  0.59437248844E+01 -0.81863235045E+01  0.60513225506E+02  0.61353120403E+02  0.10566000000E+00 0. -1.
        994    1    1    2    0    0 -0.43613923978E+01  0.62385331159E+01  0.10491882157E+01  0.17137234851E+03  0.17120000000E+03 0.  0.
        998    1    1    2    0    0 -0.15823324866E+01  0.19477903885E+01  0.14384375826E+04  0.14384745311E+04  0.10000000000E+02 0. -1.
</event>
<event>
 5    1  0.1488417E-008  0.3791940E+03  0.7957747E-01  0.3454675E+00
         13   -1    0    0    0    0  0.00000000000E+00  0.00000000000E+00  0.14999999963E+04  0.15000000000E+04  0.10566000000E+00 0.  1.
        994   -1    0    0    0    0 -0.00000000000E+00 -0.00000000000E+00  0.11368683772E-12  0.17120000000E+03  0.17120000000E+03 0.  0.
         13    1    1    2    0    0 -0.21222343349E+02 -0.82320886051E+01  0.55370987686E+02  0.59867458451E+02  0.10566000000E+00 0.  1.
        994    1    1    2    0    0  0.92930057735E+01  0.16648530562E+02  0.57600043475E+01  0.17235472484E+03  0.17120000000E+03 0.  0.
        998    1    1    2    0    0  0.11929337575E+02 -0.84164419567E+01  0.14388690042E+04  0.14389778167E+04  0.10000000000E+02 0.  1.
</event>
<event>
 5    1  0.1488417E-008  0.3806748E+03  0.7957747E-01  0.3448226E+00
         13   -1    0    0    0    0  0.00000000000E+00  0.00000000000E+00  0.14999999963E+04  0.15000000000E+04  0.10566000000E+00 0. -1.
        994   -1    0    0    0    0 -0.00000000000E+00 -0.00000000000E+00  0.11368683772E-12  0.17120000000E+03  0.17120000000E+03 0.  0.
         13    1    1    2    0    0  0.13215843162E+02 -0.51127355769E+01  0.25268530270E+02  0.28970819140E+02  0.10566000000E+00 0. -1.
        994    1    1    2    0    0 -0.33255393435E+01  0.68073490441E+01  0.39843797635E+01  0.17141386903E+03  0.17120000000E+03 0.  0.
        998    1    1    2    0    0 -0.98903038182E+01 -0.16946134672E+01  0.14707470862E+04  0.14708153118E+04  0.10000000000E+02 0. -1.
</event>
<event>
 5    1  0.1488417E-008  0.3827441E+03  0.7957747E-01  0.3439296E+00
         13   -1    0    0    0    0  0.00000000000E+00  0.00000000000E+00  0.14999999963E+04  0.15000000000E+04  0.10566000000E+00 0. -1.
        994   -1    0    0    0    0 -0.00000000000E+00 -0.00000000000E+00  0.11368683772E-12  0.17120000000E+03  0.17120000000E+03 0.  0.
         13    1    1    2    0    0  0.10733469117E+02 -0.15751298351E+02  0.66909263902E+02  0.69571341218E+02  0.10566000000E+00 0. -1.
        994    1    1    2    0    0 -0.12897580765E+01  0.75200908971E+01  0.29471770205E+01  0.17139527734E+03  0.17120000000E+03 0.  0.
        998    1    1    2    0    0 -0.94437110401E+01  0.82312074544E+01  0.14301435554E+04  0.14302333814E+04  0.10000000000E+02 0. -1.
</event>
<event>
 5    1  0.1488417E-008  0.3848915E+03  0.7957747E-01  0.3430132E+00
         13   -1    0    0    0    0  0.00000000000E+00  0.00000000000E+00  0.14999999963E+04  0.15000000000E+04  0.10566000000E+00 0. -1.
        994   -1    0    0    0    0 -0.00000000000E+00 -0.00000000000E+00  0.11368683772E-12  0.17120000000E+03  0.17120000000E+03 0.  0.
         13    1    1    2    0    0 -0.65136638184E+01  0.10945560712E+02  0.46571112662E+02  0.48281599127E+02  0.10566000000E+00 0. -1.
        994    1    1    2    0    0  0.16215017581E+02 -0.72481374280E+01  0.27224878991E+01  0.17214039105E+03  0.17120000000E+03 0.  0.
        998    1    1    2    0    0 -0.97013537623E+01 -0.36974232836E+01  0.14507063957E+04  0.14507780098E+04  0.10000000000E+02 0. -1.
</event>
<event>
 5    1  0.1488417E-008  0.3849918E+03  0.7957747E-01  0.3429707E+00
         13   -1    0    0    0    0  0.00000000000E+00  0.00000000000E+00  0.14999999963E+04  0.15000000000E+04  0.10566000000E+00 0.  1.
        994   -1    0    0    0    0 -0.00000000000E+00 -0.00000000000E+00  0.11368683772E-12  0.17120000000E+03  0.17120000000E+03 0.  0.
         13    1    1    2    0    0 -0.11413654157E+02 -0.32887623879E+02  0.23699224843E+02  0.42113320076E+02  0.10566000000E+00 0.  1.
        994    1    1    2    0    0  0.83963393472E+01  0.32069185797E+02  0.23163548071E+02  0.17591168566E+03  0.17120000000E+03 0.  0.
        998    1    1    2    0    0  0.30173148096E+01  0.81843808171E+00  0.14531372234E+04  0.14531749943E+04  0.10000000000E+02 0.  1.
</event>
<event>
 5    1  0.1488417E-008  0.3820750E+03  0.7957747E-01  0.3442173E+00
         13   -1    0    0    0    0  0.00000000000E+00  0.00000000000E+00  0.14999999963E+04  0.15000000000E+04  0.10566000000E+00 0. -1.
        994   -1    0    0    0    0 -0.00000000000E+00 -0.00000000000E+00  0.11368683772E-12  0.17120000000E+03  0.17120000000E+03 0.  0.
         13    1    1    2    0    0 -0.44501338260E+01 -0.92460333598E+01  0.15865988312E+02  0.18895332046E+02  0.10566000000E+00 0. -1.
        994    1    1    2    0    0  0.56690318348E+00  0.56682290322E+01  0.31970945191E+01  0.17132457971E+03  0.17120000000E+03 0.  0.
        998    1    1    2    0    0  0.38832306425E+01  0.35778043276E+01  0.14809369134E+04  0.14809800882E+04  0.10000000000E+02 0. -1.
</event>
<event>
 5    1  0.1488417E-008  0.3884450E+03  0.7957747E-01  0.3415192E+00
         13   -1    0    0    0    0  0.00000000000E+00  0.00000000000E+00  0.14999999963E+04  0.15000000000E+04  0.10566000000E+00 0.  1.
        994   -1    0    0    0    0 -0.00000000000E+00 -0.00000000000E+00  0.11368683772E-12  0.17120000000E+03  0.17120000000E+03 0.  0.
         13    1    1    2    0    0  0.16571177842E+02 -0.48261531819E+02  0.52650356883E+02  0.73320192530E+02  0.10566000000E+00 0.  1.
        994    1    1    2    0    0 -0.32737363454E+02  0.40907075885E+02  0.31384341464E+02  0.18176782089E+03  0.17120000000E+03 0.  0.
        998    1    1    2    0    0  0.16166185612E+02  0.73544559344E+01  0.14159652979E+04  0.14161119866E+04  0.10000000000E+02 0.  1.
</event>
<event>
 5    1  0.1488417E-008  0.3698580E+03  0.7957747E-01  0.3496544E+00
         13   -1    0    0    0    0  0.00000000000E+00  0.00000000000E+00  0.14999999963E+04  0.15000000000E+04  0.10566000000E+00 0.  1.
        994   -1    0    0    0    0 -0.00000000000E+00 -0.00000000000E+00  0.11368683772E-12  0.17120000000E+03  0.17120000000E+03 0.  0.
         13    1    1    2    0    0 -0.54704786396E+02  0.37786157880E+02  0.23168488356E+03  0.24103589736E+03  0.10566000000E+00 0.  1.
        994    1    1    2    0    0  0.26174594598E+02 -0.33183918065E+02  0.15548100832E+02  0.17702391155E+03  0.17120000000E+03 0.  0.
        998    1    1    2    0    0  0.28530191797E+02 -0.46022398155E+01  0.12527670119E+04  0.12531401911E+04  0.10000000000E+02 0.  1.
</event>
<event>
 5    1  0.1488417E-008  0.3788765E+03  0.7957747E-01  0.3456065E+00
         13   -1    0    0    0    0  0.00000000000E+00  0.00000000000E+00  0.14999999963E+04  0.15000000000E+04  0.10566000000E+00 0.  1.
        994   -1    0    0    0    0 -0.00000000000E+00 -0.00000000000E+00  0.11368683772E-12  0.17120000000E+03  0.17120000000E+03 0.  0.
         13    1    1    2    0    0  0.42717848143E+01 -0.10563305337E+02  0.11630774195E+02  0.16282433404E+02  0.10566000000E+00 0.  1.
        994    1    1    2    0    0 -0.84016097346E+01  0.94164263866E+01  0.52358779695E+01  0.17174431737E+03  0.17120000000E+03 0.  0.
        998    1    1    2    0    0  0.41298249203E+01  0.11468789508E+01  0.14831333441E+04  0.14831732492E+04  0.10000000000E+02 0.  1.
</event>
<event>
 5    1  0.1488417E-008  0.3813305E+03  0.7957747E-01  0.3445386E+00
         13   -1    0    0    0    0  0.00000000000E+00  0.00000000000E+00  0.14999999963E+04  0.15000000000E+04  0.10566000000E+00 0. -1.
        994   -1    0    0    0    0 -0.00000000000E+00 -0.00000000000E+00  0.11368683772E-12  0.17120000000E+03  0.17120000000E+03 0.  0.
         13    1    1    2    0    0  0.71810957142E+01  0.83268312767E+01  0.15834882648E+02  0.19278457596E+02  0.10566000000E+00 0. -1.
        994    1    1    2    0    0  0.74865930582E+00 -0.16518331376E+02  0.43735468264E+01  0.17205227018E+03  0.17120000000E+03 0.  0.
        998    1    1    2    0    0 -0.79297550200E+01  0.81915000990E+01  0.14797915668E+04  0.14798692722E+04  0.10000000000E+02 0. -1.
</event>
<event>
 5    1  0.1488417E-008  0.3797883E+03  0.7957747E-01  0.3452081E+00
         13   -1    0    0    0    0  0.00000000000E+00  0.00000000000E+00  0.14999999963E+04  0.15000000000E+04  0.10566000000E+00 0.  1.
        994   -1    0    0    0    0 -0.00000000000E+00 -0.00000000000E+00  0.11368683772E-12  0.17120000000E+03  0.17120000000E+03 0.  0.
         13    1    1    2    0    0 -0.15018157529E+02 -0.22218517498E+02  0.85122176361E+02  0.89246869121E+02  0.10566000000E+00 0.  1.
        994    1    1    2    0    0  0.27479201613E+02 -0.35492510085E+01  0.68124581333E+01  0.17356138191E+03  0.17120000000E+03 0.  0.
        998    1    1    2    0    0 -0.12461044084E+02  0.25767768506E+02  0.14080653618E+04  0.14083917490E+04  0.10000000000E+02 0.  1.
</event>
<event>
 5    1  0.1488417E-008  0.3763656E+03  0.7957747E-01  0.3467138E+00
         13   -1    0    0    0    0  0.00000000000E+00  0.00000000000E+00  0.14999999963E+04  0.15000000000E+04  0.10566000000E+00 0.  1.
        994   -1    0    0    0    0 -0.00000000000E+00 -0.00000000000E+00  0.11368683772E-12  0.17120000000E+03  0.17120000000E+03 0.  0.
         13    1    1    2    0    0 -0.37011101645E+02 -0.31659312156E+02  0.18823362300E+03  0.19443261476E+03  0.10566000000E+00 0.  1.
        994    1    1    2    0    0  0.11332506679E+02  0.41946228100E+02  0.12393904318E+02  0.17706202479E+03  0.17120000000E+03 0.  0.
        998    1    1    2    0    0  0.25678594966E+02 -0.10286915944E+02  0.12993724690E+04  0.12997053604E+04  0.10000000000E+02 0.  1.
</event>
<event>
 5    1  0.1488417E-008  0.3847906E+03  0.7957747E-01  0.3430561E+00
         13   -1    0    0    0    0  0.00000000000E+00  0.00000000000E+00  0.14999999963E+04  0.15000000000E+04  0.10566000000E+00 0.  1.
        994   -1    0    0    0    0 -0.00000000000E+00 -0.00000000000E+00  0.11368683772E-12  0.17120000000E+03  0.17120000000E+03 0.  0.
         13    1    1    2    0    0 -0.22476184966E+01 -0.10517187981E+02  0.33260853489E+02  0.34956524009E+02  0.10566000000E+00 0.  1.
        994    1    1    2    0    0  0.41786146859E+01  0.52522797286E+01  0.18823864514E+01  0.17134185315E+03  0.17120000000E+03 0.  0.
        998    1    1    2    0    0 -0.19309961893E+01  0.52649082520E+01  0.14648567563E+04  0.14649016228E+04  0.10000000000E+02 0.  1.
</event>
<event>
 5    1  0.1488417E-008  0.3859470E+03  0.7957747E-01  0.3425666E+00
         13   -1    0    0    0    0  0.00000000000E+00  0.00000000000E+00  0.14999999963E+04  0.15000000000E+04  0.10566000000E+00 0. -1.
        994   -1    0    0    0    0 -0.00000000000E+00 -0.00000000000E+00  0.11368683772E-12  0.17120000000E+03  0.17120000000E+03 0.  0.
         13    1    1    2    0    0  0.12936391702E+02  0.20046564718E+01  0.75910102514E+02  0.77030667305E+02  0.10566000000E+00 0. -1.
        994    1    1    2    0    0 -0.64665387363E+01 -0.71173456396E+00  0.12994896587E+01  0.17132848964E+03  0.17120000000E+03 0.  0.
        998    1    1    2    0    0 -0.64698529654E+01 -0.12929219078E+01  0.14227904041E+04  0.14228408431E+04  0.10000000000E+02 0. -1.
</event>
<event>
 5    1  0.1488417E-008  0.3686589E+03  0.7957747E-01  0.3502077E+00
         13   -1    0    0    0    0  0.00000000000E+00  0.00000000000E+00  0.14999999963E+04  0.15000000000E+04  0.10566000000E+00 0.  1.
        994   -1    0    0    0    0 -0.00000000000E+00 -0.00000000000E+00  0.11368683772E-12  0.17120000000E+03  0.17120000000E+03 0.  0.
         13    1    1    2    0    0  0.34574800437E+02 -0.34229955222E+01  0.60543069159E+02  0.69804069443E+02  0.10566000000E+00 0.  1.
        994    1    1    2    0    0 -0.26322246411E+01 -0.11641623918E+02  0.10466757840E+02  0.17193443237E+03  0.17120000000E+03 0.  0.
        998    1    1    2    0    0 -0.31942575795E+02  0.15064619440E+02  0.14289901693E+04  0.14294614982E+04  0.10000000000E+02 0.  1.
</event>
<event>
 5    1  0.1488417E-008  0.3831625E+03  0.7957747E-01  0.3437503E+00
         13   -1    0    0    0    0  0.00000000000E+00  0.00000000000E+00  0.14999999963E+04  0.15000000000E+04  0.10566000000E+00 0.  1.
        994   -1    0    0    0    0 -0.00000000000E+00 -0.00000000000E+00  0.11368683772E-12  0.17120000000E+03  0.17120000000E+03 0.  0.
         13    1    1    2    0    0  0.12044616606E+01  0.20618557341E+02  0.83022287425E+02  0.85552831677E+02  0.10566000000E+00 0.  1.
        994    1    1    2    0    0 -0.19373819682E+02 -0.12463265215E+02  0.43028123827E+01  0.17279650478E+03  0.17120000000E+03 0.  0.
        998    1    1    2    0    0  0.18169358021E+02 -0.81552921266E+01  0.14126748965E+04  0.14128506635E+04  0.10000000000E+02 0.  1.
</event>
<event>
 5    1  0.1488417E-008  0.3834856E+03  0.7957747E-01  0.3436120E+00
         13   -1    0    0    0    0  0.00000000000E+00  0.00000000000E+00  0.14999999963E+04  0.15000000000E+04  0.10566000000E+00 0.  1.
        994   -1    0    0    0    0 -0.00000000000E+00 -0.00000000000E+00  0.11368683772E-12  0.17120000000E+03  0.17120000000E+03 0.  0.
         13    1    1    2    0    0  0.18325010423E+02 -0.52644706661E+01  0.74761278130E+02  0.77154264497E+02  0.10566000000E+00 0.  1.
        994    1    1    2    0    0 -0.13112316924E+02  0.60465939053E+01  0.30732327363E+01  0.17183532498E+03  0.17120000000E+03 0.  0.
        998    1    1    2    0    0 -0.52126934992E+01 -0.78212323926E+00  0.14221654854E+04  0.14222104105E+04  0.10000000000E+02 0.  1.
</event>
<event>
 5    1  0.1488417E-008  0.3844536E+03  0.7957747E-01  0.3431993E+00
         13   -1    0    0    0    0  0.00000000000E+00  0.00000000000E+00  0.14999999963E+04  0.15000000000E+04  0.10566000000E+00 0. -1.
        994   -1    0    0    0    0 -0.00000000000E+00 -0.00000000000E+00  0.11368683772E-12  0.17120000000E+03  0.17120000000E+03 0.  0.
         13    1    1    2    0    0 -0.15303483733E+02 -0.92493637594E+01  0.90202447769E+02  0.91957816915E+02  0.10566000000E+00 0. -1.
        994    1    1    2    0    0  0.30023893544E+01 -0.28885772337E+01  0.19588301313E+01  0.17126189079E+03  0.17120000000E+03 0.  0.
        998    1    1    2    0    0  0.12301094378E+02  0.12137940993E+02  0.14078387184E+04  0.14079802923E+04  0.10000000000E+02 0. -1.
</event>
<event>
 5    1  0.1488417E-008  0.3856872E+03  0.7957747E-01  0.3426763E+00
         13   -1    0    0    0    0  0.00000000000E+00  0.00000000000E+00  0.14999999963E+04  0.15000000000E+04  0.10566000000E+00 0.  1.
        994   -1    0    0    0    0 -0.00000000000E+00 -0.00000000000E+00  0.11368683772E-12  0.17120000000E+03  0.17120000000E+03 0.  0.
         13    1    1    2    0    0  0.71214049795E+01 -0.80374088554E+01  0.43844203661E+02  0.45140222736E+02  0.10566000000E+00 0.  1.
        994    1    1    2    0    0 -0.28748066005E+02 -0.87605403315E+01  0.42586594560E+01  0.17386999323E+03  0.17120000000E+03 0.  0.
        998    1    1    2    0    0  0.21626661026E+02  0.16797949187E+02  0.14518971332E+04  0.14521897840E+04  0.10000000000E+02 0.  1.
</event>
<event>
 5    1  0.1488417E-008  0.3819906E+03  0.7957747E-01  0.3442537E+00
         13   -1    0    0    0    0  0.00000000000E+00  0.00000000000E+00  0.14999999963E+04  0.15000000000E+04  0.10566000000E+00 0. -1.
        994   -1    0    0    0    0 -0.00000000000E+00 -0.00000000000E+00  0.11368683772E-12  0.17120000000E+03  0.17120000000E+03 0.  0.
         13    1    1    2    0    0  0.12080216191E+02 -0.34469094810E+01  0.23672197029E+02  0.26799195592E+02  0.10566000000E+00 0. -1.
        994    1    1    2    0    0 -0.12654134340E+02  0.32250661224E+01  0.36982150063E+01  0.17173713914E+03  0.17120000000E+03 0.  0.
        998    1    1    2    0    0  0.57391814910E+00  0.22184335859E+00  0.14726295842E+04  0.14726636653E+04  0.10000000000E+02 0. -1.
</event>
<event>
 5    1  0.1488417E-008  0.3859908E+03  0.7957747E-01  0.3425481E+00
         13   -1    0    0    0    0  0.00000000000E+00  0.00000000000E+00  0.14999999963E+04  0.15000000000E+04  0.10566000000E+00 0.  1.
        994   -1    0    0    0    0 -0.00000000000E+00 -0.00000000000E+00  0.11368683772E-12  0.17120000000E+03  0.17120000000E+03 0.  0.
         13    1    1    2    0    0  0.98589504737E+01 -0.44253258400E+01  0.49519946480E+02  0.50685487831E+02  0.10566000000E+00 0.  1.
        994    1    1    2    0    0 -0.25130694921E+02 -0.18646581856E+02  0.43557190634E+01  0.17409095074E+03  0.17120000000E+03 0.  0.
        998    1    1    2    0    0  0.15271744448E+02  0.23071907696E+02  0.14461243307E+04  0.14464235614E+04  0.10000000000E+02 0.  1.
</event>
<event>
 5    1  0.1488417E-008  0.3836637E+03  0.7957747E-01  0.3435359E+00
         13   -1    0    0    0    0  0.00000000000E+00  0.00000000000E+00  0.14999999963E+04  0.15000000000E+04  0.10566000000E+00 0. -1.
        994   -1    0    0    0    0 -0.00000000000E+00 -0.00000000000E+00  0.11368683772E-12  0.17120000000E+03  0.17120000000E+03 0.  0.
         13    1    1    2    0    0 -0.39536382608E+01 -0.11421032490E+02  0.32210607383E+02  0.34403570028E+02  0.10566000000E+00 0. -1.
        994    1    1    2    0    0  0.34408645385E+01 -0.15384370234E+01  0.23419671723E+01  0.17125749954E+03  0.17120000000E+03 0.  0.
        998    1    1    2    0    0  0.51277372231E+00  0.12959469514E+02  0.14654474217E+04  0.14655389304E+04  0.10000000000E+02 0. -1.
</event>
<event>
 5    1  0.1488417E-008  0.3836914E+03  0.7957747E-01  0.3435241E+00
         13   -1    0    0    0    0  0.00000000000E+00  0.00000000000E+00  0.14999999963E+04  0.15000000000E+04  0.10566000000E+00 0.  1.
        994   -1    0    0    0    0 -0.00000000000E+00 -0.00000000000E+00  0.11368683772E-12  0.17120000000E+03  0.17120000000E+03 0.  0.
         13    1    1    2    0    0 -0.10161287147E+02  0.52518881474E+01  0.30708477383E+02  0.32769739590E+02  0.10566000000E+00 0.  1.
        994    1    1    2    0    0 -0.59067097184E+01  0.23325286804E+02  0.41956636272E+01  0.17293351849E+03  0.17120000000E+03 0.  0.
        998    1    1    2    0    0  0.16067996865E+02 -0.28577174951E+02  0.14650958553E+04  0.14654967419E+04  0.10000000000E+02 0.  1.
</event>
<event>
 5    1  0.1488417E-008  0.3786084E+03  0.7957747E-01  0.3457240E+00
         13   -1    0    0    0    0  0.00000000000E+00  0.00000000000E+00  0.14999999963E+04  0.15000000000E+04  0.10566000000E+00 0.  1.
        994   -1    0    0    0    0 -0.00000000000E+00 -0.00000000000E+00  0.11368683772E-12  0.17120000000E+03  0.17120000000E+03 0.  0.
         13    1    1    2    0    0 -0.50110861889E+02  0.75986877073E+01  0.30424483584E+03  0.30843762714E+03  0.10566000000E+00 0.  1.
        994    1    1    2    0    0  0.12417057627E+02 -0.56589083298E+01  0.54628673782E+01  0.17182982711E+03  0.17120000000E+03 0.  0.
        998    1    1    2    0    0  0.37693804262E+02 -0.19397793775E+01  0.11902922931E+04  0.11909325458E+04  0.10000000000E+02 0.  1.
</event>
<event>
 5    1  0.1488417E-008  0.3836633E+03  0.7957747E-01  0.3435361E+00
         13   -1    0    0    0    0  0.00000000000E+00  0.00000000000E+00  0.14999999963E+04  0.15000000000E+04  0.10566000000E+00 0.  1.
        994   -1    0    0    0    0 -0.00000000000E+00 -0.00000000000E+00  0.11368683772E-12  0.17120000000E+03  0.17120000000E+03 0.  0.
         13    1    1    2    0    0 -0.23843834169E+01 -0.11326351457E+02  0.27703062952E+02  0.30024030085E+02  0.10566000000E+00 0.  1.
        994    1    1    2    0    0 -0.62212440624E+01  0.17046955605E+02  0.33836580868E+01  0.17219231027E+03  0.17120000000E+03 0.  0.
        998    1    1    2    0    0  0.86056274793E+01 -0.57206041480E+01  0.14689132752E+04  0.14689836596E+04  0.10000000000E+02 0.  1.
</event>
<event>
 5    1  0.1488417E-008  0.3699224E+03  0.7957747E-01  0.3496248E+00
         13   -1    0    0    0    0  0.00000000000E+00  0.00000000000E+00  0.14999999963E+04  0.15000000000E+04  0.10566000000E+00 0.  1.
        994   -1    0    0    0    0 -0.00000000000E+00 -0.00000000000E+00  0.11368683772E-12  0.17120000000E+03  0.17120000000E+03 0.  0.
         13    1    1    2    0    0 -0.30548513055E+02  0.69876910576E+02  0.29930134630E+03  0.30886453559E+03  0.10566000000E+00 0.  1.
        994    1    1    2    0    0  0.72710376332E+02 -0.25772108084E+02  0.30182965711E+02  0.19018793810E+03  0.17120000000E+03 0.  0.
        998    1    1    2    0    0 -0.42161863277E+02 -0.44104802492E+02  0.11705156843E+04  0.11721475263E+04  0.10000000000E+02 0.  1.
</event>
<event>
 5    1  0.1488417E-008  0.3811932E+03  0.7957747E-01  0.3445979E+00
         13   -1    0    0    0    0  0.00000000000E+00  0.00000000000E+00  0.14999999963E+04  0.15000000000E+04  0.10566000000E+00 0. -1.
        994   -1    0    0    0    0 -0.00000000000E+00 -0.00000000000E+00  0.11368683772E-12  0.17120000000E+03  0.17120000000E+03 0.  0.
         13    1    1    2    0    0 -0.41275588730E+02 -0.17174252325E+00  0.20628603348E+03  0.21037500444E+03  0.10566000000E+00 0. -1.
        994    1    1    2    0    0  0.43005531359E+02  0.20439594204E+01  0.97290463408E+01  0.17679860814E+03  0.17120000000E+03 0.  0.
        998    1    1    2    0    0 -0.17299426290E+01 -0.18722168972E+01  0.12839849165E+04  0.12840263874E+04  0.10000000000E+02 0. -1.
</event>
<event>
 5    1  0.1488417E-008  0.3712039E+03  0.7957747E-01  0.3490376E+00
         13   -1    0    0    0    0  0.00000000000E+00  0.00000000000E+00  0.14999999963E+04  0.15000000000E+04  0.10566000000E+00 0. -1.
        994   -1    0    0    0    0 -0.00000000000E+00 -0.00000000000E+00  0.11368683772E-12  0.17120000000E+03  0.17120000000E+03 0.  0.
         13    1    1    2    0    0 -0.12084089355E+03  0.74020250530E+01  0.57278611810E+03  0.58544108140E+03  0.10566000000E+00 0. -1.
        994    1    1    2    0    0  0.10957169714E+03 -0.44472197606E+01  0.51263298551E+02  0.20967379511E+03  0.17120000000E+03 0.  0.
        998    1    1    2    0    0  0.11269196408E+02 -0.29548052924E+01  0.87595057962E+03  0.87608512349E+03  0.10000000000E+02 0. -1.
</event>
<event>
 5    1  0.1488417E-008  0.3797228E+03  0.7957747E-01  0.3452366E+00
         13   -1    0    0    0    0  0.00000000000E+00  0.00000000000E+00  0.14999999963E+04  0.15000000000E+04  0.10566000000E+00 0. -1.
        994   -1    0    0    0    0 -0.00000000000E+00 -0.00000000000E+00  0.11368683772E-12  0.17120000000E+03  0.17120000000E+03 0.  0.
         13    1    1    2    0    0 -0.35052488042E+02  0.34803635220E+01  0.13936093322E+03  0.14374376758E+03  0.10566000000E+00 0. -1.
        994    1    1    2    0    0  0.25662695661E+02 -0.44312569510E+01  0.65457387074E+01  0.17329309473E+03  0.17120000000E+03 0.  0.
        998    1    1    2    0    0  0.93897923812E+01  0.95089342900E+00  0.13540933244E+04  0.13541631377E+04  0.10000000000E+02 0. -1.
</event>
<event>
 5    1  0.1488417E-008  0.4216036E+03  0.7957747E-01  0.3287868E+00
         13   -1    0    0    0    0  0.00000000000E+00  0.00000000000E+00  0.14999999963E+04  0.15000000000E+04  0.10566000000E+00 0. -1.
        994   -1    0    0    0    0 -0.00000000000E+00 -0.00000000000E+00  0.11368683772E-12  0.17120000000E+03  0.17120000000E+03 0.  0.
         13    1    1    2    0    0  0.14766354396E+02 -0.11420272782E+03  0.16300078497E+03  0.19957348353E+03  0.10566000000E+00 0. -1.
        994    1    1    2    0    0 -0.53642581606E+02  0.49530135033E+02  0.64687288105E+02  0.19703970686E+03  0.17120000000E+03 0.  0.
        998    1    1    2    0    0  0.38876227209E+02  0.64672592787E+02  0.12723119232E+04  0.12745868096E+04  0.10000000000E+02 0. -1.
</event>
<event>
 5    1  0.1488417E-008  0.3701273E+03  0.7957747E-01  0.3495306E+00
         13   -1    0    0    0    0  0.00000000000E+00  0.00000000000E+00  0.14999999963E+04  0.15000000000E+04  0.10566000000E+00 0. -1.
        994   -1    0    0    0    0 -0.00000000000E+00 -0.00000000000E+00  0.11368683772E-12  0.17120000000E+03  0.17120000000E+03 0.  0.
         13    1    1    2    0    0 -0.10351536618E+02  0.32217330913E+02  0.56604807876E+02  0.65948663067E+02  0.10566000000E+00 0. -1.
        994    1    1    2    0    0  0.10786609972E+02 -0.32815234526E+02  0.13337566123E+02  0.17515856029E+03  0.17120000000E+03 0.  0.
        998    1    1    2    0    0 -0.43507335441E+00  0.59790361292E+00  0.14300576223E+04  0.14300927766E+04  0.10000000000E+02 0. -1.
</event>
<event>
 5    1  0.1488417E-008  0.3838497E+03  0.7957747E-01  0.3434565E+00
         13   -1    0    0    0    0  0.00000000000E+00  0.00000000000E+00  0.14999999963E+04  0.15000000000E+04  0.10566000000E+00 0.  1.
        994   -1    0    0    0    0 -0.00000000000E+00 -0.00000000000E+00  0.11368683772E-12  0.17120000000E+03  0.17120000000E+03 0.  0.
         13    1    1    2    0    0 -0.45946228408E+02 -0.27672779149E+02  0.29097446584E+03  0.29587664583E+03  0.10566000000E+00 0.  1.
        994    1    1    2    0    0  0.92792931174E+02  0.53660754397E+02  0.41100910582E+02  0.20612794446E+03  0.17120000000E+03 0.  0.
        998    1    1    2    0    0 -0.46846702765E+02 -0.25987975248E+02  0.11679246199E+04  0.11691954097E+04  0.10000000000E+02 0.  1.
</event>
<event>
 5    1  0.1488417E-008  0.3706740E+03  0.7957747E-01  0.3492799E+00
         13   -1    0    0    0    0  0.00000000000E+00  0.00000000000E+00  0.14999999963E+04  0.15000000000E+04  0.10566000000E+00 0.  1.
        994   -1    0    0    0    0 -0.00000000000E+00 -0.00000000000E+00  0.11368683772E-12  0.17120000000E+03  0.17120000000E+03 0.  0.
         13    1    1    2    0    0 -0.67414748759E+00  0.62355953827E+02  0.26664810847E+03  0.27384291915E+03  0.10566000000E+00 0.  1.
        994    1    1    2    0    0  0.29869293322E+02  0.38707435729E+02  0.19719757625E+02  0.17913332773E+03  0.17120000000E+03 0.  0.
        998    1    1    2    0    0 -0.29195145834E+02 -0.10106338956E+03  0.12136321302E+04  0.12182237531E+04  0.10000000000E+02 0.  1.
</event>
<event>
 5    1  0.1488417E-008  0.3724040E+03  0.7957747E-01  0.3484915E+00
         13   -1    0    0    0    0  0.00000000000E+00  0.00000000000E+00  0.14999999963E+04  0.15000000000E+04  0.10566000000E+00 0. -1.
        994   -1    0    0    0    0 -0.00000000000E+00 -0.00000000000E+00  0.11368683772E-12  0.17120000000E+03  0.17120000000E+03 0.  0.
         13    1    1    2    0    0 -0.34468196650E+01 -0.61208736166E+02  0.22912499816E+03  0.23718487704E+03  0.10566000000E+00 0. -1.
        994    1    1    2    0    0  0.69945666728E+01  0.37166659321E+02  0.12938587778E+02  0.17580424222E+03  0.17120000000E+03 0.  0.
        998    1    1    2    0    0 -0.35477470079E+01  0.24042076845E+02  0.12579364103E+04  0.12582108807E+04  0.10000000000E+02 0. -1.
</event>
<event>
 5    1  0.1488417E-008  0.3815398E+03  0.7957747E-01  0.3444481E+00
         13   -1    0    0    0    0  0.00000000000E+00  0.00000000000E+00  0.14999999963E+04  0.15000000000E+04  0.10566000000E+00 0. -1.
        994   -1    0    0    0    0 -0.00000000000E+00 -0.00000000000E+00  0.11368683772E-12  0.17120000000E+03  0.17120000000E+03 0.  0.
         13    1    1    2    0    0 -0.54160861710E+02 -0.64405472290E+02  0.21968030379E+03  0.23524648954E+03  0.10566000000E+00 0. -1.
        994    1    1    2    0    0 -0.18885754288E+01  0.43541342010E+02  0.24129359540E+02  0.17830053610E+03  0.17120000000E+03 0.  0.
        998    1    1    2    0    0  0.56049437139E+02  0.20864130279E+02  0.12561903329E+04  0.12576529744E+04  0.10000000000E+02 0. -1.
</event>
<event>
 5    1  0.1488417E-008  0.3172389E+03  0.7957747E-01  0.3780150E+00
         13   -1    0    0    0    0  0.00000000000E+00  0.00000000000E+00  0.14999999963E+04  0.15000000000E+04  0.10566000000E+00 0.  1.
        994   -1    0    0    0    0 -0.00000000000E+00 -0.00000000000E+00  0.11368683772E-12  0.17120000000E+03  0.17120000000E+03 0.  0.
         13    1    1    2    0    0  0.96393130134E+02 -0.16773177097E+03  0.84664719511E+03  0.86846823010E+03  0.10566000000E+00 0.  1.
        994    1    1    2    0    0 -0.77844219409E+02  0.11502159759E+03  0.92596105141E+02  0.23910911546E+03  0.17120000000E+03 0.  0.
        998    1    1    2    0    0 -0.18548910725E+02  0.52710173384E+02  0.56075669602E+03  0.56362265444E+03  0.10000000000E+02 0.  0.
</event>
<event>
 5    1  0.1488417E-008  0.3814628E+03  0.7957747E-01  0.3444814E+00
         13   -1    0    0    0    0  0.00000000000E+00  0.00000000000E+00  0.14999999963E+04  0.15000000000E+04  0.10566000000E+00 0.  1.
        994   -1    0    0    0    0 -0.00000000000E+00 -0.00000000000E+00  0.11368683772E-12  0.17120000000E+03  0.17120000000E+03 0.  0.
         13    1    1    2    0    0  0.20911427541E+02 -0.89978823326E+01  0.71233254230E+02  0.74782600654E+02  0.10566000000E+00 0.  1.
        994    1    1    2    0    0 -0.31096452976E+02 -0.68295994330E+01  0.67760561976E+01  0.17426700133E+03  0.17120000000E+03 0.  0.
        998    1    1    2    0    0  0.10185025434E+02  0.15827481766E+02  0.14219906859E+04  0.14221503980E+04  0.10000000000E+02 0.  1.
</event>
<event>
 5    1  0.1488417E-008  0.3854935E+03  0.7957747E-01  0.3427582E+00
         13   -1    0    0    0    0  0.00000000000E+00  0.00000000000E+00  0.14999999963E+04  0.15000000000E+04  0.10566000000E+00 0. -1.
        994   -1    0    0    0    0 -0.00000000000E+00 -0.00000000000E+00  0.11368683772E-12  0.17120000000E+03  0.17120000000E+03 0.  0.
         13    1    1    2    0    0  0.11062786949E+02 -0.15502246343E+01  0.47260103351E+02  0.48562505951E+02  0.10566000000E+00 0. -1.
        994    1    1    2    0    0  0.81944197163E+00  0.62763758261E+01  0.15168754814E+01  0.17132368572E+03  0.17120000000E+03 0.  0.
        998    1    1    2    0    0 -0.11882228921E+02 -0.47261511918E+01  0.14512230174E+04  0.14513138083E+04  0.10000000000E+02 0. -1.
</event>
<event>
 5    1  0.1488417E-008  0.3735866E+03  0.7957747E-01  0.3479568E+00
         13   -1    0    0    0    0  0.00000000000E+00  0.00000000000E+00  0.14999999963E+04  0.15000000000E+04  0.10566000000E+00 0.  1.
        994   -1    0    0    0    0 -0.00000000000E+00 -0.00000000000E+00  0.11368683772E-12  0.17120000000E+03  0.17120000000E+03 0.  0.
         13    1    1    2    0    0  0.10230661447E+02  0.65821383103E+01  0.66209697611E+01  0.13850609481E+02  0.10566000000E+00 0.  1.
        994    1    1    2    0    0 -0.76621089779E+01 -0.29850120261E+01  0.76373038815E+01  0.17156744045E+03  0.17120000000E+03 0.  0.
        998    1    1    2    0    0 -0.25685524695E+01 -0.35971262841E+01  0.14857417226E+04  0.14857819501E+04  0.10000000000E+02 0.  1.
</event>
<event>
 5    1  0.1488417E-008  0.3794149E+03  0.7957747E-01  0.3453710E+00
         13   -1    0    0    0    0  0.00000000000E+00  0.00000000000E+00  0.14999999963E+04  0.15000000000E+04  0.10566000000E+00 0. -1.
        994   -1    0    0    0    0 -0.00000000000E+00 -0.00000000000E+00  0.11368683772E-12  0.17120000000E+03  0.17120000000E+03 0.  0.
         13    1    1    2    0    0 -0.68768818234E+02  0.17936009861E+02  0.13596994804E+03  0.15342323404E+03  0.10566000000E+00 0. -1.
        994    1    1    2    0    0  0.75648599064E+02 -0.16135360585E+02  0.37972235583E+02  0.19166217957E+03  0.17120000000E+03 0.  0.
        998    1    1    2    0    0 -0.68797808305E+01 -0.18006492756E+01  0.13260578127E+04  0.13261145864E+04  0.10000000000E+02 0. -1.
</event>
<event>
 5    1  0.1488417E-008  0.3845322E+03  0.7957747E-01  0.3431659E+00
         13   -1    0    0    0    0  0.00000000000E+00  0.00000000000E+00  0.14999999963E+04  0.15000000000E+04  0.10566000000E+00 0.  1.
        994   -1    0    0    0    0 -0.00000000000E+00 -0.00000000000E+00  0.11368683772E-12  0.17120000000E+03  0.17120000000E+03 0.  0.
         13    1    1    2    0    0  0.18311297442E+02  0.87183793273E+00  0.86505125018E+02  0.88426305666E+02  0.10566000000E+00 0.  1.
        994    1    1    2    0    0 -0.17796530293E+02  0.35165440043E+01  0.29471914603E+01  0.17218364763E+03  0.17120000000E+03 0.  0.
        998    1    1    2    0    0 -0.51476714876E+00 -0.43883819370E+01  0.14105476798E+04  0.14105900467E+04  0.10000000000E+02 0.  1.
</event>
<event>
 5    1  0.1488417E-008  0.3768634E+03  0.7957747E-01  0.3464931E+00
         13   -1    0    0    0    0  0.00000000000E+00  0.00000000000E+00  0.14999999963E+04  0.15000000000E+04  0.10566000000E+00 0. -1.
        994   -1    0    0    0    0 -0.00000000000E+00 -0.00000000000E+00  0.11368683772E-12  0.17120000000E+03  0.17120000000E+03 0.  0.
         13    1    1    2    0    0 -0.68818698580E+02 -0.33572452657E+02  0.39762762586E+03  0.40493315851E+03  0.10566000000E+00 0. -1.
        994    1    1    2    0    0  0.65048117841E+02  0.27535748705E+02  0.22769409832E+02  0.18659410793E+03  0.17120000000E+03 0.  0.
        998    1    1    2    0    0  0.37705807389E+01  0.60367039521E+01  0.10796029606E+04  0.10796727336E+04  0.10000000000E+02 0. -1.
</event>
<event>
 5    1  0.1488417E-008  0.3817946E+03  0.7957747E-01  0.3443381E+00
         13   -1    0    0    0    0  0.00000000000E+00  0.00000000000E+00  0.14999999963E+04  0.15000000000E+04  0.10566000000E+00 0.  1.
        994   -1    0    0    0    0 -0.00000000000E+00 -0.00000000000E+00  0.11368683772E-12  0.17120000000E+03  0.17120000000E+03 0.  0.
         13    1    1    2    0    0  0.17134175458E+02 -0.23960546336E+02  0.11894424162E+03  0.12253746989E+03  0.10566000000E+00 0.  1.
        994    1    1    2    0    0 -0.35229001565E+02  0.19669225020E+02  0.86589634366E+01  0.17610331800E+03  0.17120000000E+03 0.  0.
        998    1    1    2    0    0  0.18094826107E+02  0.42913213158E+01  0.13723967912E+04  0.13725592121E+04  0.10000000000E+02 0.  1.
</event>
<event>
 5    1  0.1488417E-008  0.3726415E+03  0.7957747E-01  0.3483839E+00
         13   -1    0    0    0    0  0.00000000000E+00  0.00000000000E+00  0.14999999963E+04  0.15000000000E+04  0.10566000000E+00 0.  1.
        994   -1    0    0    0    0 -0.00000000000E+00 -0.00000000000E+00  0.11368683772E-12  0.17120000000E+03  0.17120000000E+03 0.  0.
         13    1    1    2    0    0  0.29867462612E+02 -0.22504282739E+02  0.89244127354E+02  0.96762769161E+02  0.10566000000E+00 0.  1.
        994    1    1    2    0    0 -0.45875887660E+01  0.15181830059E+02  0.87572364788E+01  0.17215592678E+03  0.17120000000E+03 0.  0.
        998    1    1    2    0    0 -0.25279873846E+02  0.73224526800E+01  0.14019986324E+04  0.14022813041E+04  0.10000000000E+02 0.  1.
</event>
<event>
 5    1  0.1488417E-008  0.3748658E+03  0.7957747E-01  0.3473823E+00
         13   -1    0    0    0    0  0.00000000000E+00  0.00000000000E+00  0.14999999963E+04  0.15000000000E+04  0.10566000000E+00 0.  1.
        994   -1    0    0    0    0 -0.00000000000E+00 -0.00000000000E+00  0.11368683772E-12  0.17120000000E+03  0.17120000000E+03 0.  0.
         13    1    1    2    0    0 -0.92828747724E+00  0.15182634334E+02  0.14300406057E+02  0.20877904119E+02  0.10566000000E+00 0.  1.
        994    1    1    2    0    0  0.97225773805E+01 -0.65508496095E+01  0.72152217635E+01  0.17175255913E+03  0.17120000000E+03 0.  0.
        998    1    1    2    0    0 -0.87942899033E+01 -0.86317847249E+01  0.14784843685E+04  0.14785695368E+04  0.10000000000E+02 0.  1.
</event>
<event>
 5    1  0.1488417E-008  0.3735504E+03  0.7957747E-01  0.3479731E+00
         13   -1    0    0    0    0  0.00000000000E+00  0.00000000000E+00  0.14999999963E+04  0.15000000000E+04  0.10566000000E+00 0.  1.
        994   -1    0    0    0    0 -0.00000000000E+00 -0.00000000000E+00  0.11368683772E-12  0.17120000000E+03  0.17120000000E+03 0.  0.
         13    1    1    2    0    0 -0.14832422184E+02 -0.73913456533E+01  0.15317037732E+02  0.22566691103E+02  0.10566000000E+00 0.  1.
        994    1    1    2    0    0  0.92721391189E+01  0.36214254563E+01  0.77635717881E+01  0.17166479060E+03  0.17120000000E+03 0.  0.
        998    1    1    2    0    0  0.55602830653E+01  0.37699201970E+01  0.14769193868E+04  0.14769685183E+04  0.10000000000E+02 0.  1.
</event>
<event>
 5    1  0.1488417E-008  0.3806391E+03  0.7957747E-01  0.3448380E+00
         13   -1    0    0    0    0  0.00000000000E+00  0.00000000000E+00  0.14999999963E+04  0.15000000000E+04  0.10566000000E+00 0. -1.
        994   -1    0    0    0    0 -0.00000000000E+00 -0.00000000000E+00  0.11368683772E-12  0.17120000000E+03  0.17120000000E+03 0.  0.
         13    1    1    2    0    0 -0.69326380835E+01  0.36825751282E+02  0.21902527194E+03  0.22220773690E+03  0.10566000000E+00 0. -1.
        994    1    1    2    0    0 -0.76118510712E+01 -0.16350726487E+01  0.40131130637E+01  0.17142391553E+03  0.17120000000E+03 0.  0.
        998    1    1    2    0    0  0.14544489155E+02 -0.35190678633E+02  0.12769616113E+04  0.12775683476E+04  0.10000000000E+02 0. -1.
</event>
<event>
 5    1  0.1488417E-008  0.3707366E+03  0.7957747E-01  0.3492513E+00
         13   -1    0    0    0    0  0.00000000000E+00  0.00000000000E+00  0.14999999963E+04  0.15000000000E+04  0.10566000000E+00 0.  1.
        994   -1    0    0    0    0 -0.00000000000E+00 -0.00000000000E+00  0.11368683772E-12  0.17120000000E+03  0.17120000000E+03 0.  0.
         13    1    1    2    0    0  0.18026694342E+03  0.79818521071E+01  0.63459337461E+03  0.65974892430E+03  0.10566000000E+00 0.  1.
        994    1    1    2    0    0 -0.19488358838E+03  0.34213376603E+02  0.16452291172E+03  0.30907506635E+03  0.17120000000E+03 0.  0.
        998    1    1    2    0    0  0.14616644963E+02 -0.42195228710E+02  0.70088370995E+03  0.70237600935E+03  0.10000000000E+02 0. -1.
</event>
<event>
 5    1  0.1488417E-008  0.3761053E+03  0.7957747E-01  0.3468294E+00
         13   -1    0    0    0    0  0.00000000000E+00  0.00000000000E+00  0.14999999963E+04  0.15000000000E+04  0.10566000000E+00 0.  1.
        994   -1    0    0    0    0 -0.00000000000E+00 -0.00000000000E+00  0.11368683772E-12  0.17120000000E+03  0.17120000000E+03 0.  0.
         13    1    1    2    0    0 -0.12726323772E+03  0.18928108253E+03  0.10207348590E+04  0.10459077031E+04  0.10566000000E+00 0.  1.
        994    1    1    2    0    0  0.15329626106E+03 -0.17131933395E+03  0.21336017158E+03  0.35732626640E+03  0.17120000000E+03 0.  0.
        998    1    1    2    0    0 -0.26033023345E+02 -0.17961748577E+02  0.26590496568E+03  0.26796603048E+03  0.10000000000E+02 0.  1.
</event>
<event>
 5    1  0.1488417E-008  0.3739858E+03  0.7957747E-01  0.3477771E+00
         13   -1    0    0    0    0  0.00000000000E+00  0.00000000000E+00  0.14999999963E+04  0.15000000000E+04  0.10566000000E+00 0. -1.
        994   -1    0    0    0    0 -0.00000000000E+00 -0.00000000000E+00  0.11368683772E-12  0.17120000000E+03  0.17120000000E+03 0.  0.
         13    1    1    2    0    0  0.30672904730E+02  0.46539299859E+02  0.18377810540E+03  0.19204462165E+03  0.10566000000E+00 0. -1.
        994    1    1    2    0    0 -0.52058324285E+02 -0.37864173519E+02  0.21468609775E+02  0.18415782897E+03  0.17120000000E+03 0.  0.
        998    1    1    2    0    0  0.21385419555E+02 -0.86751263401E+01  0.12947532811E+04  0.12949975494E+04  0.10000000000E+02 0. -1.
</event>
<event>
 5    1  0.1488417E-008  0.3716044E+03  0.7957747E-01  0.3488550E+00
         13   -1    0    0    0    0  0.00000000000E+00  0.00000000000E+00  0.14999999963E+04  0.15000000000E+04  0.10566000000E+00 0.  1.
        994   -1    0    0    0    0 -0.00000000000E+00 -0.00000000000E+00  0.11368683772E-12  0.17120000000E+03  0.17120000000E+03 0.  0.
         13    1    1    2    0    0  0.32091969172E+01 -0.16272213283E+02  0.60204740544E+01  0.17644861627E+02  0.10566000000E+00 0.  1.
        994    1    1    2    0    0 -0.34972410480E+01  0.30677264952E+02  0.15148672781E+02  0.17462029540E+03  0.17120000000E+03 0.  0.
        998    1    1    2    0    0  0.28804413074E+00 -0.14405051670E+02  0.14788308494E+04  0.14789348430E+04  0.10000000000E+02 0.  1.
</event>
<event>
 5    1  0.1488417E-008  0.3792077E+03  0.7957747E-01  0.3454616E+00
         13   -1    0    0    0    0  0.00000000000E+00  0.00000000000E+00  0.14999999963E+04  0.15000000000E+04  0.10566000000E+00 0.  1.
        994   -1    0    0    0    0 -0.00000000000E+00 -0.00000000000E+00  0.11368683772E-12  0.17120000000E+03  0.17120000000E+03 0.  0.
         13    1    1    2    0    0 -0.40317334889E+01  0.13065758915E+02  0.18283549417E+02  0.22831300319E+02  0.10566000000E+00 0.  1.
        994    1    1    2    0    0  0.50608298859E+02 -0.22822851866E+01  0.13183988336E+02  0.17902420587E+03  0.17120000000E+03 0.  0.
        998    1    1    2    0    0 -0.46576565370E+02 -0.10783473728E+02  0.14685324585E+04  0.14693444938E+04  0.10000000000E+02 0.  1.
</event>
<event>
 5    1  0.1488417E-008  0.3778416E+03  0.7957747E-01  0.3460611E+00
         13   -1    0    0    0    0  0.00000000000E+00  0.00000000000E+00  0.14999999963E+04  0.15000000000E+04  0.10566000000E+00 0.  1.
        994   -1    0    0    0    0 -0.00000000000E+00 -0.00000000000E+00  0.11368683772E-12  0.17120000000E+03  0.17120000000E+03 0.  0.
         13    1    1    2    0    0  0.17695835988E+02 -0.25638510439E+00  0.28375984565E+02  0.33442727292E+02  0.10566000000E+00 0.  1.
        994    1    1    2    0    0 -0.49467127993E+01  0.46921059224E+01  0.53832321818E+01  0.17142025847E+03  0.17120000000E+03 0.  0.
        998    1    1    2    0    0 -0.12749123188E+02 -0.44357208180E+01  0.14662407795E+04  0.14663370142E+04  0.10000000000E+02 0.  1.
</event>
<event>
 5    1  0.1488417E-008  0.3840107E+03  0.7957747E-01  0.3433879E+00
         13   -1    0    0    0    0  0.00000000000E+00  0.00000000000E+00  0.14999999963E+04  0.15000000000E+04  0.10566000000E+00 0.  1.
        994   -1    0    0    0    0 -0.00000000000E+00 -0.00000000000E+00  0.11368683772E-12  0.17120000000E+03  0.17120000000E+03 0.  0.
         13    1    1    2    0    0 -0.17992356664E+02 -0.50951135066E+01  0.83230032472E+02  0.85304950321E+02  0.10566000000E+00 0.  1.
        994    1    1    2    0    0  0.86238824442E+01  0.46420663565E+01  0.24386163654E+01  0.17149725064E+03  0.17120000000E+03 0.  0.
        998    1    1    2    0    0  0.93684742202E+01  0.45304715009E+00  0.14143313474E+04  0.14143977990E+04  0.10000000000E+02 0.  1.
</event>
<event>
 5    1  0.1488417E-008  0.3817030E+03  0.7957747E-01  0.3443776E+00
         13   -1    0    0    0    0  0.00000000000E+00  0.00000000000E+00  0.14999999963E+04  0.15000000000E+04  0.10566000000E+00 0. -1.
        994   -1    0    0    0    0 -0.00000000000E+00 -0.00000000000E+00  0.11368683772E-12  0.17120000000E+03  0.17120000000E+03 0.  0.
         13    1    1    2    0    0 -0.21032977881E+02  0.10983659672E+02  0.79693382106E+02  0.83150906513E+02  0.10566000000E+00 0. -1.
        994    1    1    2    0    0  0.24380034123E+02 -0.12101155608E+02  0.57424755611E+01  0.17344520765E+03  0.17120000000E+03 0.  0.
        998    1    1    2    0    0 -0.33470562421E+01  0.11174959362E+01  0.14145641386E+04  0.14146038858E+04  0.10000000000E+02 0. -1.
</event>
<event>
 5    1  0.1488417E-008  0.3813300E+03  0.7957747E-01  0.3445388E+00
         13   -1    0    0    0    0  0.00000000000E+00  0.00000000000E+00  0.14999999963E+04  0.15000000000E+04  0.10566000000E+00 0.  1.
        994   -1    0    0    0    0 -0.00000000000E+00 -0.00000000000E+00  0.11368683772E-12  0.17120000000E+03  0.17120000000E+03 0.  0.
         13    1    1    2    0    0 -0.16122095521E+02 -0.85363843022E+01  0.47290594363E+02  0.50687309065E+02  0.10566000000E+00 0.  1.
        994    1    1    2    0    0  0.85685463223E+01  0.38750501270E+01  0.37576635472E+01  0.17149925958E+03  0.17120000000E+03 0.  0.
        998    1    1    2    0    0  0.75535491986E+01  0.46613341751E+01  0.14489517384E+04  0.14490134314E+04  0.10000000000E+02 0.  1.
</event>
<event>
 5    1  0.1488417E-008  0.3837787E+03  0.7957747E-01  0.3434869E+00
         13   -1    0    0    0    0  0.00000000000E+00  0.00000000000E+00  0.14999999963E+04  0.15000000000E+04  0.10566000000E+00 0. -1.
        994   -1    0    0    0    0 -0.00000000000E+00 -0.00000000000E+00  0.11368683772E-12  0.17120000000E+03  0.17120000000E+03 0.  0.
         13    1    1    2    0    0  0.27166544335E+02 -0.55171210276E+01  0.16703223164E+03  0.16931697294E+03  0.10566000000E+00 0. -1.
        994    1    1    2    0    0 -0.19629786335E+02  0.39134958013E+00  0.35115089524E+01  0.17235791935E+03  0.17120000000E+03 0.  0.
        998    1    1    2    0    0 -0.75367579999E+01  0.51257714475E+01  0.13294562557E+04  0.13295251077E+04  0.10000000000E+02 0. -1.
</event>
<event>
 5    1  0.1488417E-008  0.3779977E+03  0.7957747E-01  0.3459924E+00
         13   -1    0    0    0    0  0.00000000000E+00  0.00000000000E+00  0.14999999963E+04  0.15000000000E+04  0.10566000000E+00 0. -1.
        994   -1    0    0    0    0 -0.00000000000E+00 -0.00000000000E+00  0.11368683772E-12  0.17120000000E+03  0.17120000000E+03 0.  0.
         13    1    1    2    0    0  0.82782575987E+02  0.26628620889E+02  0.19972901601E+03  0.21783876913E+03  0.10566000000E+00 0. -1.
        994    1    1    2    0    0 -0.12423808807E+03  0.59720515041E+02  0.87183984784E+02  0.23645745843E+03  0.17120000000E+03 0.  0.
        998    1    1    2    0    0  0.41455512080E+02 -0.86349135931E+02  0.12130869955E+04  0.12169037724E+04  0.10000000000E+02 0. -1.
</event>
<event>
 5    1  0.1488417E-008  0.3698684E+03  0.7957747E-01  0.3496496E+00
         13   -1    0    0    0    0  0.00000000000E+00  0.00000000000E+00  0.14999999963E+04  0.15000000000E+04  0.10566000000E+00 0. -1.
        994   -1    0    0    0    0 -0.00000000000E+00 -0.00000000000E+00  0.11368683772E-12  0.17120000000E+03  0.17120000000E+03 0.  0.
         13    1    1    2    0    0 -0.22775486093E+00 -0.15691613112E+02  0.63758077295E+01  0.16939323557E+02  0.10566000000E+00 0. -1.
        994    1    1    2    0    0  0.42174466020E+00  0.14301600814E+02  0.11584916375E+02  0.17218700282E+03  0.17120000000E+03 0.  0.
        998    1    1    2    0    0 -0.19398979926E+00  0.13900122984E+01  0.14820392722E+04  0.14820736736E+04  0.10000000000E+02 0. -1.
</event>
<event>
 5    1  0.1488417E-008  0.3788312E+03  0.7957747E-01  0.3456264E+00
         13   -1    0    0    0    0  0.00000000000E+00  0.00000000000E+00  0.14999999963E+04  0.15000000000E+04  0.10566000000E+00 0. -1.
        994   -1    0    0    0    0 -0.00000000000E+00 -0.00000000000E+00  0.11368683772E-12  0.17120000000E+03  0.17120000000E+03 0.  0.
         13    1    1    2    0    0 -0.17017655914E+02  0.73473644245E+01  0.34704442873E+02  0.39344553574E+02  0.10566000000E+00 0. -1.
        994    1    1    2    0    0  0.24255503422E+02  0.30198855667E+02  0.97756665573E+01  0.17579904433E+03  0.17120000000E+03 0.  0.
        998    1    1    2    0    0 -0.72378475085E+01 -0.37546220092E+02  0.14555198868E+04  0.14560564021E+04  0.10000000000E+02 0. -1.
</event>
<event>
 5    1  0.1488417E-008  0.3801550E+03  0.7957747E-01  0.3450484E+00
         13   -1    0    0    0    0  0.00000000000E+00  0.00000000000E+00  0.14999999963E+04  0.15000000000E+04  0.10566000000E+00 0.  1.
        994   -1    0    0    0    0 -0.00000000000E+00 -0.00000000000E+00  0.11368683772E-12  0.17120000000E+03  0.17120000000E+03 0.  0.
         13    1    1    2    0    0 -0.17472991215E+02  0.43651562230E+02  0.25829928611E+03  0.26254389476E+03  0.10566000000E+00 0.  1.
        994    1    1    2    0    0  0.37216739389E+02 -0.21527788615E+02  0.10256062165E+02  0.17681390835E+03  0.17120000000E+03 0.  0.
        998    1    1    2    0    0 -0.19743748174E+02 -0.22123773615E+02  0.12314446480E+04  0.12318421969E+04  0.10000000000E+02 0.  1.
</event>
<event>
 5    1  0.2207972E-008  0.3860290E+03  0.7957747E-01  0.3425320E+00
         13   -1    0    0    0    0  0.00000000000E+00  0.00000000000E+00  0.14999999963E+04  0.15000000000E+04  0.10566000000E+00 0.  1.
        994   -1    0    0    0    0 -0.00000000000E+00 -0.00000000000E+00  0.11368683772E-12  0.17120000000E+03  0.17120000000E+03 0.  0.
         13    1    1    2    0    0 -0.69522165101E-01  0.12364971902E+02  0.70809863393E+02  0.71881466883E+02  0.10566000000E+00 0.  1.
        994    1    1    2    0    0 -0.49464712748E+01 -0.51579857100E+01  0.12875452040E+01  0.17135393245E+03  0.17120000000E+03 0.  0.
        998    1    1    2    0    0  0.50159934399E+01 -0.72069861917E+01  0.14279025877E+04  0.14279646007E+04  0.10000000000E+02 0.  1.
</event>
<event>
 5    1  0.1488417E-008  0.3799774E+03  0.7957747E-01  0.3451257E+00
         13   -1    0    0    0    0  0.00000000000E+00  0.00000000000E+00  0.14999999963E+04  0.15000000000E+04  0.10566000000E+00 0. -1.
        994   -1    0    0    0    0 -0.00000000000E+00 -0.00000000000E+00  0.11368683772E-12  0.17120000000E+03  0.17120000000E+03 0.  0.
         13    1    1    2    0    0  0.99513361974E+01  0.38267104478E+02  0.18306564329E+03  0.18728705586E+03  0.10566000000E+00 0. -1.
        994    1    1    2    0    0 -0.33356002631E+01 -0.26133005289E+02  0.64683509580E+01  0.17333591595E+03  0.17120000000E+03 0.  0.
        998    1    1    2    0    0 -0.66157359343E+01 -0.12134099189E+02  0.13104660020E+04  0.13105770282E+04  0.10000000000E+02 0. -1.
</event>
<event>
 5    1  0.1488417E-008  0.3849113E+03  0.7957747E-01  0.3430049E+00
         13   -1    0    0    0    0  0.00000000000E+00  0.00000000000E+00  0.14999999963E+04  0.15000000000E+04  0.10566000000E+00 0. -1.
        994   -1    0    0    0    0 -0.00000000000E+00 -0.00000000000E+00  0.11368683772E-12  0.17120000000E+03  0.17120000000E+03 0.  0.
         13    1    1    2    0    0 -0.97640893542E+01  0.97156297094E+01  0.57366507304E+02  0.58997103538E+02  0.10566000000E+00 0. -1.
        994    1    1    2    0    0  0.12207033285E+01 -0.85430553795E+01  0.19192155846E+01  0.17142811117E+03  0.17120000000E+03 0.  0.
        998    1    1    2    0    0  0.85433860257E+01 -0.11725743300E+01  0.14407142734E+04  0.14407747853E+04  0.10000000000E+02 0. -1.
</event>
<event>
 5    1  0.1488417E-008  0.3818781E+03  0.7957747E-01  0.3443021E+00
         13   -1    0    0    0    0  0.00000000000E+00  0.00000000000E+00  0.14999999963E+04  0.15000000000E+04  0.10566000000E+00 0.  1.
        994   -1    0    0    0    0 -0.00000000000E+00 -0.00000000000E+00  0.11368683772E-12  0.17120000000E+03  0.17120000000E+03 0.  0.
         13    1    1    2    0    0  0.14200182492E+02 -0.86514382270E+01  0.43142990782E+02  0.46236580581E+02  0.10566000000E+00 0.  1.
        994    1    1    2    0    0 -0.11613576191E+02 -0.80677161640E+01  0.38526941835E+01  0.17182621002E+03  0.17120000000E+03 0.  0.
        998    1    1    2    0    0 -0.25866063012E+01  0.16719154391E+02  0.14530043113E+04  0.14531372094E+04  0.10000000000E+02 0.  1.
</event>
<event>
 5    1  0.1488417E-008  0.3844396E+03  0.7957747E-01  0.3432052E+00
         13   -1    0    0    0    0  0.00000000000E+00  0.00000000000E+00  0.14999999963E+04  0.15000000000E+04  0.10566000000E+00 0. -1.
        994   -1    0    0    0    0 -0.00000000000E+00 -0.00000000000E+00  0.11368683772E-12  0.17120000000E+03  0.17120000000E+03 0.  0.
         13    1    1    2    0    0  0.12609063387E+02 -0.14574168103E+02  0.90565906018E+02  0.92593678792E+02  0.10566000000E+00 0. -1.
        994    1    1    2    0    0 -0.13857402452E+02  0.17562117091E+02  0.35591682784E+01  0.17269210532E+03  0.17120000000E+03 0.  0.
        998    1    1    2    0    0  0.12483390651E+01 -0.29879489881E+01  0.14058749220E+04  0.14059142159E+04  0.10000000000E+02 0. -1.
</event>
<event>
 5    1  0.1488417E-008  0.3712078E+03  0.7957747E-01  0.3490358E+00
         13   -1    0    0    0    0  0.00000000000E+00  0.00000000000E+00  0.14999999963E+04  0.15000000000E+04  0.10566000000E+00 0. -1.
        994   -1    0    0    0    0 -0.00000000000E+00 -0.00000000000E+00  0.11368683772E-12  0.17120000000E+03  0.17120000000E+03 0.  0.
         13    1    1    2    0    0 -0.27368589408E+02 -0.28998621413E+02  0.10602460766E+03  0.11327483535E+03  0.10566000000E+00 0. -1.
        994    1    1    2    0    0 -0.22098702306E+02 -0.57032807605E+01  0.10434712013E+02  0.17302948671E+03  0.17120000000E+03 0.  0.
        998    1    1    2    0    0  0.49467291714E+02  0.34701902174E+02  0.13835406766E+04  0.13848956779E+04  0.10000000000E+02 0. -1.
</event>
<event>
 5    1  0.1488417E-008  0.3858074E+03  0.7957747E-01  0.3426255E+00
         13   -1    0    0    0    0  0.00000000000E+00  0.00000000000E+00  0.14999999963E+04  0.15000000000E+04  0.10566000000E+00 0. -1.
        994   -1    0    0    0    0 -0.00000000000E+00 -0.00000000000E+00  0.11368683772E-12  0.17120000000E+03  0.17120000000E+03 0.  0.
         13    1    1    2    0    0  0.13087105996E+02 -0.36051948299E+01  0.73613690608E+02  0.74854902191E+02  0.10566000000E+00 0. -1.
        994    1    1    2    0    0 -0.12302582143E+02  0.19260456776E+01  0.17385878495E+01  0.17166107849E+03  0.17120000000E+03 0.  0.
        998    1    1    2    0    0 -0.78452385273E+00  0.16791491522E+01  0.14246477178E+04  0.14246840193E+04  0.10000000000E+02 0. -1.
</event>
<event>
 5    1  0.1488417E-008  0.3813843E+03  0.7957747E-01  0.3445153E+00
         13   -1    0    0    0    0  0.00000000000E+00  0.00000000000E+00  0.14999999963E+04  0.15000000000E+04  0.10566000000E+00 0.  1.
        994   -1    0    0    0    0 -0.00000000000E+00 -0.00000000000E+00  0.11368683772E-12  0.17120000000E+03  0.17120000000E+03 0.  0.
         13    1    1    2    0    0 -0.38159749787E+02  0.36057314729E+01  0.20656169101E+03  0.21008786534E+03  0.10566000000E+00 0.  1.
        994    1    1    2    0    0  0.27443499911E+02  0.12933696054E+02  0.65049298915E+01  0.17398902349E+03  0.17120000000E+03 0.  0.
        998    1    1    2    0    0  0.10716249876E+02 -0.16539427527E+02  0.12869333754E+04  0.12871231112E+04  0.10000000000E+02 0.  1.
</event>
<event>
 5    1  0.1488417E-008  0.3734969E+03  0.7957747E-01  0.3479972E+00
         13   -1    0    0    0    0  0.00000000000E+00  0.00000000000E+00  0.14999999963E+04  0.15000000000E+04  0.10566000000E+00 0. -1.
        994   -1    0    0    0    0 -0.00000000000E+00 -0.00000000000E+00  0.11368683772E-12  0.17120000000E+03  0.17120000000E+03 0.  0.
         13    1    1    2    0    0 -0.43548472638E+02 -0.29422912596E+01  0.11762499652E+03  0.12546225535E+03  0.10566000000E+00 0. -1.
        994    1    1    2    0    0  0.40401178597E+02  0.81556662326E+01  0.13278754656E+02  0.17659143651E+03  0.17120000000E+03 0.  0.
        998    1    1    2    0    0  0.31472940416E+01 -0.52133749730E+01  0.13690962451E+04  0.13691463081E+04  0.10000000000E+02 0. -1.
</event>
<event>
 5    1  0.1488417E-008  0.3779709E+03  0.7957747E-01  0.3460042E+00
         13   -1    0    0    0    0  0.00000000000E+00  0.00000000000E+00  0.14999999963E+04  0.15000000000E+04  0.10566000000E+00 0. -1.
        994   -1    0    0    0    0 -0.00000000000E+00 -0.00000000000E+00  0.11368683772E-12  0.17120000000E+03  0.17120000000E+03 0.  0.
         13    1    1    2    0    0 -0.20932363392E+02  0.21228352727E+01  0.40273789288E+02  0.45438524783E+02  0.10566000000E+00 0. -1.
        994    1    1    2    0    0  0.18212387241E+02 -0.38253248224E+01  0.63273685016E+01  0.17232469281E+03  0.17120000000E+03 0.  0.
        998    1    1    2    0    0  0.27199761516E+01  0.17024895497E+01  0.14533988385E+04  0.14534367824E+04  0.10000000000E+02 0. -1.
</event>
<event>
 5    1  0.1605343E-008  0.3860179E+03  0.7957747E-01  0.3425367E+00
         13   -1    0    0    0    0  0.00000000000E+00  0.00000000000E+00  0.14999999963E+04  0.15000000000E+04  0.10566000000E+00 0.  1.
        994   -1    0    0    0    0 -0.00000000000E+00 -0.00000000000E+00  0.11368683772E-12  0.17120000000E+03  0.17120000000E+03 0.  0.
         13    1    1    2    0    0 -0.94622082063E+01  0.36693969511E+01  0.45464625753E+02  0.46583701195E+02  0.10566000000E+00 0.  1.
        994    1    1    2    0    0  0.98240725970E+01 -0.15201809218E+01  0.14496188318E+01  0.17149450355E+03  0.17120000000E+03 0.  0.
        998    1    1    2    0    0 -0.36186439063E+00 -0.21492160293E+01  0.14530857517E+04  0.14531217953E+04  0.10000000000E+02 0.  1.
</event>
<event>
 5    1  0.1488417E-008  0.3811288E+03  0.7957747E-01  0.3446258E+00
         13   -1    0    0    0    0  0.00000000000E+00  0.00000000000E+00  0.14999999963E+04  0.15000000000E+04  0.10566000000E+00 0.  1.
        994   -1    0    0    0    0 -0.00000000000E+00 -0.00000000000E+00  0.11368683772E-12  0.17120000000E+03  0.17120000000E+03 0.  0.
         13    1    1    2    0    0 -0.34016918769E+02 -0.10670100500E+02  0.15246260350E+03  0.15657540815E+03  0.10566000000E+00 0.  1.
        994    1    1    2    0    0  0.50052604098E+02 -0.11701854930E+02  0.12414759600E+02  0.17918081047E+03  0.17120000000E+03 0.  0.
        998    1    1    2    0    0 -0.16035685329E+02  0.22371955430E+02  0.13351226332E+04  0.13354437814E+04  0.10000000000E+02 0.  1.
</event>
<event>
 5    1  0.1488417E-008  0.3824583E+03  0.7957747E-01  0.3440524E+00
         13   -1    0    0    0    0  0.00000000000E+00  0.00000000000E+00  0.14999999963E+04  0.15000000000E+04  0.10566000000E+00 0.  1.
        994   -1    0    0    0    0 -0.00000000000E+00 -0.00000000000E+00  0.11368683772E-12  0.17120000000E+03  0.17120000000E+03 0.  0.
         13    1    1    2    0    0 -0.69268244683E+01  0.12578634127E+02  0.34175908142E+02  0.37070295320E+02  0.10566000000E+00 0.  1.
        994    1    1    2    0    0  0.45999745551E+01 -0.12187112399E+02  0.34602029178E+01  0.17172972509E+03  0.17120000000E+03 0.  0.
        998    1    1    2    0    0  0.23268499132E+01 -0.39152172816E+00  0.14623638852E+04  0.14623999796E+04  0.10000000000E+02 0.  1.
</event>
<event>
 5    1  0.1488417E-008  0.3787742E+03  0.7957747E-01  0.3456513E+00
         13   -1    0    0    0    0  0.00000000000E+00  0.00000000000E+00  0.14999999963E+04  0.15000000000E+04  0.10566000000E+00 0.  1.
        994   -1    0    0    0    0 -0.00000000000E+00 -0.00000000000E+00  0.11368683772E-12  0.17120000000E+03  0.17120000000E+03 0.  0.
         13    1    1    2    0    0  0.16973915365E+02 -0.50548920226E+02  0.24578035618E+03  0.25149811488E+03  0.10566000000E+00 0.  1.
        994    1    1    2    0    0 -0.20954634917E+02  0.51711555437E+02  0.15274582409E+02  0.18070953090E+03  0.17120000000E+03 0.  0.
        998    1    1    2    0    0  0.39807195519E+01 -0.11626352112E+01  0.12389450577E+04  0.12389923542E+04  0.10000000000E+02 0.  1.
</event>
<event>
 5    1  0.1488417E-008  0.4530064E+03  0.7957747E-01  0.3184179E+00
         13   -1    0    0    0    0  0.00000000000E+00  0.00000000000E+00  0.14999999963E+04  0.15000000000E+04  0.10566000000E+00 0.  1.
        994   -1    0    0    0    0 -0.00000000000E+00 -0.00000000000E+00  0.11368683772E-12  0.17120000000E+03  0.17120000000E+03 0.  0.
         13    1    1    2    0    0  0.72833481596E+01 -0.11632295258E+03  0.88788531493E+02  0.14651788610E+03  0.10566000000E+00 0.  1.
        994    1    1    2    0    0 -0.72447175484E+02  0.87441406524E+02  0.13362707402E+03  0.24507188276E+03  0.17120000000E+03 0.  0.
        998    1    1    2    0    0  0.65163827325E+02  0.28881546061E+02  0.12775843908E+04  0.12796102311E+04  0.10000000000E+02 0.  1.
</event>
<event>
 5    1  0.1488417E-008  0.3834569E+03  0.7957747E-01  0.3436243E+00
         13   -1    0    0    0    0  0.00000000000E+00  0.00000000000E+00  0.14999999963E+04  0.15000000000E+04  0.10566000000E+00 0.  1.
        994   -1    0    0    0    0 -0.00000000000E+00 -0.00000000000E+00  0.11368683772E-12  0.17120000000E+03  0.17120000000E+03 0.  0.
         13    1    1    2    0    0 -0.27422653768E+02  0.95850109630E+01  0.16351912943E+03  0.16607947263E+03  0.10566000000E+00 0.  1.
        994    1    1    2    0    0  0.26051926610E+02 -0.30406991116E+01  0.46752993078E+01  0.17326063360E+03  0.17120000000E+03 0.  0.
        998    1    1    2    0    0  0.13707271577E+01 -0.65443118515E+01  0.13318055675E+04  0.13318598938E+04  0.10000000000E+02 0.  1.
</event>
<event>
 5    1  0.1488417E-008  0.3809352E+03  0.7957747E-01  0.3447096E+00
         13   -1    0    0    0    0  0.00000000000E+00  0.00000000000E+00  0.14999999963E+04  0.15000000000E+04  0.10566000000E+00 0.  1.
        994   -1    0    0    0    0 -0.00000000000E+00 -0.00000000000E+00  0.11368683772E-12  0.17120000000E+03  0.17120000000E+03 0.  0.
         13    1    1    2    0    0  0.35540836473E+01 -0.21823217440E+02  0.64111700808E+02  0.67817443734E+02  0.10566000000E+00 0.  1.
        994    1    1    2    0    0 -0.92904423804E+00  0.18972411384E+02  0.48651805241E+01  0.17231925458E+03  0.17120000000E+03 0.  0.
        998    1    1    2    0    0 -0.26250394092E+01  0.28508060570E+01  0.14310231149E+04  0.14310633017E+04  0.10000000000E+02 0.  1.
</event>
<event>
 5    1  0.1488417E-008  0.3851302E+03  0.7957747E-01  0.3429120E+00
         13   -1    0    0    0    0  0.00000000000E+00  0.00000000000E+00  0.14999999963E+04  0.15000000000E+04  0.10566000000E+00 0.  1.
        994   -1    0    0    0    0 -0.00000000000E+00 -0.00000000000E+00  0.11368683772E-12  0.17120000000E+03  0.17120000000E+03 0.  0.
         13    1    1    2    0    0  0.11621002866E+02 -0.21214679052E+01  0.47147644687E+02  0.48605142704E+02  0.10566000000E+00 0.  1.
        994    1    1    2    0    0  0.15853888538E+01 -0.37736210492E+01  0.16205982441E+01  0.17125659115E+03  0.17120000000E+03 0.  0.
        998    1    1    2    0    0 -0.13206391720E+02  0.58950889544E+01  0.14512317533E+04  0.14513382661E+04  0.10000000000E+02 0.  1.
</event>
<event>
 5    1  0.1488417E-008  0.3801540E+03  0.7957747E-01  0.3450488E+00
         13   -1    0    0    0    0  0.00000000000E+00  0.00000000000E+00  0.14999999963E+04  0.15000000000E+04  0.10566000000E+00 0. -1.
        994   -1    0    0    0    0 -0.00000000000E+00 -0.00000000000E+00  0.11368683772E-12  0.17120000000E+03  0.17120000000E+03 0.  0.
         13    1    1    2    0    0 -0.27526220674E+02  0.17546164322E+02  0.12625844307E+03  0.13040999317E+03  0.10566000000E+00 0. -1.
        994    1    1    2    0    0  0.20488060537E+02 -0.13372967270E+02  0.60580557802E+01  0.17304547644E+03  0.17120000000E+03 0.  0.
        998    1    1    2    0    0  0.70381601373E+01 -0.41731970523E+01  0.13676834974E+04  0.13677445304E+04  0.10000000000E+02 0. -1.
</event>
<event>
 5    1  0.1488417E-008  0.3834189E+03  0.7957747E-01  0.3436406E+00
         13   -1    0    0    0    0  0.00000000000E+00  0.00000000000E+00  0.14999999963E+04  0.15000000000E+04  0.10566000000E+00 0. -1.
        994   -1    0    0    0    0 -0.00000000000E+00 -0.00000000000E+00  0.11368683772E-12  0.17120000000E+03  0.17120000000E+03 0.  0.
         13    1    1    2    0    0  0.11740150852E+02  0.25867137166E+02  0.16823551944E+03  0.17061694257E+03  0.10566000000E+00 0. -1.
        994    1    1    2    0    0 -0.59632347963E+01 -0.14329323139E+02  0.32138439093E+01  0.17193213331E+03  0.17120000000E+03 0.  0.
        998    1    1    2    0    0 -0.57769160555E+01 -0.11537814028E+02  0.13285506329E+04  0.13286509241E+04  0.10000000000E+02 0. -1.
</event>
<event>
 5    1  0.1488417E-008  0.3837800E+03  0.7957747E-01  0.3434863E+00
         13   -1    0    0    0    0  0.00000000000E+00  0.00000000000E+00  0.14999999963E+04  0.15000000000E+04  0.10566000000E+00 0.  1.
        994   -1    0    0    0    0 -0.00000000000E+00 -0.00000000000E+00  0.11368683772E-12  0.17120000000E+03  0.17120000000E+03 0.  0.
         13    1    1    2    0    0 -0.48147712398E+01 -0.13050059578E+02  0.42161592919E+02  0.44397039976E+02  0.10566000000E+00 0.  1.
        994    1    1    2    0    0  0.54269617338E+01  0.10774970846E+02  0.27177961372E+01  0.17164608451E+03  0.17120000000E+03 0.  0.
        998    1    1    2    0    0 -0.61219049402E+00  0.22750887322E+01  0.14551206072E+04  0.14551568755E+04  0.10000000000E+02 0.  1.
</event>
<event>
 5    1  0.1488417E-008  0.3843104E+03  0.7957747E-01  0.3432602E+00
         13   -1    0    0    0    0  0.00000000000E+00  0.00000000000E+00  0.14999999963E+04  0.15000000000E+04  0.10566000000E+00 0. -1.
        994   -1    0    0    0    0 -0.00000000000E+00 -0.00000000000E+00  0.11368683772E-12  0.17120000000E+03  0.17120000000E+03 0.  0.
         13    1    1    2    0    0 -0.92992680511E+01  0.59552775325E+01  0.29821048151E+02  0.31800122541E+02  0.10566000000E+00 0. -1.
        994    1    1    2    0    0  0.11076385365E+02 -0.57704861908E+01  0.24872017644E+01  0.17167297690E+03  0.17120000000E+03 0.  0.
        998    1    1    2    0    0 -0.17771173140E+01 -0.18479134163E+00  0.14676917464E+04  0.14677269006E+04  0.10000000000E+02 0. -1.
</event>
<event>
 5    1  0.1488417E-008  0.3859622E+03  0.7957747E-01  0.3425601E+00
         13   -1    0    0    0    0  0.00000000000E+00  0.00000000000E+00  0.14999999963E+04  0.15000000000E+04  0.10566000000E+00 0.  1.
        994   -1    0    0    0    0 -0.00000000000E+00 -0.00000000000E+00  0.11368683772E-12  0.17120000000E+03  0.17120000000E+03 0.  0.
         13    1    1    2    0    0 -0.10607769990E+02  0.97494897657E+01  0.79413702782E+02  0.80710127545E+02  0.10566000000E+00 0.  1.
        994    1    1    2    0    0  0.23071944697E+02 -0.13789528693E+02  0.35252903458E+01  0.17333301303E+03  0.17120000000E+03 0.  0.
        998    1    1    2    0    0 -0.12464174707E+02  0.40400389271E+01  0.14170610032E+04  0.14171568594E+04  0.10000000000E+02 0.  1.
</event>
<event>
 5    1  0.1488417E-008  0.3810806E+03  0.7957747E-01  0.3446467E+00
         13   -1    0    0    0    0  0.00000000000E+00  0.00000000000E+00  0.14999999963E+04  0.15000000000E+04  0.10566000000E+00 0.  1.
        994   -1    0    0    0    0 -0.00000000000E+00 -0.00000000000E+00  0.11368683772E-12  0.17120000000E+03  0.17120000000E+03 0.  0.
         13    1    1    2    0    0  0.14921498450E+02 -0.20328276285E+02  0.10055230769E+03  0.10366613564E+03  0.10566000000E+00 0.  1.
        994    1    1    2    0    0 -0.94625741464E+01 -0.18347330280E+02  0.50094878936E+01  0.17251289751E+03  0.17120000000E+03 0.  0.
        998    1    1    2    0    0 -0.54589243032E+01  0.38675606565E+02  0.13944382007E+04  0.13950209668E+04  0.10000000000E+02 0.  1.
</event>
<event>
 5    1  0.1488417E-008  0.3767735E+03  0.7957747E-01  0.3465329E+00
         13   -1    0    0    0    0  0.00000000000E+00  0.00000000000E+00  0.14999999963E+04  0.15000000000E+04  0.10566000000E+00 0. -1.
        994   -1    0    0    0    0 -0.00000000000E+00 -0.00000000000E+00  0.11368683772E-12  0.17120000000E+03  0.17120000000E+03 0.  0.
         13    1    1    2    0    0  0.15116229472E+02  0.14524762211E+01  0.18087922680E+02  0.23617666937E+02  0.10566000000E+00 0. -1.
        994    1    1    2    0    0  0.25852570826E+01  0.57642080586E+01  0.59056748892E+01  0.17141827979E+03  0.17120000000E+03 0.  0.
        998    1    1    2    0    0 -0.17701486555E+02 -0.72166842797E+01  0.14760063987E+04  0.14761640533E+04  0.10000000000E+02 0. -1.
</event>
<event>
 5    1  0.1488417E-008  0.3720965E+03  0.7957747E-01  0.3486311E+00
         13   -1    0    0    0    0  0.00000000000E+00  0.00000000000E+00  0.14999999963E+04  0.15000000000E+04  0.10566000000E+00 0.  1.
        994   -1    0    0    0    0 -0.00000000000E+00 -0.00000000000E+00  0.11368683772E-12  0.17120000000E+03  0.17120000000E+03 0.  0.
         13    1    1    2    0    0 -0.12551388301E+02  0.54479178364E+01  0.79949927690E+01  0.15847656939E+02  0.10566000000E+00 0.  1.
        994    1    1    2    0    0  0.78384053564E+00  0.11216737105E+02  0.86114658831E+01  0.17178482745E+03  0.17120000000E+03 0.  0.
        998    1    1    2    0    0  0.11767547766E+02 -0.16664654941E+02  0.14833935376E+04  0.14835675156E+04  0.10000000000E+02 0.  1.
</event>
<event>
 5    1  0.1488417E-008  0.3818032E+03  0.7957747E-01  0.3443344E+00
         13   -1    0    0    0    0  0.00000000000E+00  0.00000000000E+00  0.14999999963E+04  0.15000000000E+04  0.10566000000E+00 0.  1.
        994   -1    0    0    0    0 -0.00000000000E+00 -0.00000000000E+00  0.11368683772E-12  0.17120000000E+03  0.17120000000E+03 0.  0.
         13    1    1    2    0    0 -0.24926399722E+02 -0.16334835285E+02  0.15014768515E+03  0.15307674796E+03  0.10566000000E+00 0.  1.
        994    1    1    2    0    0  0.13765619450E+01  0.63042483136E+01  0.33640553708E+01  0.17135458949E+03  0.17120000000E+03 0.  0.
        998    1    1    2    0    0  0.23549837777E+02  0.10030586972E+02  0.13464882558E+04  0.13467686626E+04  0.10000000000E+02 0.  1.
</event>
<event>
 5    1  0.1488417E-008  0.3797951E+03  0.7957747E-01  0.3452051E+00
         13   -1    0    0    0    0  0.00000000000E+00  0.00000000000E+00  0.14999999963E+04  0.15000000000E+04  0.10566000000E+00 0.  1.
        994   -1    0    0    0    0 -0.00000000000E+00 -0.00000000000E+00  0.11368683772E-12  0.17120000000E+03  0.17120000000E+03 0.  0.
         13    1    1    2    0    0  0.17866331494E+02  0.15020383656E+02  0.63661104789E+02  0.67805347527E+02  0.10566000000E+00 0.  1.
        994    1    1    2    0    0 -0.12191563405E+02 -0.32501667688E+01  0.47693547796E+01  0.17173055799E+03  0.17120000000E+03 0.  0.
        998    1    1    2    0    0 -0.56747680891E+01 -0.11770216887E+02  0.14315695367E+04  0.14316640945E+04  0.10000000000E+02 0.  1.
</event>
<event>
 5    1  0.1488417E-008  0.3699426E+03  0.7957747E-01  0.3496155E+00
         13   -1    0    0    0    0  0.00000000000E+00  0.00000000000E+00  0.14999999963E+04  0.15000000000E+04  0.10566000000E+00 0.  1.
        994   -1    0    0    0    0 -0.00000000000E+00 -0.00000000000E+00  0.11368683772E-12  0.17120000000E+03  0.17120000000E+03 0.  0.
         13    1    1    2    0    0 -0.86408867531E+01 -0.34357947193E+02  0.60924908294E+02  0.70476869070E+02  0.10566000000E+00 0.  1.
        994    1    1    2    0    0  0.91083793433E+01  0.38088567366E+02  0.14621809518E+02  0.17622978991E+03  0.17120000000E+03 0.  0.
        998    1    1    2    0    0 -0.46749259022E+00 -0.37306201732E+01  0.14244532785E+04  0.14244933410E+04  0.10000000000E+02 0.  1.
</event>
<event>
 5    1  0.1488417E-008  0.3821658E+03  0.7957747E-01  0.3441782E+00
         13   -1    0    0    0    0  0.00000000000E+00  0.00000000000E+00  0.14999999963E+04  0.15000000000E+04  0.10566000000E+00 0. -1.
        994   -1    0    0    0    0 -0.00000000000E+00 -0.00000000000E+00  0.11368683772E-12  0.17120000000E+03  0.17120000000E+03 0.  0.
         13    1    1    2    0    0 -0.99901949847E+01  0.12773269460E+02  0.47645429236E+02  0.50329499298E+02  0.10566000000E+00 0. -1.
        994    1    1    2    0    0 -0.66814569814E+01  0.18086020516E+02  0.42787160342E+01  0.17233540964E+03  0.17120000000E+03 0.  0.
        998    1    1    2    0    0  0.16671651966E+02 -0.30859289976E+02  0.14480758510E+04  0.14485350911E+04  0.10000000000E+02 0. -1.
</event>
<event>
 5    1  0.1488417E-008  0.3793120E+03  0.7957747E-01  0.3454160E+00
         13   -1    0    0    0    0  0.00000000000E+00  0.00000000000E+00  0.14999999963E+04  0.15000000000E+04  0.10566000000E+00 0.  1.
        994   -1    0    0    0    0 -0.00000000000E+00 -0.00000000000E+00  0.11368683772E-12  0.17120000000E+03  0.17120000000E+03 0.  0.
         13    1    1    2    0    0  0.28342890393E+02 -0.19254282247E+02  0.11806189068E+03  0.12293359189E+03  0.10566000000E+00 0.  1.
        994    1    1    2    0    0 -0.21133583202E+02  0.36528129498E+02  0.10471143447E+02  0.17663526666E+03  0.17120000000E+03 0.  0.
        998    1    1    2    0    0 -0.72093071906E+01 -0.17273847250E+02  0.13714669622E+04  0.13716311414E+04  0.10000000000E+02 0.  1.
</event>
<event>
 5    1  0.1488417E-008  0.3844521E+03  0.7957747E-01  0.3431999E+00
         13   -1    0    0    0    0  0.00000000000E+00  0.00000000000E+00  0.14999999963E+04  0.15000000000E+04  0.10566000000E+00 0. -1.
        994   -1    0    0    0    0 -0.00000000000E+00 -0.00000000000E+00  0.11368683772E-12  0.17120000000E+03  0.17120000000E+03 0.  0.
         13    1    1    2    0    0  0.38584581540E+01 -0.24531956915E+02  0.14856131990E+03  0.15062264618E+03  0.10566000000E+00 0. -1.
        994    1    1    2    0    0  0.26434821730E-01  0.25064413350E+02  0.39748271005E+01  0.17307069297E+03  0.17120000000E+03 0.  0.
        998    1    1    2    0    0 -0.38848929757E+01 -0.53245643495E+00  0.13474638493E+04  0.13475066608E+04  0.10000000000E+02 0. -1.
</event>
<event>
 5    1  0.1488417E-008  0.3856902E+03  0.7957747E-01  0.3426750E+00
         13   -1    0    0    0    0  0.00000000000E+00  0.00000000000E+00  0.14999999963E+04  0.15000000000E+04  0.10566000000E+00 0.  1.
        994   -1    0    0    0    0 -0.00000000000E+00 -0.00000000000E+00  0.11368683772E-12  0.17120000000E+03  0.17120000000E+03 0.  0.
         13    1    1    2    0    0  0.80322944699E+01 -0.65121794543E+01  0.38556681011E+02  0.39919356837E+02  0.10566000000E+00 0.  1.
        994    1    1    2    0    0 -0.17445054695E+02  0.12881192695E+02  0.28324120661E+01  0.17259118638E+03  0.17120000000E+03 0.  0.
        998    1    1    2    0    0  0.94127602254E+01 -0.63690132411E+01  0.14586109032E+04  0.14586894568E+04  0.10000000000E+02 0.  1.
</event>
<event>
 5    1  0.1488417E-008  0.3761973E+03  0.7957747E-01  0.3467885E+00
         13   -1    0    0    0    0  0.00000000000E+00  0.00000000000E+00  0.14999999963E+04  0.15000000000E+04  0.10566000000E+00 0.  1.
        994   -1    0    0    0    0 -0.00000000000E+00 -0.00000000000E+00  0.11368683772E-12  0.17120000000E+03  0.17120000000E+03 0.  0.
         13    1    1    2    0    0 -0.53936893011E+01 -0.16498100622E+02  0.21916414900E+02  0.27957460803E+02  0.10566000000E+00 0.  1.
        994    1    1    2    0    0  0.67089357926E+01  0.17175177189E+02  0.72170764289E+01  0.17234129721E+03  0.17120000000E+03 0.  0.
        998    1    1    2    0    0 -0.13152464915E+01 -0.67707656692E+00  0.14708665049E+04  0.14709012420E+04  0.10000000000E+02 0.  1.
</event>
<event>
 5    1  0.1488417E-008  0.3823924E+03  0.7957747E-01  0.3440807E+00
         13   -1    0    0    0    0  0.00000000000E+00  0.00000000000E+00  0.14999999963E+04  0.15000000000E+04  0.10566000000E+00 0.  1.
        994   -1    0    0    0    0 -0.00000000000E+00 -0.00000000000E+00  0.11368683772E-12  0.17120000000E+03  0.17120000000E+03 0.  0.
         13    1    1    2    0    0  0.24128877607E+02 -0.21724795697E+02  0.16201808587E+03  0.16523934397E+03  0.10566000000E+00 0.  1.
        994    1    1    2    0    0 -0.21775697008E+02  0.23997447387E+02  0.64208618565E+01  0.17435803947E+03  0.17120000000E+03 0.  0.
        998    1    1    2    0    0 -0.23531805986E+01 -0.22726516907E+01  0.13315610485E+04  0.13316026166E+04  0.10000000000E+02 0.  1.
</event>
<event>
 5    1  0.1488417E-008  0.3819835E+03  0.7957747E-01  0.3442567E+00
         13   -1    0    0    0    0  0.00000000000E+00  0.00000000000E+00  0.14999999963E+04  0.15000000000E+04  0.10566000000E+00 0.  1.
        994   -1    0    0    0    0 -0.00000000000E+00 -0.00000000000E+00  0.11368683772E-12  0.17120000000E+03  0.17120000000E+03 0.  0.
         13    1    1    2    0    0  0.50457764216E+02  0.13109294984E+02  0.29654511774E+03  0.30109277242E+03  0.10566000000E+00 0.  1.
        994    1    1    2    0    0 -0.64830726008E+02 -0.21095272988E+02  0.18728784863E+02  0.18522483894E+03  0.17120000000E+03 0.  0.
        998    1    1    2    0    0  0.14372961792E+02  0.79859780037E+01  0.11847260937E+04  0.11848823886E+04  0.10000000000E+02 0.  1.
</event>
<event>
 5    1  0.1488417E-008  0.3715066E+03  0.7957747E-01  0.3488995E+00
         13   -1    0    0    0    0  0.00000000000E+00  0.00000000000E+00  0.14999999963E+04  0.15000000000E+04  0.10566000000E+00 0.  1.
        994   -1    0    0    0    0 -0.00000000000E+00 -0.00000000000E+00  0.11368683772E-12  0.17120000000E+03  0.17120000000E+03 0.  0.
         13    1    1    2    0    0  0.45938563625E+02  0.13201082863E+02  0.13597117752E+03  0.14412769511E+03  0.10566000000E+00 0.  1.
        994    1    1    2    0    0 -0.21004594290E+02 -0.60202705860E+01  0.10127700751E+02  0.17288564707E+03  0.17120000000E+03 0.  0.
        998    1    1    2    0    0 -0.24933969336E+02 -0.71808122769E+01  0.13539011180E+04  0.13541866578E+04  0.10000000000E+02 0.  1.
</event>
<event>
 5    1  0.1488417E-008  0.4022822E+03  0.7957747E-01  0.3359528E+00
         13   -1    0    0    0    0  0.00000000000E+00  0.00000000000E+00  0.14999999963E+04  0.15000000000E+04  0.10566000000E+00 0.  1.
        994   -1    0    0    0    0 -0.00000000000E+00 -0.00000000000E+00  0.11368683772E-12  0.17120000000E+03  0.17120000000E+03 0.  0.
         13    1    1    2    0    0 -0.34073240576E+02 -0.66990912686E+02  0.86117543776E+02  0.11430227739E+03  0.10566000000E+00 0.  1.
        994    1    1    2    0    0  0.29358519994E+02  0.55057484540E+02  0.44700096626E+02  0.18761873024E+03  0.17120000000E+03 0.  0.
        998    1    1    2    0    0  0.47147205827E+01  0.11933428147E+02  0.13691823559E+04  0.13692789924E+04  0.10000000000E+02 0.  1.
</event>
<event>
 5    1  0.1488417E-008  0.3809874E+03  0.7957747E-01  0.3446870E+00
         13   -1    0    0    0    0  0.00000000000E+00  0.00000000000E+00  0.14999999963E+04  0.15000000000E+04  0.10566000000E+00 0.  1.
        994   -1    0    0    0    0 -0.00000000000E+00 -0.00000000000E+00  0.11368683772E-12  0.17120000000E+03  0.17120000000E+03 0.  0.
         13    1    1    2    0    0 -0.12901122989E+02  0.35697772665E+01  0.24313888085E+02  0.27755334657E+02  0.10566000000E+00 0.  1.
        994    1    1    2    0    0 -0.95665305425E+01 -0.94491433064E+01  0.42382140401E+01  0.17177953101E+03  0.17120000000E+03 0.  0.
        998    1    1    2    0    0  0.22467653531E+02  0.58793660399E+01  0.14714478942E+04  0.14716651343E+04  0.10000000000E+02 0.  1.
</event>
<event>
 5    1  0.1488417E-008  0.3739469E+03  0.7957747E-01  0.3477946E+00
         13   -1    0    0    0    0  0.00000000000E+00  0.00000000000E+00  0.14999999963E+04  0.15000000000E+04  0.10566000000E+00 0.  1.
        994   -1    0    0    0    0 -0.00000000000E+00 -0.00000000000E+00  0.11368683772E-12  0.17120000000E+03  0.17120000000E+03 0.  0.
         13    1    1    2    0    0 -0.11158162253E+02 -0.90992939409E+00  0.53450364397E+01  0.12406173259E+02  0.10566000000E+00 0.  1.
        994    1    1    2    0    0  0.86693888076E+01  0.37767995217E+01  0.75256408443E+01  0.17162604053E+03  0.17120000000E+03 0.  0.
        998    1    1    2    0    0  0.24887734453E+01 -0.28668701276E+01  0.14871293190E+04  0.14871677862E+04  0.10000000000E+02 0.  1.
</event>
<event>
 5    1  0.2201468E-008  0.3860986E+03  0.7957747E-01  0.3425026E+00
         13   -1    0    0    0    0  0.00000000000E+00  0.00000000000E+00  0.14999999963E+04  0.15000000000E+04  0.10566000000E+00 0. -1.
        994   -1    0    0    0    0 -0.00000000000E+00 -0.00000000000E+00  0.11368683772E-12  0.17120000000E+03  0.17120000000E+03 0.  0.
         13    1    1    2    0    0 -0.98612538161E+00 -0.11303838158E+02  0.57579428689E+02  0.58686889273E+02  0.10566000000E+00 0. -1.
        994    1    1    2    0    0 -0.24026260587E+00  0.13617957923E+02  0.16938225944E+01  0.17174928104E+03  0.17120000000E+03 0.  0.
        998    1    1    2    0    0  0.12263879875E+01 -0.23141197648E+01  0.14407267450E+04  0.14407638297E+04  0.10000000000E+02 0. -1.
</event>
<event>
 5    1  0.1488417E-008  0.3837783E+03  0.7957747E-01  0.3434870E+00
         13   -1    0    0    0    0  0.00000000000E+00  0.00000000000E+00  0.14999999963E+04  0.15000000000E+04  0.10566000000E+00 0. -1.
        994   -1    0    0    0    0 -0.00000000000E+00 -0.00000000000E+00  0.11368683772E-12  0.17120000000E+03  0.17120000000E+03 0.  0.
         13    1    1    2    0    0  0.38634058440E+01  0.12562650042E+02  0.38897577523E+02  0.41058236470E+02  0.10566000000E+00 0. -1.
        994    1    1    2    0    0 -0.15170640215E+01 -0.31223441121E+01  0.22776981573E+01  0.17125033847E+03  0.17120000000E+03 0.  0.
        998    1    1    2    0    0 -0.23463418225E+01 -0.94403059304E+01  0.14588247206E+04  0.14588914251E+04  0.10000000000E+02 0. -1.
</event>
<event>
 5    1  0.1488417E-008  0.3718510E+03  0.7957747E-01  0.3487427E+00
         13   -1    0    0    0    0  0.00000000000E+00  0.00000000000E+00  0.14999999963E+04  0.15000000000E+04  0.10566000000E+00 0. -1.
        994   -1    0    0    0    0 -0.00000000000E+00 -0.00000000000E+00  0.11368683772E-12  0.17120000000E+03  0.17120000000E+03 0.  0.
         13    1    1    2    0    0 -0.86496790100E+02  0.16114114629E+02  0.36544626136E+03  0.37588873420E+03  0.10566000000E+00 0. -1.
        994    1    1    2    0    0  0.80585596825E+02 -0.14866717948E+02  0.31741392030E+02  0.19243703824E+03  0.17120000000E+03 0.  0.
        998    1    1    2    0    0  0.59111932744E+01 -0.12473966809E+01  0.11028123429E+04  0.11028742276E+04  0.10000000000E+02 0. -1.
</event>
<event>
 5    1  0.1488417E-008  0.3780644E+03  0.7957747E-01  0.3459630E+00
         13   -1    0    0    0    0  0.00000000000E+00  0.00000000000E+00  0.14999999963E+04  0.15000000000E+04  0.10566000000E+00 0. -1.
        994   -1    0    0    0    0 -0.00000000000E+00 -0.00000000000E+00  0.11368683772E-12  0.17120000000E+03  0.17120000000E+03 0.  0.
         13    1    1    2    0    0 -0.13412686882E+03 -0.32436241466E+02  0.45408932032E+03  0.47459377229E+03  0.10566000000E+00 0. -1.
        994    1    1    2    0    0  0.11896082445E+03  0.42518676566E+02  0.75185333408E+02  0.22565856946E+03  0.17120000000E+03 0.  0.
        998    1    1    2    0    0  0.15166044367E+02 -0.10082435100E+02  0.97072534255E+03  0.97094765825E+03  0.10000000000E+02 0.  0.
</event>
<event>
 5    1  0.1488417E-008  0.3842416E+03  0.7957747E-01  0.3432895E+00
         13   -1    0    0    0    0  0.00000000000E+00  0.00000000000E+00  0.14999999963E+04  0.15000000000E+04  0.10566000000E+00 0. -1.
        994   -1    0    0    0    0 -0.00000000000E+00 -0.00000000000E+00  0.11368683772E-12  0.17120000000E+03  0.17120000000E+03 0.  0.
         13    1    1    2    0    0  0.57904763074E+01  0.94533411975E+01  0.30296460477E+02  0.32261152446E+02  0.10566000000E+00 0. -1.
        994    1    1    2    0    0  0.95170533190E+00 -0.76342810427E+01  0.22022993601E+01  0.17138692515E+03  0.17120000000E+03 0.  0.
        998    1    1    2    0    0 -0.67421816393E+01 -0.18190601548E+01  0.14675012364E+04  0.14675519224E+04  0.10000000000E+02 0. -1.
</event>
<event>
 5    1  0.1488417E-008  0.3832732E+03  0.7957747E-01  0.3437029E+00
         13   -1    0    0    0    0  0.00000000000E+00  0.00000000000E+00  0.14999999963E+04  0.15000000000E+04  0.10566000000E+00 0.  1.
        994   -1    0    0    0    0 -0.00000000000E+00 -0.00000000000E+00  0.11368683772E-12  0.17120000000E+03  0.17120000000E+03 0.  0.
         13    1    1    2    0    0  0.16168508897E+02 -0.17278468888E+02  0.11763652167E+03  0.11999303547E+03  0.10566000000E+00 0.  1.
        994    1    1    2    0    0  0.24768574845E-01  0.10108338531E+02  0.28278935947E+01  0.17152147418E+03  0.17120000000E+03 0.  0.
        998    1    1    2    0    0 -0.16193277472E+02  0.71701303572E+01  0.13795355810E+04  0.13796854904E+04  0.10000000000E+02 0.  1.
</event>
<event>
 5    1  0.1488417E-008  0.3736382E+03  0.7957747E-01  0.3479336E+00
         13   -1    0    0    0    0  0.00000000000E+00  0.00000000000E+00  0.14999999963E+04  0.15000000000E+04  0.10566000000E+00 0.  1.
        994   -1    0    0    0    0 -0.00000000000E+00 -0.00000000000E+00  0.11368683772E-12  0.17120000000E+03  0.17120000000E+03 0.  0.
         13    1    1    2    0    0 -0.40770578351E+01 -0.11731755263E+03  0.56998359470E+03  0.58194616584E+03  0.10566000000E+00 0.  1.
        994    1    1    2    0    0  0.29683147209E+02  0.11584433521E+03  0.57908301001E+02  0.21671135308E+03  0.17120000000E+03 0.  0.
        998    1    1    2    0    0 -0.25606089374E+02  0.14732174193E+01  0.87210810058E+03  0.87254248108E+03  0.10000000000E+02 0.  1.
</event>
<event>
 5    1  0.1488417E-008  0.3815535E+03  0.7957747E-01  0.3444422E+00
         13   -1    0    0    0    0  0.00000000000E+00  0.00000000000E+00  0.14999999963E+04  0.15000000000E+04  0.10566000000E+00 0.  1.
        994   -1    0    0    0    0 -0.00000000000E+00 -0.00000000000E+00  0.11368683772E-12  0.17120000000E+03  0.17120000000E+03 0.  0.
         13    1    1    2    0    0  0.53255484720E+02  0.45969551628E+02  0.37181571464E+03  0.37841284749E+03  0.10566000000E+00 0.  1.
        994    1    1    2    0    0 -0.85261877727E+02 -0.63115230701E+02  0.41728668118E+02  0.20567897774E+03  0.17120000000E+03 0.  0.
        998    1    1    2    0    0  0.32006393007E+02  0.17145679073E+02  0.10864556135E+04  0.10871081748E+04  0.10000000000E+02 0.  1.
</event>
<event>
 5    1  0.1488417E-008  0.3777476E+03  0.7957747E-01  0.3461025E+00
         13   -1    0    0    0    0  0.00000000000E+00  0.00000000000E+00  0.14999999963E+04  0.15000000000E+04  0.10566000000E+00 0.  1.
        994   -1    0    0    0    0 -0.00000000000E+00 -0.00000000000E+00  0.11368683772E-12  0.17120000000E+03  0.17120000000E+03 0.  0.
         13    1    1    2    0    0  0.41754859626E+02  0.14265152631E+02  0.20117986140E+03  0.20596191560E+03  0.10566000000E+00 0.  1.
        994    1    1    2    0    0 -0.82658556109E+01 -0.10987151962E+02  0.59114300550E+01  0.17185292224E+03  0.17120000000E+03 0.  0.
        998    1    1    2    0    0 -0.33489004015E+02 -0.32780006692E+01  0.12929087048E+04  0.12933851622E+04  0.10000000000E+02 0.  1.
</event>
<event>
 5    1  0.1488417E-008  0.3840693E+03  0.7957747E-01  0.3433629E+00
         13   -1    0    0    0    0  0.00000000000E+00  0.00000000000E+00  0.14999999963E+04  0.15000000000E+04  0.10566000000E+00 0. -1.
        994   -1    0    0    0    0 -0.00000000000E+00 -0.00000000000E+00  0.11368683772E-12  0.17120000000E+03  0.17120000000E+03 0.  0.
         13    1    1    2    0    0  0.59189868637E+01 -0.13422090891E+02  0.51570732970E+02  0.53616588780E+02  0.10566000000E+00 0. -1.
        994    1    1    2    0    0 -0.59768725091E+01  0.54702805152E+01  0.23094676642E+01  0.17140717784E+03  0.17120000000E+03 0.  0.
        998    1    1    2    0    0  0.57885645387E-01  0.79518103755E+01  0.14461197956E+04  0.14461762334E+04  0.10000000000E+02 0. -1.
</event>
<event>
 5    1  0.1488417E-008  0.3853713E+03  0.7957747E-01  0.3428099E+00
         13   -1    0    0    0    0  0.00000000000E+00  0.00000000000E+00  0.14999999963E+04  0.15000000000E+04  0.10566000000E+00 0. -1.
        994   -1    0    0    0    0 -0.00000000000E+00 -0.00000000000E+00  0.11368683772E-12  0.17120000000E+03  0.17120000000E+03 0.  0.
         13    1    1    2    0    0 -0.10168424653E+02  0.72294913942E+01  0.55094938459E+02  0.56490050572E+02  0.10566000000E+00 0. -1.
        994    1    1    2    0    0  0.36064220690E+01 -0.37352228053E+01  0.15344830540E+01  0.17128558844E+03  0.17120000000E+03 0.  0.
        998    1    1    2    0    0  0.65620025839E+01 -0.34942685889E+01  0.14433705748E+04  0.14434243610E+04  0.10000000000E+02 0. -1.
</event>
<event>
 5    1  0.1488417E-008  0.3832602E+03  0.7957747E-01  0.3437084E+00
         13   -1    0    0    0    0  0.00000000000E+00  0.00000000000E+00  0.14999999963E+04  0.15000000000E+04  0.10566000000E+00 0. -1.
        994   -1    0    0    0    0 -0.00000000000E+00 -0.00000000000E+00  0.11368683772E-12  0.17120000000E+03  0.17120000000E+03 0.  0.
         13    1    1    2    0    0  0.86148700763E+01 -0.25086847180E+02  0.15181704140E+03  0.15411680995E+03  0.10566000000E+00 0. -1.
        994    1    1    2    0    0 -0.64923269294E+01  0.43234143713E+01  0.26976269344E+01  0.17139883142E+03  0.17120000000E+03 0.  0.
        998    1    1    2    0    0 -0.21225431468E+01  0.20763432808E+02  0.13454853279E+04  0.13456843586E+04  0.10000000000E+02 0. -1.
</event>
<event>
 5    1  0.1488417E-008  0.3830151E+03  0.7957747E-01  0.3438134E+00
         13   -1    0    0    0    0  0.00000000000E+00  0.00000000000E+00  0.14999999963E+04  0.15000000000E+04  0.10566000000E+00 0. -1.
        994   -1    0    0    0    0 -0.00000000000E+00 -0.00000000000E+00  0.11368683772E-12  0.17120000000E+03  0.17120000000E+03 0.  0.
         13    1    1    2    0    0 -0.14578226703E+02 -0.47133960169E+01  0.45113262769E+02  0.47644080823E+02  0.10566000000E+00 0. -1.
        994    1    1    2    0    0  0.38398372165E+01  0.27223532083E+01  0.26921635537E+01  0.17128585260E+03  0.17120000000E+03 0.  0.
        998    1    1    2    0    0  0.10738389486E+02  0.19910428086E+01  0.14521945700E+04  0.14522700666E+04  0.10000000000E+02 0. -1.
</event>
<event>
 5    1  0.1488417E-008  0.3822132E+03  0.7957747E-01  0.3441578E+00
         13   -1    0    0    0    0  0.00000000000E+00  0.00000000000E+00  0.14999999963E+04  0.15000000000E+04  0.10566000000E+00 0.  1.
        994   -1    0    0    0    0 -0.00000000000E+00 -0.00000000000E+00  0.11368683772E-12  0.17120000000E+03  0.17120000000E+03 0.  0.
         13    1    1    2    0    0 -0.16992348441E+02  0.24365315676E+02  0.17216221473E+03  0.17470617579E+03  0.10566000000E+00 0.  1.
        994    1    1    2    0    0  0.18500666390E+01  0.55046094785E+01  0.31320169391E+01  0.17132709360E+03  0.17120000000E+03 0.  0.
        998    1    1    2    0    0  0.15142281802E+02 -0.29869925154E+02  0.13247057646E+04  0.13251667306E+04  0.10000000000E+02 0.  1.
</event>
<event>
 5    1  0.1488417E-008  0.3780721E+03  0.7957747E-01  0.3459596E+00
         13   -1    0    0    0    0  0.00000000000E+00  0.00000000000E+00  0.14999999963E+04  0.15000000000E+04  0.10566000000E+00 0. -1.
        994   -1    0    0    0    0 -0.00000000000E+00 -0.00000000000E+00  0.11368683772E-12  0.17120000000E+03  0.17120000000E+03 0.  0.
         13    1    1    2    0    0 -0.18641134135E+02 -0.61149630358E+02  0.34410665758E+03  0.34999453157E+03  0.10566000000E+00 0. -1.
        994    1    1    2    0    0  0.85493405591E+01  0.52376365880E+02  0.14644000573E+02  0.17983398366E+03  0.17120000000E+03 0.  0.
        998    1    1    2    0    0  0.10091793576E+02  0.87732644775E+01  0.11412493381E+04  0.11413714848E+04  0.10000000000E+02 0.  1.
</event>
<event>
 5    1  0.1488417E-008  0.3835288E+03  0.7957747E-01  0.3435936E+00
         13   -1    0    0    0    0  0.00000000000E+00  0.00000000000E+00  0.14999999963E+04  0.15000000000E+04  0.10566000000E+00 0. -1.
        994   -1    0    0    0    0 -0.00000000000E+00 -0.00000000000E+00  0.11368683772E-12  0.17120000000E+03  0.17120000000E+03 0.  0.
         13    1    1    2    0    0  0.11504737415E+02  0.11934707430E+02  0.58292824514E+02  0.60604131693E+02  0.10566000000E+00 0. -1.
        994    1    1    2    0    0 -0.52001824784E+01 -0.65768915869E+01  0.25946512252E+01  0.17142482205E+03  0.17120000000E+03 0.  0.
        998    1    1    2    0    0 -0.63045549364E+01 -0.53578158427E+01  0.14391125205E+04  0.14391710463E+04  0.10000000000E+02 0. -1.
</event>
<event>
 5    1  0.1488417E-008  0.3816495E+03  0.7957747E-01  0.3444008E+00
         13   -1    0    0    0    0  0.00000000000E+00  0.00000000000E+00  0.14999999963E+04  0.15000000000E+04  0.10566000000E+00 0. -1.
        994   -1    0    0    0    0 -0.00000000000E+00 -0.00000000000E+00  0.11368683772E-12  0.17120000000E+03  0.17120000000E+03 0.  0.
         13    1    1    2    0    0 -0.21760831461E+02  0.45591529475E+01  0.70963369661E+02  0.74364848277E+02  0.10566000000E+00 0. -1.
        994    1    1    2    0    0  0.15322393214E+02 -0.38049582419E+02  0.89172152139E+01  0.17627110706E+03  0.17120000000E+03 0.  0.
        998    1    1    2    0    0  0.64384382462E+01  0.33490429472E+02  0.14201194114E+04  0.14205640447E+04  0.10000000000E+02 0. -1.
</event>
<event>
 5    1  0.1488417E-008  0.3822029E+03  0.7957747E-01  0.3441622E+00
         13   -1    0    0    0    0  0.00000000000E+00  0.00000000000E+00  0.14999999963E+04  0.15000000000E+04  0.10566000000E+00 0.  1.
        994   -1    0    0    0    0 -0.00000000000E+00 -0.00000000000E+00  0.11368683772E-12  0.17120000000E+03  0.17120000000E+03 0.  0.
         13    1    1    2    0    0 -0.28501775216E+02  0.83547604976E+01  0.13439588535E+03  0.13763872411E+03  0.10566000000E+00 0.  1.
        994    1    1    2    0    0  0.29379331042E+02 -0.21433670692E+01  0.59103942760E+01  0.17381631648E+03  0.17120000000E+03 0.  0.
        998    1    1    2    0    0 -0.87755582608E+00 -0.62113934284E+01  0.13596937167E+04  0.13597449594E+04  0.10000000000E+02 0.  0.
</event>
<event>
 5    1  0.1488417E-008  0.3857264E+03  0.7957747E-01  0.3426597E+00
         13   -1    0    0    0    0  0.00000000000E+00  0.00000000000E+00  0.14999999963E+04  0.15000000000E+04  0.10566000000E+00 0.  1.
        994   -1    0    0    0    0 -0.00000000000E+00 -0.00000000000E+00  0.11368683772E-12  0.17120000000E+03  0.17120000000E+03 0.  0.
         13    1    1    2    0    0  0.10573458529E+02  0.39003383356E+01  0.47856462039E+02  0.49165666754E+02  0.10566000000E+00 0.  1.
        994    1    1    2    0    0 -0.15801940864E+02 -0.34508210240E+01  0.21287029379E+01  0.17197552406E+03  0.17120000000E+03 0.  0.
        998    1    1    2    0    0  0.52284823359E+01 -0.44951731162E+00  0.14500148313E+04  0.14500588092E+04  0.10000000000E+02 0.  1.
</event>
<event>
 5    1  0.1488417E-008  0.3825289E+03  0.7957747E-01  0.3440220E+00
         13   -1    0    0    0    0  0.00000000000E+00  0.00000000000E+00  0.14999999963E+04  0.15000000000E+04  0.10566000000E+00 0. -1.
        994   -1    0    0    0    0 -0.00000000000E+00 -0.00000000000E+00  0.11368683772E-12  0.17120000000E+03  0.17120000000E+03 0.  0.
         13    1    1    2    0    0 -0.23612869285E+02  0.73091529338E+00  0.10432612649E+03  0.10696753557E+03  0.10566000000E+00 0. -1.
        994    1    1    2    0    0  0.21587535212E+01 -0.87802839977E+01  0.31330488758E+01  0.17146722602E+03  0.17120000000E+03 0.  0.
        998    1    1    2    0    0  0.21454115763E+02  0.80493687043E+01  0.13925408209E+04  0.13927652384E+04  0.10000000000E+02 0. -1.
</event>
<event>
 5    1  0.1488417E-008  0.3689600E+03  0.7957747E-01  0.3500684E+00
         13   -1    0    0    0    0  0.00000000000E+00  0.00000000000E+00  0.14999999963E+04  0.15000000000E+04  0.10566000000E+00 0.  1.
        994   -1    0    0    0    0 -0.00000000000E+00 -0.00000000000E+00  0.11368683772E-12  0.17120000000E+03  0.17120000000E+03 0.  0.
         13    1    1    2    0    0 -0.19349493059E+02 -0.73117093236E+01  0.16612973910E+02  0.26530473819E+02  0.10566000000E+00 0.  1.
        994    1    1    2    0    0  0.32310839291E+01 -0.42805717574E+01  0.10490160311E+02  0.17160491444E+03  0.17120000000E+03 0.  0.
        998    1    1    2    0    0  0.16118409130E+02  0.11592281081E+02  0.14728968621E+04  0.14730646117E+04  0.10000000000E+02 0.  1.
</event>
<event>
 5    1  0.1488417E-008  0.3783920E+03  0.7957747E-01  0.3458190E+00
         13   -1    0    0    0    0  0.00000000000E+00  0.00000000000E+00  0.14999999963E+04  0.15000000000E+04  0.10566000000E+00 0. -1.
        994   -1    0    0    0    0 -0.00000000000E+00 -0.00000000000E+00  0.11368683772E-12  0.17120000000E+03  0.17120000000E+03 0.  0.
         13    1    1    2    0    0  0.17577021308E+02  0.54585727576E+02  0.31616000113E+03  0.32131870598E+03  0.10566000000E+00 0. -1.
        994    1    1    2    0    0  0.33220000233E+02 -0.54963018007E+02  0.18936057145E+02  0.18382740825E+03  0.17120000000E+03 0.  0.
        998    1    1    2    0    0 -0.50797021541E+02  0.37729043122E+00  0.11649039380E+04  0.11660538858E+04  0.10000000000E+02 0. -1.
</event>
<event>
 5    1  0.1488417E-008  0.3852545E+03  0.7957747E-01  0.3428593E+00
         13   -1    0    0    0    0  0.00000000000E+00  0.00000000000E+00  0.14999999963E+04  0.15000000000E+04  0.10566000000E+00 0.  1.
        994   -1    0    0    0    0 -0.00000000000E+00 -0.00000000000E+00  0.11368683772E-12  0.17120000000E+03  0.17120000000E+03 0.  0.
         13    1    1    2    0    0  0.15411364643E+02 -0.42520035689E+01  0.74411002237E+02  0.76109119771E+02  0.10566000000E+00 0.  1.
        994    1    1    2    0    0 -0.38509114940E+02 -0.21314416712E+02  0.78955973003E+01  0.17694359765E+03  0.17120000000E+03 0.  0.
        998    1    1    2    0    0  0.23097750297E+02  0.25566420281E+02  0.14176933967E+04  0.14181472826E+04  0.10000000000E+02 0.  1.
</event>
<event>
 5    1  0.1488417E-008  0.3861410E+03  0.7957747E-01  0.3424847E+00
         13   -1    0    0    0    0  0.00000000000E+00  0.00000000000E+00  0.14999999963E+04  0.15000000000E+04  0.10566000000E+00 0. -1.
        994   -1    0    0    0    0 -0.00000000000E+00 -0.00000000000E+00  0.11368683772E-12  0.17120000000E+03  0.17120000000E+03 0.  0.
         13    1    1    2    0    0  0.81764547549E+01 -0.60219743546E+01  0.48708208488E+02  0.49755595923E+02  0.10566000000E+00 0. -1.
        994    1    1    2    0    0 -0.24433811402E+01  0.10424989310E+02  0.14404547076E+01  0.17154056495E+03  0.17120000000E+03 0.  0.
        998    1    1    2    0    0 -0.57330736148E+01 -0.44030149553E+01  0.14498513331E+04  0.14499038391E+04  0.10000000000E+02 0. -1.
</event>
<event>
 5    1  0.1488417E-008  0.3747716E+03  0.7957747E-01  0.3474245E+00
         13   -1    0    0    0    0  0.00000000000E+00  0.00000000000E+00  0.14999999963E+04  0.15000000000E+04  0.10566000000E+00 0.  1.
        994   -1    0    0    0    0 -0.00000000000E+00 -0.00000000000E+00  0.11368683772E-12  0.17120000000E+03  0.17120000000E+03 0.  0.
         13    1    1    2    0    0 -0.14834645004E+02  0.15782680679E+02  0.31524175498E+02  0.38248457572E+02  0.10566000000E+00 0.  1.
        994    1    1    2    0    0  0.97965472807E+01 -0.14476222574E+02  0.78361138668E+01  0.17226833150E+03  0.17120000000E+03 0.  0.
        998    1    1    2    0    0  0.50380977229E+01 -0.13064581045E+01  0.14606397069E+04  0.14606832109E+04  0.10000000000E+02 0.  0.
</event>
<event>
 5    1  0.1488417E-008  0.3848964E+03  0.7957747E-01  0.3430112E+00
         13   -1    0    0    0    0  0.00000000000E+00  0.00000000000E+00  0.14999999963E+04  0.15000000000E+04  0.10566000000E+00 0.  1.
        994   -1    0    0    0    0 -0.00000000000E+00 -0.00000000000E+00  0.11368683772E-12  0.17120000000E+03  0.17120000000E+03 0.  0.
         13    1    1    2    0    0  0.95505754783E+01  0.99964410061E+01  0.56025458719E+02  0.57706199957E+02  0.10566000000E+00 0.  1.
        994    1    1    2    0    0 -0.77586525917E+01 -0.84008861699E+01  0.21119086977E+01  0.17159449798E+03  0.17120000000E+03 0.  0.
        998    1    1    2    0    0 -0.17919228866E+01 -0.15955548362E+01  0.14418626289E+04  0.14418993021E+04  0.10000000000E+02 0.  1.
</event>
<event>
 5    1  0.1488417E-008  0.3840996E+03  0.7957747E-01  0.3433500E+00
         13   -1    0    0    0    0  0.00000000000E+00  0.00000000000E+00  0.14999999963E+04  0.15000000000E+04  0.10566000000E+00 0. -1.
        994   -1    0    0    0    0 -0.00000000000E+00 -0.00000000000E+00  0.11368683772E-12  0.17120000000E+03  0.17120000000E+03 0.  0.
         13    1    1    2    0    0  0.67208060105E+01 -0.99002692286E+01  0.33219750304E+02  0.35309312348E+02  0.10566000000E+00 0. -1.
        994    1    1    2    0    0 -0.88439874925E+01  0.99656326159E+01  0.26636104709E+01  0.17173836138E+03  0.17120000000E+03 0.  0.
        998    1    1    2    0    0  0.21231814819E+01 -0.65363387296E-01  0.14641166355E+04  0.14641523263E+04  0.10000000000E+02 0. -1.
</event>
<event>
 5    1  0.1488417E-008  0.3770784E+03  0.7957747E-01  0.3463979E+00
         13   -1    0    0    0    0  0.00000000000E+00  0.00000000000E+00  0.14999999963E+04  0.15000000000E+04  0.10566000000E+00 0.  1.
        994   -1    0    0    0    0 -0.00000000000E+00 -0.00000000000E+00  0.11368683772E-12  0.17120000000E+03  0.17120000000E+03 0.  0.
         13    1    1    2    0    0  0.19220784062E+02 -0.72158601503E+01  0.36876776184E+02  0.42206811813E+02  0.10566000000E+00 0.  1.
        994    1    1    2    0    0  0.34508452766E+01  0.62776247279E+01  0.57885328704E+01  0.17144755472E+03  0.17120000000E+03 0.  0.
        998    1    1    2    0    0 -0.22671629339E+02  0.93823542248E+00  0.14573346872E+04  0.14575456335E+04  0.10000000000E+02 0.  1.
</event>
<event>
 5    1  0.1488417E-008  0.3837300E+03  0.7957747E-01  0.3435076E+00
         13   -1    0    0    0    0  0.00000000000E+00  0.00000000000E+00  0.14999999963E+04  0.15000000000E+04  0.10566000000E+00 0.  1.
        994   -1    0    0    0    0 -0.00000000000E+00 -0.00000000000E+00  0.11368683772E-12  0.17120000000E+03  0.17120000000E+03 0.  0.
         13    1    1    2    0    0 -0.57493783054E+01 -0.92093104661E+01  0.24751684211E+02  0.27028203520E+02  0.10566000000E+00 0.  1.
        994    1    1    2    0    0  0.11601627778E+01  0.15864834622E+02  0.30980117605E+01  0.17196533555E+03  0.17120000000E+03 0.  0.
        998    1    1    2    0    0  0.45892155276E+01 -0.66555241558E+01  0.14721503003E+04  0.14722064609E+04  0.10000000000E+02 0.  1.
</event>
<event>
 5    1  0.1488417E-008  0.3741539E+03  0.7957747E-01  0.3477015E+00
         13   -1    0    0    0    0  0.00000000000E+00  0.00000000000E+00  0.14999999963E+04  0.15000000000E+04  0.10566000000E+00 0. -1.
        994   -1    0    0    0    0 -0.00000000000E+00 -0.00000000000E+00  0.11368683772E-12  0.17120000000E+03  0.17120000000E+03 0.  0.
         13    1    1    2    0    0 -0.52609828233E+02  0.23908033990E+02  0.15375521504E+03  0.16425609709E+03  0.10566000000E+00 0. -1.
        994    1    1    2    0    0 -0.58404376402E+02 -0.92151068759E+02  0.56678782423E+02  0.21077195030E+03  0.17120000000E+03 0.  0.
        998    1    1    2    0    0  0.11101420463E+03  0.68243034769E+02  0.12895659988E+04  0.12961719526E+04  0.10000000000E+02 0. -1.
</event>
<event>
 5    1  0.1488417E-008  0.3822338E+03  0.7957747E-01  0.3441489E+00
         13   -1    0    0    0    0  0.00000000000E+00  0.00000000000E+00  0.14999999963E+04  0.15000000000E+04  0.10566000000E+00 0. -1.
        994   -1    0    0    0    0 -0.00000000000E+00 -0.00000000000E+00  0.11368683772E-12  0.17120000000E+03  0.17120000000E+03 0.  0.
         13    1    1    2    0    0 -0.13368185957E+02  0.24751235610E+02  0.13768964123E+03  0.14053391237E+03  0.10566000000E+00 0. -1.
        994    1    1    2    0    0 -0.57308596798E+01 -0.13811221480E+02  0.37520827454E+01  0.17189273026E+03  0.17120000000E+03 0.  0.
        998    1    1    2    0    0  0.19099045637E+02 -0.10940014129E+02  0.13585582723E+04  0.13587733574E+04  0.10000000000E+02 0. -1.
</event>
<event>
 5    1  0.1488417E-008  0.3708204E+03  0.7957747E-01  0.3492129E+00
         13   -1    0    0    0    0  0.00000000000E+00  0.00000000000E+00  0.14999999963E+04  0.15000000000E+04  0.10566000000E+00 0. -1.
        994   -1    0    0    0    0 -0.00000000000E+00 -0.00000000000E+00  0.11368683772E-12  0.17120000000E+03  0.17120000000E+03 0.  0.
         13    1    1    2    0    0 -0.39403735023E+01 -0.12836930135E+02  0.60890893974E+01  0.14744541103E+02  0.10566000000E+00 0. -1.
        994    1    1    2    0    0  0.68066055611E+01  0.13336785509E+02  0.96142483147E+01  0.17212226322E+03  0.17120000000E+03 0.  0.
        998    1    1    2    0    0 -0.28662320588E+01 -0.49985537415E+00  0.14842966586E+04  0.14843331957E+04  0.10000000000E+02 0. -1.
</event>
<event>
 5    1  0.1488417E-008  0.3732487E+03  0.7957747E-01  0.3481093E+00
         13   -1    0    0    0    0  0.00000000000E+00  0.00000000000E+00  0.14999999963E+04  0.15000000000E+04  0.10566000000E+00 0. -1.
        994   -1    0    0    0    0 -0.00000000000E+00 -0.00000000000E+00  0.11368683772E-12  0.17120000000E+03  0.17120000000E+03 0.  0.
         13    1    1    2    0    0  0.31038997585E+00  0.67135544803E+02  0.20952443064E+03  0.22001767183E+03  0.10566000000E+00 0. -1.
        994    1    1    2    0    0  0.44732996471E+02 -0.33132036587E+01  0.19816069531E+02  0.17808462849E+03  0.17120000000E+03 0.  0.
        998    1    1    2    0    0 -0.45043386447E+02 -0.63822341144E+02  0.12706594961E+04  0.12730976997E+04  0.10000000000E+02 0. -1.
</event>
<event>
 5    1  0.1488417E-008  0.3810077E+03  0.7957747E-01  0.3446783E+00
         13   -1    0    0    0    0  0.00000000000E+00  0.00000000000E+00  0.14999999963E+04  0.15000000000E+04  0.10566000000E+00 0. -1.
        994   -1    0    0    0    0 -0.00000000000E+00 -0.00000000000E+00  0.11368683772E-12  0.17120000000E+03  0.17120000000E+03 0.  0.
         13    1    1    2    0    0 -0.25052818136E+02 -0.25181149238E+02  0.16720406431E+03  0.17093549737E+03  0.10566000000E+00 0. -1.
        994    1    1    2    0    0  0.19807105213E+02  0.16149305240E+02  0.58044760878E+01  0.17319426497E+03  0.17120000000E+03 0.  0.
        998    1    1    2    0    0  0.52457129229E+01  0.90318439980E+01  0.13269914559E+04  0.13270702377E+04  0.10000000000E+02 0. -1.
</event>
<event>
 5    1  0.1488417E-008  0.3782717E+03  0.7957747E-01  0.3458718E+00
         13   -1    0    0    0    0  0.00000000000E+00  0.00000000000E+00  0.14999999963E+04  0.15000000000E+04  0.10566000000E+00 0. -1.
        994   -1    0    0    0    0 -0.00000000000E+00 -0.00000000000E+00  0.11368683772E-12  0.17120000000E+03  0.17120000000E+03 0.  0.
         13    1    1    2    0    0  0.41280440791E+01 -0.12439982289E+02  0.15124828435E+02  0.20014132669E+02  0.10566000000E+00 0. -1.
        994    1    1    2    0    0  0.10920200540E+02  0.89723083952E+01  0.56799869683E+01  0.17187627919E+03  0.17120000000E+03 0.  0.
        998    1    1    2    0    0 -0.15048244619E+02  0.34676738933E+01  0.14791951809E+04  0.14793095881E+04  0.10000000000E+02 0. -1.
</event>
<event>
 5    1  0.1488417E-008  0.3842166E+03  0.7957747E-01  0.3433002E+00
         13   -1    0    0    0    0  0.00000000000E+00  0.00000000000E+00  0.14999999963E+04  0.15000000000E+04  0.10566000000E+00 0.  1.
        994   -1    0    0    0    0 -0.00000000000E+00 -0.00000000000E+00  0.11368683772E-12  0.17120000000E+03  0.17120000000E+03 0.  0.
         13    1    1    2    0    0 -0.18674019983E+02 -0.66994216690E+01  0.96724260079E+02  0.98738011550E+02  0.10566000000E+00 0.  1.
        994    1    1    2    0    0  0.11368479140E+02  0.71354362131E+01  0.26138077601E+01  0.17174524377E+03  0.17120000000E+03 0.  0.
        998    1    1    2    0    0  0.73055408432E+01 -0.43601454411E+00  0.14006619284E+04  0.14007167447E+04  0.10000000000E+02 0.  1.
</event>
<event>
 5    1  0.1859094E-008  0.3861605E+03  0.7957747E-01  0.3424765E+00
         13   -1    0    0    0    0  0.00000000000E+00  0.00000000000E+00  0.14999999963E+04  0.15000000000E+04  0.10566000000E+00 0.  1.
        994   -1    0    0    0    0 -0.00000000000E+00 -0.00000000000E+00  0.11368683772E-12  0.17120000000E+03  0.17120000000E+03 0.  0.
         13    1    1    2    0    0  0.88346038971E+01  0.63530841993E+01  0.58582670986E+02  0.59584833714E+02  0.10566000000E+00 0.  1.
        994    1    1    2    0    0 -0.14018250566E+01 -0.40260974924E+01  0.11146303635E+01  0.17125669907E+03  0.17120000000E+03 0.  0.
        998    1    1    2    0    0 -0.74327788405E+01 -0.23269867069E+01  0.14403026949E+04  0.14403584672E+04  0.10000000000E+02 0.  1.
</event>
<event>
 5    1  0.1488417E-008  0.3753954E+03  0.7957747E-01  0.3471456E+00
         13   -1    0    0    0    0  0.00000000000E+00  0.00000000000E+00  0.14999999963E+04  0.15000000000E+04  0.10566000000E+00 0. -1.
        994   -1    0    0    0    0 -0.00000000000E+00 -0.00000000000E+00  0.11368683772E-12  0.17120000000E+03  0.17120000000E+03 0.  0.
         13    1    1    2    0    0 -0.27332074364E+02 -0.86105975527E+01  0.61501314099E+02  0.67849889309E+02  0.10566000000E+00 0. -1.
        994    1    1    2    0    0  0.16325044216E+02  0.92834521898E+00  0.73839927117E+01  0.17213753874E+03  0.17120000000E+03 0.  0.
        998    1    1    2    0    0  0.11007030149E+02  0.76822523337E+01  0.14311146895E+04  0.14312125720E+04  0.10000000000E+02 0. -1.
</event>
<event>
 5    1  0.1488417E-008  0.3727275E+03  0.7957747E-01  0.3483449E+00
         13   -1    0    0    0    0  0.00000000000E+00  0.00000000000E+00  0.14999999963E+04  0.15000000000E+04  0.10566000000E+00 0.  1.
        994   -1    0    0    0    0 -0.00000000000E+00 -0.00000000000E+00  0.11368683772E-12  0.17120000000E+03  0.17120000000E+03 0.  0.
         13    1    1    2    0    0  0.56376440294E+01 -0.12467587038E+03  0.51741463927E+03  0.53225348827E+03  0.10566000000E+00 0.  1.
        994    1    1    2    0    0  0.18788503086E+02  0.14365304936E+03  0.83561093681E+02  0.23933470876E+03  0.17120000000E+03 0.  0.
        998    1    1    2    0    0 -0.24426147115E+02 -0.18977178986E+02  0.89902426333E+03  0.89961180297E+03  0.10000000000E+02 0.  1.
</event>
<event>
 5    1  0.1488417E-008  0.3775600E+03  0.7957747E-01  0.3461852E+00
         13   -1    0    0    0    0  0.00000000000E+00  0.00000000000E+00  0.14999999963E+04  0.15000000000E+04  0.10566000000E+00 0. -1.
        994   -1    0    0    0    0 -0.00000000000E+00 -0.00000000000E+00  0.11368683772E-12  0.17120000000E+03  0.17120000000E+03 0.  0.
         13    1    1    2    0    0  0.27884809842E+02 -0.19229786972E+02  0.93930838975E+02  0.99851695036E+02  0.10566000000E+00 0. -1.
        994    1    1    2    0    0 -0.35225505482E+02  0.29190322888E+02  0.12455970040E+02  0.17764431422E+03  0.17120000000E+03 0.  0.
        998    1    1    2    0    0  0.73406956406E+01 -0.99605359166E+01  0.13936131873E+04  0.13937039907E+04  0.10000000000E+02 0. -1.
</event>
<event>
 5    1  0.1488417E-008  0.3776717E+03  0.7957747E-01  0.3461359E+00
         13   -1    0    0    0    0  0.00000000000E+00  0.00000000000E+00  0.14999999963E+04  0.15000000000E+04  0.10566000000E+00 0. -1.
        994   -1    0    0    0    0 -0.00000000000E+00 -0.00000000000E+00  0.11368683772E-12  0.17120000000E+03  0.17120000000E+03 0.  0.
         13    1    1    2    0    0 -0.92689983092E+00  0.32703285828E+02  0.92527693345E+02  0.98141475672E+02  0.10566000000E+00 0. -1.
        994    1    1    2    0    0 -0.24208664550E+01 -0.34949297331E+02  0.94588523174E+01  0.17500349672E+03  0.17120000000E+03 0.  0.
        998    1    1    2    0    0  0.33477662859E+01  0.22460115027E+01  0.13980134506E+04  0.13980550276E+04  0.10000000000E+02 0. -1.
</event>
<event>
 5    1  0.1488417E-008  0.3810311E+03  0.7957747E-01  0.3446681E+00
         13   -1    0    0    0    0  0.00000000000E+00  0.00000000000E+00  0.14999999963E+04  0.15000000000E+04  0.10566000000E+00 0. -1.
        994   -1    0    0    0    0 -0.00000000000E+00 -0.00000000000E+00  0.11368683772E-12  0.17120000000E+03  0.17120000000E+03 0.  0.
         13    1    1    2    0    0  0.16512891630E+02 -0.43662592974E+01  0.42206563107E+02  0.45531801454E+02  0.10566000000E+00 0. -1.
        994    1    1    2    0    0  0.87803505542E+01 -0.51702745765E+01  0.39595621369E+01  0.17154866490E+03  0.17120000000E+03 0.  0.
        998    1    1    2    0    0 -0.25293242185E+02  0.95365338739E+01  0.14538338710E+04  0.14541195337E+04  0.10000000000E+02 0. -1.
</event>
<event>
 5    1  0.1488417E-008  0.3941702E+03  0.7957747E-01  0.3391687E+00
         13   -1    0    0    0    0  0.00000000000E+00  0.00000000000E+00  0.14999999963E+04  0.15000000000E+04  0.10566000000E+00 0.  1.
        994   -1    0    0    0    0 -0.00000000000E+00 -0.00000000000E+00  0.11368683772E-12  0.17120000000E+03  0.17120000000E+03 0.  0.
         13    1    1    2    0    0  0.78581244617E+02  0.18446494667E+02  0.11577211598E+03  0.14113284229E+03  0.10566000000E+00 0.  1.
        994    1    1    2    0    0 -0.78840691602E+02 -0.29076839782E+02  0.51883400737E+02  0.19764271941E+03  0.17120000000E+03 0.  0.
        998    1    1    2    0    0  0.25944698482E+00  0.10630345115E+02  0.13323444796E+04  0.13324244383E+04  0.10000000000E+02 0.  1.
</event>
<event>
 5    1  0.2732837E-008  0.3862419E+03  0.7957747E-01  0.3424422E+00
         13   -1    0    0    0    0  0.00000000000E+00  0.00000000000E+00  0.14999999963E+04  0.15000000000E+04  0.10566000000E+00 0.  1.
        994   -1    0    0    0    0 -0.00000000000E+00 -0.00000000000E+00  0.11368683772E-12  0.17120000000E+03  0.17120000000E+03 0.  0.
         13    1    1    2    0    0 -0.10044105753E+02  0.29982676026E+01  0.55132173512E+02  0.56119884080E+02  0.10566000000E+00 0.  1.
        994    1    1    2    0    0  0.56643114173E+01 -0.47121004848E+01  0.11926301839E+01  0.17136262919E+03  0.17120000000E+03 0.  0.
        998    1    1    2    0    0  0.43797943358E+01  0.17138328822E+01  0.14436751926E+04  0.14437174867E+04  0.10000000000E+02 0.  1.
</event>
<event>
 5    1  0.1488417E-008  0.3831843E+03  0.7957747E-01  0.3437410E+00
         13   -1    0    0    0    0  0.00000000000E+00  0.00000000000E+00  0.14999999963E+04  0.15000000000E+04  0.10566000000E+00 0. -1.
        994   -1    0    0    0    0 -0.00000000000E+00 -0.00000000000E+00  0.11368683772E-12  0.17120000000E+03  0.17120000000E+03 0.  0.
         13    1    1    2    0    0 -0.10275238982E+02 -0.14213704902E+02  0.58421214786E+02  0.60997208496E+02  0.10566000000E+00 0. -1.
        994    1    1    2    0    0  0.84920357195E+01  0.14561720123E+02  0.34748973825E+01  0.17206299217E+03  0.17120000000E+03 0.  0.
        998    1    1    2    0    0  0.17832032625E+01 -0.34801522119E+00  0.14381038841E+04  0.14381397993E+04  0.10000000000E+02 0. -1.
</event>
<event>
 5    1  0.1488417E-008  0.3833601E+03  0.7957747E-01  0.3436657E+00
         13   -1    0    0    0    0  0.00000000000E+00  0.00000000000E+00  0.14999999963E+04  0.15000000000E+04  0.10566000000E+00 0.  1.
        994   -1    0    0    0    0 -0.00000000000E+00 -0.00000000000E+00  0.11368683772E-12  0.17120000000E+03  0.17120000000E+03 0.  0.
         13    1    1    2    0    0 -0.72519193399E+01  0.80387492596E+01  0.23369871255E+02  0.25756045315E+02  0.10566000000E+00 0.  1.
        994    1    1    2    0    0 -0.12693696740E+01 -0.67976311546E+01  0.26046408952E+01  0.17135939788E+03  0.17120000000E+03 0.  0.
        998    1    1    2    0    0  0.85212890138E+01 -0.12411181050E+01  0.14740254841E+04  0.14740845568E+04  0.10000000000E+02 0.  1.
</event>
<event>
 5    1  0.1488417E-008  0.3703539E+03  0.7957747E-01  0.3494266E+00
         13   -1    0    0    0    0  0.00000000000E+00  0.00000000000E+00  0.14999999963E+04  0.15000000000E+04  0.10566000000E+00 0. -1.
        994   -1    0    0    0    0 -0.00000000000E+00 -0.00000000000E+00  0.11368683772E-12  0.17120000000E+03  0.17120000000E+03 0.  0.
         13    1    1    2    0    0  0.75788292969E+02 -0.10849841186E+02  0.29846250095E+03  0.30812572117E+03  0.10566000000E+00 0. -1.
        994    1    1    2    0    0 -0.52087948540E+02  0.24101471709E+02  0.20547313854E+02  0.18172965478E+03  0.17120000000E+03 0.  0.
        998    1    1    2    0    0 -0.23700344430E+02 -0.13251630523E+02  0.11809901815E+04  0.11813446240E+04  0.10000000000E+02 0. -1.
</event>
<event>
 5    1  0.1488417E-008  0.3799757E+03  0.7957747E-01  0.3451264E+00
         13   -1    0    0    0    0  0.00000000000E+00  0.00000000000E+00  0.14999999963E+04  0.15000000000E+04  0.10566000000E+00 0.  1.
        994   -1    0    0    0    0 -0.00000000000E+00 -0.00000000000E+00  0.11368683772E-12  0.17120000000E+03  0.17120000000E+03 0.  0.
         13    1    1    2    0    0  0.19323058812E+02  0.70481845316E+01  0.52661740301E+02  0.56536073109E+02  0.10566000000E+00 0.  1.
        994    1    1    2    0    0  0.41232137344E+01 -0.32005328527E+01  0.42364906913E+01  0.17133193560E+03  0.17120000000E+03 0.  0.
        998    1    1    2    0    0 -0.23446272546E+02 -0.38476516789E+01  0.14431017653E+04  0.14433319913E+04  0.10000000000E+02 0.  1.
</event>
<event>
 5    1  0.1488417E-008  0.3846318E+03  0.7957747E-01  0.3431235E+00
         13   -1    0    0    0    0  0.00000000000E+00  0.00000000000E+00  0.14999999963E+04  0.15000000000E+04  0.10566000000E+00 0. -1.
        994   -1    0    0    0    0 -0.00000000000E+00 -0.00000000000E+00  0.11368683772E-12  0.17120000000E+03  0.17120000000E+03 0.  0.
         13    1    1    2    0    0  0.10843928397E+02 -0.29202103430E+01  0.34134642847E+02  0.35934710488E+02  0.10566000000E+00 0. -1.
        994    1    1    2    0    0 -0.67763076104E+01  0.12267760975E+02  0.24600388182E+01  0.17179030268E+03  0.17120000000E+03 0.  0.
        998    1    1    2    0    0 -0.40676207868E+01 -0.93475506316E+01  0.14634053146E+04  0.14634749868E+04  0.10000000000E+02 0. -1.
</event>
<event>
 5    1  0.1488417E-008  0.3808525E+03  0.7957747E-01  0.3447455E+00
         13   -1    0    0    0    0  0.00000000000E+00  0.00000000000E+00  0.14999999963E+04  0.15000000000E+04  0.10566000000E+00 0.  1.
        994   -1    0    0    0    0 -0.00000000000E+00 -0.00000000000E+00  0.11368683772E-12  0.17120000000E+03  0.17120000000E+03 0.  0.
         13    1    1    2    0    0  0.24669153440E+02 -0.24294957874E+02  0.14873846331E+03  0.15271527017E+03  0.10566000000E+00 0.  1.
        994    1    1    2    0    0 -0.27606401307E+02  0.17812695781E+02  0.73100154423E+01  0.17447716713E+03  0.17120000000E+03 0.  0.
        998    1    1    2    0    0  0.29372478665E+01  0.64822620933E+01  0.13439515175E+04  0.13440075627E+04  0.10000000000E+02 0.  1.
</event>
<event>
 5    1  0.1488417E-008  0.3821727E+03  0.7957747E-01  0.3441752E+00
         13   -1    0    0    0    0  0.00000000000E+00  0.00000000000E+00  0.14999999963E+04  0.15000000000E+04  0.10566000000E+00 0.  1.
        994   -1    0    0    0    0 -0.00000000000E+00 -0.00000000000E+00  0.11368683772E-12  0.17120000000E+03  0.17120000000E+03 0.  0.
         13    1    1    2    0    0  0.99403636192E+01 -0.10477190275E+02  0.38479191101E+02  0.41100385117E+02  0.10566000000E+00 0.  1.
        994    1    1    2    0    0  0.11835428277E+02 -0.28177643475E+02  0.61467898783E+01  0.17401517170E+03  0.17120000000E+03 0.  0.
        998    1    1    2    0    0 -0.21775791897E+02  0.38654833750E+02  0.14553740153E+04  0.14560844432E+04  0.10000000000E+02 0.  1.
</event>
<event>
 5    1  0.1488417E-008  0.3769780E+03  0.7957747E-01  0.3464424E+00
         13   -1    0    0    0    0  0.00000000000E+00  0.00000000000E+00  0.14999999963E+04  0.15000000000E+04  0.10566000000E+00 0.  1.
        994   -1    0    0    0    0 -0.00000000000E+00 -0.00000000000E+00  0.11368683772E-12  0.17120000000E+03  0.17120000000E+03 0.  0.
         13    1    1    2    0    0 -0.12645105849E+02 -0.14013525266E+02  0.29278660251E+02  0.34835738868E+02  0.10566000000E+00 0.  1.
        994    1    1    2    0    0  0.52367096495E+00  0.14074910413E+02  0.63366151299E+01  0.17189522979E+03  0.17120000000E+03 0.  0.
        998    1    1    2    0    0  0.12121434884E+02 -0.61385146646E-01  0.14643847209E+04  0.14644690313E+04  0.10000000000E+02 0.  1.
</event>
<event>
 5    1  0.1488417E-008  0.3754665E+03  0.7957747E-01  0.3471139E+00
         13   -1    0    0    0    0  0.00000000000E+00  0.00000000000E+00  0.14999999963E+04  0.15000000000E+04  0.10566000000E+00 0.  1.
        994   -1    0    0    0    0 -0.00000000000E+00 -0.00000000000E+00  0.11368683772E-12  0.17120000000E+03  0.17120000000E+03 0.  0.
         13    1    1    2    0    0 -0.20050384973E+02  0.21748556342E+02  0.58891802929E+02  0.65903514753E+02  0.10566000000E+00 0.  1.
        994    1    1    2    0    0  0.59453232405E+02 -0.13183143058E+02  0.19131140660E+02  0.18271267785E+03  0.17120000000E+03 0.  0.
        998    1    1    2    0    0 -0.39402847432E+02 -0.85654132840E+01  0.14219770527E+04  0.14225838074E+04  0.10000000000E+02 0.  1.
</event>
<event>
 5    1  0.1488417E-008  0.3763354E+03  0.7957747E-01  0.3467272E+00
         13   -1    0    0    0    0  0.00000000000E+00  0.00000000000E+00  0.14999999963E+04  0.15000000000E+04  0.10566000000E+00 0.  1.
        994   -1    0    0    0    0 -0.00000000000E+00 -0.00000000000E+00  0.11368683772E-12  0.17120000000E+03  0.17120000000E+03 0.  0.
         13    1    1    2    0    0 -0.22218917333E+02  0.69642421127E+02  0.20054789799E+03  0.21345542312E+03  0.10566000000E+00 0.  1.
        994    1    1    2    0    0  0.44015532508E+02 -0.10803290017E+02  0.21709486986E+02  0.17842314873E+03  0.17120000000E+03 0.  0.
        998    1    1    2    0    0 -0.21796615175E+02 -0.58839131111E+02  0.12777426113E+04  0.12793214281E+04  0.10000000000E+02 0.  1.
</event>
<event>
 5    1  0.1488417E-008  0.3847392E+03  0.7957747E-01  0.3430779E+00
         13   -1    0    0    0    0  0.00000000000E+00  0.00000000000E+00  0.14999999963E+04  0.15000000000E+04  0.10566000000E+00 0. -1.
        994   -1    0    0    0    0 -0.00000000000E+00 -0.00000000000E+00  0.11368683772E-12  0.17120000000E+03  0.17120000000E+03 0.  0.
         13    1    1    2    0    0  0.58890688575E+01 -0.10862782226E+02  0.41791307830E+02  0.43579877741E+02  0.10566000000E+00 0. -1.
        994    1    1    2    0    0 -0.36963276568E+01  0.14906748212E+02  0.25363993024E+01  0.17190621659E+03  0.17120000000E+03 0.  0.
        998    1    1    2    0    0 -0.21927412006E+01 -0.40439659858E+01  0.14556722891E+04  0.14557139057E+04  0.10000000000E+02 0. -1.
</event>
<event>
 5    1  0.1488417E-008  0.4439257E+03  0.7957747E-01  0.3212699E+00
         13   -1    0    0    0    0  0.00000000000E+00  0.00000000000E+00  0.14999999963E+04  0.15000000000E+04  0.10566000000E+00 0. -1.
        994   -1    0    0    0    0 -0.00000000000E+00 -0.00000000000E+00  0.11368683772E-12  0.17120000000E+03  0.17120000000E+03 0.  0.
         13    1    1    2    0    0 -0.72582046024E+02  0.10863415397E+03  0.22814741519E+03  0.26290832439E+03  0.10566000000E+00 0. -1.
        994    1    1    2    0    0  0.57537208549E+02  0.11345150325E+03  0.14096169278E+03  0.25565878195E+03  0.17120000000E+03 0.  0.
        998    1    1    2    0    0  0.15044837475E+02 -0.22208565722E+03  0.11308908883E+04  0.11526328937E+04  0.10000000000E+02 0. -1.
</event>
<event>
 5    1  0.1488417E-008  0.3767981E+03  0.7957747E-01  0.3465220E+00
         13   -1    0    0    0    0  0.00000000000E+00  0.00000000000E+00  0.14999999963E+04  0.15000000000E+04  0.10566000000E+00 0.  1.
        994   -1    0    0    0    0 -0.00000000000E+00 -0.00000000000E+00  0.11368683772E-12  0.17120000000E+03  0.17120000000E+03 0.  0.
         13    1    1    2    0    0  0.31311089796E+02  0.71622920817E+01  0.89859601667E+02  0.95427679150E+02  0.10566000000E+00 0.  1.
        994    1    1    2    0    0 -0.13850324549E+02 -0.52812205108E+00  0.64075874663E+01  0.17187963108E+03  0.17120000000E+03 0.  0.
        998    1    1    2    0    0 -0.17460765247E+02 -0.66341700306E+01  0.14037328071E+04  0.14038926898E+04  0.10000000000E+02 0.  1.
</event>
<event>
 5    1  0.1488417E-008  0.3758693E+03  0.7957747E-01  0.3469344E+00
         13   -1    0    0    0    0  0.00000000000E+00  0.00000000000E+00  0.14999999963E+04  0.15000000000E+04  0.10566000000E+00 0. -1.
        994   -1    0    0    0    0 -0.00000000000E+00 -0.00000000000E+00  0.11368683772E-12  0.17120000000E+03  0.17120000000E+03 0.  0.
         13    1    1    2    0    0  0.68580899843E+02  0.87008239580E+02  0.32291450455E+03  0.34139062962E+03  0.10566000000E+00 0. -1.
        994    1    1    2    0    0 -0.71166700774E+02 -0.90709993253E+02  0.63189828615E+02  0.21585966880E+03  0.17120000000E+03 0.  0.
        998    1    1    2    0    0  0.25858009314E+01  0.37017536731E+01  0.11138956631E+04  0.11139497016E+04  0.10000000000E+02 0.  1.
</event>
<event>
 5    1  0.1488417E-008  0.3823716E+03  0.7957747E-01  0.3440897E+00
         13   -1    0    0    0    0  0.00000000000E+00  0.00000000000E+00  0.14999999963E+04  0.15000000000E+04  0.10566000000E+00 0.  1.
        994   -1    0    0    0    0 -0.00000000000E+00 -0.00000000000E+00  0.11368683772E-12  0.17120000000E+03  0.17120000000E+03 0.  0.
         13    1    1    2    0    0 -0.36791797501E+01  0.10307159144E+02  0.19325446268E+02  0.22209410860E+02  0.10566000000E+00 0.  1.
        994    1    1    2    0    0 -0.12510124808E+01 -0.65776059008E+01  0.30894622177E+01  0.17135873105E+03  0.17120000000E+03 0.  0.
        998    1    1    2    0    0  0.49301922309E+01 -0.37295532433E+01  0.14775850878E+04  0.14776318581E+04  0.10000000000E+02 0.  1.
</event>
<event>
 5    1  0.1488417E-008  0.3722469E+03  0.7957747E-01  0.3485628E+00
         13   -1    0    0    0    0  0.00000000000E+00  0.00000000000E+00  0.14999999963E+04  0.15000000000E+04  0.10566000000E+00 0.  1.
        994   -1    0    0    0    0 -0.00000000000E+00 -0.00000000000E+00  0.11368683772E-12  0.17120000000E+03  0.17120000000E+03 0.  0.
         13    1    1    2    0    0 -0.38408681309E+02  0.12739508381E+02  0.95173481550E+02  0.10341916954E+03  0.10566000000E+00 0.  1.
        994    1    1    2    0    0  0.31360721620E+02 -0.11380603783E+02  0.11927773801E+02  0.17482770030E+03  0.17120000000E+03 0.  0.
        998    1    1    2    0    0  0.70479596888E+01 -0.13589045986E+01  0.13928987409E+04  0.13929531302E+04  0.10000000000E+02 0.  1.
</event>
<event>
 5    1  0.1488417E-008  0.3716579E+03  0.7957747E-01  0.3488306E+00
         13   -1    0    0    0    0  0.00000000000E+00  0.00000000000E+00  0.14999999963E+04  0.15000000000E+04  0.10566000000E+00 0. -1.
        994   -1    0    0    0    0 -0.00000000000E+00 -0.00000000000E+00  0.11368683772E-12  0.17120000000E+03  0.17120000000E+03 0.  0.
         13    1    1    2    0    0  0.19719357710E+02  0.16738084827E+02  0.35106036190E+02  0.43605750689E+02  0.10566000000E+00 0. -1.
        994    1    1    2    0    0 -0.28905755837E+02 -0.14231501649E+02  0.11982320117E+02  0.17461699332E+03  0.17120000000E+03 0.  0.
        998    1    1    2    0    0  0.91863981273E+01 -0.25065831785E+01  0.14529116400E+04  0.14529772560E+04  0.10000000000E+02 0. -1.
</event>
<event>
 5    1  0.1488417E-008  0.3791338E+03  0.7957747E-01  0.3454939E+00
         13   -1    0    0    0    0  0.00000000000E+00  0.00000000000E+00  0.14999999963E+04  0.15000000000E+04  0.10566000000E+00 0. -1.
        994   -1    0    0    0    0 -0.00000000000E+00 -0.00000000000E+00  0.11368683772E-12  0.17120000000E+03  0.17120000000E+03 0.  0.
         13    1    1    2    0    0  0.12589538753E+02  0.47380888878E+01  0.18313685920E+02  0.22723297039E+02  0.10566000000E+00 0. -1.
        994    1    1    2    0    0 -0.93699236061E+00  0.41777819174E+01  0.46325029232E+01  0.17131617524E+03  0.17120000000E+03 0.  0.
        998    1    1    2    0    0 -0.11652546392E+02 -0.89158708052E+01  0.14770538074E+04  0.14771605277E+04  0.10000000000E+02 0. -1.
</event>
<event>
 5    1  0.1488417E-008  0.3821050E+03  0.7957747E-01  0.3442044E+00
         13   -1    0    0    0    0  0.00000000000E+00  0.00000000000E+00  0.14999999963E+04  0.15000000000E+04  0.10566000000E+00 0. -1.
        994   -1    0    0    0    0 -0.00000000000E+00 -0.00000000000E+00  0.11368683772E-12  0.17120000000E+03  0.17120000000E+03 0.  0.
         13    1    1    2    0    0 -0.10899707772E+02  0.17640482849E+02  0.73391653106E+02  0.76264907883E+02  0.10566000000E+00 0. -1.
        994    1    1    2    0    0 -0.83249125396E+01 -0.62690795349E+01  0.34349313580E+01  0.17155128761E+03  0.17120000000E+03 0.  0.
        998    1    1    2    0    0  0.19224620312E+02 -0.11371403314E+02  0.14231734118E+04  0.14233838045E+04  0.10000000000E+02 0. -1.
</event>
<event>
 5    1  0.1488417E-008  0.3708740E+03  0.7957747E-01  0.3491884E+00
         13   -1    0    0    0    0  0.00000000000E+00  0.00000000000E+00  0.14999999963E+04  0.15000000000E+04  0.10566000000E+00 0. -1.
        994   -1    0    0    0    0 -0.00000000000E+00 -0.00000000000E+00  0.11368683772E-12  0.17120000000E+03  0.17120000000E+03 0.  0.
         13    1    1    2    0    0 -0.29612538655E+02 -0.98713888735E+01  0.50382966255E+02  0.59268889112E+02  0.10566000000E+00 0. -1.
        994    1    1    2    0    0  0.28083623979E+02  0.12959388453E+02  0.12117828213E+02  0.17439299712E+03  0.17120000000E+03 0.  0.
        998    1    1    2    0    0  0.15289146761E+01 -0.30879995798E+01  0.14374992018E+04  0.14375381138E+04  0.10000000000E+02 0. -1.
</event>
<event>
 5    1  0.1488417E-008  0.3733824E+03  0.7957747E-01  0.3480489E+00
         13   -1    0    0    0    0  0.00000000000E+00  0.00000000000E+00  0.14999999963E+04  0.15000000000E+04  0.10566000000E+00 0.  1.
        994   -1    0    0    0    0 -0.00000000000E+00 -0.00000000000E+00  0.11368683772E-12  0.17120000000E+03  0.17120000000E+03 0.  0.
         13    1    1    2    0    0  0.10543240485E+02  0.15909508820E+02  0.21303014333E+02  0.28602481965E+02  0.10566000000E+00 0.  1.
        994    1    1    2    0    0  0.90216304039E+01 -0.15856865382E+02  0.86501319973E+01  0.17238646924E+03  0.17120000000E+03 0.  0.
        998    1    1    2    0    0 -0.19564870889E+02 -0.52643438229E-01  0.14700468499E+04  0.14702110488E+04  0.10000000000E+02 0.  1.
</event>
<event>
 5    1  0.1488417E-008  0.3863046E+03  0.7957747E-01  0.3424158E+00
         13   -1    0    0    0    0  0.00000000000E+00  0.00000000000E+00  0.14999999963E+04  0.15000000000E+04  0.10566000000E+00 0.  1.
        994   -1    0    0    0    0 -0.00000000000E+00 -0.00000000000E+00  0.11368683772E-12  0.17120000000E+03  0.17120000000E+03 0.  0.
         13    1    1    2    0    0  0.10865214357E+02 -0.26621027309E+01  0.66444078032E+02  0.67379272358E+02  0.10566000000E+00 0.  1.
        994    1    1    2    0    0 -0.24078037475E+01  0.83850677760E+01  0.12330650257E+01  0.17142656541E+03  0.17120000000E+03 0.  0.
        998    1    1    2    0    0 -0.84574106096E+01 -0.57229650451E+01  0.14323228532E+04  0.14323941622E+04  0.10000000000E+02 0.  1.
</event>
<event>
 5    1  0.1488417E-008  0.3831312E+03  0.7957747E-01  0.3437637E+00
         13   -1    0    0    0    0  0.00000000000E+00  0.00000000000E+00  0.14999999963E+04  0.15000000000E+04  0.10566000000E+00 0. -1.
        994   -1    0    0    0    0 -0.00000000000E+00 -0.00000000000E+00  0.11368683772E-12  0.17120000000E+03  0.17120000000E+03 0.  0.
         13    1    1    2    0    0  0.18031532978E+01  0.18735279629E+02  0.71500548497E+02  0.73936470460E+02  0.10566000000E+00 0. -1.
        994    1    1    2    0    0 -0.74321379597E+01 -0.34218929719E+01  0.27823240617E+01  0.17141799017E+03  0.17120000000E+03 0.  0.
        998    1    1    2    0    0  0.56289846619E+01 -0.15313386658E+02  0.14257171237E+04  0.14258455394E+04  0.10000000000E+02 0. -1.
</event>
<event>
 5    1  0.1488417E-008  0.3812510E+03  0.7957747E-01  0.3445729E+00
         13   -1    0    0    0    0  0.00000000000E+00  0.00000000000E+00  0.14999999963E+04  0.15000000000E+04  0.10566000000E+00 0.  1.
        994   -1    0    0    0    0 -0.00000000000E+00 -0.00000000000E+00  0.11368683772E-12  0.17120000000E+03  0.17120000000E+03 0.  0.
         13    1    1    2    0    0  0.26642650928E+02  0.29166248259E+02  0.19592685765E+03  0.19986957147E+03  0.10566000000E+00 0.  1.
        994    1    1    2    0    0 -0.29607216054E+02 -0.25515955332E+02  0.86054988647E+01  0.17581565866E+03  0.17120000000E+03 0.  0.
        998    1    1    2    0    0  0.29645651266E+01 -0.36502929267E+01  0.12954676398E+04  0.12955147699E+04  0.10000000000E+02 0.  1.
</event>
<event>
 5    1  0.1488417E-008  0.3820514E+03  0.7957747E-01  0.3442274E+00
         13   -1    0    0    0    0  0.00000000000E+00  0.00000000000E+00  0.14999999963E+04  0.15000000000E+04  0.10566000000E+00 0. -1.
        994   -1    0    0    0    0 -0.00000000000E+00 -0.00000000000E+00  0.11368683772E-12  0.17120000000E+03  0.17120000000E+03 0.  0.
         13    1    1    2    0    0 -0.23476436334E+02 -0.13055072378E+02  0.10883502078E+03  0.11210107443E+03  0.10566000000E+00 0. -1.
        994    1    1    2    0    0  0.21868598729E+02  0.14071655736E+02  0.53498131951E+01  0.17324637834E+03  0.17120000000E+03 0.  0.
        998    1    1    2    0    0  0.16078376047E+01 -0.10165833578E+01  0.13858151623E+04  0.13858525472E+04  0.10000000000E+02 0.  0.
</event>
<event>
 5    1  0.1488417E-008  0.3797957E+03  0.7957747E-01  0.3452049E+00
         13   -1    0    0    0    0  0.00000000000E+00  0.00000000000E+00  0.14999999963E+04  0.15000000000E+04  0.10566000000E+00 0. -1.
        994   -1    0    0    0    0 -0.00000000000E+00 -0.00000000000E+00  0.11368683772E-12  0.17120000000E+03  0.17120000000E+03 0.  0.
         13    1    1    2    0    0 -0.47168829260E+02  0.22636986805E+02  0.27190413392E+03  0.27689203823E+03  0.10566000000E+00 0. -1.
        994    1    1    2    0    0  0.38542739849E+02 -0.35304914329E+02  0.13430020063E+02  0.17950427630E+03  0.17120000000E+03 0.  0.
        998    1    1    2    0    0  0.86260894115E+01  0.12667927525E+02  0.12146658423E+04  0.12148036855E+04  0.10000000000E+02 0. -1.
</event>
<event>
 5    1  0.1488417E-008  0.3846579E+03  0.7957747E-01  0.3431124E+00
         13   -1    0    0    0    0  0.00000000000E+00  0.00000000000E+00  0.14999999963E+04  0.15000000000E+04  0.10566000000E+00 0.  1.
        994   -1    0    0    0    0 -0.00000000000E+00 -0.00000000000E+00  0.11368683772E-12  0.17120000000E+03  0.17120000000E+03 0.  0.
         13    1    1    2    0    0  0.46421671719E+01 -0.14318786546E+02  0.61457883347E+02  0.63274481062E+02  0.10566000000E+00 0.  1.
        994    1    1    2    0    0  0.11286809941E+02  0.18161479730E+02  0.33068563765E+01  0.17256189244E+03  0.17120000000E+03 0.  0.
        998    1    1    2    0    0 -0.15928977113E+02 -0.38426931843E+01  0.14352352566E+04  0.14353636265E+04  0.10000000000E+02 0.  1.
</event>
<event>
 5    1  0.1488417E-008  0.3826771E+03  0.7957747E-01  0.3439584E+00
         13   -1    0    0    0    0  0.00000000000E+00  0.00000000000E+00  0.14999999963E+04  0.15000000000E+04  0.10566000000E+00 0. -1.
        994   -1    0    0    0    0 -0.00000000000E+00 -0.00000000000E+00  0.11368683772E-12  0.17120000000E+03  0.17120000000E+03 0.  0.
         13    1    1    2    0    0  0.17609358827E+02  0.95236189469E+01  0.73689299806E+02  0.76360414523E+02  0.10566000000E+00 0. -1.
        994    1    1    2    0    0 -0.63858745043E+01 -0.50097492820E+00  0.29238174259E+01  0.17134473752E+03  0.17120000000E+03 0.  0.
        998    1    1    2    0    0 -0.11223484322E+02 -0.90226440187E+01  0.14233868790E+04  0.14234948480E+04  0.10000000000E+02 0. -1.
</event>
<event>
 5    1  0.1488417E-008  0.3846810E+03  0.7957747E-01  0.3431026E+00
         13   -1    0    0    0    0  0.00000000000E+00  0.00000000000E+00  0.14999999963E+04  0.15000000000E+04  0.10566000000E+00 0. -1.
        994   -1    0    0    0    0 -0.00000000000E+00 -0.00000000000E+00  0.11368683772E-12  0.17120000000E+03  0.17120000000E+03 0.  0.
         13    1    1    2    0    0 -0.11339900499E+01 -0.13829208998E+02  0.51690292531E+02  0.53520374260E+02  0.10566000000E+00 0. -1.
        994    1    1    2    0    0  0.30682697664E+01  0.15869003406E+02  0.26490736204E+01  0.17198167676E+03  0.17120000000E+03 0.  0.
        998    1    1    2    0    0 -0.19342797165E+01 -0.20397944081E+01  0.14456606301E+04  0.14456979490E+04  0.10000000000E+02 0. -1.
</event>
<event>
 5    1  0.1488417E-008  0.4345336E+03  0.7957747E-01  0.3243410E+00
         13   -1    0    0    0    0  0.00000000000E+00  0.00000000000E+00  0.14999999963E+04  0.15000000000E+04  0.10566000000E+00 0. -1.
        994   -1    0    0    0    0 -0.00000000000E+00 -0.00000000000E+00  0.11368683772E-12  0.17120000000E+03  0.17120000000E+03 0.  0.
         13    1    1    2    0    0 -0.74768086586E+01  0.75309357157E+02  0.38952033171E+02  0.85115650707E+02  0.10566000000E+00 0. -1.
        994    1    1    2    0    0  0.85890081206E+01 -0.80399104508E+02  0.80904843934E+02  0.20589516954E+03  0.17120000000E+03 0.  0.
        998    1    1    2    0    0 -0.11121994619E+01  0.50897473505E+01  0.13801431192E+04  0.13801891798E+04  0.10000000000E+02 0. -1.
</event>
<event>
 5    1  0.1488417E-008  0.3714807E+03  0.7957747E-01  0.3489113E+00
         13   -1    0    0    0    0  0.00000000000E+00  0.00000000000E+00  0.14999999963E+04  0.15000000000E+04  0.10566000000E+00 0.  1.
        994   -1    0    0    0    0 -0.00000000000E+00 -0.00000000000E+00  0.11368683772E-12  0.17120000000E+03  0.17120000000E+03 0.  0.
         13    1    1    2    0    0  0.26105033130E+01 -0.21958860475E+02  0.25406817776E+02  0.33682693396E+02  0.10566000000E+00 0.  1.
        994    1    1    2    0    0 -0.42531081165E+01  0.12077780320E+02  0.90613800359E+01  0.17191716120E+03  0.17120000000E+03 0.  0.
        998    1    1    2    0    0  0.16426048035E+01  0.98810801555E+01  0.14655317985E+04  0.14656001454E+04  0.10000000000E+02 0.  1.
</event>
<event>
 5    1  0.1488417E-008  0.3793956E+03  0.7957747E-01  0.3453794E+00
         13   -1    0    0    0    0  0.00000000000E+00  0.00000000000E+00  0.14999999963E+04  0.15000000000E+04  0.10566000000E+00 0. -1.
        994   -1    0    0    0    0 -0.00000000000E+00 -0.00000000000E+00  0.11368683772E-12  0.17120000000E+03  0.17120000000E+03 0.  0.
         13    1    1    2    0    0  0.80212691579E+02 -0.11925060907E+03  0.80358893162E+03  0.81633936929E+03  0.10566000000E+00 0. -1.
        994    1    1    2    0    0 -0.68698694658E+02  0.14103248104E+03  0.91843333517E+02  0.24970844853E+03  0.17120000000E+03 0.  0.
        998    1    1    2    0    0 -0.11513996921E+02 -0.21781871967E+02  0.60456773114E+03  0.60515218219E+03  0.10000000000E+02 0.  1.
</event>
<event>
 5    1  0.1488417E-008  0.3823229E+03  0.7957747E-01  0.3441106E+00
         13   -1    0    0    0    0  0.00000000000E+00  0.00000000000E+00  0.14999999963E+04  0.15000000000E+04  0.10566000000E+00 0. -1.
        994   -1    0    0    0    0 -0.00000000000E+00 -0.00000000000E+00  0.11368683772E-12  0.17120000000E+03  0.17120000000E+03 0.  0.
         13    1    1    2    0    0 -0.26025535665E+02 -0.15459806795E+02  0.17208521616E+03  0.17472740746E+03  0.10566000000E+00 0. -1.
        994    1    1    2    0    0  0.35171614666E+01  0.15155075997E+01  0.30138164880E+01  0.17126935008E+03  0.17120000000E+03 0.  0.
        998    1    1    2    0    0  0.22508374199E+02  0.13944299195E+02  0.13249009636E+04  0.13252032425E+04  0.10000000000E+02 0. -1.
</event>
<event>
 5    1  0.1488417E-008  0.3844482E+03  0.7957747E-01  0.3432016E+00
         13   -1    0    0    0    0  0.00000000000E+00  0.00000000000E+00  0.14999999963E+04  0.15000000000E+04  0.10566000000E+00 0. -1.
        994   -1    0    0    0    0 -0.00000000000E+00 -0.00000000000E+00  0.11368683772E-12  0.17120000000E+03  0.17120000000E+03 0.  0.
         13    1    1    2    0    0  0.11111260863E+02 -0.14796553171E+01  0.33607257876E+02  0.35427509704E+02  0.10566000000E+00 0. -1.
        994    1    1    2    0    0  0.28113824535E+00  0.57196702150E+01  0.20124125017E+01  0.17130756980E+03  0.17120000000E+03 0.  0.
        998    1    1    2    0    0 -0.11392399109E+02 -0.42400148979E+01  0.14643803259E+04  0.14644649205E+04  0.10000000000E+02 0. -1.
</event>
<event>
 5    1  0.1488417E-008  0.3817570E+03  0.7957747E-01  0.3443544E+00
         13   -1    0    0    0    0  0.00000000000E+00  0.00000000000E+00  0.14999999963E+04  0.15000000000E+04  0.10566000000E+00 0. -1.
        994   -1    0    0    0    0 -0.00000000000E+00 -0.00000000000E+00  0.11368683772E-12  0.17120000000E+03  0.17120000000E+03 0.  0.
         13    1    1    2    0    0 -0.11004020725E+02 -0.66600326397E+01  0.24412394322E+02  0.27593851987E+02  0.10566000000E+00 0. -1.
        994    1    1    2    0    0  0.10388587162E+02 -0.53486505828E+01  0.37027659151E+01  0.17163822791E+03  0.17120000000E+03 0.  0.
        998    1    1    2    0    0  0.61543356302E+00  0.12008683222E+02  0.14718848360E+04  0.14719679201E+04  0.10000000000E+02 0. -1.
</event>
<event>
 5    1  0.1488417E-008  0.3831882E+03  0.7957747E-01  0.3437393E+00
         13   -1    0    0    0    0  0.00000000000E+00  0.00000000000E+00  0.14999999963E+04  0.15000000000E+04  0.10566000000E+00 0. -1.
        994   -1    0    0    0    0 -0.00000000000E+00 -0.00000000000E+00  0.11368683772E-12  0.17120000000E+03  0.17120000000E+03 0.  0.
         13    1    1    2    0    0  0.15998666489E+02  0.67825832957E+01  0.60457830272E+02  0.62905652933E+02  0.10566000000E+00 0. -1.
        994    1    1    2    0    0 -0.68380912920E+01  0.34316132292E+00  0.26874132720E+01  0.17135792787E+03  0.17120000000E+03 0.  0.
        998    1    1    2    0    0 -0.91605751971E+01 -0.71257446186E+01  0.14368547527E+04  0.14369364192E+04  0.10000000000E+02 0. -1.
</event>
<event>
 5    1  0.1488417E-008  0.3849095E+03  0.7957747E-01  0.3430056E+00
         13   -1    0    0    0    0  0.00000000000E+00  0.00000000000E+00  0.14999999963E+04  0.15000000000E+04  0.10566000000E+00 0.  1.
        994   -1    0    0    0    0 -0.00000000000E+00 -0.00000000000E+00  0.11368683772E-12  0.17120000000E+03  0.17120000000E+03 0.  0.
         13    1    1    2    0    0  0.46216992506E+01  0.17029162103E+02  0.88379591592E+02  0.90123891616E+02  0.10566000000E+00 0.  1.
        994    1    1    2    0    0 -0.32164903220E+01 -0.18104536561E+02  0.27881381865E+01  0.17220724076E+03  0.17120000000E+03 0.  0.
        998    1    1    2    0    0 -0.14052089286E+01  0.10753744576E+01  0.14088322665E+04  0.14088688676E+04  0.10000000000E+02 0.  1.
</event>
<event>
 5    1  0.1488417E-008  0.3842609E+03  0.7957747E-01  0.3432813E+00
         13   -1    0    0    0    0  0.00000000000E+00  0.00000000000E+00  0.14999999963E+04  0.15000000000E+04  0.10566000000E+00 0.  1.
        994   -1    0    0    0    0 -0.00000000000E+00 -0.00000000000E+00  0.11368683772E-12  0.17120000000E+03  0.17120000000E+03 0.  0.
         13    1    1    2    0    0 -0.19374167710E+01 -0.98681288371E+01  0.19398391076E+02  0.21850452876E+02  0.10566000000E+00 0.  1.
        994    1    1    2    0    0  0.33671187871E+02  0.72954837181E+02  0.23578842759E+02  0.19058215810E+03  0.17120000000E+03 0.  0.
        998    1    1    2    0    0 -0.31733771100E+02 -0.63086708344E+02  0.14570227624E+04  0.14587673890E+04  0.10000000000E+02 0.  1.
</event>
<event>
 5    1  0.1488417E-008  0.3689093E+03  0.7957747E-01  0.3500919E+00
         13   -1    0    0    0    0  0.00000000000E+00  0.00000000000E+00  0.14999999963E+04  0.15000000000E+04  0.10566000000E+00 0.  1.
        994   -1    0    0    0    0 -0.00000000000E+00 -0.00000000000E+00  0.11368683772E-12  0.17120000000E+03  0.17120000000E+03 0.  0.
         13    1    1    2    0    0 -0.61325553979E+02 -0.18451977387E+02  0.17136072201E+03  0.18293662086E+03  0.10566000000E+00 0.  1.
        994    1    1    2    0    0  0.62572416175E+02  0.20783945100E+02  0.25660527023E+02  0.18524357556E+03  0.17120000000E+03 0.  0.
        998    1    1    2    0    0 -0.12468621959E+01 -0.23319677131E+01  0.13029787473E+04  0.13030198036E+04  0.10000000000E+02 0.  1.
</event>
<event>
 5    1  0.1488417E-008  0.3842078E+03  0.7957747E-01  0.3433039E+00
         13   -1    0    0    0    0  0.00000000000E+00  0.00000000000E+00  0.14999999963E+04  0.15000000000E+04  0.10566000000E+00 0.  1.
        994   -1    0    0    0    0 -0.00000000000E+00 -0.00000000000E+00  0.11368683772E-12  0.17120000000E+03  0.17120000000E+03 0.  0.
         13    1    1    2    0    0 -0.13608120690E+02 -0.14330089224E+00  0.42332834629E+02  0.44466633959E+02  0.10566000000E+00 0.  1.
        994    1    1    2    0    0  0.23822360656E+02  0.16259393988E+02  0.47715835647E+01  0.17367809525E+03  0.17120000000E+03 0.  0.
        998    1    1    2    0    0 -0.10214239966E+02 -0.16116093096E+02  0.14528955781E+04  0.14530552708E+04  0.10000000000E+02 0.  1.
</event>
<event>
 5    1  0.1488417E-008  0.3806229E+03  0.7957747E-01  0.3448451E+00
         13   -1    0    0    0    0  0.00000000000E+00  0.00000000000E+00  0.14999999963E+04  0.15000000000E+04  0.10566000000E+00 0. -1.
        994   -1    0    0    0    0 -0.00000000000E+00 -0.00000000000E+00  0.11368683772E-12  0.17120000000E+03  0.17120000000E+03 0.  0.
         13    1    1    2    0    0  0.13385702874E+01 -0.11613338370E+02  0.16626900623E+02  0.20325510741E+02  0.10566000000E+00 0. -1.
        994    1    1    2    0    0  0.63370015206E+01  0.98489421243E+00  0.39562380239E+01  0.17136574752E+03  0.17120000000E+03 0.  0.
        998    1    1    2    0    0 -0.76755718079E+01  0.10628444158E+02  0.14794168576E+04  0.14795087417E+04  0.10000000000E+02 0. -1.
</event>
<event>
 5    1  0.1488417E-008  0.3745491E+03  0.7957747E-01  0.3475242E+00
         13   -1    0    0    0    0  0.00000000000E+00  0.00000000000E+00  0.14999999963E+04  0.15000000000E+04  0.10566000000E+00 0.  1.
        994   -1    0    0    0    0 -0.00000000000E+00 -0.00000000000E+00  0.11368683772E-12  0.17120000000E+03  0.17120000000E+03 0.  0.
         13    1    1    2    0    0 -0.46232651622E+02  0.15453157276E+02  0.16063856712E+03  0.16787203030E+03  0.10566000000E+00 0.  1.
        994    1    1    2    0    0  0.33136246487E+02 -0.24603023768E+02  0.12731340829E+02  0.17656400157E+03  0.17120000000E+03 0.  0.
        998    1    1    2    0    0  0.13096405134E+02  0.91498664924E+01  0.13266300883E+04  0.13267639681E+04  0.10000000000E+02 0.  1.
</event>
<event>
 5    1  0.1488417E-008  0.3730982E+03  0.7957747E-01  0.3481772E+00
         13   -1    0    0    0    0  0.00000000000E+00  0.00000000000E+00  0.14999999963E+04  0.15000000000E+04  0.10566000000E+00 0. -1.
        994   -1    0    0    0    0 -0.00000000000E+00 -0.00000000000E+00  0.11368683772E-12  0.17120000000E+03  0.17120000000E+03 0.  0.
         13    1    1    2    0    0 -0.34060134735E+02  0.40925776622E+02  0.10531201664E+03  0.11800696582E+03  0.10566000000E+00 0. -1.
        994    1    1    2    0    0  0.53058597809E+02 -0.10806531485E+02  0.23022480833E+02  0.18102892185E+03  0.17120000000E+03 0.  0.
        998    1    1    2    0    0 -0.18998463074E+02 -0.30119245138E+02  0.13716654988E+04  0.13721641123E+04  0.10000000000E+02 0. -1.
</event>
<event>
 5    1  0.1488417E-008  0.3803992E+03  0.7957747E-01  0.3449422E+00
         13   -1    0    0    0    0  0.00000000000E+00  0.00000000000E+00  0.14999999963E+04  0.15000000000E+04  0.10566000000E+00 0. -1.
        994   -1    0    0    0    0 -0.00000000000E+00 -0.00000000000E+00  0.11368683772E-12  0.17120000000E+03  0.17120000000E+03 0.  0.
         13    1    1    2    0    0 -0.47138933234E+02  0.40402269243E+02  0.36846218042E+03  0.37365600752E+03  0.10566000000E+00 0. -1.
        994    1    1    2    0    0  0.41526152349E+02 -0.48081803685E+02  0.17526586491E+02  0.18344727419E+03  0.17120000000E+03 0.  0.
        998    1    1    2    0    0  0.56127808849E+01  0.76795344422E+01  0.11140112294E+04  0.11140967183E+04  0.10000000000E+02 0. -1.
</event>
<event>
 5    1  0.1488417E-008  0.3797873E+03  0.7957747E-01  0.3452085E+00
         13   -1    0    0    0    0  0.00000000000E+00  0.00000000000E+00  0.14999999963E+04  0.15000000000E+04  0.10566000000E+00 0.  1.
        994   -1    0    0    0    0 -0.00000000000E+00 -0.00000000000E+00  0.11368683772E-12  0.17120000000E+03  0.17120000000E+03 0.  0.
         13    1    1    2    0    0  0.10529946713E+02  0.15139712274E+01  0.11446100628E+02  0.15626780547E+02  0.10566000000E+00 0.  1.
        994    1    1    2    0    0 -0.87617280661E+01 -0.17691213894E+01  0.45078878938E+01  0.17149244509E+03  0.17120000000E+03 0.  0.
        998    1    1    2    0    0 -0.17682186465E+01  0.25515016209E+00  0.14840460078E+04  0.14840807744E+04  0.10000000000E+02 0.  1.
</event>
<event>
 5    1  0.1488417E-008  0.3852659E+03  0.7957747E-01  0.3428545E+00
         13   -1    0    0    0    0  0.00000000000E+00  0.00000000000E+00  0.14999999963E+04  0.15000000000E+04  0.10566000000E+00 0. -1.
        994   -1    0    0    0    0 -0.00000000000E+00 -0.00000000000E+00  0.11368683772E-12  0.17120000000E+03  0.17120000000E+03 0.  0.
         13    1    1    2    0    0  0.56457275299E+01  0.15908994723E+02  0.96305810526E+02  0.97774181958E+02  0.10566000000E+00 0. -1.
        994    1    1    2    0    0 -0.39778383247E+01 -0.88039212955E+01  0.18048945503E+01  0.17148186456E+03  0.17120000000E+03 0.  0.
        998    1    1    2    0    0 -0.16678892052E+01 -0.71050734277E+01  0.14018892912E+04  0.14019439535E+04  0.10000000000E+02 0. -1.
</event>
<event>
 5    1  0.1488417E-008  0.3816844E+03  0.7957747E-01  0.3443857E+00
         13   -1    0    0    0    0  0.00000000000E+00  0.00000000000E+00  0.14999999963E+04  0.15000000000E+04  0.10566000000E+00 0.  1.
        994   -1    0    0    0    0 -0.00000000000E+00 -0.00000000000E+00  0.11368683772E-12  0.17120000000E+03  0.17120000000E+03 0.  0.
         13    1    1    2    0    0 -0.60796807940E+01 -0.25574420504E+02  0.93115080148E+02  0.96754549338E+02  0.10566000000E+00 0.  1.
        994    1    1    2    0    0  0.85829890047E+01  0.35690593998E+02  0.77778749022E+01  0.17526386261E+03  0.17120000000E+03 0.  0.
        998    1    1    2    0    0 -0.25033082108E+01 -0.10116173494E+02  0.13991070412E+04  0.13991815880E+04  0.10000000000E+02 0.  1.
</event>
<event>
 5    1  0.1488417E-008  0.3845571E+03  0.7957747E-01  0.3431553E+00
         13   -1    0    0    0    0  0.00000000000E+00  0.00000000000E+00  0.14999999963E+04  0.15000000000E+04  0.10566000000E+00 0.  1.
        994   -1    0    0    0    0 -0.00000000000E+00 -0.00000000000E+00  0.11368683772E-12  0.17120000000E+03  0.17120000000E+03 0.  0.
         13    1    1    2    0    0  0.48049527872E+01 -0.22951141225E+02  0.12582472486E+03  0.12799107393E+03  0.10566000000E+00 0.  1.
        994    1    1    2    0    0 -0.58728899317E+01  0.34337693901E+02  0.58571840491E+01  0.17480650635E+03  0.17120000000E+03 0.  0.
        998    1    1    2    0    0  0.10679371445E+01 -0.11386552676E+02  0.13683180874E+04  0.13684024197E+04  0.10000000000E+02 0.  1.
</event>
<event>
 5    1  0.1488417E-008  0.3859885E+03  0.7957747E-01  0.3425490E+00
         13   -1    0    0    0    0  0.00000000000E+00  0.00000000000E+00  0.14999999963E+04  0.15000000000E+04  0.10566000000E+00 0.  1.
        994   -1    0    0    0    0 -0.00000000000E+00 -0.00000000000E+00  0.11368683772E-12  0.17120000000E+03  0.17120000000E+03 0.  0.
         13    1    1    2    0    0  0.70179364960E+02 -0.78311028647E+02  0.38291704051E+03  0.39709347962E+03  0.10566000000E+00 0.  1.
        994    1    1    2    0    0 -0.50341039013E+02 -0.30639827760E+02  0.32639850461E+02  0.18397776793E+03  0.17120000000E+03 0.  0.
        998    1    1    2    0    0 -0.19838325947E+02  0.10895085641E+03  0.10844431053E+04  0.10901287525E+04  0.10000000000E+02 0.  1.
</event>
<event>
 5    1  0.1488417E-008  0.3828374E+03  0.7957747E-01  0.3438896E+00
         13   -1    0    0    0    0  0.00000000000E+00  0.00000000000E+00  0.14999999963E+04  0.15000000000E+04  0.10566000000E+00 0. -1.
        994   -1    0    0    0    0 -0.00000000000E+00 -0.00000000000E+00  0.11368683772E-12  0.17120000000E+03  0.17120000000E+03 0.  0.
         13    1    1    2    0    0  0.15819887050E+02 -0.69438763550E+01  0.57143607234E+02  0.59698318711E+02  0.10566000000E+00 0. -1.
        994    1    1    2    0    0 -0.25542728930E+01 -0.43587917046E+01  0.27921617125E+01  0.17129728411E+03  0.17120000000E+03 0.  0.
        998    1    1    2    0    0 -0.13265614157E+02  0.11302668060E+02  0.14400642273E+04  0.14402043972E+04  0.10000000000E+02 0. -1.
</event>
<event>
 5    1  0.1488417E-008  0.3755611E+03  0.7957747E-01  0.3470717E+00
         13   -1    0    0    0    0  0.00000000000E+00  0.00000000000E+00  0.14999999963E+04  0.15000000000E+04  0.10566000000E+00 0. -1.
        994   -1    0    0    0    0 -0.00000000000E+00 -0.00000000000E+00  0.11368683772E-12  0.17120000000E+03  0.17120000000E+03 0.  0.
         13    1    1    2    0    0 -0.25139407108E+02 -0.50301288171E+00  0.47242862796E+02  0.53517679891E+02  0.10566000000E+00 0. -1.
        994    1    1    2    0    0  0.14700539810E+02  0.11820629000E+01  0.71291292555E+01  0.17198188168E+03  0.17120000000E+03 0.  0.
        998    1    1    2    0    0  0.10438867298E+02 -0.67905001833E+00  0.14456280042E+04  0.14457004384E+04  0.10000000000E+02 0. -1.
</event>
<event>
 5    1  0.1488417E-008  0.3741325E+03  0.7957747E-01  0.3477112E+00
         13   -1    0    0    0    0  0.00000000000E+00  0.00000000000E+00  0.14999999963E+04  0.15000000000E+04  0.10566000000E+00 0. -1.
        994   -1    0    0    0    0 -0.00000000000E+00 -0.00000000000E+00  0.11368683772E-12  0.17120000000E+03  0.17120000000E+03 0.  0.
         13    1    1    2    0    0 -0.68340230058E+01 -0.16803308382E+02  0.20150406982E+02  0.27112821849E+02  0.10566000000E+00 0. -1.
        994    1    1    2    0    0 -0.53266886669E+01  0.13500751277E+02  0.78433409083E+01  0.17199302862E+03  0.17120000000E+03 0.  0.
        998    1    1    2    0    0  0.12160711673E+02  0.33025571048E+01  0.14720062484E+04  0.14720941495E+04  0.10000000000E+02 0. -1.
</event>
<event>
 5    1  0.1488417E-008  0.3741889E+03  0.7957747E-01  0.3476858E+00
         13   -1    0    0    0    0  0.00000000000E+00  0.00000000000E+00  0.14999999963E+04  0.15000000000E+04  0.10566000000E+00 0. -1.
        994   -1    0    0    0    0 -0.00000000000E+00 -0.00000000000E+00  0.11368683772E-12  0.17120000000E+03  0.17120000000E+03 0.  0.
         13    1    1    2    0    0 -0.24609124650E+02  0.54084740326E+02  0.35736286133E+03  0.36226922858E+03  0.10566000000E+00 0. -1.
        994    1    1    2    0    0 -0.47056755531E+01  0.70683907924E+01  0.73416241473E+01  0.17156761051E+03  0.17120000000E+03 0.  0.
        998    1    1    2    0    0  0.29314800203E+02 -0.61153131118E+02  0.11352955108E+04  0.11373631609E+04  0.10000000000E+02 0. -1.
</event>
<event>
 5    1  0.1488417E-008  0.3831031E+03  0.7957747E-01  0.3437757E+00
         13   -1    0    0    0    0  0.00000000000E+00  0.00000000000E+00  0.14999999963E+04  0.15000000000E+04  0.10566000000E+00 0. -1.
        994   -1    0    0    0    0 -0.00000000000E+00 -0.00000000000E+00  0.11368683772E-12  0.17120000000E+03  0.17120000000E+03 0.  0.
         13    1    1    2    0    0  0.35495556037E+02 -0.79803820285E+01  0.21645718583E+03  0.21949338363E+03  0.10566000000E+00 0. -1.
        994    1    1    2    0    0 -0.40065720029E+02  0.11309483950E+01  0.79091681993E+01  0.17600720413E+03  0.17120000000E+03 0.  0.
        998    1    1    2    0    0  0.45701639922E+01  0.68494336335E+01  0.12756336422E+04  0.12756994122E+04  0.10000000000E+02 0. -1.
</event>
<event>
 5    1  0.1488417E-008  0.3831677E+03  0.7957747E-01  0.3437480E+00
         13   -1    0    0    0    0  0.00000000000E+00  0.00000000000E+00  0.14999999963E+04  0.15000000000E+04  0.10566000000E+00 0.  1.
        994   -1    0    0    0    0 -0.00000000000E+00 -0.00000000000E+00  0.11368683772E-12  0.17120000000E+03  0.17120000000E+03 0.  0.
         13    1    1    2    0    0  0.92948757215E+01  0.77188601907E+01  0.26265723449E+02  0.28911501339E+02  0.10566000000E+00 0.  1.
        994    1    1    2    0    0 -0.14847693995E+02 -0.21414646700E+02  0.47922725462E+01  0.17323812221E+03  0.17120000000E+03 0.  0.
        998    1    1    2    0    0  0.55528182739E+01  0.13695786509E+02  0.14689420003E+04  0.14690503765E+04  0.10000000000E+02 0.  1.
</event>
<event>
 5    1  0.1488417E-008  0.3743897E+03  0.7957747E-01  0.3475957E+00
         13   -1    0    0    0    0  0.00000000000E+00  0.00000000000E+00  0.14999999963E+04  0.15000000000E+04  0.10566000000E+00 0. -1.
        994   -1    0    0    0    0 -0.00000000000E+00 -0.00000000000E+00  0.11368683772E-12  0.17120000000E+03  0.17120000000E+03 0.  0.
         13    1    1    2    0    0  0.91627532929E+02  0.38786199518E+02  0.52671182832E+03  0.53602736434E+03  0.10566000000E+00 0. -1.
        994    1    1    2    0    0 -0.67106999344E+02 -0.70529424869E+02  0.39995307304E+02  0.20096470770E+03  0.17120000000E+03 0.  0.
        998    1    1    2    0    0 -0.24520533585E+02  0.31743225351E+02  0.93329286065E+03  0.93420792796E+03  0.10000000000E+02 0. -1.
</event>
<event>
 5    1  0.1488417E-008  0.3838021E+03  0.7957747E-01  0.3434769E+00
         13   -1    0    0    0    0  0.00000000000E+00  0.00000000000E+00  0.14999999963E+04  0.15000000000E+04  0.10566000000E+00 0. -1.
        994   -1    0    0    0    0 -0.00000000000E+00 -0.00000000000E+00  0.11368683772E-12  0.17120000000E+03  0.17120000000E+03 0.  0.
         13    1    1    2    0    0 -0.12305417764E+02 -0.90243180487E+01  0.50822027709E+02  0.53063653163E+02  0.10566000000E+00 0. -1.
        994    1    1    2    0    0  0.13986579562E+02  0.44412989767E+01  0.29373269724E+01  0.17185289475E+03  0.17120000000E+03 0.  0.
        998    1    1    2    0    0 -0.16811617974E+01  0.45830190720E+01  0.14462406416E+04  0.14462834521E+04  0.10000000000E+02 0. -1.
</event>
<event>
 5    1  0.1488417E-008  0.3709837E+03  0.7957747E-01  0.3491382E+00
         13   -1    0    0    0    0  0.00000000000E+00  0.00000000000E+00  0.14999999963E+04  0.15000000000E+04  0.10566000000E+00 0.  1.
        994   -1    0    0    0    0 -0.00000000000E+00 -0.00000000000E+00  0.11368683772E-12  0.17120000000E+03  0.17120000000E+03 0.  0.
         13    1    1    2    0    0 -0.72891399141E+02 -0.89025377070E+02  0.48035038691E+03  0.49393843665E+03  0.10566000000E+00 0.  1.
        994    1    1    2    0    0  0.68877320659E+02  0.59199601389E+02  0.40987872272E+02  0.19808615242E+03  0.17120000000E+03 0.  0.
        998    1    1    2    0    0  0.40140784820E+01  0.29825775681E+02  0.97866173710E+03  0.97917541094E+03  0.10000000000E+02 0.  1.
</event>
<event>
 5    1  0.1488417E-008  0.3849206E+03  0.7957747E-01  0.3430009E+00
         13   -1    0    0    0    0  0.00000000000E+00  0.00000000000E+00  0.14999999963E+04  0.15000000000E+04  0.10566000000E+00 0. -1.
        994   -1    0    0    0    0 -0.00000000000E+00 -0.00000000000E+00  0.11368683772E-12  0.17120000000E+03  0.17120000000E+03 0.  0.
         13    1    1    2    0    0 -0.86527375057E+01  0.60218285040E+01  0.32643749032E+02  0.34303903565E+02  0.10566000000E+00 0. -1.
        994    1    1    2    0    0  0.28106566977E+01 -0.13364838711E+02  0.22833807138E+01  0.17175905371E+03  0.17120000000E+03 0.  0.
        998    1    1    2    0    0  0.58420808079E+01  0.73430102066E+01  0.14650728665E+04  0.14651370427E+04  0.10000000000E+02 0. -1.
</event>
<event>
 5    1  0.1488417E-008  0.3812811E+03  0.7957747E-01  0.3445599E+00
         13   -1    0    0    0    0  0.00000000000E+00  0.00000000000E+00  0.14999999963E+04  0.15000000000E+04  0.10566000000E+00 0.  1.
        994   -1    0    0    0    0 -0.00000000000E+00 -0.00000000000E+00  0.11368683772E-12  0.17120000000E+03  0.17120000000E+03 0.  0.
         13    1    1    2    0    0  0.14173853248E+02 -0.38059775578E+01  0.31730415549E+02  0.34960177575E+02  0.10566000000E+00 0.  1.
        994    1    1    2    0    0  0.12253851755E+02  0.14564749713E+01  0.39948964978E+01  0.17169064447E+03  0.17120000000E+03 0.  0.
        998    1    1    2    0    0 -0.26427705004E+02  0.23495025865E+01  0.14642746842E+04  0.14645491780E+04  0.10000000000E+02 0.  1.
</event>
<event>
 5    1  0.1488417E-008  0.3750321E+03  0.7957747E-01  0.3473079E+00
         13   -1    0    0    0    0  0.00000000000E+00  0.00000000000E+00  0.14999999963E+04  0.15000000000E+04  0.10566000000E+00 0. -1.
        994   -1    0    0    0    0 -0.00000000000E+00 -0.00000000000E+00  0.11368683772E-12  0.17120000000E+03  0.17120000000E+03 0.  0.
         13    1    1    2    0    0  0.29656139538E+02  0.41805078327E+02  0.19632338398E+03  0.20290400057E+03  0.10566000000E+00 0. -1.
        994    1    1    2    0    0 -0.22690645323E+02 -0.19023253745E+02  0.96479156771E+01  0.17400940160E+03  0.17120000000E+03 0.  0.
        998    1    1    2    0    0 -0.69654942149E+01 -0.22781824582E+02  0.12940286966E+04  0.12942865978E+04  0.10000000000E+02 0. -1.
</event>
<event>
 5    1  0.1488417E-008  0.3832434E+03  0.7957747E-01  0.3437157E+00
         13   -1    0    0    0    0  0.00000000000E+00  0.00000000000E+00  0.14999999963E+04  0.15000000000E+04  0.10566000000E+00 0. -1.
        994   -1    0    0    0    0 -0.00000000000E+00 -0.00000000000E+00  0.11368683772E-12  0.17120000000E+03  0.17120000000E+03 0.  0.
         13    1    1    2    0    0  0.11811396129E+02 -0.51113245781E+01  0.33727232850E+02  0.36099475304E+02  0.10566000000E+00 0. -1.
        994    1    1    2    0    0  0.43746162203E+01  0.34054328433E+01  0.26064524084E+01  0.17130956726E+03  0.17120000000E+03 0.  0.
        998    1    1    2    0    0 -0.16186012349E+02  0.17058917348E+01  0.14636663110E+04  0.14637909574E+04  0.10000000000E+02 0. -1.
</event>
<event>
 5    1  0.1488417E-008  0.3815339E+03  0.7957747E-01  0.3444507E+00
         13   -1    0    0    0    0  0.00000000000E+00  0.00000000000E+00  0.14999999963E+04  0.15000000000E+04  0.10566000000E+00 0. -1.
        994   -1    0    0    0    0 -0.00000000000E+00 -0.00000000000E+00  0.11368683772E-12  0.17120000000E+03  0.17120000000E+03 0.  0.
         13    1    1    2    0    0 -0.83177292369E+01 -0.13988574062E+02  0.38682695908E+02  0.41966974524E+02  0.10566000000E+00 0. -1.
        994    1    1    2    0    0  0.14672273091E+02 -0.17466149307E+00  0.40772966940E+01  0.17187603222E+03  0.17120000000E+03 0.  0.
        998    1    1    2    0    0 -0.63545438546E+01  0.14163235555E+02  0.14572400037E+04  0.14573569933E+04  0.10000000000E+02 0. -1.
</event>
<event>
 5    1  0.1488417E-008  0.3852735E+03  0.7957747E-01  0.3428513E+00
         13   -1    0    0    0    0  0.00000000000E+00  0.00000000000E+00  0.14999999963E+04  0.15000000000E+04  0.10566000000E+00 0. -1.
        994   -1    0    0    0    0 -0.00000000000E+00 -0.00000000000E+00  0.11368683772E-12  0.17120000000E+03  0.17120000000E+03 0.  0.
         13    1    1    2    0    0  0.13507762160E+02 -0.54126154978E+00  0.64983919927E+02  0.66375248518E+02  0.10566000000E+00 0. -1.
        994    1    1    2    0    0 -0.54531608628E-01  0.48379703829E+01  0.15713342998E+01  0.17127556166E+03  0.17120000000E+03 0.  0.
        998    1    1    2    0    0 -0.13453230552E+02 -0.42967088331E+01  0.14334447421E+04  0.14335491898E+04  0.10000000000E+02 0. -1.
</event>
<event>
 5    1  0.1488417E-008  0.3859067E+03  0.7957747E-01  0.3425836E+00
         13   -1    0    0    0    0  0.00000000000E+00  0.00000000000E+00  0.14999999963E+04  0.15000000000E+04  0.10566000000E+00 0.  1.
        994   -1    0    0    0    0 -0.00000000000E+00 -0.00000000000E+00  0.11368683772E-12  0.17120000000E+03  0.17120000000E+03 0.  0.
         13    1    1    2    0    0  0.44351335390E+01 -0.99942715479E+01  0.49646750589E+02  0.50836668669E+02  0.10566000000E+00 0.  1.
        994    1    1    2    0    0 -0.32508234477E+01  0.11666866537E+02  0.16617861757E+01  0.17163590872E+03  0.17120000000E+03 0.  0.
        998    1    1    2    0    0 -0.11843100913E+01 -0.16725949895E+01  0.14486914595E+04  0.14487274226E+04  0.10000000000E+02 0.  1.
</event>
<event>
 5    1  0.1570861E-008  0.3851399E+03  0.7957747E-01  0.3429079E+00
         13   -1    0    0    0    0  0.00000000000E+00  0.00000000000E+00  0.14999999963E+04  0.15000000000E+04  0.10566000000E+00 0. -1.
        994   -1    0    0    0    0 -0.00000000000E+00 -0.00000000000E+00  0.11368683772E-12  0.17120000000E+03  0.17120000000E+03 0.  0.
         13    1    1    2    0    0 -0.83511841448E+01 -0.62882080948E+01  0.34901917540E+02  0.36434034221E+02  0.10566000000E+00 0. -1.
        994    1    1    2    0    0  0.67146827133E+01  0.27829315329E+01  0.17343995091E+01  0.17136300597E+03  0.17120000000E+03 0.  0.
        998    1    1    2    0    0  0.16365014315E+01  0.35052765620E+01  0.14633636792E+04  0.14634029598E+04  0.10000000000E+02 0. -1.
</event>
<event>
 5    1  0.1488417E-008  0.3713546E+03  0.7957747E-01  0.3489689E+00
         13   -1    0    0    0    0  0.00000000000E+00  0.00000000000E+00  0.14999999963E+04  0.15000000000E+04  0.10566000000E+00 0. -1.
        994   -1    0    0    0    0 -0.00000000000E+00 -0.00000000000E+00  0.11368683772E-12  0.17120000000E+03  0.17120000000E+03 0.  0.
         13    1    1    2    0    0 -0.33640092188E+02  0.11492295754E+02  0.74500356030E+02  0.82547216045E+02  0.10566000000E+00 0. -1.
        994    1    1    2    0    0  0.10730532609E+02  0.92815153472E+01  0.92558105872E+01  0.17203604531E+03  0.17120000000E+03 0.  0.
        998    1    1    2    0    0  0.22909559579E+02 -0.20773811102E+02  0.14162438297E+04  0.14166167386E+04  0.10000000000E+02 0. -1.
</event>
<event>
 5    1  0.1488417E-008  0.3719835E+03  0.7957747E-01  0.3486825E+00
         13   -1    0    0    0    0  0.00000000000E+00  0.00000000000E+00  0.14999999963E+04  0.15000000000E+04  0.10566000000E+00 0. -1.
        994   -1    0    0    0    0 -0.00000000000E+00 -0.00000000000E+00  0.11368683772E-12  0.17120000000E+03  0.17120000000E+03 0.  0.
         13    1    1    2    0    0  0.18735691916E+02 -0.11249299522E+01  0.91963468492E+01  0.20901568802E+02  0.10566000000E+00 0. -1.
        994    1    1    2    0    0 -0.21676396054E+02  0.93428331845E+00  0.13650388786E+02  0.17310838265E+03  0.17120000000E+03 0.  0.
        998    1    1    2    0    0  0.29407041380E+01  0.19064663375E+00  0.14771532606E+04  0.14771900485E+04  0.10000000000E+02 0. -1.
</event>
<event>
 5    1  0.1488417E-008  0.2534932E+03  0.7957747E-01  0.4296540E+00
         13   -1    0    0    0    0  0.00000000000E+00  0.00000000000E+00  0.14999999963E+04  0.15000000000E+04  0.10566000000E+00 0. -1.
        994   -1    0    0    0    0 -0.00000000000E+00 -0.00000000000E+00  0.11368683772E-12  0.17120000000E+03  0.17120000000E+03 0.  0.
         13    1    1    2    0    0  0.91279850412E+01 -0.18600494769E+03  0.23715486177E+03  0.30153540472E+03  0.10566000000E+00 0. -1.
        994    1    1    2    0    0 -0.93434089030E+01  0.18467622948E+03  0.24399441960E+03  0.35076391750E+03  0.17120000000E+03 0.  0.
        998    1    1    2    0    0  0.21542386178E+00  0.13287182163E+01  0.10188507149E+04  0.10189006778E+04  0.10000000000E+02 0.  0.
</event>
<event>
 5    1  0.1488417E-008  0.3767066E+03  0.7957747E-01  0.3465625E+00
         13   -1    0    0    0    0  0.00000000000E+00  0.00000000000E+00  0.14999999963E+04  0.15000000000E+04  0.10566000000E+00 0. -1.
        994   -1    0    0    0    0 -0.00000000000E+00 -0.00000000000E+00  0.11368683772E-12  0.17120000000E+03  0.17120000000E+03 0.  0.
         13    1    1    2    0    0 -0.94918148590E+01  0.23418659235E+02  0.50968017886E+02  0.56888295465E+02  0.10566000000E+00 0. -1.
        994    1    1    2    0    0  0.33012592655E+01 -0.27588179186E+02  0.84185427332E+01  0.17364422768E+03  0.17120000000E+03 0.  0.
        998    1    1    2    0    0  0.61905555935E+01  0.41695199515E+01  0.14406134357E+04  0.14406674769E+04  0.10000000000E+02 0. -1.
</event>
<event>
 5    1  0.1488417E-008  0.3833754E+03  0.7957747E-01  0.3436592E+00
         13   -1    0    0    0    0  0.00000000000E+00  0.00000000000E+00  0.14999999963E+04  0.15000000000E+04  0.10566000000E+00 0. -1.
        994   -1    0    0    0    0 -0.00000000000E+00 -0.00000000000E+00  0.11368683772E-12  0.17120000000E+03  0.17120000000E+03 0.  0.
         13    1    1    2    0    0 -0.11872879113E+02  0.12770010114E+01  0.29435486386E+02  0.31765626278E+02  0.10566000000E+00 0. -1.
        994    1    1    2    0    0 -0.58889551616E+00  0.45369520356E+01  0.25080783477E+01  0.17127948268E+03  0.17120000000E+03 0.  0.
        998    1    1    2    0    0  0.12461774629E+02 -0.58139530470E+01  0.14680564315E+04  0.14681548910E+04  0.10000000000E+02 0. -1.
</event>
<event>
 5    1  0.1488417E-008  0.3761144E+03  0.7957747E-01  0.3468254E+00
         13   -1    0    0    0    0  0.00000000000E+00  0.00000000000E+00  0.14999999963E+04  0.15000000000E+04  0.10566000000E+00 0.  1.
        994   -1    0    0    0    0 -0.00000000000E+00 -0.00000000000E+00  0.11368683772E-12  0.17120000000E+03  0.17120000000E+03 0.  0.
         13    1    1    2    0    0  0.10008386324E+02 -0.25824291227E+02  0.20879354600E+02  0.34684584857E+02  0.10566000000E+00 0.  1.
        994    1    1    2    0    0  0.64992966277E+01  0.28561268999E+02  0.17280430408E+02  0.17454523832E+03  0.17120000000E+03 0.  0.
        998    1    1    2    0    0 -0.16507682952E+02 -0.27369777728E+01  0.14618402113E+04  0.14619701768E+04  0.10000000000E+02 0.  1.
</event>
<event>
 5    1  0.1488417E-008  0.3809987E+03  0.7957747E-01  0.3446822E+00
         13   -1    0    0    0    0  0.00000000000E+00  0.00000000000E+00  0.14999999963E+04  0.15000000000E+04  0.10566000000E+00 0. -1.
        994   -1    0    0    0    0 -0.00000000000E+00 -0.00000000000E+00  0.11368683772E-12  0.17120000000E+03  0.17120000000E+03 0.  0.
         13    1    1    2    0    0  0.21676365086E+02  0.31301245605E+02  0.20929949289E+03  0.21273439231E+03  0.10566000000E+00 0. -1.
        994    1    1    2    0    0  0.38904252972E+01 -0.21987009689E+02  0.52928170448E+01  0.17273105661E+03  0.17120000000E+03 0.  0.
        998    1    1    2    0    0 -0.25566790383E+02 -0.93142359153E+01  0.12854076863E+04  0.12857345511E+04  0.10000000000E+02 0. -1.
</event>
<event>
 5    1  0.1488417E-008  0.3856129E+03  0.7957747E-01  0.3427077E+00
         13   -1    0    0    0    0  0.00000000000E+00  0.00000000000E+00  0.14999999963E+04  0.15000000000E+04  0.10566000000E+00 0. -1.
        994   -1    0    0    0    0 -0.00000000000E+00 -0.00000000000E+00  0.11368683772E-12  0.17120000000E+03  0.17120000000E+03 0.  0.
         13    1    1    2    0    0  0.11691670138E+02 -0.10792691806E+02  0.86706135215E+02  0.88154083257E+02  0.10566000000E+00 0. -1.
        994    1    1    2    0    0 -0.12175941699E+02  0.21154454831E+02  0.32839505575E+01  0.17296239142E+03  0.17120000000E+03 0.  0.
        998    1    1    2    0    0  0.48427156097E+00 -0.10361763024E+02  0.14100099105E+04  0.14100835253E+04  0.10000000000E+02 0. -1.
</event>
<event>
 5    1  0.1488417E-008  0.3853930E+03  0.7957747E-01  0.3428007E+00
         13   -1    0    0    0    0  0.00000000000E+00  0.00000000000E+00  0.14999999963E+04  0.15000000000E+04  0.10566000000E+00 0.  1.
        994   -1    0    0    0    0 -0.00000000000E+00 -0.00000000000E+00  0.11368683772E-12  0.17120000000E+03  0.17120000000E+03 0.  0.
         13    1    1    2    0    0 -0.11751872409E+02  0.69726560828E+01  0.64503795451E+02  0.65935386778E+02  0.10566000000E+00 0.  1.
        994    1    1    2    0    0  0.78901779644E+01 -0.80891510789E+01  0.18546417177E+01  0.17158254273E+03  0.17120000000E+03 0.  0.
        998    1    1    2    0    0  0.38616944447E+01  0.11164949961E+01  0.14336415591E+04  0.14336820705E+04  0.10000000000E+02 0.  1.
</event>
<event>
 5    1  0.1488417E-008  0.3822406E+03  0.7957747E-01  0.3441460E+00
         13   -1    0    0    0    0  0.00000000000E+00  0.00000000000E+00  0.14999999963E+04  0.15000000000E+04  0.10566000000E+00 0.  1.
        994   -1    0    0    0    0 -0.00000000000E+00 -0.00000000000E+00  0.11368683772E-12  0.17120000000E+03  0.17120000000E+03 0.  0.
         13    1    1    2    0    0  0.14031079335E+01 -0.99113949526E+01  0.15957283562E+02  0.18837476596E+02  0.10566000000E+00 0.  1.
        994    1    1    2    0    0 -0.31630653426E+01 -0.52723958523E+01  0.31318294284E+01  0.17133899584E+03  0.17120000000E+03 0.  0.
        998    1    1    2    0    0  0.17599574091E+01  0.15183790805E+02  0.14809108833E+04  0.14810235276E+04  0.10000000000E+02 0.  1.
</event>
<event>
 5    1  0.1488417E-008  0.3836184E+03  0.7957747E-01  0.3435553E+00
         13   -1    0    0    0    0  0.00000000000E+00  0.00000000000E+00  0.14999999963E+04  0.15000000000E+04  0.10566000000E+00 0.  1.
        994   -1    0    0    0    0 -0.00000000000E+00 -0.00000000000E+00  0.11368683772E-12  0.17120000000E+03  0.17120000000E+03 0.  0.
         13    1    1    2    0    0  0.67254759733E+01  0.12983516753E+02  0.45009530218E+02  0.47325180495E+02  0.10566000000E+00 0.  1.
        994    1    1    2    0    0 -0.37275197275E+01 -0.11784323089E+02  0.28224496046E+01  0.17166878253E+03  0.17120000000E+03 0.  0.
        998    1    1    2    0    0 -0.29979562458E+01 -0.11991936639E+01  0.14521680165E+04  0.14522060370E+04  0.10000000000E+02 0.  1.
</event>
<event>
 5    1  0.1488417E-008  0.3747508E+03  0.7957747E-01  0.3474338E+00
         13   -1    0    0    0    0  0.00000000000E+00  0.00000000000E+00  0.14999999963E+04  0.15000000000E+04  0.10566000000E+00 0.  1.
        994   -1    0    0    0    0 -0.00000000000E+00 -0.00000000000E+00  0.11368683772E-12  0.17120000000E+03  0.17120000000E+03 0.  0.
         13    1    1    2    0    0  0.58072498041E+01 -0.47281800182E+02  0.17130998332E+03  0.17781005126E+03  0.10566000000E+00 0.  1.
        994    1    1    2    0    0  0.26834844410E+02  0.24681967363E+02  0.11342524482E+02  0.17540638885E+03  0.17120000000E+03 0.  0.
        998    1    1    2    0    0 -0.32642094214E+02  0.22599832819E+02  0.13173474885E+04  0.13179835599E+04  0.10000000000E+02 0.  1.
</event>
<event>
 5    1  0.1488417E-008  0.3855527E+03  0.7957747E-01  0.3427332E+00
         13   -1    0    0    0    0  0.00000000000E+00  0.00000000000E+00  0.14999999963E+04  0.15000000000E+04  0.10566000000E+00 0.  1.
        994   -1    0    0    0    0 -0.00000000000E+00 -0.00000000000E+00  0.11368683772E-12  0.17120000000E+03  0.17120000000E+03 0.  0.
         13    1    1    2    0    0  0.11244734147E+02 -0.36791379137E+01  0.50978925290E+02  0.52333947774E+02  0.10566000000E+00 0.  1.
        994    1    1    2    0    0 -0.11198371891E+02  0.56690240818E+00  0.17688258070E+01  0.17157591223E+03  0.17120000000E+03 0.  0.
        998    1    1    2    0    0 -0.46362255947E-01  0.31122355056E+01  0.14472522452E+04  0.14472901400E+04  0.10000000000E+02 0.  1.
</event>
<event>
 5    1  0.1488417E-008  0.3808580E+03  0.7957747E-01  0.3447431E+00
         13   -1    0    0    0    0  0.00000000000E+00  0.00000000000E+00  0.14999999963E+04  0.15000000000E+04  0.10566000000E+00 0.  1.
        994   -1    0    0    0    0 -0.00000000000E+00 -0.00000000000E+00  0.11368683772E-12  0.17120000000E+03  0.17120000000E+03 0.  0.
         13    1    1    2    0    0  0.39560493770E+02 -0.38081296650E+02  0.10077235988E+03  0.11476191660E+03  0.10566000000E+00 0.  1.
        994    1    1    2    0    0 -0.30692450498E+01 -0.34759468751E+02  0.21238106663E+02  0.17600607406E+03  0.17120000000E+03 0.  0.
        998    1    1    2    0    0 -0.36491248720E+02  0.72840765401E+02  0.13779895297E+04  0.13804320093E+04  0.10000000000E+02 0.  1.
</event>
<event>
 5    1  0.1488417E-008  0.3814701E+03  0.7957747E-01  0.3444782E+00
         13   -1    0    0    0    0  0.00000000000E+00  0.00000000000E+00  0.14999999963E+04  0.15000000000E+04  0.10566000000E+00 0. -1.
        994   -1    0    0    0    0 -0.00000000000E+00 -0.00000000000E+00  0.11368683772E-12  0.17120000000E+03  0.17120000000E+03 0.  0.
         13    1    1    2    0    0  0.28097520497E+02 -0.43079221027E+02  0.30995871980E+03  0.31419692724E+03  0.10566000000E+00 0. -1.
        994    1    1    2    0    0 -0.22800062192E+02  0.47150260947E+02  0.12572449725E+02  0.17947282924E+03  0.17120000000E+03 0.  0.
        998    1    1    2    0    0 -0.52974583055E+01 -0.40710399195E+01  0.11774688268E+04  0.11775302435E+04  0.10000000000E+02 0. -1.
</event>
<event>
 5    1  0.1488417E-008  0.3787229E+03  0.7957747E-01  0.3456738E+00
         13   -1    0    0    0    0  0.00000000000E+00  0.00000000000E+00  0.14999999963E+04  0.15000000000E+04  0.10566000000E+00 0. -1.
        994   -1    0    0    0    0 -0.00000000000E+00 -0.00000000000E+00  0.11368683772E-12  0.17120000000E+03  0.17120000000E+03 0.  0.
         13    1    1    2    0    0  0.23401449457E+02  0.21945494136E+02  0.27201421274E+02  0.42061395994E+02  0.10566000000E+00 0. -1.
        994    1    1    2    0    0 -0.17491562334E+02 -0.28130579391E+01  0.16760354631E+02  0.17292835955E+03  0.17120000000E+03 0.  0.
        998    1    1    2    0    0 -0.59098871231E+01 -0.19132436197E+02  0.14560382204E+04  0.14562102445E+04  0.10000000000E+02 0. -1.
</event>
<event>
 5    1  0.1488417E-008  0.3712471E+03  0.7957747E-01  0.3490179E+00
         13   -1    0    0    0    0  0.00000000000E+00  0.00000000000E+00  0.14999999963E+04  0.15000000000E+04  0.10566000000E+00 0. -1.
        994   -1    0    0    0    0 -0.00000000000E+00 -0.00000000000E+00  0.11368683772E-12  0.17120000000E+03  0.17120000000E+03 0.  0.
         13    1    1    2    0    0  0.76761692715E+01  0.84581450167E+01  0.35270983163E+01  0.11954722012E+02  0.10566000000E+00 0. -1.
        994    1    1    2    0    0 -0.12869085234E+02 -0.58884766461E+01  0.93084987604E+01  0.17203597200E+03  0.17120000000E+03 0.  0.
        998    1    1    2    0    0  0.51929159627E+01 -0.25696683706E+01  0.14871643992E+04  0.14872093060E+04  0.10000000000E+02 0. -1.
</event>
<event>
 5    1  0.1663139E-008  0.3858927E+03  0.7957747E-01  0.3425895E+00
         13   -1    0    0    0    0  0.00000000000E+00  0.00000000000E+00  0.14999999963E+04  0.15000000000E+04  0.10566000000E+00 0. -1.
        994   -1    0    0    0    0 -0.00000000000E+00 -0.00000000000E+00  0.11368683772E-12  0.17120000000E+03  0.17120000000E+03 0.  0.
         13    1    1    2    0    0 -0.11424100472E+01 -0.10304210382E+02  0.45799547987E+02  0.46958402998E+02  0.10566000000E+00 0. -1.
        994    1    1    2    0    0 -0.11911440063E+01  0.67827120607E+01  0.13431204875E+01  0.17134371299E+03  0.17120000000E+03 0.  0.
        998    1    1    2    0    0  0.23335540535E+01  0.35214983208E+01  0.14528573278E+04  0.14528978840E+04  0.10000000000E+02 0. -1.
</event>
<event>
 5    1  0.1488417E-008  0.3793016E+03  0.7957747E-01  0.3454205E+00
         13   -1    0    0    0    0  0.00000000000E+00  0.00000000000E+00  0.14999999963E+04  0.15000000000E+04  0.10566000000E+00 0. -1.
        994   -1    0    0    0    0 -0.00000000000E+00 -0.00000000000E+00  0.11368683772E-12  0.17120000000E+03  0.17120000000E+03 0.  0.
         13    1    1    2    0    0 -0.37733417461E+02 -0.21835892591E+02  0.22972354149E+03  0.23382372351E+03  0.10566000000E+00 0. -1.
        994    1    1    2    0    0  0.12555521566E+02  0.57267678411E+01  0.51244413946E+01  0.17183171096E+03  0.17120000000E+03 0.  0.
        998    1    1    2    0    0  0.25177895895E+02  0.16109124750E+02  0.12651520134E+04  0.12655445655E+04  0.10000000000E+02 0. -1.
</event>
<event>
 5    1  0.1488417E-008  0.3838084E+03  0.7957747E-01  0.3434742E+00
         13   -1    0    0    0    0  0.00000000000E+00  0.00000000000E+00  0.14999999963E+04  0.15000000000E+04  0.10566000000E+00 0. -1.
        994   -1    0    0    0    0 -0.00000000000E+00 -0.00000000000E+00  0.11368683772E-12  0.17120000000E+03  0.17120000000E+03 0.  0.
         13    1    1    2    0    0 -0.45480699447E+02 -0.80129964127E+02  0.21928827947E+03  0.23785849964E+03  0.10566000000E+00 0. -1.
        994    1    1    2    0    0  0.50170645697E+01  0.69771481716E+02  0.36646949516E+02  0.18853559215E+03  0.17120000000E+03 0.  0.
        998    1    1    2    0    0  0.40463634877E+02  0.10358482411E+02  0.12440647673E+04  0.12448059082E+04  0.10000000000E+02 0. -1.
</event>
<event>
 5    1  0.1488417E-008  0.3803147E+03  0.7957747E-01  0.3449790E+00
         13   -1    0    0    0    0  0.00000000000E+00  0.00000000000E+00  0.14999999963E+04  0.15000000000E+04  0.10566000000E+00 0.  1.
        994   -1    0    0    0    0 -0.00000000000E+00 -0.00000000000E+00  0.11368683772E-12  0.17120000000E+03  0.17120000000E+03 0.  0.
         13    1    1    2    0    0 -0.17655950377E+02 -0.50598351316E+01  0.40917547940E+02  0.44850768206E+02  0.10566000000E+00 0.  1.
        994    1    1    2    0    0  0.13903000765E+02 -0.37850106573E+01  0.46680301869E+01  0.17186870059E+03  0.17120000000E+03 0.  0.
        998    1    1    2    0    0  0.37529496117E+01  0.88448457888E+01  0.14544144182E+04  0.14544805312E+04  0.10000000000E+02 0.  1.
</event>
<event>
 5    1  0.1488417E-008  0.3839430E+03  0.7957747E-01  0.3434167E+00
         13   -1    0    0    0    0  0.00000000000E+00  0.00000000000E+00  0.14999999963E+04  0.15000000000E+04  0.10566000000E+00 0. -1.
        994   -1    0    0    0    0 -0.00000000000E+00 -0.00000000000E+00  0.11368683772E-12  0.17120000000E+03  0.17120000000E+03 0.  0.
         13    1    1    2    0    0  0.15581028693E+02 -0.19676045563E+02  0.13871529931E+03  0.14096758723E+03  0.10566000000E+00 0. -1.
        994    1    1    2    0    0 -0.10479857042E+02  0.18798574246E+02  0.36858848448E+01  0.17258690432E+03  0.17120000000E+03 0.  0.
        998    1    1    2    0    0 -0.51011716513E+01  0.87747131705E+00  0.13575988121E+04  0.13576455084E+04  0.10000000000E+02 0. -1.
</event>
<event>
 5    1  0.1955579E-008  0.3865288E+03  0.7957747E-01  0.3423214E+00
         13   -1    0    0    0    0  0.00000000000E+00  0.00000000000E+00  0.14999999963E+04  0.15000000000E+04  0.10566000000E+00 0. -1.
        994   -1    0    0    0    0 -0.00000000000E+00 -0.00000000000E+00  0.11368683772E-12  0.17120000000E+03  0.17120000000E+03 0.  0.
         13    1    1    2    0    0 -0.91215555496E+01 -0.68929979729E+01  0.66913098162E+02  0.67882914392E+02  0.10566000000E+00 0. -1.
        994    1    1    2    0    0  0.14054328204E+02  0.20468092114E+02  0.28929494484E+01  0.17301524815E+03  0.17120000000E+03 0.  0.
        998    1    1    2    0    0 -0.49327726545E+01 -0.13575094141E+02  0.14301939487E+04  0.14303018375E+04  0.10000000000E+02 0. -1.
</event>
<event>
 5    1  0.1488417E-008  0.3845021E+03  0.7957747E-01  0.3431786E+00
         13   -1    0    0    0    0  0.00000000000E+00  0.00000000000E+00  0.14999999963E+04  0.15000000000E+04  0.10566000000E+00 0.  1.
        994   -1    0    0    0    0 -0.00000000000E+00 -0.00000000000E+00  0.11368683772E-12  0.17120000000E+03  0.17120000000E+03 0.  0.
         13    1    1    2    0    0 -0.59861488335E+01 -0.15911049478E+02  0.81169585731E+02  0.82930743908E+02  0.10566000000E+00 0.  1.
        994    1    1    2    0    0 -0.15758397009E+01  0.33892150563E+01  0.19235465803E+01  0.17125159877E+03  0.17120000000E+03 0.  0.
        998    1    1    2    0    0  0.75619885344E+01  0.12521834421E+02  0.14169068640E+04  0.14170176573E+04  0.10000000000E+02 0.  1.
</event>
<event>
 5    1  0.1488417E-008  0.3842214E+03  0.7957747E-01  0.3432981E+00
         13   -1    0    0    0    0  0.00000000000E+00  0.00000000000E+00  0.14999999963E+04  0.15000000000E+04  0.10566000000E+00 0. -1.
        994   -1    0    0    0    0 -0.00000000000E+00 -0.00000000000E+00  0.11368683772E-12  0.17120000000E+03  0.17120000000E+03 0.  0.
         13    1    1    2    0    0  0.35216097705E-01  0.17584465057E+02  0.86184621397E+02  0.87960302301E+02  0.10566000000E+00 0. -1.
        994    1    1    2    0    0 -0.69832378210E+01  0.66913465672E+01  0.23256753036E+01  0.17148874160E+03  0.17120000000E+03 0.  0.
        998    1    1    2    0    0  0.69480217232E+01 -0.24275811625E+02  0.14114896996E+04  0.14117509561E+04  0.10000000000E+02 0. -1.
</event>
<event>
 5    1  0.1488417E-008  0.3848530E+03  0.7957747E-01  0.3430296E+00
         13   -1    0    0    0    0  0.00000000000E+00  0.00000000000E+00  0.14999999963E+04  0.15000000000E+04  0.10566000000E+00 0. -1.
        994   -1    0    0    0    0 -0.00000000000E+00 -0.00000000000E+00  0.11368683772E-12  0.17120000000E+03  0.17120000000E+03 0.  0.
         13    1    1    2    0    0 -0.63075404960E+01  0.12965223295E+02  0.60811449255E+02  0.62497404799E+02  0.10566000000E+00 0. -1.
        994    1    1    2    0    0 -0.49584493333E+01 -0.13569472808E+02  0.23901584400E+01  0.17182511362E+03  0.17120000000E+03 0.  0.
        998    1    1    2    0    0  0.11265989829E+02  0.60424951316E+00  0.14367983886E+04  0.14368774816E+04  0.10000000000E+02 0. -1.
</event>
<event>
 5    1  0.1488417E-008  0.3793049E+03  0.7957747E-01  0.3454191E+00
         13   -1    0    0    0    0  0.00000000000E+00  0.00000000000E+00  0.14999999963E+04  0.15000000000E+04  0.10566000000E+00 0.  1.
        994   -1    0    0    0    0 -0.00000000000E+00 -0.00000000000E+00  0.11368683772E-12  0.17120000000E+03  0.17120000000E+03 0.  0.
         13    1    1    2    0    0 -0.96745651270E+01 -0.26394592307E+02  0.82292604849E+02  0.86961805929E+02  0.10566000000E+00 0.  1.
        994    1    1    2    0    0  0.59978374181E+01  0.28146754456E+02  0.72644511293E+01  0.17375392396E+03  0.17120000000E+03 0.  0.
        998    1    1    2    0    0  0.36767277089E+01 -0.17521621488E+01  0.14104429403E+04  0.14104842701E+04  0.10000000000E+02 0.  1.
</event>
<event>
 5    1  0.1488417E-008  0.3827067E+03  0.7957747E-01  0.3439457E+00
         13   -1    0    0    0    0  0.00000000000E+00  0.00000000000E+00  0.14999999963E+04  0.15000000000E+04  0.10566000000E+00 0.  1.
        994   -1    0    0    0    0 -0.00000000000E+00 -0.00000000000E+00  0.11368683772E-12  0.17120000000E+03  0.17120000000E+03 0.  0.
         13    1    1    2    0    0  0.15513319605E+02  0.19386771597E+02  0.12991766992E+03  0.13226912761E+03  0.10566000000E+00 0.  1.
        994    1    1    2    0    0  0.60257462272E+01  0.47394653061E+01  0.29677805930E+01  0.17139725748E+03  0.17120000000E+03 0.  0.
        998    1    1    2    0    0 -0.21539065832E+02 -0.24126236903E+02  0.13671145458E+04  0.13675336149E+04  0.10000000000E+02 0.  1.
</event>
<event>
 5    1  0.1488417E-008  0.3763118E+03  0.7957747E-01  0.3467377E+00
         13   -1    0    0    0    0  0.00000000000E+00  0.00000000000E+00  0.14999999963E+04  0.15000000000E+04  0.10566000000E+00 0.  1.
        994   -1    0    0    0    0 -0.00000000000E+00 -0.00000000000E+00  0.11368683772E-12  0.17120000000E+03  0.17120000000E+03 0.  0.
         13    1    1    2    0    0 -0.32688279513E+02  0.15277595156E+03  0.54725259863E+03  0.56911724000E+03  0.10566000000E+00 0.  1.
        994    1    1    2    0    0  0.65138867844E+01 -0.14869628530E+03  0.98414804908E+02  0.24728107450E+03  0.17120000000E+03 0.  0.
        998    1    1    2    0    0  0.26174392728E+02 -0.40796662633E+01  0.85433259274E+03  0.85480168549E+03  0.10000000000E+02 0.  1.
</event>
<event>
 5    1  0.1488417E-008  0.3851040E+03  0.7957747E-01  0.3429231E+00
         13   -1    0    0    0    0  0.00000000000E+00  0.00000000000E+00  0.14999999963E+04  0.15000000000E+04  0.10566000000E+00 0. -1.
        994   -1    0    0    0    0 -0.00000000000E+00 -0.00000000000E+00  0.11368683772E-12  0.17120000000E+03  0.17120000000E+03 0.  0.
         13    1    1    2    0    0  0.58747500795E+01 -0.16627177561E+02  0.10231764918E+03  0.10382624051E+03  0.10566000000E+00 0. -1.
        994    1    1    2    0    0  0.28710770464E+01  0.82500602748E+01  0.18294159812E+01  0.17143247458E+03  0.17120000000E+03 0.  0.
        998    1    1    2    0    0 -0.87458271259E+01  0.83771172858E+01  0.13958529311E+04  0.13959412849E+04  0.10000000000E+02 0. -1.
</event>
<event>
 5    1  0.1488417E-008  0.3724754E+03  0.7957747E-01  0.3484591E+00
         13   -1    0    0    0    0  0.00000000000E+00  0.00000000000E+00  0.14999999963E+04  0.15000000000E+04  0.10566000000E+00 0.  1.
        994   -1    0    0    0    0 -0.00000000000E+00 -0.00000000000E+00  0.11368683772E-12  0.17120000000E+03  0.17120000000E+03 0.  0.
         13    1    1    2    0    0 -0.10051638626E+02  0.36129609722E+02  0.93235506523E+02  0.10049504952E+03  0.10566000000E+00 0.  1.
        994    1    1    2    0    0  0.17053610667E+02  0.45419547438E+01  0.90494091476E+01  0.17234496452E+03  0.17120000000E+03 0.  0.
        998    1    1    2    0    0 -0.70019720411E+01 -0.40671564466E+02  0.13977150806E+04  0.13983599860E+04  0.10000000000E+02 0.  1.
</event>
<event>
 5    1  0.1975806E-008  0.3860317E+03  0.7957747E-01  0.3425309E+00
         13   -1    0    0    0    0  0.00000000000E+00  0.00000000000E+00  0.14999999963E+04  0.15000000000E+04  0.10566000000E+00 0. -1.
        994   -1    0    0    0    0 -0.00000000000E+00 -0.00000000000E+00  0.11368683772E-12  0.17120000000E+03  0.17120000000E+03 0.  0.
         13    1    1    2    0    0  0.10619431442E+02 -0.24953011953E+01  0.57840117134E+02  0.58859911369E+02  0.10566000000E+00 0. -1.
        994    1    1    2    0    0  0.17454656112E+01 -0.36493762319E+01  0.11724377794E+01  0.17125180060E+03  0.17120000000E+03 0.  0.
        998    1    1    2    0    0 -0.12364897054E+02  0.61446774271E+01  0.14409874414E+04  0.14410882880E+04  0.10000000000E+02 0. -1.
</event>
<event>
 5    1  0.1488417E-008  0.3812472E+03  0.7957747E-01  0.3445746E+00
         13   -1    0    0    0    0  0.00000000000E+00  0.00000000000E+00  0.14999999963E+04  0.15000000000E+04  0.10566000000E+00 0.  1.
        994   -1    0    0    0    0 -0.00000000000E+00 -0.00000000000E+00  0.11368683772E-12  0.17120000000E+03  0.17120000000E+03 0.  0.
         13    1    1    2    0    0 -0.20079220495E+03 -0.42011485367E+02  0.11974626567E+04  0.12149071157E+04  0.10566000000E+00 0.  1.
        994    1    1    2    0    0  0.19244074491E+03  0.40499573851E+02  0.14525826248E+03  0.29846785187E+03  0.17120000000E+03 0.  0.
        998    1    1    2    0    0  0.83514600414E+01  0.15119115159E+01  0.15727907713E+03  0.15782503243E+03  0.10000000000E+02 0.  0.
</event>
<event>
 5    1  0.1488417E-008  0.3773073E+03  0.7957747E-01  0.3462968E+00
         13   -1    0    0    0    0  0.00000000000E+00  0.00000000000E+00  0.14999999963E+04  0.15000000000E+04  0.10566000000E+00 0. -1.
        994   -1    0    0    0    0 -0.00000000000E+00 -0.00000000000E+00  0.11368683772E-12  0.17120000000E+03  0.17120000000E+03 0.  0.
         13    1    1    2    0    0  0.89803701277E+00 -0.20508243511E+02  0.35655612168E+02  0.41142780235E+02  0.10566000000E+00 0. -1.
        994    1    1    2    0    0  0.44077148750E+01  0.18294245705E+02  0.66939239924E+01  0.17236112089E+03  0.17120000000E+03 0.  0.
        998    1    1    2    0    0 -0.53057518878E+01  0.22139978057E+01  0.14576504601E+04  0.14576960989E+04  0.10000000000E+02 0. -1.
</event>
<event>
 5    1  0.1488417E-008  0.3846820E+03  0.7957747E-01  0.3431022E+00
         13   -1    0    0    0    0  0.00000000000E+00  0.00000000000E+00  0.14999999963E+04  0.15000000000E+04  0.10566000000E+00 0. -1.
        994   -1    0    0    0    0 -0.00000000000E+00 -0.00000000000E+00  0.11368683772E-12  0.17120000000E+03  0.17120000000E+03 0.  0.
         13    1    1    2    0    0 -0.94842070600E+01 -0.11437393257E+02  0.53394156851E+02  0.55423021372E+02  0.10566000000E+00 0. -1.
        994    1    1    2    0    0  0.18937069749E+02  0.31318041681E+02  0.62100774936E+01  0.17517830176E+03  0.17120000000E+03 0.  0.
        998    1    1    2    0    0 -0.94528626892E+01 -0.19880648423E+02  0.14403957619E+04  0.14405986769E+04  0.10000000000E+02 0. -1.
</event>
<event>
 5    1  0.1488417E-008  0.3777325E+03  0.7957747E-01  0.3461092E+00
         13   -1    0    0    0    0  0.00000000000E+00  0.00000000000E+00  0.14999999963E+04  0.15000000000E+04  0.10566000000E+00 0. -1.
        994   -1    0    0    0    0 -0.00000000000E+00 -0.00000000000E+00  0.11368683772E-12  0.17120000000E+03  0.17120000000E+03 0.  0.
         13    1    1    2    0    0 -0.27797317537E+02  0.46216002347E+02  0.19507072644E+03  0.20238875763E+03  0.10566000000E+00 0. -1.
        994    1    1    2    0    0  0.34517714073E+02 -0.78607978335E+02  0.30524331505E+02  0.19393777780E+03  0.17120000000E+03 0.  0.
        998    1    1    2    0    0 -0.67203965360E+01  0.32391975988E+02  0.12744049383E+04  0.12748734646E+04  0.10000000000E+02 0. -1.
</event>
<event>
 5    1  0.1488417E-008  0.3836676E+03  0.7957747E-01  0.3435343E+00
         13   -1    0    0    0    0  0.00000000000E+00  0.00000000000E+00  0.14999999963E+04  0.15000000000E+04  0.10566000000E+00 0. -1.
        994   -1    0    0    0    0 -0.00000000000E+00 -0.00000000000E+00  0.11368683772E-12  0.17120000000E+03  0.17120000000E+03 0.  0.
         13    1    1    2    0    0 -0.60455670650E+01  0.99505243671E+01  0.28548539856E+02  0.30831673783E+02  0.10566000000E+00 0. -1.
        994    1    1    2    0    0  0.25997665281E+01 -0.11088342227E+02  0.27216482470E+01  0.17159999268E+03  0.17120000000E+03 0.  0.
        998    1    1    2    0    0  0.34458005369E+01  0.11378178602E+01  0.14687298082E+04  0.14687683335E+04  0.10000000000E+02 0. -1.
</event>
<event>
 5    1  0.1488417E-008  0.3782708E+03  0.7957747E-01  0.3458723E+00
         13   -1    0    0    0    0  0.00000000000E+00  0.00000000000E+00  0.14999999963E+04  0.15000000000E+04  0.10566000000E+00 0. -1.
        994   -1    0    0    0    0 -0.00000000000E+00 -0.00000000000E+00  0.11368683772E-12  0.17120000000E+03  0.17120000000E+03 0.  0.
         13    1    1    2    0    0  0.51076278959E+02 -0.68783507086E+02  0.21458466717E+03  0.23105529137E+03  0.10566000000E+00 0. -1.
        994    1    1    2    0    0 -0.43053508700E+02  0.56885695890E+02  0.33942971818E+02  0.18855013218E+03  0.17120000000E+03 0.  0.
        998    1    1    2    0    0 -0.80227702584E+01  0.11897811196E+02  0.12514723573E+04  0.12515945765E+04  0.10000000000E+02 0. -1.
</event>
<event>
 5    1  0.1488417E-008  0.3843724E+03  0.7957747E-01  0.3432338E+00
         13   -1    0    0    0    0  0.00000000000E+00  0.00000000000E+00  0.14999999963E+04  0.15000000000E+04  0.10566000000E+00 0.  1.
        994   -1    0    0    0    0 -0.00000000000E+00 -0.00000000000E+00  0.11368683772E-12  0.17120000000E+03  0.17120000000E+03 0.  0.
         13    1    1    2    0    0 -0.10638032559E+02 -0.83463102919E+01  0.44703349766E+02  0.46703632370E+02  0.10566000000E+00 0.  1.
        994    1    1    2    0    0  0.16030030534E+02  0.89383641483E+01  0.30528997230E+01  0.17220806145E+03  0.17120000000E+03 0.  0.
        998    1    1    2    0    0 -0.53919979754E+01 -0.59205385632E+00  0.14522437468E+04  0.14522883062E+04  0.10000000000E+02 0.  1.
</event>
<event>
 5    1  0.1488417E-008  0.3856056E+03  0.7957747E-01  0.3427108E+00
         13   -1    0    0    0    0  0.00000000000E+00  0.00000000000E+00  0.14999999963E+04  0.15000000000E+04  0.10566000000E+00 0.  1.
        994   -1    0    0    0    0 -0.00000000000E+00 -0.00000000000E+00  0.11368683772E-12  0.17120000000E+03  0.17120000000E+03 0.  0.
         13    1    1    2    0    0 -0.42591582560E+01 -0.10134543076E+02  0.43661882226E+02  0.45024665640E+02  0.10566000000E+00 0.  1.
        994    1    1    2    0    0  0.40482795650E+01  0.14923771040E+02  0.21149834298E+01  0.17190992020E+03  0.17120000000E+03 0.  0.
        998    1    1    2    0    0  0.21087869100E+00 -0.47892279642E+01  0.14542231306E+04  0.14542654142E+04  0.10000000000E+02 0.  1.
</event>
<event>
 5    1  0.1488417E-008  0.3795656E+03  0.7957747E-01  0.3453052E+00
         13   -1    0    0    0    0  0.00000000000E+00  0.00000000000E+00  0.14999999963E+04  0.15000000000E+04  0.10566000000E+00 0. -1.
        994   -1    0    0    0    0 -0.00000000000E+00 -0.00000000000E+00  0.11368683772E-12  0.17120000000E+03  0.17120000000E+03 0.  0.
         13    1    1    2    0    0 -0.13632638288E+02 -0.19831896936E+02  0.67141971428E+02  0.71324669323E+02  0.10566000000E+00 0. -1.
        994    1    1    2    0    0  0.87550243535E+01  0.28973378906E+01  0.46373247301E+01  0.17151090286E+03  0.17120000000E+03 0.  0.
        998    1    1    2    0    0  0.48776139341E+01  0.16934559045E+02  0.14282207001E+04  0.14283644278E+04  0.10000000000E+02 0. -1.
</event>
<event>
 5    1  0.1488417E-008  0.3909081E+03  0.7957747E-01  0.3404995E+00
         13   -1    0    0    0    0  0.00000000000E+00  0.00000000000E+00  0.14999999963E+04  0.15000000000E+04  0.10566000000E+00 0.  1.
        994   -1    0    0    0    0 -0.00000000000E+00 -0.00000000000E+00  0.11368683772E-12  0.17120000000E+03  0.17120000000E+03 0.  0.
         13    1    1    2    0    0 -0.71089465574E+02 -0.42058494194E+02  0.14036706075E+03  0.16286666926E+03  0.10566000000E+00 0.  1.
        994    1    1    2    0    0  0.70668130147E+02  0.82155971823E+01  0.41825484649E+02  0.19005339203E+03  0.17120000000E+03 0.  0.
        998    1    1    2    0    0  0.42133542719E+00  0.33842897012E+02  0.13178074509E+04  0.13182799387E+04  0.10000000000E+02 0.  1.
</event>
<event>
 5    1  0.1488417E-008  0.3761956E+03  0.7957747E-01  0.3467893E+00
         13   -1    0    0    0    0  0.00000000000E+00  0.00000000000E+00  0.14999999963E+04  0.15000000000E+04  0.10566000000E+00 0. -1.
        994   -1    0    0    0    0 -0.00000000000E+00 -0.00000000000E+00  0.11368683772E-12  0.17120000000E+03  0.17120000000E+03 0.  0.
         13    1    1    2    0    0 -0.16496974004E+02  0.41969994031E+01  0.21001812570E+02  0.27034279176E+02  0.10566000000E+00 0. -1.
        994    1    1    2    0    0  0.17604622980E+02 -0.23231794980E+01  0.71342839234E+01  0.17226624138E+03  0.17120000000E+03 0.  0.
        998    1    1    2    0    0 -0.11076489755E+01 -0.18738199051E+01  0.14718638998E+04  0.14718994794E+04  0.10000000000E+02 0. -1.
</event>
<event>
 5    1  0.1488417E-008  0.3834373E+03  0.7957747E-01  0.3436327E+00
         13   -1    0    0    0    0  0.00000000000E+00  0.00000000000E+00  0.14999999963E+04  0.15000000000E+04  0.10566000000E+00 0. -1.
        994   -1    0    0    0    0 -0.00000000000E+00 -0.00000000000E+00  0.11368683772E-12  0.17120000000E+03  0.17120000000E+03 0.  0.
         13    1    1    2    0    0  0.29894566849E+01 -0.16067768405E+02  0.54582470743E+02  0.56976901541E+02  0.10566000000E+00 0. -1.
        994    1    1    2    0    0  0.26194007311E+01  0.12328349400E+02  0.29332005824E+01  0.17168836048E+03  0.17120000000E+03 0.  0.
        998    1    1    2    0    0 -0.56088574160E+01  0.37394190049E+01  0.14424843250E+04  0.14425347380E+04  0.10000000000E+02 0. -1.
</event>
<event>
 5    1  0.1488417E-008  0.3851217E+03  0.7957747E-01  0.3429156E+00
         13   -1    0    0    0    0  0.00000000000E+00  0.00000000000E+00  0.14999999963E+04  0.15000000000E+04  0.10566000000E+00 0. -1.
        994   -1    0    0    0    0 -0.00000000000E+00 -0.00000000000E+00  0.11368683772E-12  0.17120000000E+03  0.17120000000E+03 0.  0.
         13    1    1    2    0    0 -0.14339827869E+02 -0.53068515096E+01  0.69341130973E+02  0.71007020391E+02  0.10566000000E+00 0. -1.
        994    1    1    2    0    0  0.19652636420E+02  0.77322396469E+01  0.30372835077E+01  0.17252442940E+03  0.17120000000E+03 0.  0.
        998    1    1    2    0    0 -0.53128085501E+01 -0.24253881373E+01  0.14276215818E+04  0.14276685502E+04  0.10000000000E+02 0. -1.
</event>
<event>
 5    1  0.1488417E-008  0.3855961E+03  0.7957747E-01  0.3427148E+00
         13   -1    0    0    0    0  0.00000000000E+00  0.00000000000E+00  0.14999999963E+04  0.15000000000E+04  0.10566000000E+00 0. -1.
        994   -1    0    0    0    0 -0.00000000000E+00 -0.00000000000E+00  0.11368683772E-12  0.17120000000E+03  0.17120000000E+03 0.  0.
         13    1    1    2    0    0  0.11908629912E+02 -0.50325913849E+01  0.61812690126E+02  0.63150314861E+02  0.10566000000E+00 0. -1.
        994    1    1    2    0    0 -0.11634224966E+02  0.18616165453E+01  0.17902498320E+01  0.17161429370E+03  0.17120000000E+03 0.  0.
        998    1    1    2    0    0 -0.27440494554E+00  0.31709748396E+01  0.14363970563E+04  0.14364353914E+04  0.10000000000E+02 0. -1.
</event>
<event>
 5    1  0.1488417E-008  0.3779806E+03  0.7957747E-01  0.3459999E+00
         13   -1    0    0    0    0  0.00000000000E+00  0.00000000000E+00  0.14999999963E+04  0.15000000000E+04  0.10566000000E+00 0.  1.
        994   -1    0    0    0    0 -0.00000000000E+00 -0.00000000000E+00  0.11368683772E-12  0.17120000000E+03  0.17120000000E+03 0.  0.
         13    1    1    2    0    0  0.85631322641E+02 -0.10555019485E+03  0.41606177961E+03  0.43769964892E+03  0.10566000000E+00 0.  1.
        994    1    1    2    0    0 -0.84235613927E+02  0.10652693927E+03  0.84942580865E+02  0.23445321386E+03  0.17120000000E+03 0.  0.
        998    1    1    2    0    0 -0.13957087131E+01 -0.97674442267E+00  0.99899563580E+03  0.99904713722E+03  0.10000000000E+02 0.  0.
</event>
<event>
 5    1  0.1488417E-008  0.3824741E+03  0.7957747E-01  0.3440456E+00
         13   -1    0    0    0    0  0.00000000000E+00  0.00000000000E+00  0.14999999963E+04  0.15000000000E+04  0.10566000000E+00 0. -1.
        994   -1    0    0    0    0 -0.00000000000E+00 -0.00000000000E+00  0.11368683772E-12  0.17120000000E+03  0.17120000000E+03 0.  0.
         13    1    1    2    0    0 -0.59591834106E+01  0.14522705844E+02  0.42185433363E+02  0.45011585220E+02  0.10566000000E+00 0. -1.
        994    1    1    2    0    0 -0.23324553081E+02 -0.17957479419E+02  0.57678728879E+01  0.17380798083E+03  0.17120000000E+03 0.  0.
        998    1    1    2    0    0  0.29283736492E+02  0.34347735757E+01  0.14520466900E+04  0.14523804339E+04  0.10000000000E+02 0. -1.
</event>
<event>
 5    1  0.1488417E-008  0.3796366E+03  0.7957747E-01  0.3452742E+00
         13   -1    0    0    0    0  0.00000000000E+00  0.00000000000E+00  0.14999999963E+04  0.15000000000E+04  0.10566000000E+00 0.  1.
        994   -1    0    0    0    0 -0.00000000000E+00 -0.00000000000E+00  0.11368683772E-12  0.17120000000E+03  0.17120000000E+03 0.  0.
         13    1    1    2    0    0 -0.19794542440E+02 -0.17579611174E+02  0.83239995630E+02  0.87348581419E+02  0.10566000000E+00 0.  1.
        994    1    1    2    0    0  0.16969879280E+01  0.85873404450E+01  0.45731929108E+01  0.17148462403E+03  0.17120000000E+03 0.  0.
        998    1    1    2    0    0  0.18097554512E+02  0.89922707288E+01  0.14121868077E+04  0.14123667946E+04  0.10000000000E+02 0.  1.
</event>
<event>
 5    1  0.1488417E-008  0.3820028E+03  0.7957747E-01  0.3442484E+00
         13   -1    0    0    0    0  0.00000000000E+00  0.00000000000E+00  0.14999999963E+04  0.15000000000E+04  0.10566000000E+00 0.  1.
        994   -1    0    0    0    0 -0.00000000000E+00 -0.00000000000E+00  0.11368683772E-12  0.17120000000E+03  0.17120000000E+03 0.  0.
         13    1    1    2    0    0 -0.12492484797E+02  0.18880106718E+02  0.79530607603E+02  0.82690079912E+02  0.10566000000E+00 0.  1.
        994    1    1    2    0    0  0.21241988850E+01 -0.19878084200E+02  0.44538737972E+01  0.17242078600E+03  0.17120000000E+03 0.  0.
        998    1    1    2    0    0  0.10368285912E+02  0.99797748208E+00  0.14160155149E+04  0.14160891341E+04  0.10000000000E+02 0.  1.
</event>
<event>
 5    1  0.1488417E-008  0.3847801E+03  0.7957747E-01  0.3430606E+00
         13   -1    0    0    0    0  0.00000000000E+00  0.00000000000E+00  0.14999999963E+04  0.15000000000E+04  0.10566000000E+00 0. -1.
        994   -1    0    0    0    0 -0.00000000000E+00 -0.00000000000E+00  0.11368683772E-12  0.17120000000E+03  0.17120000000E+03 0.  0.
         13    1    1    2    0    0 -0.69042967940E+00 -0.11673853858E+02  0.37791179728E+02  0.39559322369E+02  0.10566000000E+00 0. -1.
        994    1    1    2    0    0  0.72628460521E+01  0.14585815569E+02  0.26136015869E+01  0.17199350529E+03  0.17120000000E+03 0.  0.
        998    1    1    2    0    0 -0.65724163727E+01 -0.29119617103E+01  0.14595952150E+04  0.14596471723E+04  0.10000000000E+02 0. -1.
</event>
<event>
 5    1  0.1488417E-008  0.3835516E+03  0.7957747E-01  0.3435838E+00
         13   -1    0    0    0    0  0.00000000000E+00  0.00000000000E+00  0.14999999963E+04  0.15000000000E+04  0.10566000000E+00 0. -1.
        994   -1    0    0    0    0 -0.00000000000E+00 -0.00000000000E+00  0.11368683772E-12  0.17120000000E+03  0.17120000000E+03 0.  0.
         13    1    1    2    0    0 -0.13686095861E+02 -0.26637816747E+02  0.17504512434E+03  0.17758853910E+03  0.10566000000E+00 0. -1.
        994    1    1    2    0    0  0.98457829428E+01  0.25459319655E+02  0.48168003435E+01  0.17342940340E+03  0.17120000000E+03 0.  0.
        998    1    1    2    0    0  0.38403129181E+01  0.11784970923E+01  0.13201380716E+04  0.13201820575E+04  0.10000000000E+02 0. -1.
</event>
<event>
 5    1  0.1488417E-008  0.3854906E+03  0.7957747E-01  0.3427594E+00
         13   -1    0    0    0    0  0.00000000000E+00  0.00000000000E+00  0.14999999963E+04  0.15000000000E+04  0.10566000000E+00 0.  1.
        994   -1    0    0    0    0 -0.00000000000E+00 -0.00000000000E+00  0.11368683772E-12  0.17120000000E+03  0.17120000000E+03 0.  0.
         13    1    1    2    0    0  0.34045454626E+00  0.10096310951E+02  0.37104355360E+02  0.38455113507E+02  0.10566000000E+00 0.  1.
        994    1    1    2    0    0  0.88094274986E+00 -0.56643544935E+01  0.14946647322E+01  0.17130246640E+03  0.17120000000E+03 0.  0.
        998    1    1    2    0    0 -0.12213972961E+01 -0.44319564577E+01  0.14614009762E+04  0.14614424201E+04  0.10000000000E+02 0.  1.
</event>
<event>
 5    1  0.1488417E-008  0.3813923E+03  0.7957747E-01  0.3445119E+00
         13   -1    0    0    0    0  0.00000000000E+00  0.00000000000E+00  0.14999999963E+04  0.15000000000E+04  0.10566000000E+00 0. -1.
        994   -1    0    0    0    0 -0.00000000000E+00 -0.00000000000E+00  0.11368683772E-12  0.17120000000E+03  0.17120000000E+03 0.  0.
         13    1    1    2    0    0  0.59896722079E+01 -0.98444305286E+01 -0.44050154152E+01  0.12337111106E+02  0.10566000000E+00 0. -1.
        994    1    1    2    0    0 -0.29729082702E+02  0.49729228700E+02  0.29423575603E+02  0.18311745233E+03  0.17120000000E+03 0.  0.
        998    1    1    2    0    0  0.23739410494E+02 -0.39884798172E+02  0.14749814361E+04  0.14757454366E+04  0.10000000000E+02 0. -1.
</event>
<event>
 5    1  0.1488417E-008  0.3825158E+03  0.7957747E-01  0.3440277E+00
         13   -1    0    0    0    0  0.00000000000E+00  0.00000000000E+00  0.14999999963E+04  0.15000000000E+04  0.10566000000E+00 0.  1.
        994   -1    0    0    0    0 -0.00000000000E+00 -0.00000000000E+00  0.11368683772E-12  0.17120000000E+03  0.17120000000E+03 0.  0.
         13    1    1    2    0    0 -0.77030094442E+01 -0.23625570029E+02  0.10134064604E+03  0.10434290401E+03  0.10566000000E+00 0.  1.
        994    1    1    2    0    0  0.56823704915E+01  0.23270692258E+02  0.47732588785E+01  0.17293362441E+03  0.17120000000E+03 0.  0.
        998    1    1    2    0    0  0.20206389527E+01  0.35487777117E+00  0.13938860914E+04  0.13939234716E+04  0.10000000000E+02 0.  0.
</event>
<event>
 5    1  0.1488417E-008  0.3780487E+03  0.7957747E-01  0.3459699E+00
         13   -1    0    0    0    0  0.00000000000E+00  0.00000000000E+00  0.14999999963E+04  0.15000000000E+04  0.10566000000E+00 0. -1.
        994   -1    0    0    0    0 -0.00000000000E+00 -0.00000000000E+00  0.11368683772E-12  0.17120000000E+03  0.17120000000E+03 0.  0.
         13    1    1    2    0    0 -0.53837981584E+02  0.36659796734E+02  0.15627597895E+03  0.16930641369E+03  0.10566000000E+00 0. -1.
        994    1    1    2    0    0  0.63065483090E+01  0.62241250801E+01  0.15542200928E+02  0.17213225234E+03  0.17120000000E+03 0.  0.
        998    1    1    2    0    0  0.47531433276E+02 -0.42883921814E+02  0.13281818164E+04  0.13297613340E+04  0.10000000000E+02 0. -1.
</event>
<event>
 5    1  0.1488417E-008  0.3810360E+03  0.7957747E-01  0.3446660E+00
         13   -1    0    0    0    0  0.00000000000E+00  0.00000000000E+00  0.14999999963E+04  0.15000000000E+04  0.10566000000E+00 0.  1.
        994   -1    0    0    0    0 -0.00000000000E+00 -0.00000000000E+00  0.11368683772E-12  0.17120000000E+03  0.17120000000E+03 0.  0.
         13    1    1    2    0    0 -0.10798108572E+02  0.11173245488E+02  0.32768235461E+02  0.36265810108E+02  0.10566000000E+00 0.  1.
        994    1    1    2    0    0  0.55516343924E+01 -0.34911378858E-01  0.37137697585E+01  0.17133024820E+03  0.17120000000E+03 0.  0.
        998    1    1    2    0    0  0.52464741800E+01 -0.11138334109E+02  0.14635179911E+04  0.14636039417E+04  0.10000000000E+02 0.  1.
</event>
<event>
 5    1  0.1488417E-008  0.3714722E+03  0.7957747E-01  0.3489152E+00
         13   -1    0    0    0    0  0.00000000000E+00  0.00000000000E+00  0.14999999963E+04  0.15000000000E+04  0.10566000000E+00 0.  1.
        994   -1    0    0    0    0 -0.00000000000E+00 -0.00000000000E+00  0.11368683772E-12  0.17120000000E+03  0.17120000000E+03 0.  0.
         13    1    1    2    0    0 -0.28351622377E+02 -0.68173949977E+02  0.40984854270E+03  0.41644608422E+03  0.10566000000E+00 0.  1.
        994    1    1    2    0    0 -0.19938393149E+02  0.23889267529E+02  0.11839784280E+02  0.17440715902E+03  0.17120000000E+03 0.  0.
        998    1    1    2    0    0  0.48290015526E+02  0.44284682449E+02  0.10783116693E+04  0.10803467568E+04  0.10000000000E+02 0.  1.
</event>
<event>
 5    1  0.1488417E-008  0.3762326E+03  0.7957747E-01  0.3467729E+00
         13   -1    0    0    0    0  0.00000000000E+00  0.00000000000E+00  0.14999999963E+04  0.15000000000E+04  0.10566000000E+00 0. -1.
        994   -1    0    0    0    0 -0.00000000000E+00 -0.00000000000E+00  0.11368683772E-12  0.17120000000E+03  0.17120000000E+03 0.  0.
         13    1    1    2    0    0 -0.39363711595E+02  0.23892328645E+02  0.19762249566E+03  0.20291625640E+03  0.10566000000E+00 0. -1.
        994    1    1    2    0    0  0.90751244051E+01  0.33732590105E+01  0.63645167797E+01  0.17159161936E+03  0.17120000000E+03 0.  0.
        998    1    1    2    0    0  0.30288587189E+02 -0.27265587655E+02  0.12960129838E+04  0.12966921242E+04  0.10000000000E+02 0. -1.
</event>
<event>
 5    1  0.1488417E-008  0.3771860E+03  0.7957747E-01  0.3463503E+00
         13   -1    0    0    0    0  0.00000000000E+00  0.00000000000E+00  0.14999999963E+04  0.15000000000E+04  0.10566000000E+00 0.  1.
        994   -1    0    0    0    0 -0.00000000000E+00 -0.00000000000E+00  0.11368683772E-12  0.17120000000E+03  0.17120000000E+03 0.  0.
         13    1    1    2    0    0 -0.42781518333E+02  0.37609023294E+02  0.24173650537E+03  0.24835709400E+03  0.10566000000E+00 0.  1.
        994    1    1    2    0    0  0.49879176542E+02 -0.32007719579E+02  0.17505679300E+02  0.18201185448E+03  0.17120000000E+03 0.  0.
        998    1    1    2    0    0 -0.70976582093E+01 -0.56013037156E+01  0.12407578116E+04  0.12408310515E+04  0.10000000000E+02 0.  1.
</event>
<event>
 5    1  0.1488417E-008  0.3874159E+03  0.7957747E-01  0.3419490E+00
         13   -1    0    0    0    0  0.00000000000E+00  0.00000000000E+00  0.14999999963E+04  0.15000000000E+04  0.10566000000E+00 0.  1.
        994   -1    0    0    0    0 -0.00000000000E+00 -0.00000000000E+00  0.11368683772E-12  0.17120000000E+03  0.17120000000E+03 0.  0.
         13    1    1    2    0    0  0.66732781188E+02 -0.14277799897E+03  0.43944547530E+03  0.46685239423E+03  0.10566000000E+00 0.  1.
        994    1    1    2    0    0 -0.66514645175E+02  0.12712392625E+03  0.10190366702E+03  0.24551677743E+03  0.17120000000E+03 0.  0.
        998    1    1    2    0    0 -0.21813601300E+00  0.15654072721E+02  0.95865085396E+03  0.95883082834E+03  0.10000000000E+02 0.  1.
</event>
<event>
 5    1  0.1488417E-008  0.3848202E+03  0.7957747E-01  0.3430435E+00
         13   -1    0    0    0    0  0.00000000000E+00  0.00000000000E+00  0.14999999963E+04  0.15000000000E+04  0.10566000000E+00 0.  1.
        994   -1    0    0    0    0 -0.00000000000E+00 -0.00000000000E+00  0.11368683772E-12  0.17120000000E+03  0.17120000000E+03 0.  0.
         13    1    1    2    0    0  0.10894699123E+02 -0.10096948145E+02  0.63818605236E+02  0.65524563098E+02  0.10566000000E+00 0.  1.
        994    1    1    2    0    0  0.29044065440E+01  0.18919510097E+02  0.29259849166E+01  0.17229156923E+03  0.17120000000E+03 0.  0.
        998    1    1    2    0    0 -0.13799105667E+02 -0.88225619521E+01  0.14332554061E+04  0.14333838677E+04  0.10000000000E+02 0.  1.
</event>
<event>
 5    1  0.1488417E-008  0.3841194E+03  0.7957747E-01  0.3433415E+00
         13   -1    0    0    0    0  0.00000000000E+00  0.00000000000E+00  0.14999999963E+04  0.15000000000E+04  0.10566000000E+00 0. -1.
        994   -1    0    0    0    0 -0.00000000000E+00 -0.00000000000E+00  0.11368683772E-12  0.17120000000E+03  0.17120000000E+03 0.  0.
         13    1    1    2    0    0 -0.13543386877E+02 -0.10822906055E+02  0.73659387705E+02  0.75672155941E+02  0.10566000000E+00 0. -1.
        994    1    1    2    0    0  0.63064261557E+01  0.51087213437E+01  0.22852310298E+01  0.17140750370E+03  0.17120000000E+03 0.  0.
        998    1    1    2    0    0  0.72369607209E+01  0.57141847114E+01  0.14240553775E+04  0.14241203404E+04  0.10000000000E+02 0. -1.
</event>
<event>
 5    1  0.1488417E-008  0.3800149E+03  0.7957747E-01  0.3451094E+00
         13   -1    0    0    0    0  0.00000000000E+00  0.00000000000E+00  0.14999999963E+04  0.15000000000E+04  0.10566000000E+00 0. -1.
        994   -1    0    0    0    0 -0.00000000000E+00 -0.00000000000E+00  0.11368683772E-12  0.17120000000E+03  0.17120000000E+03 0.  0.
         13    1    1    2    0    0  0.21786465010E+02 -0.22029835500E+02  0.10706455442E+03  0.11145758694E+03  0.10566000000E+00 0. -1.
        994    1    1    2    0    0 -0.38384990631E+02  0.77234847776E+01  0.92673400828E+01  0.17586467330E+03  0.17120000000E+03 0.  0.
        998    1    1    2    0    0  0.16598525621E+02  0.14306350722E+02  0.13836681018E+04  0.13838777398E+04  0.10000000000E+02 0. -1.
</event>
<event>
 5    1  0.1488417E-008  0.3840244E+03  0.7957747E-01  0.3433821E+00
         13   -1    0    0    0    0  0.00000000000E+00  0.00000000000E+00  0.14999999963E+04  0.15000000000E+04  0.10566000000E+00 0.  1.
        994   -1    0    0    0    0 -0.00000000000E+00 -0.00000000000E+00  0.11368683772E-12  0.17120000000E+03  0.17120000000E+03 0.  0.
         13    1    1    2    0    0 -0.30141039969E+01 -0.13743199288E+02  0.45327251620E+02  0.47460839152E+02  0.10566000000E+00 0.  1.
        994    1    1    2    0    0  0.58088331109E+01  0.13012829135E+02  0.27855493950E+01  0.17181465464E+03  0.17120000000E+03 0.  0.
        998    1    1    2    0    0 -0.27947291139E+01  0.73037015266E+00  0.14518871953E+04  0.14519245062E+04  0.10000000000E+02 0.  1.
</event>
<event>
 5    1  0.1488417E-008  0.3850537E+03  0.7957747E-01  0.3429445E+00
         13   -1    0    0    0    0  0.00000000000E+00  0.00000000000E+00  0.14999999963E+04  0.15000000000E+04  0.10566000000E+00 0. -1.
        994   -1    0    0    0    0 -0.00000000000E+00 -0.00000000000E+00  0.11368683772E-12  0.17120000000E+03  0.17120000000E+03 0.  0.
         13    1    1    2    0    0  0.11042342644E+02  0.30940578734E+01  0.45347534669E+02  0.46775170655E+02  0.10566000000E+00 0. -1.
        994    1    1    2    0    0  0.11530529085E+02  0.25149954132E-01  0.20407675369E+01  0.17159999553E+03  0.17120000000E+03 0.  0.
        998    1    1    2    0    0 -0.22572871729E+02 -0.31192078275E+01  0.14526116941E+04  0.14528248338E+04  0.10000000000E+02 0. -1.
</event>
<event>
 5    1  0.1488417E-008  0.3815275E+03  0.7957747E-01  0.3444534E+00
         13   -1    0    0    0    0  0.00000000000E+00  0.00000000000E+00  0.14999999963E+04  0.15000000000E+04  0.10566000000E+00 0. -1.
        994   -1    0    0    0    0 -0.00000000000E+00 -0.00000000000E+00  0.11368683772E-12  0.17120000000E+03  0.17120000000E+03 0.  0.
         13    1    1    2    0    0  0.20296048440E+02  0.69860015318E+01  0.65106040002E+02  0.68553201300E+02  0.10566000000E+00 0. -1.
        994    1    1    2    0    0 -0.16744082162E+02 -0.16208643003E+02  0.51725251553E+01  0.17285623915E+03  0.17120000000E+03 0.  0.
        998    1    1    2    0    0 -0.35519662780E+01  0.92226414716E+01  0.14297214311E+04  0.14297905596E+04  0.10000000000E+02 0. -1.
</event>
<event>
 5    1  0.1488417E-008  0.3851532E+03  0.7957747E-01  0.3429023E+00
         13   -1    0    0    0    0  0.00000000000E+00  0.00000000000E+00  0.14999999963E+04  0.15000000000E+04  0.10566000000E+00 0.  1.
        994   -1    0    0    0    0 -0.00000000000E+00 -0.00000000000E+00  0.11368683772E-12  0.17120000000E+03  0.17120000000E+03 0.  0.
         13    1    1    2    0    0  0.10560338150E+02 -0.11301710865E+02  0.68422481853E+02  0.70149102612E+02  0.10566000000E+00 0.  1.
        994    1    1    2    0    0 -0.61555849850E+01  0.33864999678E+02  0.54580289489E+01  0.17471107438E+03  0.17120000000E+03 0.  0.
        998    1    1    2    0    0 -0.44047531646E+01 -0.22563288814E+02  0.14261194855E+04  0.14263398230E+04  0.10000000000E+02 0.  1.
</event>
<event>
 5    1  0.1488417E-008  0.3804498E+03  0.7957747E-01  0.3449202E+00
         13   -1    0    0    0    0  0.00000000000E+00  0.00000000000E+00  0.14999999963E+04  0.15000000000E+04  0.10566000000E+00 0.  1.
        994   -1    0    0    0    0 -0.00000000000E+00 -0.00000000000E+00  0.11368683772E-12  0.17120000000E+03  0.17120000000E+03 0.  0.
         13    1    1    2    0    0  0.11405601396E+02 -0.28585083052E+02  0.10876771133E+03  0.11303813917E+03  0.10566000000E+00 0.  1.
        994    1    1    2    0    0 -0.22764838458E+02  0.30295927333E+02  0.87147514112E+01  0.17556043966E+03  0.17120000000E+03 0.  0.
        998    1    1    2    0    0  0.11359237062E+02 -0.17108442817E+01  0.13825175335E+04  0.13826014212E+04  0.10000000000E+02 0.  1.
</event>
<event>
 5    1  0.1488417E-008  0.3762328E+03  0.7957747E-01  0.3467728E+00
         13   -1    0    0    0    0  0.00000000000E+00  0.00000000000E+00  0.14999999963E+04  0.15000000000E+04  0.10566000000E+00 0.  1.
        994   -1    0    0    0    0 -0.00000000000E+00 -0.00000000000E+00  0.11368683772E-12  0.17120000000E+03  0.17120000000E+03 0.  0.
         13    1    1    2    0    0 -0.26858886648E+02  0.23773230182E+02  0.10881086198E+03  0.11457041990E+03  0.10566000000E+00 0.  1.
        994    1    1    2    0    0  0.11177233687E+02 -0.61426691616E+01  0.65978462334E+01  0.17180114817E+03  0.17120000000E+03 0.  0.
        998    1    1    2    0    0  0.15681652961E+02 -0.17630561021E+02  0.13845912881E+04  0.13848284319E+04  0.10000000000E+02 0.  1.
</event>
<event>
 5    1  0.1488417E-008  0.3831065E+03  0.7957747E-01  0.3437743E+00
         13   -1    0    0    0    0  0.00000000000E+00  0.00000000000E+00  0.14999999963E+04  0.15000000000E+04  0.10566000000E+00 0. -1.
        994   -1    0    0    0    0 -0.00000000000E+00 -0.00000000000E+00  0.11368683772E-12  0.17120000000E+03  0.17120000000E+03 0.  0.
         13    1    1    2    0    0 -0.31942471308E+02 -0.20496656645E+02  0.33765256199E+02  0.50798997009E+02  0.10566000000E+00 0. -1.
        994    1    1    2    0    0  0.36907019249E+02 -0.29045791398E+02  0.26173267362E+02  0.17944432561E+03  0.17120000000E+03 0.  0.
        998    1    1    2    0    0 -0.49645479405E+01  0.49542448043E+02  0.14400614727E+04  0.14409566774E+04  0.10000000000E+02 0. -1.
</event>
<event>
 5    1  0.1488417E-008  0.3831655E+03  0.7957747E-01  0.3437490E+00
         13   -1    0    0    0    0  0.00000000000E+00  0.00000000000E+00  0.14999999963E+04  0.15000000000E+04  0.10566000000E+00 0.  1.
        994   -1    0    0    0    0 -0.00000000000E+00 -0.00000000000E+00  0.11368683772E-12  0.17120000000E+03  0.17120000000E+03 0.  0.
         13    1    1    2    0    0  0.22884965122E+02  0.26072362112E+01  0.96954115450E+02  0.99652551278E+02  0.10566000000E+00 0.  1.
        994    1    1    2    0    0 -0.25341492682E+02  0.20735676611E+01  0.46854048366E+01  0.17314122546E+03  0.17120000000E+03 0.  0.
        998    1    1    2    0    0  0.24565275601E+01 -0.46808038723E+01  0.13983604760E+04  0.13984062233E+04  0.10000000000E+02 0.  1.
</event>
<event>
 5    1  0.1488417E-008  0.3805381E+03  0.7957747E-01  0.3448819E+00
         13   -1    0    0    0    0  0.00000000000E+00  0.00000000000E+00  0.14999999963E+04  0.15000000000E+04  0.10566000000E+00 0.  1.
        994   -1    0    0    0    0 -0.00000000000E+00 -0.00000000000E+00  0.11368683772E-12  0.17120000000E+03  0.17120000000E+03 0.  0.
         13    1    1    2    0    0  0.26182510693E+02  0.34143557119E+01  0.89729711933E+02  0.93534026208E+02  0.10566000000E+00 0.  1.
        994    1    1    2    0    0 -0.14166159898E+02 -0.35942586222E+01  0.45748371033E+01  0.17188358827E+03  0.17120000000E+03 0.  0.
        998    1    1    2    0    0 -0.12016350795E+02  0.17990291033E+00  0.14056954472E+04  0.14057823855E+04  0.10000000000E+02 0.  1.
</event>
<event>
 5    1  0.1488417E-008  0.3795187E+03  0.7957747E-01  0.3453257E+00
         13   -1    0    0    0    0  0.00000000000E+00  0.00000000000E+00  0.14999999963E+04  0.15000000000E+04  0.10566000000E+00 0. -1.
        994   -1    0    0    0    0 -0.00000000000E+00 -0.00000000000E+00  0.11368683772E-12  0.17120000000E+03  0.17120000000E+03 0.  0.
         13    1    1    2    0    0 -0.98957321056E+01 -0.20760549958E+02  0.56386410534E+02  0.60896341478E+02  0.10566000000E+00 0. -1.
        994    1    1    2    0    0  0.60507421457E+01  0.25595433232E+02  0.66958571651E+01  0.17333785561E+03  0.17120000000E+03 0.  0.
        998    1    1    2    0    0  0.38449899599E+01 -0.48348832742E+01  0.14369177286E+04  0.14369658029E+04  0.10000000000E+02 0. -1.
</event>
<event>
 5    1  0.1488417E-008  0.3696044E+03  0.7957747E-01  0.3497711E+00
         13   -1    0    0    0    0  0.00000000000E+00  0.00000000000E+00  0.14999999963E+04  0.15000000000E+04  0.10566000000E+00 0. -1.
        994   -1    0    0    0    0 -0.00000000000E+00 -0.00000000000E+00  0.11368683772E-12  0.17120000000E+03  0.17120000000E+03 0.  0.
         13    1    1    2    0    0  0.12316423276E+01  0.11849701863E+02  0.15945837770E+01  0.12020242864E+02  0.10566000000E+00 0. -1.
        994    1    1    2    0    0 -0.12308000934E+01 -0.13564341670E+02  0.11377661942E+02  0.17211739431E+03  0.17120000000E+03 0.  0.
        998    1    1    2    0    0 -0.84223420039E-03  0.17146398070E+01  0.14870277506E+04  0.14870623628E+04  0.10000000000E+02 0. -1.
</event>
<event>
 5    1  0.1488417E-008  0.3816968E+03  0.7957747E-01  0.3443803E+00
         13   -1    0    0    0    0  0.00000000000E+00  0.00000000000E+00  0.14999999963E+04  0.15000000000E+04  0.10566000000E+00 0. -1.
        994   -1    0    0    0    0 -0.00000000000E+00 -0.00000000000E+00  0.11368683772E-12  0.17120000000E+03  0.17120000000E+03 0.  0.
         13    1    1    2    0    0  0.14667353957E+02  0.27491512707E+01  0.32697223449E+02  0.35941740221E+02  0.10566000000E+00 0. -1.
        994    1    1    2    0    0 -0.98959230176E+01 -0.42870559336E+01  0.36657719772E+01  0.17157851271E+03  0.17120000000E+03 0.  0.
        998    1    1    2    0    0 -0.47714309392E+01  0.15379046629E+01  0.14636370009E+04  0.14636797471E+04  0.10000000000E+02 0. -1.
</event>
<event>
 5    1  0.1488417E-008  0.3861761E+03  0.7957747E-01  0.3424699E+00
         13   -1    0    0    0    0  0.00000000000E+00  0.00000000000E+00  0.14999999963E+04  0.15000000000E+04  0.10566000000E+00 0.  1.
        994   -1    0    0    0    0 -0.00000000000E+00 -0.00000000000E+00  0.11368683772E-12  0.17120000000E+03  0.17120000000E+03 0.  0.
         13    1    1    2    0    0  0.25993424325E+01  0.12054408279E+02  0.73578866287E+02  0.74605134329E+02  0.10566000000E+00 0.  1.
        994    1    1    2    0    0 -0.11185424828E+02 -0.62249523235E+01  0.15843668849E+01  0.17168521771E+03  0.17120000000E+03 0.  0.
        998    1    1    2    0    0  0.85860823955E+01 -0.58294559553E+01  0.14248367631E+04  0.14249096480E+04  0.10000000000E+02 0.  1.
</event>
<event>
 5    1  0.1488417E-008  0.4038549E+03  0.7957747E-01  0.3353442E+00
         13   -1    0    0    0    0  0.00000000000E+00  0.00000000000E+00  0.14999999963E+04  0.15000000000E+04  0.10566000000E+00 0.  1.
        994   -1    0    0    0    0 -0.00000000000E+00 -0.00000000000E+00  0.11368683772E-12  0.17120000000E+03  0.17120000000E+03 0.  0.
         13    1    1    2    0    0 -0.35635862412E+00  0.69933392399E+02  0.73740318888E+02  0.10162899270E+03  0.10566000000E+00 0.  1.
        994    1    1    2    0    0  0.19703947162E+02 -0.41624981034E+02  0.38584408785E+02  0.18143616283E+03  0.17120000000E+03 0.  0.
        998    1    1    2    0    0 -0.19347588538E+02 -0.28308411365E+02  0.13876752686E+04  0.13881348445E+04  0.10000000000E+02 0.  1.
</event>
<event>
 5    1  0.1488417E-008  0.3748751E+03  0.7957747E-01  0.3473782E+00
         13   -1    0    0    0    0  0.00000000000E+00  0.00000000000E+00  0.14999999963E+04  0.15000000000E+04  0.10566000000E+00 0.  1.
        994   -1    0    0    0    0 -0.00000000000E+00 -0.00000000000E+00  0.11368683772E-12  0.17120000000E+03  0.17120000000E+03 0.  0.
         13    1    1    2    0    0  0.96401669940E+01 -0.14559816200E+02  0.19952721423E+02  0.26514964146E+02  0.10566000000E+00 0.  1.
        994    1    1    2    0    0 -0.52523207568E+01  0.55246715026E+01  0.69405383934E+01  0.17151011615E+03  0.17120000000E+03 0.  0.
        998    1    1    2    0    0 -0.43878462372E+01  0.90351446977E+01  0.14731067365E+04  0.14731749197E+04  0.10000000000E+02 0.  1.
</event>
<event>
 5    1  0.1488417E-008  0.3795730E+03  0.7957747E-01  0.3453020E+00
         13   -1    0    0    0    0  0.00000000000E+00  0.00000000000E+00  0.14999999963E+04  0.15000000000E+04  0.10566000000E+00 0.  1.
        994   -1    0    0    0    0 -0.00000000000E+00 -0.00000000000E+00  0.11368683772E-12  0.17120000000E+03  0.17120000000E+03 0.  0.
         13    1    1    2    0    0  0.15485765986E+02  0.22691095642E+02  0.81120680904E+02  0.85646195502E+02  0.10566000000E+00 0.  1.
        994    1    1    2    0    0 -0.45261672107E+01 -0.30807449313E+02  0.76014763346E+01  0.17417464674E+03  0.17120000000E+03 0.  0.
        998    1    1    2    0    0 -0.10959598775E+02  0.81163536718E+01  0.14112778390E+04  0.14113791578E+04  0.10000000000E+02 0.  1.
</event>
<event>
 5    1  0.1488417E-008  0.3796557E+03  0.7957747E-01  0.3452659E+00
         13   -1    0    0    0    0  0.00000000000E+00  0.00000000000E+00  0.14999999963E+04  0.15000000000E+04  0.10566000000E+00 0.  1.
        994   -1    0    0    0    0 -0.00000000000E+00 -0.00000000000E+00  0.11368683772E-12  0.17120000000E+03  0.17120000000E+03 0.  0.
         13    1    1    2    0    0  0.87438598890E+01 -0.27285513078E+02  0.93657970889E+02  0.97942743400E+02  0.10566000000E+00 0.  1.
        994    1    1    2    0    0 -0.10359347840E+02  0.15439274549E+02  0.54648067169E+01  0.17229332952E+03  0.17120000000E+03 0.  0.
        998    1    1    2    0    0  0.16154879514E+01  0.11846238529E+02  0.14008772187E+04  0.14009639271E+04  0.10000000000E+02 0.  1.
</event>
<event>
 5    1  0.1488417E-008  0.3748324E+03  0.7957747E-01  0.3473973E+00
         13   -1    0    0    0    0  0.00000000000E+00  0.00000000000E+00  0.14999999963E+04  0.15000000000E+04  0.10566000000E+00 0.  1.
        994   -1    0    0    0    0 -0.00000000000E+00 -0.00000000000E+00  0.11368683772E-12  0.17120000000E+03  0.17120000000E+03 0.  0.
         13    1    1    2    0    0 -0.34358571103E+01  0.71333899662E+02  0.21136138124E+03  0.22310081801E+03  0.10566000000E+00 0.  1.
        994    1    1    2    0    0 -0.38743816908E+02 -0.17048110618E+02  0.19916192185E+02  0.17747624104E+03  0.17120000000E+03 0.  0.
        998    1    1    2    0    0  0.42179674018E+02 -0.54285789044E+02  0.12687224229E+04  0.12706229409E+04  0.10000000000E+02 0.  1.
</event>
<event>
 5    1  0.1488417E-008  0.3845888E+03  0.7957747E-01  0.3431418E+00
         13   -1    0    0    0    0  0.00000000000E+00  0.00000000000E+00  0.14999999963E+04  0.15000000000E+04  0.10566000000E+00 0.  1.
        994   -1    0    0    0    0 -0.00000000000E+00 -0.00000000000E+00  0.11368683772E-12  0.17120000000E+03  0.17120000000E+03 0.  0.
         13    1    1    2    0    0 -0.20232250987E+02 -0.19516499127E+01  0.93047742905E+02  0.95242041878E+02  0.10566000000E+00 0.  1.
        994    1    1    2    0    0  0.39114044276E+02  0.14356197066E+02  0.75721955361E+01  0.17635982252E+03  0.17120000000E+03 0.  0.
        998    1    1    2    0    0 -0.18881793289E+02 -0.12404547154E+02  0.13993800578E+04  0.13995981356E+04  0.10000000000E+02 0.  1.
</event>
<event>
 5    1  0.1488417E-008  0.3789875E+03  0.7957747E-01  0.3455579E+00
         13   -1    0    0    0    0  0.00000000000E+00  0.00000000000E+00  0.14999999963E+04  0.15000000000E+04  0.10566000000E+00 0. -1.
        994   -1    0    0    0    0 -0.00000000000E+00 -0.00000000000E+00  0.11368683772E-12  0.17120000000E+03  0.17120000000E+03 0.  0.
         13    1    1    2    0    0 -0.83729361933E+02 -0.15857722018E+02  0.51515163382E+03  0.52215255471E+03  0.10566000000E+00 0. -1.
        994    1    1    2    0    0  0.82179455840E+02  0.18396874020E+02  0.28812525685E+02  0.19295468269E+03  0.17120000000E+03 0.  0.
        998    1    1    2    0    0  0.15499060937E+01 -0.25391520024E+01  0.95603583677E+03  0.95609276260E+03  0.10000000000E+02 0. -1.
</event>
<event>
 5    1  0.1488417E-008  0.3836172E+03  0.7957747E-01  0.3435558E+00
         13   -1    0    0    0    0  0.00000000000E+00  0.00000000000E+00  0.14999999963E+04  0.15000000000E+04  0.10566000000E+00 0.  1.
        994   -1    0    0    0    0 -0.00000000000E+00 -0.00000000000E+00  0.11368683772E-12  0.17120000000E+03  0.17120000000E+03 0.  0.
         13    1    1    2    0    0  0.12904246517E+01  0.10641918742E+02  0.23798469583E+02  0.26101608165E+02  0.10566000000E+00 0.  1.
        994    1    1    2    0    0  0.11989109291E+02 -0.11667546795E+02  0.32433049898E+01  0.17204600959E+03  0.17120000000E+03 0.  0.
        998    1    1    2    0    0 -0.13279533943E+02  0.10256280531E+01  0.14729582217E+04  0.14730523822E+04  0.10000000000E+02 0.  1.
</event>
<event>
 5    1  0.1488417E-008  0.3752660E+03  0.7957747E-01  0.3472034E+00
         13   -1    0    0    0    0  0.00000000000E+00  0.00000000000E+00  0.14999999963E+04  0.15000000000E+04  0.10566000000E+00 0.  1.
        994   -1    0    0    0    0 -0.00000000000E+00 -0.00000000000E+00  0.11368683772E-12  0.17120000000E+03  0.17120000000E+03 0.  0.
         13    1    1    2    0    0 -0.75629767693E+01 -0.37966936086E+02  0.12406803487E+03  0.12996759324E+03  0.10566000000E+00 0.  1.
        994    1    1    2    0    0 -0.73441399160E+01  0.38872576388E+01  0.67767094524E+01  0.17153545101E+03  0.17120000000E+03 0.  0.
        998    1    1    2    0    0  0.14907116685E+02  0.34079678447E+02  0.13691552520E+04  0.13696969557E+04  0.10000000000E+02 0.  1.
</event>
<event>
 5    1  0.1702731E-008  0.3862530E+03  0.7957747E-01  0.3424375E+00
         13   -1    0    0    0    0  0.00000000000E+00  0.00000000000E+00  0.14999999963E+04  0.15000000000E+04  0.10566000000E+00 0. -1.
        994   -1    0    0    0    0 -0.00000000000E+00 -0.00000000000E+00  0.11368683772E-12  0.17120000000E+03  0.17120000000E+03 0.  0.
         13    1    1    2    0    0  0.96714469206E+00 -0.10410541495E+02  0.55679249350E+02  0.56652490813E+02  0.10566000000E+00 0. -1.
        994    1    1    2    0    0 -0.80850194532E+01  0.48472234527E+01  0.13004302012E+01  0.17146426518E+03  0.17120000000E+03 0.  0.
        998    1    1    2    0    0  0.71178747612E+01  0.55633180418E+01  0.14430203167E+04  0.14430832440E+04  0.10000000000E+02 0. -1.
</event>
<event>
 5    1  0.1488417E-008  0.2829296E+03  0.7957747E-01  0.4025964E+00
         13   -1    0    0    0    0  0.00000000000E+00  0.00000000000E+00  0.14999999963E+04  0.15000000000E+04  0.10566000000E+00 0. -1.
        994   -1    0    0    0    0 -0.00000000000E+00 -0.00000000000E+00  0.11368683772E-12  0.17120000000E+03  0.17120000000E+03 0.  0.
         13    1    1    2    0    0  0.17586738197E+03  0.12985535541E+03  0.41365147903E+03  0.46786676164E+03  0.10566000000E+00 0. -1.
        994    1    1    2    0    0 -0.16163776528E+03 -0.13469217281E+03  0.25661230117E+03  0.37340067179E+03  0.17120000000E+03 0.  0.
        998    1    1    2    0    0 -0.14229616693E+02  0.48368173993E+01  0.82973621608E+03  0.82993256657E+03  0.10000000000E+02 0. -1.
</event>
<event>
 5    1  0.1488417E-008  0.3840673E+03  0.7957747E-01  0.3433638E+00
         13   -1    0    0    0    0  0.00000000000E+00  0.00000000000E+00  0.14999999963E+04  0.15000000000E+04  0.10566000000E+00 0.  1.
        994   -1    0    0    0    0 -0.00000000000E+00 -0.00000000000E+00  0.11368683772E-12  0.17120000000E+03  0.17120000000E+03 0.  0.
         13    1    1    2    0    0  0.15370558928E+02  0.17251904685E+02  0.12583939796E+03  0.12794314182E+03  0.10566000000E+00 0.  1.
        994    1    1    2    0    0 -0.64524549869E+01 -0.14981761941E+02  0.29721330072E+01  0.17200104924E+03  0.17120000000E+03 0.  0.
        998    1    1    2    0    0 -0.89181039409E+01 -0.22701427439E+01  0.13711884653E+04  0.13712558089E+04  0.10000000000E+02 0.  1.
</event>
<event>
 5    1  0.1488417E-008  0.3810538E+03  0.7957747E-01  0.3446583E+00
         13   -1    0    0    0    0  0.00000000000E+00  0.00000000000E+00  0.14999999963E+04  0.15000000000E+04  0.10566000000E+00 0. -1.
        994   -1    0    0    0    0 -0.00000000000E+00 -0.00000000000E+00  0.11368683772E-12  0.17120000000E+03  0.17120000000E+03 0.  0.
         13    1    1    2    0    0  0.13516233051E+02 -0.11173573665E+02  0.40076696563E+02  0.43745743516E+02  0.10566000000E+00 0. -1.
        994    1    1    2    0    0 -0.15805266853E+02  0.12874034854E+02  0.49876926707E+01  0.17248148977E+03  0.17120000000E+03 0.  0.
        998    1    1    2    0    0  0.22890338021E+01 -0.17004611892E+01  0.14549356070E+04  0.14549727667E+04  0.10000000000E+02 0. -1.
</event>
<event>
 5    1  0.1488417E-008  0.2603377E+03  0.7957747E-01  0.4227393E+00
         13   -1    0    0    0    0  0.00000000000E+00  0.00000000000E+00  0.14999999963E+04  0.15000000000E+04  0.10566000000E+00 0.  1.
        994   -1    0    0    0    0 -0.00000000000E+00 -0.00000000000E+00  0.11368683772E-12  0.17120000000E+03  0.17120000000E+03 0.  0.
         13    1    1    2    0    0  0.93285223520E+02 -0.14990739900E+03  0.36585146145E+03  0.40622858616E+03  0.10566000000E+00 0.  1.
        994    1    1    2    0    0 -0.90252074596E+02  0.14430849652E+03  0.15749033075E+03  0.28824125904E+03  0.17120000000E+03 0.  0.
        998    1    1    2    0    0 -0.30331489246E+01  0.55989024800E+01  0.97665820408E+03  0.97673015480E+03  0.10000000000E+02 0.  1.
</event>
<event>
 5    1  0.1488417E-008  0.2896508E+03  0.7957747E-01  0.3972790E+00
         13   -1    0    0    0    0  0.00000000000E+00  0.00000000000E+00  0.14999999963E+04  0.15000000000E+04  0.10566000000E+00 0.  1.
        994   -1    0    0    0    0 -0.00000000000E+00 -0.00000000000E+00  0.11368683772E-12  0.17120000000E+03  0.17120000000E+03 0.  0.
         13    1    1    2    0    0  0.65405772887E+02 -0.16636535555E+03  0.73686908967E+03  0.75824231822E+03  0.10566000000E+00 0.  1.
        994    1    1    2    0    0 -0.57361582041E+01  0.78938963119E+02  0.54402758715E+02  0.19629916853E+03  0.17120000000E+03 0.  0.
        998    1    1    2    0    0 -0.59669614683E+02  0.87426392428E+02  0.70872814789E+03  0.71665851326E+03  0.10000000000E+02 0.  1.
</event>
<event>
 5    1  0.1488417E-008  0.3806477E+03  0.7957747E-01  0.3448343E+00
         13   -1    0    0    0    0  0.00000000000E+00  0.00000000000E+00  0.14999999963E+04  0.15000000000E+04  0.10566000000E+00 0.  1.
        994   -1    0    0    0    0 -0.00000000000E+00 -0.00000000000E+00  0.11368683772E-12  0.17120000000E+03  0.17120000000E+03 0.  0.
         13    1    1    2    0    0 -0.29128380064E+01  0.36795973956E+02  0.18176718605E+03  0.18547708595E+03  0.10566000000E+00 0.  1.
        994    1    1    2    0    0 -0.18323659849E+02 -0.20426184021E+02  0.63224112309E+01  0.17350042763E+03  0.17120000000E+03 0.  0.
        998    1    1    2    0    0  0.21236497856E+02 -0.16369789935E+02  0.13119103990E+04  0.13122224864E+04  0.10000000000E+02 0.  1.
</event>
<event>
 5    1  0.1488417E-008  0.3969907E+03  0.7957747E-01  0.3380357E+00
         13   -1    0    0    0    0  0.00000000000E+00  0.00000000000E+00  0.14999999963E+04  0.15000000000E+04  0.10566000000E+00 0.  1.
        994   -1    0    0    0    0 -0.00000000000E+00 -0.00000000000E+00  0.11368683772E-12  0.17120000000E+03  0.17120000000E+03 0.  0.
         13    1    1    2    0    0  0.86870756025E+02  0.25601143182E+02  0.15821069106E+03  0.18229805461E+03  0.10566000000E+00 0.  1.
        994    1    1    2    0    0 -0.32294650265E+02 -0.52277236731E+02  0.40744285781E+02  0.18640115541E+03  0.17120000000E+03 0.  0.
        998    1    1    2    0    0 -0.54576105760E+02  0.26676093549E+02  0.13010450194E+04  0.13025007900E+04  0.10000000000E+02 0.  1.
</event>
<event>
 5    1  0.1488417E-008  0.3828345E+03  0.7957747E-01  0.3438909E+00
         13   -1    0    0    0    0  0.00000000000E+00  0.00000000000E+00  0.14999999963E+04  0.15000000000E+04  0.10566000000E+00 0.  1.
        994   -1    0    0    0    0 -0.00000000000E+00 -0.00000000000E+00  0.11368683772E-12  0.17120000000E+03  0.17120000000E+03 0.  0.
         13    1    1    2    0    0  0.99340680306E+01  0.10820182368E+02  0.40969927516E+02  0.43523650798E+02  0.10566000000E+00 0.  1.
        994    1    1    2    0    0 -0.54556995279E+01  0.83912715172E+01  0.30409699294E+01  0.17151928636E+03  0.17120000000E+03 0.  0.
        998    1    1    2    0    0 -0.44783685027E+01 -0.19211453885E+02  0.14559890988E+04  0.14561570628E+04  0.10000000000E+02 0.  1.
</event>
<event>
 5    1  0.1488417E-008  0.4039010E+03  0.7957747E-01  0.3353264E+00
         13   -1    0    0    0    0  0.00000000000E+00  0.00000000000E+00  0.14999999963E+04  0.15000000000E+04  0.10566000000E+00 0. -1.
        994   -1    0    0    0    0 -0.00000000000E+00 -0.00000000000E+00  0.11368683772E-12  0.17120000000E+03  0.17120000000E+03 0.  0.
         13    1    1    2    0    0 -0.41484446061E+02  0.47573026871E+02  0.65276719753E+02  0.90803157745E+02  0.10566000000E+00 0. -1.
        994    1    1    2    0    0  0.83913002608E+01  0.23644951169E+02  0.32640000347E+02  0.17608039998E+03  0.17120000000E+03 0.  0.
        998    1    1    2    0    0  0.33093145800E+02 -0.71217978040E+02  0.14020832762E+04  0.14043164423E+04  0.10000000000E+02 0. -1.
</event>
<event>
 5    1  0.1488417E-008  0.3777103E+03  0.7957747E-01  0.3461189E+00
         13   -1    0    0    0    0  0.00000000000E+00  0.00000000000E+00  0.14999999963E+04  0.15000000000E+04  0.10566000000E+00 0. -1.
        994   -1    0    0    0    0 -0.00000000000E+00 -0.00000000000E+00  0.11368683772E-12  0.17120000000E+03  0.17120000000E+03 0.  0.
         13    1    1    2    0    0  0.19850909145E+02  0.83760858554E+02  0.47470877424E+03  0.48245038245E+03  0.10566000000E+00 0. -1.
        994    1    1    2    0    0 -0.23432314754E+02 -0.82614760718E+02  0.30550043719E+02  0.19395106918E+03  0.17120000000E+03 0.  0.
        998    1    1    2    0    0  0.35814056088E+01 -0.11460978368E+01  0.99474117832E+03  0.99479854838E+03  0.10000000000E+02 0.  0.
</event>
<event>
 5    1  0.1488417E-008  0.3720969E+03  0.7957747E-01  0.3486309E+00
         13   -1    0    0    0    0  0.00000000000E+00  0.00000000000E+00  0.14999999963E+04  0.15000000000E+04  0.10566000000E+00 0.  1.
        994   -1    0    0    0    0 -0.00000000000E+00 -0.00000000000E+00  0.11368683772E-12  0.17120000000E+03  0.17120000000E+03 0.  0.
         13    1    1    2    0    0 -0.15664823342E+02 -0.10369286916E+01  0.12071893869E+02  0.19804133333E+02  0.10566000000E+00 0.  1.
        994    1    1    2    0    0 -0.12299755262E+02 -0.75079957420E+01  0.88903199881E+01  0.17203526316E+03  0.17120000000E+03 0.  0.
        998    1    1    2    0    0  0.27964578605E+02  0.85449244335E+01  0.14790377824E+04  0.14793606035E+04  0.10000000000E+02 0.  1.
</event>
<event>
 5    1  0.1488417E-008  0.3780740E+03  0.7957747E-01  0.3459588E+00
         13   -1    0    0    0    0  0.00000000000E+00  0.00000000000E+00  0.14999999963E+04  0.15000000000E+04  0.10566000000E+00 0. -1.
        994   -1    0    0    0    0 -0.00000000000E+00 -0.00000000000E+00  0.11368683772E-12  0.17120000000E+03  0.17120000000E+03 0.  0.
         13    1    1    2    0    0 -0.35441842134E+02 -0.43330111219E+01  0.16798048931E+03  0.17173338380E+03  0.10566000000E+00 0. -1.
        994    1    1    2    0    0 -0.22024020413E+02 -0.34858820372E+02  0.10849958381E+02  0.17642946588E+03  0.17120000000E+03 0.  0.
        998    1    1    2    0    0  0.57465862547E+02  0.39191831494E+02  0.13211695486E+04  0.13230371503E+04  0.10000000000E+02 0. -1.
</event>
<event>
 5    1  0.1488417E-008  0.3807266E+03  0.7957747E-01  0.3448001E+00
         13   -1    0    0    0    0  0.00000000000E+00  0.00000000000E+00  0.14999999963E+04  0.15000000000E+04  0.10566000000E+00 0.  1.
        994   -1    0    0    0    0 -0.00000000000E+00 -0.00000000000E+00  0.11368683772E-12  0.17120000000E+03  0.17120000000E+03 0.  0.
         13    1    1    2    0    0  0.30923432309E+02 -0.60632043161E+02  0.12850172733E+03  0.14541392098E+03  0.10566000000E+00 0.  1.
        994    1    1    2    0    0 -0.26867961722E+02  0.47302874345E+02  0.27558701615E+02  0.18173709397E+03  0.17120000000E+03 0.  0.
        998    1    1    2    0    0 -0.40554705864E+01  0.13329168816E+02  0.13439395673E+04  0.13440489851E+04  0.10000000000E+02 0.  1.
</event>
<event>
 5    1  0.1488417E-008  0.3856867E+03  0.7957747E-01  0.3426765E+00
         13   -1    0    0    0    0  0.00000000000E+00  0.00000000000E+00  0.14999999963E+04  0.15000000000E+04  0.10566000000E+00 0.  1.
        994   -1    0    0    0    0 -0.00000000000E+00 -0.00000000000E+00  0.11368683772E-12  0.17120000000E+03  0.17120000000E+03 0.  0.
         13    1    1    2    0    0  0.78792375608E+01 -0.11565164317E+02  0.76834906081E+02  0.78098971611E+02  0.10566000000E+00 0.  1.
        994    1    1    2    0    0  0.82209107838E+00  0.11046125605E+02  0.16922654048E+01  0.17156630347E+03  0.17120000000E+03 0.  0.
        998    1    1    2    0    0 -0.87013286391E+01  0.51903871269E+00  0.14214728248E+04  0.14215347249E+04  0.10000000000E+02 0.  1.
</event>
<event>
 5    1  0.1488417E-008  0.3809472E+03  0.7957747E-01  0.3447044E+00
         13   -1    0    0    0    0  0.00000000000E+00  0.00000000000E+00  0.14999999963E+04  0.15000000000E+04  0.10566000000E+00 0.  1.
        994   -1    0    0    0    0 -0.00000000000E+00 -0.00000000000E+00  0.11368683772E-12  0.17120000000E+03  0.17120000000E+03 0.  0.
         13    1    1    2    0    0  0.12717441424E+02 -0.29460010823E+02  0.15503017375E+03  0.15831611254E+03  0.10566000000E+00 0.  1.
        994    1    1    2    0    0 -0.58951055454E+01  0.16190538160E+01  0.37803127142E+01  0.17135082249E+03  0.17120000000E+03 0.  0.
        998    1    1    2    0    0 -0.68223358789E+01  0.27840957007E+02  0.13411895098E+04  0.13415330650E+04  0.10000000000E+02 0.  1.
</event>
<event>
 5    1  0.1488417E-008  0.3586396E+03  0.7957747E-01  0.3549788E+00
         13   -1    0    0    0    0  0.00000000000E+00  0.00000000000E+00  0.14999999963E+04  0.15000000000E+04  0.10566000000E+00 0. -1.
        994   -1    0    0    0    0 -0.00000000000E+00 -0.00000000000E+00  0.11368683772E-12  0.17120000000E+03  0.17120000000E+03 0.  0.
         13    1    1    2    0    0  0.26692119581E+03 -0.25122974015E+02  0.10851079207E+04  0.11177375807E+04  0.10566000000E+00 0. -1.
        994    1    1    2    0    0 -0.26593942509E+03  0.60566911219E+02  0.40050468452E+03  0.51391202640E+03  0.17120000000E+03 0.  0.
        998    1    1    2    0    0 -0.98177072203E+00 -0.35443937203E+02  0.14387391093E+02  0.39550392927E+02  0.10000000000E+02 0.  1.
</event>
<event>
 5    1  0.1488417E-008  0.3892632E+03  0.7957747E-01  0.3411790E+00
         13   -1    0    0    0    0  0.00000000000E+00  0.00000000000E+00  0.14999999963E+04  0.15000000000E+04  0.10566000000E+00 0. -1.
        994   -1    0    0    0    0 -0.00000000000E+00 -0.00000000000E+00  0.11368683772E-12  0.17120000000E+03  0.17120000000E+03 0.  0.
         13    1    1    2    0    0  0.20875858815E+02  0.13494371433E+02  0.46693388707E+01  0.25292556833E+02  0.10566000000E+00 0. -1.
        994    1    1    2    0    0 -0.25728152222E+02 -0.29133544548E+02  0.27199850268E+02  0.17765126819E+03  0.17120000000E+03 0.  0.
        998    1    1    2    0    0  0.48522934067E+01  0.15639173114E+02  0.14681308071E+04  0.14682561750E+04  0.10000000000E+02 0. -1.
</event>
<event>
 5    1  0.1488417E-008  0.3857708E+03  0.7957747E-01  0.3426410E+00
         13   -1    0    0    0    0  0.00000000000E+00  0.00000000000E+00  0.14999999963E+04  0.15000000000E+04  0.10566000000E+00 0.  1.
        994   -1    0    0    0    0 -0.00000000000E+00 -0.00000000000E+00  0.11368683772E-12  0.17120000000E+03  0.17120000000E+03 0.  0.
         13    1    1    2    0    0  0.11786850445E+02  0.29301043906E+01  0.60803455096E+02  0.62004731036E+02  0.10566000000E+00 0.  1.
        994    1    1    2    0    0 -0.50205341818E+01 -0.15218524200E+01  0.13382435447E+01  0.17128558811E+03  0.17120000000E+03 0.  0.
        998    1    1    2    0    0 -0.67663162637E+01 -0.14082519705E+01  0.14378582976E+04  0.14379096809E+04  0.10000000000E+02 0.  1.
</event>
<event>
 5    1  0.1488417E-008  0.3841366E+03  0.7957747E-01  0.3433342E+00
         13   -1    0    0    0    0  0.00000000000E+00  0.00000000000E+00  0.14999999963E+04  0.15000000000E+04  0.10566000000E+00 0.  1.
        994   -1    0    0    0    0 -0.00000000000E+00 -0.00000000000E+00  0.11368683772E-12  0.17120000000E+03  0.17120000000E+03 0.  0.
         13    1    1    2    0    0  0.10108235675E+02  0.27978601418E+02  0.17881817610E+03  0.18127583908E+03  0.10566000000E+00 0.  1.
        994    1    1    2    0    0 -0.32547718760E+01 -0.38650879965E+02  0.70368491780E+01  0.17567993997E+03  0.17120000000E+03 0.  0.
        998    1    1    2    0    0 -0.68534637987E+01  0.10672278547E+02  0.13141449710E+04  0.13142442209E+04  0.10000000000E+02 0.  1.
</event>
<event>
 5    1  0.1488417E-008  0.3811027E+03  0.7957747E-01  0.3446371E+00
         13   -1    0    0    0    0  0.00000000000E+00  0.00000000000E+00  0.14999999963E+04  0.15000000000E+04  0.10566000000E+00 0. -1.
        994   -1    0    0    0    0 -0.00000000000E+00 -0.00000000000E+00  0.11368683772E-12  0.17120000000E+03  0.17120000000E+03 0.  0.
         13    1    1    2    0    0  0.28334985815E+02  0.80068892324E+02  0.31899430533E+03  0.33010797769E+03  0.10566000000E+00 0. -1.
        994    1    1    2    0    0 -0.58973354188E+02  0.42322512719E+02  0.36364835506E+02  0.18947530934E+03  0.17120000000E+03 0.  0.
        998    1    1    2    0    0  0.30638368373E+02 -0.12239140504E+03  0.11446408554E+04  0.11516167130E+04  0.10000000000E+02 0. -1.
</event>
<event>
 5    1  0.1488417E-008  0.3707877E+03  0.7957747E-01  0.3492279E+00
         13   -1    0    0    0    0  0.00000000000E+00  0.00000000000E+00  0.14999999963E+04  0.15000000000E+04  0.10566000000E+00 0. -1.
        994   -1    0    0    0    0 -0.00000000000E+00 -0.00000000000E+00  0.11368683772E-12  0.17120000000E+03  0.17120000000E+03 0.  0.
         13    1    1    2    0    0  0.62145551040E+01 -0.11797365317E+02  0.62235521005E+01  0.14715375916E+02  0.10566000000E+00 0. -1.
        994    1    1    2    0    0  0.20956465476E+01 -0.44310418448E+01  0.89407883728E+01  0.17150336312E+03  0.17120000000E+03 0.  0.
        998    1    1    2    0    0 -0.83102016516E+01  0.16228407162E+02  0.14848356558E+04  0.14849812610E+04  0.10000000000E+02 0. -1.
</event>
<event>
 5    1  0.1488417E-008  0.3769532E+03  0.7957747E-01  0.3464533E+00
         13   -1    0    0    0    0  0.00000000000E+00  0.00000000000E+00  0.14999999963E+04  0.15000000000E+04  0.10566000000E+00 0.  1.
        994   -1    0    0    0    0 -0.00000000000E+00 -0.00000000000E+00  0.11368683772E-12  0.17120000000E+03  0.17120000000E+03 0.  0.
         13    1    1    2    0    0  0.15652302036E+02 -0.12502619186E+02  0.33335387951E+02  0.38891763902E+02  0.10566000000E+00 0.  1.
        994    1    1    2    0    0 -0.14600798188E+02 -0.16650126811E+01  0.64087420482E+01  0.17194902602E+03  0.17120000000E+03 0.  0.
        998    1    1    2    0    0 -0.10515038483E+01  0.14167631867E+02  0.14602558663E+04  0.14603592101E+04  0.10000000000E+02 0.  1.
</event>
<event>
 5    1  0.1488417E-008  0.3821129E+03  0.7957747E-01  0.3442010E+00
         13   -1    0    0    0    0  0.00000000000E+00  0.00000000000E+00  0.14999999963E+04  0.15000000000E+04  0.10566000000E+00 0. -1.
        994   -1    0    0    0    0 -0.00000000000E+00 -0.00000000000E+00  0.11368683772E-12  0.17120000000E+03  0.17120000000E+03 0.  0.
         13    1    1    2    0    0 -0.87626654054E+01  0.69195701183E+01  0.19215407356E+02  0.22224036526E+02  0.10566000000E+00 0. -1.
        994    1    1    2    0    0  0.58288314217E+01 -0.15324286983E+01  0.31909660164E+01  0.17133576940E+03  0.17120000000E+03 0.  0.
        998    1    1    2    0    0  0.29338339837E+01 -0.53871414200E+01  0.14775936229E+04  0.14776401941E+04  0.10000000000E+02 0. -1.
</event>
<event>
 5    1  0.1488417E-008  0.3849624E+03  0.7957747E-01  0.3429832E+00
         13   -1    0    0    0    0  0.00000000000E+00  0.00000000000E+00  0.14999999963E+04  0.15000000000E+04  0.10566000000E+00 0.  1.
        994   -1    0    0    0    0 -0.00000000000E+00 -0.00000000000E+00  0.11368683772E-12  0.17120000000E+03  0.17120000000E+03 0.  0.
         13    1    1    2    0    0 -0.56100292451E+02  0.76305478579E+02  0.23585010384E+03  0.25415556559E+03  0.10566000000E+00 0.  1.
        994    1    1    2    0    0  0.14855070731E+02 -0.54352844422E+02  0.30893387132E+02  0.18286264296E+03  0.17120000000E+03 0.  0.
        998    1    1    2    0    0  0.41245221720E+02 -0.21952634158E+02  0.12332565053E+04  0.12341817914E+04  0.10000000000E+02 0.  1.
</event>
<event>
 5    1  0.1488417E-008  0.3764618E+03  0.7957747E-01  0.3466711E+00
         13   -1    0    0    0    0  0.00000000000E+00  0.00000000000E+00  0.14999999963E+04  0.15000000000E+04  0.10566000000E+00 0. -1.
        994   -1    0    0    0    0 -0.00000000000E+00 -0.00000000000E+00  0.11368683772E-12  0.17120000000E+03  0.17120000000E+03 0.  0.
         13    1    1    2    0    0  0.98297306744E+01 -0.25157460795E+02  0.18877668864E+02  0.32952981421E+02  0.10566000000E+00 0. -1.
        994    1    1    2    0    0 -0.63381990776E+01  0.29113953903E+02  0.17579430805E+02  0.17466044620E+03  0.17120000000E+03 0.  0.
        998    1    1    2    0    0 -0.34915315968E+01 -0.39564931079E+01  0.14635428966E+04  0.14635865724E+04  0.10000000000E+02 0. -1.
</event>
<event>
 5    1  0.1488417E-008  0.3740000E+03  0.7957747E-01  0.3477707E+00
         13   -1    0    0    0    0  0.00000000000E+00  0.00000000000E+00  0.14999999963E+04  0.15000000000E+04  0.10566000000E+00 0.  1.
        994   -1    0    0    0    0 -0.00000000000E+00 -0.00000000000E+00  0.11368683772E-12  0.17120000000E+03  0.17120000000E+03 0.  0.
         13    1    1    2    0    0 -0.64660866202E+02 -0.40072445720E+02  0.35353068733E+03  0.36162243648E+03  0.10566000000E+00 0.  1.
        994    1    1    2    0    0  0.46961896161E+02  0.36244917188E+02  0.19292257134E+02  0.18221071565E+03  0.17120000000E+03 0.  0.
        998    1    1    2    0    0  0.17698970041E+02  0.38275285319E+01  0.11271770518E+04  0.11273668479E+04  0.10000000000E+02 0.  1.
</event>
<event>
 5    1  0.1488417E-008  0.3786916E+03  0.7957747E-01  0.3456875E+00
         13   -1    0    0    0    0  0.00000000000E+00  0.00000000000E+00  0.14999999963E+04  0.15000000000E+04  0.10566000000E+00 0. -1.
        994   -1    0    0    0    0 -0.00000000000E+00 -0.00000000000E+00  0.11368683772E-12  0.17120000000E+03  0.17120000000E+03 0.  0.
         13    1    1    2    0    0  0.69703860933E+02  0.65392439113E+02  0.53666623133E+03  0.54511049736E+03  0.10566000000E+00 0. -1.
        994    1    1    2    0    0 -0.62633976188E+02 -0.86862446279E+02  0.44316815040E+02  0.20674022260E+03  0.17120000000E+03 0.  0.
        998    1    1    2    0    0 -0.70698847447E+01  0.21470007166E+02  0.91901694991E+03  0.91934928004E+03  0.10000000000E+02 0. -1.
</event>
<event>
 5    1  0.1488417E-008  0.3800064E+03  0.7957747E-01  0.3451131E+00
         13   -1    0    0    0    0  0.00000000000E+00  0.00000000000E+00  0.14999999963E+04  0.15000000000E+04  0.10566000000E+00 0. -1.
        994   -1    0    0    0    0 -0.00000000000E+00 -0.00000000000E+00  0.11368683772E-12  0.17120000000E+03  0.17120000000E+03 0.  0.
         13    1    1    2    0    0  0.35664476793E+02  0.69541040529E+01  0.20498817739E+03  0.20818376138E+03  0.10566000000E+00 0. -1.
        994    1    1    2    0    0  0.95271157975E+01  0.11355370712E+02  0.48647160962E+01  0.17190932448E+03  0.17120000000E+03 0.  0.
        998    1    1    2    0    0 -0.45191592591E+02 -0.18309474765E+02  0.12901471028E+04  0.12911069141E+04  0.10000000000E+02 0. -1.
</event>
<event>
 5    1  0.1488417E-008  0.3765022E+03  0.7957747E-01  0.3466532E+00
         13   -1    0    0    0    0  0.00000000000E+00  0.00000000000E+00  0.14999999963E+04  0.15000000000E+04  0.10566000000E+00 0. -1.
        994   -1    0    0    0    0 -0.00000000000E+00 -0.00000000000E+00  0.11368683772E-12  0.17120000000E+03  0.17120000000E+03 0.  0.
         13    1    1    2    0    0  0.16868573665E+02  0.38643678258E+02  0.54311396330E+02  0.68757701984E+02  0.10566000000E+00 0. -1.
        994    1    1    2    0    0 -0.37570737664E+01 -0.44719206808E+02  0.21659200830E+02  0.17830447005E+03  0.17120000000E+03 0.  0.
        998    1    1    2    0    0 -0.13111499899E+02  0.60755285502E+01  0.14240293991E+04  0.14241378280E+04  0.10000000000E+02 0. -1.
</event>
<event>
 5    1  0.1488417E-008  0.3792400E+03  0.7957747E-01  0.3454474E+00
         13   -1    0    0    0    0  0.00000000000E+00  0.00000000000E+00  0.14999999963E+04  0.15000000000E+04  0.10566000000E+00 0. -1.
        994   -1    0    0    0    0 -0.00000000000E+00 -0.00000000000E+00  0.11368683772E-12  0.17120000000E+03  0.17120000000E+03 0.  0.
         13    1    1    2    0    0  0.49240516388E+02 -0.34448160136E+02  0.12256369805E+03  0.13650338983E+03  0.10566000000E+00 0. -1.
        994    1    1    2    0    0 -0.22780637316E+02 -0.27453399090E+02  0.20522872742E+02  0.17607746836E+03  0.17120000000E+03 0.  0.
        998    1    1    2    0    0 -0.26459879073E+02  0.61901559226E+02  0.13569134255E+04  0.13586191418E+04  0.10000000000E+02 0. -1.
</event>
<event>
 5    1  0.1488417E-008  0.3792409E+03  0.7957747E-01  0.3454470E+00
         13   -1    0    0    0    0  0.00000000000E+00  0.00000000000E+00  0.14999999963E+04  0.15000000000E+04  0.10566000000E+00 0. -1.
        994   -1    0    0    0    0 -0.00000000000E+00 -0.00000000000E+00  0.11368683772E-12  0.17120000000E+03  0.17120000000E+03 0.  0.
         13    1    1    2    0    0  0.62319332763E+01  0.37158619489E+02  0.19542467596E+03  0.19902365471E+03  0.10566000000E+00 0. -1.
        994    1    1    2    0    0  0.11244199161E+02  0.74295325052E+01  0.51257438883E+01  0.17180612102E+03  0.17120000000E+03 0.  0.
        998    1    1    2    0    0 -0.17476132437E+02 -0.44588151994E+02  0.12994495764E+04  0.13003702243E+04  0.10000000000E+02 0. -1.
</event>
<event>
 5    1  0.1488417E-008  0.3848950E+03  0.7957747E-01  0.3430118E+00
         13   -1    0    0    0    0  0.00000000000E+00  0.00000000000E+00  0.14999999963E+04  0.15000000000E+04  0.10566000000E+00 0. -1.
        994   -1    0    0    0    0 -0.00000000000E+00 -0.00000000000E+00  0.11368683772E-12  0.17120000000E+03  0.17120000000E+03 0.  0.
         13    1    1    2    0    0  0.87887843837E+01  0.79474067451E+01  0.41047609723E+02  0.42723780649E+02  0.10566000000E+00 0. -1.
        994    1    1    2    0    0 -0.97688318012E+01 -0.48454681257E+01  0.20735787121E+01  0.17155946014E+03  0.17120000000E+03 0.  0.
        998    1    1    2    0    0  0.98004741742E+00 -0.31019386194E+01  0.14568788078E+04  0.14569167592E+04  0.10000000000E+02 0. -1.
</event>
<event>
 5    1  0.1488417E-008  0.3784555E+03  0.7957747E-01  0.3457911E+00
         13   -1    0    0    0    0  0.00000000000E+00  0.00000000000E+00  0.14999999963E+04  0.15000000000E+04  0.10566000000E+00 0.  1.
        994   -1    0    0    0    0 -0.00000000000E+00 -0.00000000000E+00  0.11368683772E-12  0.17120000000E+03  0.17120000000E+03 0.  0.
         13    1    1    2    0    0  0.20951908069E+02 -0.14767801801E+02  0.64535191785E+02  0.69439704525E+02  0.10566000000E+00 0.  1.
        994    1    1    2    0    0 -0.14366888668E+02  0.11250459083E+02  0.60344442780E+01  0.17227546209E+03  0.17120000000E+03 0.  0.
        998    1    1    2    0    0 -0.65850194009E+01  0.35173427174E+01  0.14294303602E+04  0.14294848334E+04  0.10000000000E+02 0.  1.
</event>
<event>
 5    1  0.1488417E-008  0.3863795E+03  0.7957747E-01  0.3423843E+00
         13   -1    0    0    0    0  0.00000000000E+00  0.00000000000E+00  0.14999999963E+04  0.15000000000E+04  0.10566000000E+00 0.  1.
        994   -1    0    0    0    0 -0.00000000000E+00 -0.00000000000E+00  0.11368683772E-12  0.17120000000E+03  0.17120000000E+03 0.  0.
         13    1    1    2    0    0  0.51905561185E+01  0.11848172775E+02  0.77738794859E+02  0.78807692906E+02  0.10566000000E+00 0.  1.
        994    1    1    2    0    0 -0.19191157421E+02 -0.19269777112E+02  0.33720671733E+01  0.17337945573E+03  0.17120000000E+03 0.  0.
        998    1    1    2    0    0  0.14000601302E+02  0.74216043370E+01  0.14188891342E+04  0.14190128514E+04  0.10000000000E+02 0.  1.
</event>
<event>
 5    1  0.1488417E-008  0.3859013E+03  0.7957747E-01  0.3425859E+00
         13   -1    0    0    0    0  0.00000000000E+00  0.00000000000E+00  0.14999999963E+04  0.15000000000E+04  0.10566000000E+00 0. -1.
        994   -1    0    0    0    0 -0.00000000000E+00 -0.00000000000E+00  0.11368683772E-12  0.17120000000E+03  0.17120000000E+03 0.  0.
         13    1    1    2    0    0 -0.12563735023E+02 -0.12177433701E+01  0.66115975848E+02  0.67310205489E+02  0.10566000000E+00 0. -1.
        994    1    1    2    0    0  0.12395754996E+02 -0.13931253225E+01  0.16937070521E+01  0.17166218041E+03  0.17120000000E+03 0.  0.
        998    1    1    2    0    0  0.16798002707E+00  0.26108686926E+01  0.14321903134E+04  0.14322276141E+04  0.10000000000E+02 0. -1.
</event>
<event>
 5    1  0.1488417E-008  0.3837847E+03  0.7957747E-01  0.3434843E+00
         13   -1    0    0    0    0  0.00000000000E+00  0.00000000000E+00  0.14999999963E+04  0.15000000000E+04  0.10566000000E+00 0. -1.
        994   -1    0    0    0    0 -0.00000000000E+00 -0.00000000000E+00  0.11368683772E-12  0.17120000000E+03  0.17120000000E+03 0.  0.
         13    1    1    2    0    0 -0.97933930011E+01  0.45141225011E+01  0.25607334230E+02  0.27785510232E+02  0.10566000000E+00 0. -1.
        994    1    1    2    0    0  0.77331621033E+00 -0.86269073972E+01  0.24824636535E+01  0.17143693935E+03  0.17120000000E+03 0.  0.
        998    1    1    2    0    0  0.90200767908E+01  0.41127848961E+01  0.14719101984E+04  0.14719775504E+04  0.10000000000E+02 0. -1.
</event>
<event>
 5    1  0.1488417E-008  0.3727777E+03  0.7957747E-01  0.3483222E+00
         13   -1    0    0    0    0  0.00000000000E+00  0.00000000000E+00  0.14999999963E+04  0.15000000000E+04  0.10566000000E+00 0. -1.
        994   -1    0    0    0    0 -0.00000000000E+00 -0.00000000000E+00  0.11368683772E-12  0.17120000000E+03  0.17120000000E+03 0.  0.
         13    1    1    2    0    0 -0.13516205805E+02  0.10598931424E+02  0.16661045399E+02  0.23929621069E+02  0.10566000000E+00 0. -1.
        994    1    1    2    0    0 -0.16925024070E+02  0.12996908806E+02  0.93855427115E+01  0.17277993081E+03  0.17120000000E+03 0.  0.
        998    1    1    2    0    0  0.30441229875E+02 -0.23595840229E+02  0.14739534082E+04  0.14744904481E+04  0.10000000000E+02 0. -1.
</event>
<event>
 5    1  0.1488417E-008  0.3800603E+03  0.7957747E-01  0.3450896E+00
         13   -1    0    0    0    0  0.00000000000E+00  0.00000000000E+00  0.14999999963E+04  0.15000000000E+04  0.10566000000E+00 0. -1.
        994   -1    0    0    0    0 -0.00000000000E+00 -0.00000000000E+00  0.11368683772E-12  0.17120000000E+03  0.17120000000E+03 0.  0.
         13    1    1    2    0    0 -0.35704238952E+02  0.33597087893E+02  0.67399981757E+02  0.83344620096E+02  0.10566000000E+00 0. -1.
        994    1    1    2    0    0  0.16674034444E+02 -0.33743176070E+02  0.21511987171E+02  0.17660359834E+03  0.17120000000E+03 0.  0.
        998    1    1    2    0    0  0.19030204508E+02  0.14608817647E+00  0.14110880274E+04  0.14112517816E+04  0.10000000000E+02 0. -1.
</event>
<event>
 5    1  0.1488417E-008  0.3777772E+03  0.7957747E-01  0.3460894E+00
         13   -1    0    0    0    0  0.00000000000E+00  0.00000000000E+00  0.14999999963E+04  0.15000000000E+04  0.10566000000E+00 0.  1.
        994   -1    0    0    0    0 -0.00000000000E+00 -0.00000000000E+00  0.11368683772E-12  0.17120000000E+03  0.17120000000E+03 0.  0.
         13    1    1    2    0    0 -0.27549868539E+02 -0.38494613415E+01  0.67470145716E+02  0.72979759770E+02  0.10566000000E+00 0.  1.
        994    1    1    2    0    0  0.32742748954E+02  0.37314598181E+01  0.89254391689E+01  0.17457123150E+03  0.17120000000E+03 0.  0.
        998    1    1    2    0    0 -0.51928804147E+01  0.11800152348E+00  0.14236044114E+04  0.14236490087E+04  0.10000000000E+02 0.  1.
</event>
<event>
 5    1  0.1488417E-008  0.3819611E+03  0.7957747E-01  0.3442664E+00
         13   -1    0    0    0    0  0.00000000000E+00  0.00000000000E+00  0.14999999963E+04  0.15000000000E+04  0.10566000000E+00 0. -1.
        994   -1    0    0    0    0 -0.00000000000E+00 -0.00000000000E+00  0.11368683772E-12  0.17120000000E+03  0.17120000000E+03 0.  0.
         13    1    1    2    0    0 -0.23615344318E+02 -0.36146649845E+00  0.96426755116E+02  0.99277114239E+02  0.10566000000E+00 0. -1.
        994    1    1    2    0    0 -0.19407345812E+01  0.18083692246E+01  0.31698579202E+01  0.17124988949E+03  0.17120000000E+03 0.  0.
        998    1    1    2    0    0  0.25556078900E+02 -0.14469027261E+01  0.14004033832E+04  0.14006729963E+04  0.10000000000E+02 0. -1.
</event>
<event>
 5    1  0.1488417E-008  0.3742580E+03  0.7957747E-01  0.3476548E+00
         13   -1    0    0    0    0  0.00000000000E+00  0.00000000000E+00  0.14999999963E+04  0.15000000000E+04  0.10566000000E+00 0. -1.
        994   -1    0    0    0    0 -0.00000000000E+00 -0.00000000000E+00  0.11368683772E-12  0.17120000000E+03  0.17120000000E+03 0.  0.
         13    1    1    2    0    0  0.58623087559E+02 -0.81098648301E+02  0.32090806924E+03  0.33614826672E+03  0.10566000000E+00 0. -1.
        994    1    1    2    0    0 -0.49423712685E+02  0.69310091549E+02  0.39394814212E+02  0.19521266238E+03  0.17120000000E+03 0.  0.
        998    1    1    2    0    0 -0.91993748741E+01  0.11788556753E+02  0.11396971128E+04  0.11398390709E+04  0.10000000000E+02 0. -1.
</event>
<event>
 5    1  0.1488417E-008  0.3805897E+03  0.7957747E-01  0.3448595E+00
         13   -1    0    0    0    0  0.00000000000E+00  0.00000000000E+00  0.14999999963E+04  0.15000000000E+04  0.10566000000E+00 0. -1.
        994   -1    0    0    0    0 -0.00000000000E+00 -0.00000000000E+00  0.11368683772E-12  0.17120000000E+03  0.17120000000E+03 0.  0.
         13    1    1    2    0    0  0.27815934682E+02 -0.10072098630E+02  0.11585176356E+03  0.11956929237E+03  0.10566000000E+00 0. -1.
        994    1    1    2    0    0 -0.87244395149E+01  0.14839585134E+02  0.48250370679E+01  0.17213090982E+03  0.17120000000E+03 0.  0.
        998    1    1    2    0    0 -0.19091495167E+02 -0.47674865037E+01  0.13793231956E+04  0.13794997978E+04  0.10000000000E+02 0. -1.
</event>
<event>
 5    1  0.1488417E-008  0.4069949E+03  0.7957747E-01  0.3341430E+00
         13   -1    0    0    0    0  0.00000000000E+00  0.00000000000E+00  0.14999999963E+04  0.15000000000E+04  0.10566000000E+00 0. -1.
        994   -1    0    0    0    0 -0.00000000000E+00 -0.00000000000E+00  0.11368683772E-12  0.17120000000E+03  0.17120000000E+03 0.  0.
         13    1    1    2    0    0 -0.56782790882E+02  0.32175872205E+00  0.38795440360E+02  0.68771260173E+02  0.10566000000E+00 0. -1.
        994    1    1    2    0    0  0.46573358406E+02 -0.34453319571E+02  0.45678435044E+02  0.18641906654E+03  0.17120000000E+03 0.  0.
        998    1    1    2    0    0  0.10209432476E+02  0.34131560849E+02  0.14155261209E+04  0.14160096733E+04  0.10000000000E+02 0. -1.
</event>
<event>
 5    1  0.1488417E-008  0.3847768E+03  0.7957747E-01  0.3430619E+00
         13   -1    0    0    0    0  0.00000000000E+00  0.00000000000E+00  0.14999999963E+04  0.15000000000E+04  0.10566000000E+00 0. -1.
        994   -1    0    0    0    0 -0.00000000000E+00 -0.00000000000E+00  0.11368683772E-12  0.17120000000E+03  0.17120000000E+03 0.  0.
         13    1    1    2    0    0 -0.10441642245E+02  0.53609619498E+01  0.39104273980E+02  0.40827970968E+02  0.10566000000E+00 0. -1.
        994    1    1    2    0    0  0.98379923756E+01 -0.86602848858E+00  0.20620370465E+01  0.17149702066E+03  0.17120000000E+03 0.  0.
        998    1    1    2    0    0  0.60364986893E+00 -0.44949334612E+01  0.14588336853E+04  0.14588750084E+04  0.10000000000E+02 0. -1.
</event>
<event>
 5    1  0.1488417E-008  0.3744465E+03  0.7957747E-01  0.3475702E+00
         13   -1    0    0    0    0  0.00000000000E+00  0.00000000000E+00  0.14999999963E+04  0.15000000000E+04  0.10566000000E+00 0.  1.
        994   -1    0    0    0    0 -0.00000000000E+00 -0.00000000000E+00  0.11368683772E-12  0.17120000000E+03  0.17120000000E+03 0.  0.
         13    1    1    2    0    0 -0.37422255665E+02 -0.35288315198E+01  0.96907122727E+02  0.10394171189E+03  0.10566000000E+00 0.  1.
        994    1    1    2    0    0  0.28278503936E+02  0.14915308736E+01  0.96989920624E+01  0.17379703362E+03  0.17120000000E+03 0.  0.
        998    1    1    2    0    0  0.91437517293E+01  0.20373006462E+01  0.13933938815E+04  0.13934612545E+04  0.10000000000E+02 0.  1.
</event>
<event>
 5    1  0.1488417E-008  0.3853900E+03  0.7957747E-01  0.3428020E+00
         13   -1    0    0    0    0  0.00000000000E+00  0.00000000000E+00  0.14999999963E+04  0.15000000000E+04  0.10566000000E+00 0. -1.
        994   -1    0    0    0    0 -0.00000000000E+00 -0.00000000000E+00  0.11368683772E-12  0.17120000000E+03  0.17120000000E+03 0.  0.
         13    1    1    2    0    0  0.18917744041E+01  0.10801251430E+02  0.42833718847E+02  0.44215206402E+02  0.10566000000E+00 0. -1.
        994    1    1    2    0    0 -0.33880713052E+01 -0.29979474325E+01  0.15038825693E+01  0.17126636675E+03  0.17120000000E+03 0.  0.
        998    1    1    2    0    0  0.14962969011E+01 -0.78033039972E+01  0.14556623949E+04  0.14557184269E+04  0.10000000000E+02 0. -1.
</event>
<event>
 5    1  0.1488417E-008  0.2005014E+03  0.7957747E-01  0.5030226E+00
         13   -1    0    0    0    0  0.00000000000E+00  0.00000000000E+00  0.14999999963E+04  0.15000000000E+04  0.10566000000E+00 0.  1.
        994   -1    0    0    0    0 -0.00000000000E+00 -0.00000000000E+00  0.11368683772E-12  0.17120000000E+03  0.17120000000E+03 0.  0.
         13    1    1    2    0    0  0.24833662717E+02 -0.10579873759E+03  0.64340266419E+02  0.12629237794E+03  0.10566000000E+00 0.  1.
        994    1    1    2    0    0 -0.24168060302E+02  0.10844580340E+03  0.13610885078E+03  0.24531540244E+03  0.17120000000E+03 0.  0.
        998    1    1    2    0    0 -0.66560241530E+00 -0.26470658163E+01  0.12995508791E+04  0.12995922196E+04  0.10000000000E+02 0.  0.
</event>
<event>
 5    1  0.1488417E-008  0.3850027E+03  0.7957747E-01  0.3429661E+00
         13   -1    0    0    0    0  0.00000000000E+00  0.00000000000E+00  0.14999999963E+04  0.15000000000E+04  0.10566000000E+00 0. -1.
        994   -1    0    0    0    0 -0.00000000000E+00 -0.00000000000E+00  0.11368683772E-12  0.17120000000E+03  0.17120000000E+03 0.  0.
         13    1    1    2    0    0 -0.11438707319E+02  0.12069122731E+02  0.79112054407E+02  0.80840806930E+02  0.10566000000E+00 0. -1.
        994    1    1    2    0    0  0.13164211601E+02 -0.16584306088E+02  0.31046113820E+01  0.17253235722E+03  0.17120000000E+03 0.  0.
        998    1    1    2    0    0 -0.17255042826E+01  0.45151833568E+01  0.14177833305E+04  0.14178268359E+04  0.10000000000E+02 0. -1.
</event>
<event>
 5    1  0.1488417E-008  0.3845226E+03  0.7957747E-01  0.3431699E+00
         13   -1    0    0    0    0  0.00000000000E+00  0.00000000000E+00  0.14999999963E+04  0.15000000000E+04  0.10566000000E+00 0.  1.
        994   -1    0    0    0    0 -0.00000000000E+00 -0.00000000000E+00  0.11368683772E-12  0.17120000000E+03  0.17120000000E+03 0.  0.
         13    1    1    2    0    0  0.14945208593E+02 -0.69561946807E+01  0.71102415108E+02  0.72988440884E+02  0.10566000000E+00 0.  1.
        994    1    1    2    0    0 -0.12228403132E+02  0.68945758302E+01  0.25166869106E+01  0.17179302294E+03  0.17120000000E+03 0.  0.
        998    1    1    2    0    0 -0.27168054609E+01  0.61618850589E-01  0.14263808943E+04  0.14264185362E+04  0.10000000000E+02 0.  0.
</event>
<event>
 5    1  0.1488417E-008  0.4092319E+03  0.7957747E-01  0.3332983E+00
         13   -1    0    0    0    0  0.00000000000E+00  0.00000000000E+00  0.14999999963E+04  0.15000000000E+04  0.10566000000E+00 0. -1.
        994   -1    0    0    0    0 -0.00000000000E+00 -0.00000000000E+00  0.11368683772E-12  0.17120000000E+03  0.17120000000E+03 0.  0.
         13    1    1    2    0    0 -0.35552939964E+02 -0.72150584490E+02  0.97528986829E+02  0.12641848290E+03  0.10566000000E+00 0. -1.
        994    1    1    2    0    0 -0.10846262601E+02  0.25492412106E+02  0.36545959966E+02  0.17723586453E+03  0.17120000000E+03 0.  0.
        998    1    1    2    0    0  0.46399202564E+02  0.46658172384E+02  0.13659250495E+04  0.13675456526E+04  0.10000000000E+02 0. -1.
</event>
<event>
 5    1  0.1488417E-008  0.3758962E+03  0.7957747E-01  0.3469224E+00
         13   -1    0    0    0    0  0.00000000000E+00  0.00000000000E+00  0.14999999963E+04  0.15000000000E+04  0.10566000000E+00 0. -1.
        994   -1    0    0    0    0 -0.00000000000E+00 -0.00000000000E+00  0.11368683772E-12  0.17120000000E+03  0.17120000000E+03 0.  0.
         13    1    1    2    0    0 -0.18589907573E+02  0.13457560469E+02  0.41823600774E+02  0.47706554508E+02  0.10566000000E+00 0. -1.
        994    1    1    2    0    0  0.60966746051E+01  0.92693267562E+01  0.66364815779E+01  0.17168742746E+03  0.17120000000E+03 0.  0.
        998    1    1    2    0    0  0.12493232967E+02 -0.22726887225E+02  0.14515399139E+04  0.14518060180E+04  0.10000000000E+02 0. -1.
</event>
<event>
 5    1  0.1488417E-008  0.3760944E+03  0.7957747E-01  0.3468343E+00
         13   -1    0    0    0    0  0.00000000000E+00  0.00000000000E+00  0.14999999963E+04  0.15000000000E+04  0.10566000000E+00 0.  1.
        994   -1    0    0    0    0 -0.00000000000E+00 -0.00000000000E+00  0.11368683772E-12  0.17120000000E+03  0.17120000000E+03 0.  0.
         13    1    1    2    0    0 -0.39412853002E+02  0.27843695070E+02  0.19009540580E+03  0.19612475318E+03  0.10566000000E+00 0.  1.
        994    1    1    2    0    0  0.52405386601E+02  0.23878517927E+02  0.17433665476E+02  0.18146592202E+03  0.17120000000E+03 0.  0.
        998    1    1    2    0    0 -0.12992533599E+02 -0.51722212997E+02  0.12924709250E+04  0.12936093248E+04  0.10000000000E+02 0.  1.
</event>
<event>
 5    1  0.1488417E-008  0.3813138E+03  0.7957747E-01  0.3445458E+00
         13   -1    0    0    0    0  0.00000000000E+00  0.00000000000E+00  0.14999999963E+04  0.15000000000E+04  0.10566000000E+00 0.  1.
        994   -1    0    0    0    0 -0.00000000000E+00 -0.00000000000E+00  0.11368683772E-12  0.17120000000E+03  0.17120000000E+03 0.  0.
         13    1    1    2    0    0  0.86060075596E+01 -0.45913273870E+02  0.25204271147E+03  0.25633499888E+03  0.10566000000E+00 0.  1.
        994    1    1    2    0    0 -0.14356749359E+02  0.49633058585E+02  0.12408437082E+02  0.17925670439E+03  0.17120000000E+03 0.  0.
        998    1    1    2    0    0  0.57507417992E+01 -0.37197847153E+01  0.12355488477E+04  0.12356082967E+04  0.10000000000E+02 0.  1.
</event>
<event>
 5    1  0.1488417E-008  0.3852436E+03  0.7957747E-01  0.3428640E+00
         13   -1    0    0    0    0  0.00000000000E+00  0.00000000000E+00  0.14999999963E+04  0.15000000000E+04  0.10566000000E+00 0. -1.
        994   -1    0    0    0    0 -0.00000000000E+00 -0.00000000000E+00  0.11368683772E-12  0.17120000000E+03  0.17120000000E+03 0.  0.
         13    1    1    2    0    0 -0.10327654233E+02  0.37261435973E+01  0.41262267635E+02  0.42698132073E+02  0.10566000000E+00 0. -1.
        994    1    1    2    0    0 -0.10688230130E+01 -0.65682101712E+01  0.16547895610E+01  0.17133727585E+03  0.17120000000E+03 0.  0.
        998    1    1    2    0    0  0.11396477246E+02  0.28420665739E+01  0.14570829391E+04  0.14571645921E+04  0.10000000000E+02 0. -1.
</event>
<event>
 5    1  0.1488417E-008  0.3747290E+03  0.7957747E-01  0.3474436E+00
         13   -1    0    0    0    0  0.00000000000E+00  0.00000000000E+00  0.14999999963E+04  0.15000000000E+04  0.10566000000E+00 0. -1.
        994   -1    0    0    0    0 -0.00000000000E+00 -0.00000000000E+00  0.11368683772E-12  0.17120000000E+03  0.17120000000E+03 0.  0.
         13    1    1    2    0    0  0.24284348441E+02 -0.51164091770E+02  0.10605032611E+03  0.12022552432E+03  0.10566000000E+00 0. -1.
        994    1    1    2    0    0 -0.24220163767E+02  0.53869168369E+02  0.25968854516E+02  0.18295443432E+03  0.17120000000E+03 0.  0.
        998    1    1    2    0    0 -0.64184674139E-01 -0.27050765990E+01  0.13679808157E+04  0.13680200414E+04  0.10000000000E+02 0. -1.
</event>
<event>
 5    1  0.1488417E-008  0.3733995E+03  0.7957747E-01  0.3480412E+00
         13   -1    0    0    0    0  0.00000000000E+00  0.00000000000E+00  0.14999999963E+04  0.15000000000E+04  0.10566000000E+00 0.  1.
        994   -1    0    0    0    0 -0.00000000000E+00 -0.00000000000E+00  0.11368683772E-12  0.17120000000E+03  0.17120000000E+03 0.  0.
         13    1    1    2    0    0 -0.27211642106E+02  0.16193630705E+02  0.25039587929E+02  0.40369533924E+02  0.10566000000E+00 0.  1.
        994    1    1    2    0    0  0.10701694381E+03 -0.82877886266E+02  0.80740128833E+02  0.23270105006E+03  0.17120000000E+03 0.  0.
        998    1    1    2    0    0 -0.79805301704E+02  0.66684255560E+02  0.13942202795E+04  0.13981294160E+04  0.10000000000E+02 0.  1.
</event>
<event>
 5    1  0.1488417E-008  0.3843003E+03  0.7957747E-01  0.3432645E+00
         13   -1    0    0    0    0  0.00000000000E+00  0.00000000000E+00  0.14999999963E+04  0.15000000000E+04  0.10566000000E+00 0. -1.
        994   -1    0    0    0    0 -0.00000000000E+00 -0.00000000000E+00  0.11368683772E-12  0.17120000000E+03  0.17120000000E+03 0.  0.
         13    1    1    2    0    0  0.14915555874E+02  0.46350862823E+01  0.59571882672E+02  0.61585535648E+02  0.10566000000E+00 0. -1.
        994    1    1    2    0    0 -0.13681686735E+02 -0.85074926012E+01  0.28339319893E+01  0.17197975797E+03  0.17120000000E+03 0.  0.
        998    1    1    2    0    0 -0.12338691395E+01  0.38724063189E+01  0.14375941816E+04  0.14376347064E+04  0.10000000000E+02 0. -1.
</event>
<event>
 5    1  0.1488417E-008  0.3817833E+03  0.7957747E-01  0.3443430E+00
         13   -1    0    0    0    0  0.00000000000E+00  0.00000000000E+00  0.14999999963E+04  0.15000000000E+04  0.10566000000E+00 0. -1.
        994   -1    0    0    0    0 -0.00000000000E+00 -0.00000000000E+00  0.11368683772E-12  0.17120000000E+03  0.17120000000E+03 0.  0.
         13    1    1    2    0    0  0.15285732579E+01  0.19971335356E+02  0.58121261860E+02  0.61475873449E+02  0.10566000000E+00 0. -1.
        994    1    1    2    0    0 -0.30659455432E+00 -0.23567362051E+02  0.50839912506E+01  0.17288956452E+03  0.17120000000E+03 0.  0.
        998    1    1    2    0    0 -0.12219787036E+01  0.35960266950E+01  0.14367947432E+04  0.14368345620E+04  0.10000000000E+02 0. -1.
</event>
<event>
 5    1  0.1488417E-008  0.3856985E+03  0.7957747E-01  0.3426715E+00
         13   -1    0    0    0    0  0.00000000000E+00  0.00000000000E+00  0.14999999963E+04  0.15000000000E+04  0.10566000000E+00 0.  1.
        994   -1    0    0    0    0 -0.00000000000E+00 -0.00000000000E+00  0.11368683772E-12  0.17120000000E+03  0.17120000000E+03 0.  0.
         13    1    1    2    0    0 -0.87980345697E+01  0.10975674753E+02  0.73891386487E+02  0.75218475187E+02  0.10566000000E+00 0.  1.
        994    1    1    2    0    0  0.67516541205E+01 -0.14923388669E+02  0.21645407639E+01  0.17199539994E+03  0.17120000000E+03 0.  0.
        998    1    1    2    0    0  0.20463804492E+01  0.39477139157E+01  0.14239440690E+04  0.14239861249E+04  0.10000000000E+02 0.  1.
</event>
<event>
 5    1  0.1488417E-008  0.3790856E+03  0.7957747E-01  0.3455150E+00
         13   -1    0    0    0    0  0.00000000000E+00  0.00000000000E+00  0.14999999963E+04  0.15000000000E+04  0.10566000000E+00 0. -1.
        994   -1    0    0    0    0 -0.00000000000E+00 -0.00000000000E+00  0.11368683772E-12  0.17120000000E+03  0.17120000000E+03 0.  0.
         13    1    1    2    0    0 -0.21931906070E+02  0.18532161473E+01  0.49522889635E+02  0.54193825071E+02  0.10566000000E+00 0. -1.
        994    1    1    2    0    0  0.22145801477E+02 -0.34054567959E+01  0.62805889434E+01  0.17277418631E+03  0.17120000000E+03 0.  0.
        998    1    1    2    0    0 -0.21389540774E+00  0.15522406487E+01  0.14441965177E+04  0.14442319886E+04  0.10000000000E+02 0. -1.
</event>
<event>
 5    1  0.1488417E-008  0.3778225E+03  0.7957747E-01  0.3460695E+00
         13   -1    0    0    0    0  0.00000000000E+00  0.00000000000E+00  0.14999999963E+04  0.15000000000E+04  0.10566000000E+00 0. -1.
        994   -1    0    0    0    0 -0.00000000000E+00 -0.00000000000E+00  0.11368683772E-12  0.17120000000E+03  0.17120000000E+03 0.  0.
         13    1    1    2    0    0 -0.99823407005E+01  0.60086076810E+01  0.10544839746E+02  0.15714811530E+02  0.10566000000E+00 0. -1.
        994    1    1    2    0    0  0.87578484146E+01 -0.81511788063E+01  0.57185107386E+01  0.17171279216E+03  0.17120000000E+03 0.  0.
        998    1    1    2    0    0  0.12244922859E+01  0.21425711252E+01  0.14837366458E+04  0.14837723963E+04  0.10000000000E+02 0. -1.
</event>
<event>
 5    1  0.1488417E-008  0.3826572E+03  0.7957747E-01  0.3439670E+00
         13   -1    0    0    0    0  0.00000000000E+00  0.00000000000E+00  0.14999999963E+04  0.15000000000E+04  0.10566000000E+00 0. -1.
        994   -1    0    0    0    0 -0.00000000000E+00 -0.00000000000E+00  0.11368683772E-12  0.17120000000E+03  0.17120000000E+03 0.  0.
         13    1    1    2    0    0  0.24651230995E+02  0.18940399411E+02  0.15045930432E+03  0.15363735008E+03  0.10566000000E+00 0. -1.
        994    1    1    2    0    0 -0.26994522841E+02 -0.24617390726E+02  0.72334589487E+01  0.17520411844E+03  0.17120000000E+03 0.  0.
        998    1    1    2    0    0  0.23432918453E+01  0.56769913154E+01  0.13423072330E+04  0.13423585315E+04  0.10000000000E+02 0. -1.
</event>
<event>
 5    1  0.1488417E-008  0.3687064E+03  0.7957747E-01  0.3501857E+00
         13   -1    0    0    0    0  0.00000000000E+00  0.00000000000E+00  0.14999999963E+04  0.15000000000E+04  0.10566000000E+00 0. -1.
        994   -1    0    0    0    0 -0.00000000000E+00 -0.00000000000E+00  0.11368683772E-12  0.17120000000E+03  0.17120000000E+03 0.  0.
         13    1    1    2    0    0 -0.11316864520E+02 -0.30412489401E+02  0.46931817686E+02  0.57057844417E+02  0.10566000000E+00 0. -1.
        994    1    1    2    0    0  0.54523778482E+01  0.24982057666E+02  0.12535210877E+02  0.17355230664E+03  0.17120000000E+03 0.  0.
        998    1    1    2    0    0  0.58644866722E+01  0.54304317353E+01  0.14405329677E+04  0.14405898489E+04  0.10000000000E+02 0. -1.
</event>
<event>
 5    1  0.1488417E-008  0.3794379E+03  0.7957747E-01  0.3453609E+00
         13   -1    0    0    0    0  0.00000000000E+00  0.00000000000E+00  0.14999999963E+04  0.15000000000E+04  0.10566000000E+00 0.  1.
        994   -1    0    0    0    0 -0.00000000000E+00 -0.00000000000E+00  0.11368683772E-12  0.17120000000E+03  0.17120000000E+03 0.  0.
         13    1    1    2    0    0  0.31866292861E+02  0.59214141498E+02  0.38583254352E+03  0.39164848777E+03  0.10566000000E+00 0.  1.
        994    1    1    2    0    0 -0.28463845028E+02 -0.59494330979E+02  0.19125570936E+02  0.18445864945E+03  0.17120000000E+03 0.  0.
        998    1    1    2    0    0 -0.34024478330E+01  0.28018948118E+00  0.10950418818E+04  0.10950928628E+04  0.10000000000E+02 0.  0.
</event>
<event>
 5    1  0.1488417E-008  0.3795300E+03  0.7957747E-01  0.3453208E+00
         13   -1    0    0    0    0  0.00000000000E+00  0.00000000000E+00  0.14999999963E+04  0.15000000000E+04  0.10566000000E+00 0.  1.
        994   -1    0    0    0    0 -0.00000000000E+00 -0.00000000000E+00  0.11368683772E-12  0.17120000000E+03  0.17120000000E+03 0.  0.
         13    1    1    2    0    0  0.20847886961E+02 -0.21967994867E+02  0.94985701530E+02  0.99697150653E+02  0.10566000000E+00 0.  1.
        994    1    1    2    0    0 -0.21028427366E+02  0.29589175397E+02  0.87950840173E+01  0.17522701721E+03  0.17120000000E+03 0.  0.
        998    1    1    2    0    0  0.18054040530E+00 -0.76211805298E+01  0.13962192107E+04  0.13962758321E+04  0.10000000000E+02 0.  1.
</event>
<event>
 5    1  0.1488417E-008  0.3815516E+03  0.7957747E-01  0.3444430E+00
         13   -1    0    0    0    0  0.00000000000E+00  0.00000000000E+00  0.14999999963E+04  0.15000000000E+04  0.10566000000E+00 0. -1.
        994   -1    0    0    0    0 -0.00000000000E+00 -0.00000000000E+00  0.11368683772E-12  0.17120000000E+03  0.17120000000E+03 0.  0.
         13    1    1    2    0    0 -0.48328850450E+01 -0.10336535244E+02  0.18198304923E+02  0.21479995457E+02  0.10566000000E+00 0. -1.
        994    1    1    2    0    0  0.11175241622E+02  0.51199164755E+00  0.37682648674E+01  0.17160649166E+03  0.17120000000E+03 0.  0.
        998    1    1    2    0    0 -0.63423565771E+01  0.98245435962E+01  0.14780334265E+04  0.14781135129E+04  0.10000000000E+02 0. -1.
</event>
<event>
 5    1  0.1488417E-008  0.3736174E+03  0.7957747E-01  0.3479429E+00
         13   -1    0    0    0    0  0.00000000000E+00  0.00000000000E+00  0.14999999963E+04  0.15000000000E+04  0.10566000000E+00 0. -1.
        994   -1    0    0    0    0 -0.00000000000E+00 -0.00000000000E+00  0.11368683772E-12  0.17120000000E+03  0.17120000000E+03 0.  0.
         13    1    1    2    0    0  0.20150922654E+02  0.11676423941E+02  0.34595266973E+02  0.41704223057E+02  0.10566000000E+00 0. -1.
        994    1    1    2    0    0 -0.42014614574E+01 -0.49827723138E+01  0.75355171684E+01  0.17148966242E+03  0.17120000000E+03 0.  0.
        998    1    1    2    0    0 -0.15949461197E+02 -0.66936516269E+01  0.14578692121E+04  0.14580061145E+04  0.10000000000E+02 0. -1.
</event>
<event>
 5    1  0.1488417E-008  0.3796515E+03  0.7957747E-01  0.3452677E+00
         13   -1    0    0    0    0  0.00000000000E+00  0.00000000000E+00  0.14999999963E+04  0.15000000000E+04  0.10566000000E+00 0.  1.
        994   -1    0    0    0    0 -0.00000000000E+00 -0.00000000000E+00  0.11368683772E-12  0.17120000000E+03  0.17120000000E+03 0.  0.
         13    1    1    2    0    0 -0.21145393325E+02  0.42886650679E+01  0.52728819946E+02  0.56972448814E+02  0.10566000000E+00 0.  1.
        994    1    1    2    0    0  0.12592612156E+02 -0.23540992398E+00  0.48402243383E+01  0.17173088560E+03  0.17120000000E+03 0.  0.
        998    1    1    2    0    0  0.85527811690E+01 -0.40532551439E+01  0.14424309520E+04  0.14424966656E+04  0.10000000000E+02 0.  1.
</event>
<event>
 5    1  0.1488417E-008  0.3795122E+03  0.7957747E-01  0.3453285E+00
         13   -1    0    0    0    0  0.00000000000E+00  0.00000000000E+00  0.14999999963E+04  0.15000000000E+04  0.10566000000E+00 0. -1.
        994   -1    0    0    0    0 -0.00000000000E+00 -0.00000000000E+00  0.11368683772E-12  0.17120000000E+03  0.17120000000E+03 0.  0.
         13    1    1    2    0    0 -0.32570640851E+02  0.63828729960E+00  0.11355999878E+03  0.11814033411E+03  0.10566000000E+00 0. -1.
        994    1    1    2    0    0  0.29465263619E+02  0.32566077687E+01  0.73276876776E+01  0.17390210540E+03  0.17120000000E+03 0.  0.
        998    1    1    2    0    0  0.31053772328E+01 -0.38948950683E+01  0.13791123098E+04  0.13791575605E+04  0.10000000000E+02 0. -1.
</event>
<event>
 5    1  0.1488417E-008  0.3856309E+03  0.7957747E-01  0.3427001E+00
         13   -1    0    0    0    0  0.00000000000E+00  0.00000000000E+00  0.14999999963E+04  0.15000000000E+04  0.10566000000E+00 0. -1.
        994   -1    0    0    0    0 -0.00000000000E+00 -0.00000000000E+00  0.11368683772E-12  0.17120000000E+03  0.17120000000E+03 0.  0.
         13    1    1    2    0    0 -0.53837923707E+01 -0.10861374248E+02  0.56330921242E+02  0.57620643201E+02  0.10566000000E+00 0. -1.
        994    1    1    2    0    0  0.17829576581E+01  0.75859510862E+01  0.15165741560E+01  0.17138397121E+03  0.17120000000E+03 0.  0.
        998    1    1    2    0    0  0.36008347126E+01  0.32754231619E+01  0.14421525009E+04  0.14421953856E+04  0.10000000000E+02 0. -1.
</event>
<event>
 5    1  0.1488417E-008  0.4044156E+03  0.7957747E-01  0.3351283E+00
         13   -1    0    0    0    0  0.00000000000E+00  0.00000000000E+00  0.14999999963E+04  0.15000000000E+04  0.10566000000E+00 0. -1.
        994   -1    0    0    0    0 -0.00000000000E+00 -0.00000000000E+00  0.11368683772E-12  0.17120000000E+03  0.17120000000E+03 0.  0.
         13    1    1    2    0    0  0.64965933562E+01  0.60285297236E+02  0.51545248541E+02  0.79582954200E+02  0.10566000000E+00 0. -1.
        994    1    1    2    0    0 -0.29802740890E+02 -0.32063265116E+02  0.38121111368E+02  0.18077310493E+03  0.17120000000E+03 0.  0.
        998    1    1    2    0    0  0.23306147534E+02 -0.28222032120E+02  0.14103336364E+04  0.14108439409E+04  0.10000000000E+02 0. -1.
</event>
<event>
 5    1  0.1625860E-008  0.3864120E+03  0.7957747E-01  0.3423706E+00
         13   -1    0    0    0    0  0.00000000000E+00  0.00000000000E+00  0.14999999963E+04  0.15000000000E+04  0.10566000000E+00 0.  1.
        994   -1    0    0    0    0 -0.00000000000E+00 -0.00000000000E+00  0.11368683772E-12  0.17120000000E+03  0.17120000000E+03 0.  0.
         13    1    1    2    0    0 -0.18661975966E+01 -0.10002178165E+02  0.58202172396E+02  0.59084941374E+02  0.10566000000E+00 0.  1.
        994    1    1    2    0    0 -0.28713170588E+01  0.42093454012E+01  0.10157234812E+01  0.17127882165E+03  0.17120000000E+03 0.  0.
        998    1    1    2    0    0  0.47375146555E+01  0.57928327640E+01  0.14407821004E+04  0.14408362370E+04  0.10000000000E+02 0.  1.
</event>
<event>
 5    1  0.1488417E-008  0.3849582E+03  0.7957747E-01  0.3429849E+00
         13   -1    0    0    0    0  0.00000000000E+00  0.00000000000E+00  0.14999999963E+04  0.15000000000E+04  0.10566000000E+00 0. -1.
        994   -1    0    0    0    0 -0.00000000000E+00 -0.00000000000E+00  0.11368683772E-12  0.17120000000E+03  0.17120000000E+03 0.  0.
         13    1    1    2    0    0  0.13828000741E+01 -0.10535385652E+02  0.34072723982E+02  0.35691289841E+02  0.10566000000E+00 0. -1.
        994    1    1    2    0    0 -0.90084578611E+01  0.56073711478E+01  0.20213064974E+01  0.17154043431E+03  0.17120000000E+03 0.  0.
        998    1    1    2    0    0  0.76256577870E+01  0.49280145040E+01  0.14639059658E+04  0.14639682758E+04  0.10000000000E+02 0. -1.
</event>
<event>
 5    1  0.1488417E-008  0.3733811E+03  0.7957747E-01  0.3480495E+00
         13   -1    0    0    0    0  0.00000000000E+00  0.00000000000E+00  0.14999999963E+04  0.15000000000E+04  0.10566000000E+00 0. -1.
        994   -1    0    0    0    0 -0.00000000000E+00 -0.00000000000E+00  0.11368683772E-12  0.17120000000E+03  0.17120000000E+03 0.  0.
         13    1    1    2    0    0 -0.40025418701E+02  0.11257483926E+03  0.55841355984E+03  0.57105240001E+03  0.10566000000E+00 0. -1.
        994    1    1    2    0    0  0.36440482213E+02 -0.11599089707E+03  0.59852087043E+02  0.21834264190E+03  0.17120000000E+03 0.  0.
        998    1    1    2    0    0  0.35849364878E+01  0.34160578068E+01  0.88173434939E+03  0.88180495810E+03  0.10000000000E+02 0.  1.
</event>
<event>
 5    1  0.1488417E-008  0.3838377E+03  0.7957747E-01  0.3434617E+00
         13   -1    0    0    0    0  0.00000000000E+00  0.00000000000E+00  0.14999999963E+04  0.15000000000E+04  0.10566000000E+00 0. -1.
        994   -1    0    0    0    0 -0.00000000000E+00 -0.00000000000E+00  0.11368683772E-12  0.17120000000E+03  0.17120000000E+03 0.  0.
         13    1    1    2    0    0 -0.12007177307E+02 -0.30486637307E+01  0.34132220700E+02  0.36310966820E+02  0.10566000000E+00 0. -1.
        994    1    1    2    0    0  0.86356763131E+01  0.33534204722E+00  0.24548750758E+01  0.17143556740E+03  0.17120000000E+03 0.  0.
        998    1    1    2    0    0  0.33715009937E+01  0.27133216835E+01  0.14634129005E+04  0.14634534658E+04  0.10000000000E+02 0. -1.
</event>
<event>
 5    1  0.1488417E-008  0.3842528E+03  0.7957747E-01  0.3432847E+00
         13   -1    0    0    0    0  0.00000000000E+00  0.00000000000E+00  0.14999999963E+04  0.15000000000E+04  0.10566000000E+00 0. -1.
        994   -1    0    0    0    0 -0.00000000000E+00 -0.00000000000E+00  0.11368683772E-12  0.17120000000E+03  0.17120000000E+03 0.  0.
         13    1    1    2    0    0  0.70600818603E+01 -0.10089371531E+02  0.37545244789E+02  0.39513247704E+02  0.10566000000E+00 0. -1.
        994    1    1    2    0    0 -0.59333026925E+01  0.51958338007E+01  0.22066437987E+01  0.17139577021E+03  0.17120000000E+03 0.  0.
        998    1    1    2    0    0 -0.11267791678E+01  0.48935377302E+01  0.14602481077E+04  0.14602909821E+04  0.10000000000E+02 0. -1.
</event>
<event>
 5    1  0.1488417E-008  0.3802244E+03  0.7957747E-01  0.3450182E+00
         13   -1    0    0    0    0  0.00000000000E+00  0.00000000000E+00  0.14999999963E+04  0.15000000000E+04  0.10566000000E+00 0. -1.
        994   -1    0    0    0    0 -0.00000000000E+00 -0.00000000000E+00  0.11368683772E-12  0.17120000000E+03  0.17120000000E+03 0.  0.
         13    1    1    2    0    0 -0.34299401134E+02  0.21979102354E+01  0.13942903630E+03  0.14360274042E+03  0.10566000000E+00 0. -1.
        994    1    1    2    0    0  0.27715581925E+02  0.43814077418E+01  0.66544657123E+01  0.17361184329E+03  0.17120000000E+03 0.  0.
        998    1    1    2    0    0  0.65838192090E+01 -0.65793179772E+01  0.13539164943E+04  0.13539854163E+04  0.10000000000E+02 0. -1.
</event>
<event>
 5    1  0.1488417E-008  0.3806085E+03  0.7957747E-01  0.3448513E+00
         13   -1    0    0    0    0  0.00000000000E+00  0.00000000000E+00  0.14999999963E+04  0.15000000000E+04  0.10566000000E+00 0. -1.
        994   -1    0    0    0    0 -0.00000000000E+00 -0.00000000000E+00  0.11368683772E-12  0.17120000000E+03  0.17120000000E+03 0.  0.
         13    1    1    2    0    0 -0.19354470076E+02 -0.56840725676E+00  0.45791988321E+02  0.49717561858E+02  0.10566000000E+00 0. -1.
        994    1    1    2    0    0  0.23026521659E+02 -0.30554816408E+00  0.55975418389E+01  0.17283253899E+03  0.17120000000E+03 0.  0.
        998    1    1    2    0    0 -0.36720515832E+01  0.87395542085E+00  0.14486104661E+04  0.14486498992E+04  0.10000000000E+02 0. -1.
</event>
<event>
 5    1  0.1488417E-008  0.3827961E+03  0.7957747E-01  0.3439073E+00
         13   -1    0    0    0    0  0.00000000000E+00  0.00000000000E+00  0.14999999963E+04  0.15000000000E+04  0.10566000000E+00 0.  1.
        994   -1    0    0    0    0 -0.00000000000E+00 -0.00000000000E+00  0.11368683772E-12  0.17120000000E+03  0.17120000000E+03 0.  0.
         13    1    1    2    0    0 -0.11330347088E+02 -0.58456482660E+01  0.28564077309E+02  0.31280441899E+02  0.10566000000E+00 0.  1.
        994    1    1    2    0    0  0.11979323933E+02  0.17352202712E+01  0.32137721647E+01  0.17165745985E+03  0.17120000000E+03 0.  0.
        998    1    1    2    0    0 -0.64897684430E+00  0.41104279948E+01  0.14682221468E+04  0.14682620982E+04  0.10000000000E+02 0.  1.
</event>
<event>
 5    1  0.1488417E-008  0.3830449E+03  0.7957747E-01  0.3438006E+00
         13   -1    0    0    0    0  0.00000000000E+00  0.00000000000E+00  0.14999999963E+04  0.15000000000E+04  0.10566000000E+00 0. -1.
        994   -1    0    0    0    0 -0.00000000000E+00 -0.00000000000E+00  0.11368683772E-12  0.17120000000E+03  0.17120000000E+03 0.  0.
         13    1    1    2    0    0  0.13693433592E+02  0.13661884444E+02  0.67975260501E+02  0.70673930231E+02  0.10566000000E+00 0. -1.
        994    1    1    2    0    0 -0.11427370958E+02 -0.18400278203E+02  0.41581904956E+01  0.17261484755E+03  0.17120000000E+03 0.  0.
        998    1    1    2    0    0 -0.22660626349E+01  0.47383937587E+01  0.14278665453E+04  0.14279112222E+04  0.10000000000E+02 0. -1.
</event>
<event>
 5    1  0.1488417E-008  0.3792126E+03  0.7957747E-01  0.3454594E+00
         13   -1    0    0    0    0  0.00000000000E+00  0.00000000000E+00  0.14999999963E+04  0.15000000000E+04  0.10566000000E+00 0.  1.
        994   -1    0    0    0    0 -0.00000000000E+00 -0.00000000000E+00  0.11368683772E-12  0.17120000000E+03  0.17120000000E+03 0.  0.
         13    1    1    2    0    0  0.11890250078E+02 -0.60435133430E+01  0.18095613867E+02  0.22480313737E+02  0.10566000000E+00 0.  1.
        994    1    1    2    0    0  0.80188597039E-01  0.20019714866E+01  0.45445897083E+01  0.17127202812E+03  0.17120000000E+03 0.  0.
        998    1    1    2    0    0 -0.11970438675E+02  0.40415418563E+01  0.14773597927E+04  0.14774476581E+04  0.10000000000E+02 0.  1.
</event>
<event>
 5    1  0.1488417E-008  0.3712783E+03  0.7957747E-01  0.3490036E+00
         13   -1    0    0    0    0  0.00000000000E+00  0.00000000000E+00  0.14999999963E+04  0.15000000000E+04  0.10566000000E+00 0.  1.
        994   -1    0    0    0    0 -0.00000000000E+00 -0.00000000000E+00  0.11368683772E-12  0.17120000000E+03  0.17120000000E+03 0.  0.
         13    1    1    2    0    0  0.89858409765E+02  0.47208364072E+02  0.33711946671E+03  0.35206918275E+03  0.10566000000E+00 0.  1.
        994    1    1    2    0    0 -0.87569380214E+02 -0.50746409381E+02  0.48513563554E+02  0.20471101647E+03  0.17120000000E+03 0.  0.
        998    1    1    2    0    0 -0.22890295513E+01  0.35380453090E+01  0.11143669660E+04  0.11144198008E+04  0.10000000000E+02 0.  0.
</event>
<event>
 5    1  0.1488417E-008  0.3791539E+03  0.7957747E-01  0.3454851E+00
         13   -1    0    0    0    0  0.00000000000E+00  0.00000000000E+00  0.14999999963E+04  0.15000000000E+04  0.10566000000E+00 0. -1.
        994   -1    0    0    0    0 -0.00000000000E+00 -0.00000000000E+00  0.11368683772E-12  0.17120000000E+03  0.17120000000E+03 0.  0.
         13    1    1    2    0    0  0.13285348826E+01 -0.32042372714E+02  0.11033282045E+03  0.11489917792E+03  0.10566000000E+00 0. -1.
        994    1    1    2    0    0 -0.17964122002E+02  0.20280533582E+02  0.70253903638E+01  0.17347278124E+03  0.17120000000E+03 0.  0.
        998    1    1    2    0    0  0.16635587120E+02  0.11761839132E+02  0.13826417855E+04  0.13828280408E+04  0.10000000000E+02 0. -1.
</event>
<event>
 5    1  0.1488417E-008  0.3825236E+03  0.7957747E-01  0.3440243E+00
         13   -1    0    0    0    0  0.00000000000E+00  0.00000000000E+00  0.14999999963E+04  0.15000000000E+04  0.10566000000E+00 0. -1.
        994   -1    0    0    0    0 -0.00000000000E+00 -0.00000000000E+00  0.11368683772E-12  0.17120000000E+03  0.17120000000E+03 0.  0.
         13    1    1    2    0    0  0.16747551691E+02  0.25728833049E+02  0.16357071460E+03  0.16642669009E+03  0.10566000000E+00 0. -1.
        994    1    1    2    0    0 -0.10524698301E+02 -0.14804901145E+02  0.39592776675E+01  0.17220647564E+03  0.17120000000E+03 0.  0.
        998    1    1    2    0    0 -0.62228533896E+01 -0.10923931904E+02  0.13324700040E+04  0.13325668343E+04  0.10000000000E+02 0. -1.
</event>
<event>
 5    1  0.1488417E-008  0.3844872E+03  0.7957747E-01  0.3431850E+00
         13   -1    0    0    0    0  0.00000000000E+00  0.00000000000E+00  0.14999999963E+04  0.15000000000E+04  0.10566000000E+00 0. -1.
        994   -1    0    0    0    0 -0.00000000000E+00 -0.00000000000E+00  0.11368683772E-12  0.17120000000E+03  0.17120000000E+03 0.  0.
         13    1    1    2    0    0  0.16477528093E+02  0.14886018777E+02  0.12518502879E+03  0.12713931369E+03  0.10566000000E+00 0. -1.
        994    1    1    2    0    0 -0.13566387886E+02 -0.13127929851E+02  0.30598349386E+01  0.17226488909E+03  0.17120000000E+03 0.  0.
        998    1    1    2    0    0 -0.29111402079E+01 -0.17580889257E+01  0.13717551325E+04  0.13717957972E+04  0.10000000000E+02 0. -1.
</event>
<event>
 5    1  0.1488417E-008  0.3776500E+03  0.7957747E-01  0.3461455E+00
         13   -1    0    0    0    0  0.00000000000E+00  0.00000000000E+00  0.14999999963E+04  0.15000000000E+04  0.10566000000E+00 0. -1.
        994   -1    0    0    0    0 -0.00000000000E+00 -0.00000000000E+00  0.11368683772E-12  0.17120000000E+03  0.17120000000E+03 0.  0.
         13    1    1    2    0    0  0.20392722136E+02  0.42474587641E+02  0.21358697120E+03  0.21872210483E+03  0.10566000000E+00 0. -1.
        994    1    1    2    0    0 -0.10048933256E+02 -0.19965814685E+02  0.70092020685E+01  0.17279520748E+03  0.17120000000E+03 0.  0.
        998    1    1    2    0    0 -0.10343788881E+02 -0.22508772956E+02  0.12794038230E+04  0.12796826877E+04  0.10000000000E+02 0. -1.
</event>
<event>
 5    1  0.1488417E-008  0.3838005E+03  0.7957747E-01  0.3434775E+00
         13   -1    0    0    0    0  0.00000000000E+00  0.00000000000E+00  0.14999999963E+04  0.15000000000E+04  0.10566000000E+00 0.  1.
        994   -1    0    0    0    0 -0.00000000000E+00 -0.00000000000E+00  0.11368683772E-12  0.17120000000E+03  0.17120000000E+03 0.  0.
         13    1    1    2    0    0  0.16914195428E+02  0.16641471017E+01  0.63994297941E+02  0.66212844114E+02  0.10566000000E+00 0.  1.
        994    1    1    2    0    0 -0.11339939632E+02 -0.87548946459E+01  0.29047452849E+01  0.17182293199E+03  0.17120000000E+03 0.  0.
        998    1    1    2    0    0 -0.55742557964E+01  0.70907475442E+01  0.14331009531E+04  0.14331642239E+04  0.10000000000E+02 0.  1.
</event>
<event>
 5    1  0.1488417E-008  0.3863148E+03  0.7957747E-01  0.3424115E+00
         13   -1    0    0    0    0  0.00000000000E+00  0.00000000000E+00  0.14999999963E+04  0.15000000000E+04  0.10566000000E+00 0.  1.
        994   -1    0    0    0    0 -0.00000000000E+00 -0.00000000000E+00  0.11368683772E-12  0.17120000000E+03  0.17120000000E+03 0.  0.
         13    1    1    2    0    0  0.11345991244E+02  0.19189492450E+01  0.68641395806E+02  0.69599326618E+02  0.10566000000E+00 0.  1.
        994    1    1    2    0    0 -0.64201450381E+01 -0.10806573652E+02  0.14963508353E+01  0.17166735089E+03  0.17120000000E+03 0.  0.
        998    1    1    2    0    0 -0.49258462054E+01  0.88876244069E+01  0.14298622496E+04  0.14299333225E+04  0.10000000000E+02 0.  1.
</event>
<event>
 5    1  0.1488417E-008  0.3858943E+03  0.7957747E-01  0.3425888E+00
         13   -1    0    0    0    0  0.00000000000E+00  0.00000000000E+00  0.14999999963E+04  0.15000000000E+04  0.10566000000E+00 0. -1.
        994   -1    0    0    0    0 -0.00000000000E+00 -0.00000000000E+00  0.11368683772E-12  0.17120000000E+03  0.17120000000E+03 0.  0.
         13    1    1    2    0    0  0.64605330486E+01  0.82604591154E+01  0.45631269789E+02  0.46820910058E+02  0.10566000000E+00 0. -1.
        994    1    1    2    0    0 -0.50933631822E+01 -0.10134704877E+02  0.16087799961E+01  0.17158287433E+03  0.17120000000E+03 0.  0.
        998    1    1    2    0    0 -0.13671698665E+01  0.18742457616E+01  0.14527599465E+04  0.14527962156E+04  0.10000000000E+02 0. -1.
</event>
<event>
 5    1  0.1488417E-008  0.3831561E+03  0.7957747E-01  0.3437530E+00
         13   -1    0    0    0    0  0.00000000000E+00  0.00000000000E+00  0.14999999963E+04  0.15000000000E+04  0.10566000000E+00 0. -1.
        994   -1    0    0    0    0 -0.00000000000E+00 -0.00000000000E+00  0.11368683772E-12  0.17120000000E+03  0.17120000000E+03 0.  0.
         13    1    1    2    0    0  0.23955522122E+01  0.97682336780E+01  0.18615570030E+02  0.21159103742E+02  0.10566000000E+00 0. -1.
        994    1    1    2    0    0 -0.43163787818E+01 -0.11360134491E+02  0.30371030739E+01  0.17165764701E+03  0.17120000000E+03 0.  0.
        998    1    1    2    0    0  0.19208265696E+01  0.15919008133E+01  0.14783473232E+04  0.14783832492E+04  0.10000000000E+02 0. -1.
</event>
<event>
 5    1  0.1488417E-008  0.3809264E+03  0.7957747E-01  0.3447134E+00
         13   -1    0    0    0    0  0.00000000000E+00  0.00000000000E+00  0.14999999963E+04  0.15000000000E+04  0.10566000000E+00 0.  1.
        994   -1    0    0    0    0 -0.00000000000E+00 -0.00000000000E+00  0.11368683772E-12  0.17120000000E+03  0.17120000000E+03 0.  0.
         13    1    1    2    0    0  0.32466555853E+02  0.66555234124E+02  0.14041980948E+03  0.15874952125E+03  0.10566000000E+00 0.  1.
        994    1    1    2    0    0 -0.33616525120E+02 -0.71562785470E+02  0.39935429459E+02  0.19275783136E+03  0.17120000000E+03 0.  0.
        998    1    1    2    0    0  0.11499692671E+01  0.50075513459E+01  0.13196447573E+04  0.13196926474E+04  0.10000000000E+02 0.  1.
</event>
<event>
 5    1  0.1488417E-008  0.3834547E+03  0.7957747E-01  0.3436253E+00
         13   -1    0    0    0    0  0.00000000000E+00  0.00000000000E+00  0.14999999963E+04  0.15000000000E+04  0.10566000000E+00 0.  1.
        994   -1    0    0    0    0 -0.00000000000E+00 -0.00000000000E+00  0.11368683772E-12  0.17120000000E+03  0.17120000000E+03 0.  0.
         13    1    1    2    0    0 -0.96517000869E+01  0.14888471339E+02  0.64427705701E+02  0.66826359465E+02  0.10566000000E+00 0.  1.
        994    1    1    2    0    0  0.72120794131E+01 -0.10980793969E+02  0.29699669142E+01  0.17172900928E+03  0.17120000000E+03 0.  0.
        998    1    1    2    0    0  0.24396206738E+01 -0.39076773706E+01  0.14326023237E+04  0.14326446313E+04  0.10000000000E+02 0.  1.
</event>
<event>
 5    1  0.1488417E-008  0.3834296E+03  0.7957747E-01  0.3436360E+00
         13   -1    0    0    0    0  0.00000000000E+00  0.00000000000E+00  0.14999999963E+04  0.15000000000E+04  0.10566000000E+00 0.  1.
        994   -1    0    0    0    0 -0.00000000000E+00 -0.00000000000E+00  0.11368683772E-12  0.17120000000E+03  0.17120000000E+03 0.  0.
         13    1    1    2    0    0 -0.12801248767E+02  0.10466887097E+02  0.54011132395E+02  0.56485761764E+02  0.10566000000E+00 0.  1.
        994    1    1    2    0    0  0.22846772548E+02 -0.14498360441E+01  0.41460611337E+01  0.17277357108E+03  0.17120000000E+03 0.  0.
        998    1    1    2    0    0 -0.10045523781E+02 -0.90170510529E+01  0.14418428028E+04  0.14419406672E+04  0.10000000000E+02 0.  1.
</event>
<event>
 5    1  0.1488417E-008  0.3719304E+03  0.7957747E-01  0.3487066E+00
         13   -1    0    0    0    0  0.00000000000E+00  0.00000000000E+00  0.14999999963E+04  0.15000000000E+04  0.10566000000E+00 0.  1.
        994   -1    0    0    0    0 -0.00000000000E+00 -0.00000000000E+00  0.11368683772E-12  0.17120000000E+03  0.17120000000E+03 0.  0.
         13    1    1    2    0    0 -0.13442580434E+02 -0.23504266638E+02  0.25746543097E+02  0.37363741306E+02  0.10566000000E+00 0.  1.
        994    1    1    2    0    0 -0.23516816797E+01  0.22891947081E+02  0.13829382691E+02  0.17329242186E+03  0.17120000000E+03 0.  0.
        998    1    1    2    0    0  0.15794262114E+02  0.61231955700E+00  0.14604240705E+04  0.14605438368E+04  0.10000000000E+02 0.  1.
</event>
<event>
 5    1  0.1488417E-008  0.3799691E+03  0.7957747E-01  0.3451293E+00
         13   -1    0    0    0    0  0.00000000000E+00  0.00000000000E+00  0.14999999963E+04  0.15000000000E+04  0.10566000000E+00 0.  1.
        994   -1    0    0    0    0 -0.00000000000E+00 -0.00000000000E+00  0.11368683772E-12  0.17120000000E+03  0.17120000000E+03 0.  0.
         13    1    1    2    0    0  0.11063695049E+02 -0.16216936254E+02  0.46575585152E+02  0.50543947866E+02  0.10566000000E+00 0.  1.
        994    1    1    2    0    0  0.12297792252E+02  0.11799134877E+02  0.51203950359E+01  0.17212238008E+03  0.17120000000E+03 0.  0.
        998    1    1    2    0    0 -0.23361487300E+02  0.44178013773E+01  0.14483040161E+04  0.14485336721E+04  0.10000000000E+02 0.  1.
</event>
<event>
 5    1  0.1488417E-008  0.3859629E+03  0.7957747E-01  0.3425599E+00
         13   -1    0    0    0    0  0.00000000000E+00  0.00000000000E+00  0.14999999963E+04  0.15000000000E+04  0.10566000000E+00 0.  1.
        994   -1    0    0    0    0 -0.00000000000E+00 -0.00000000000E+00  0.11368683772E-12  0.17120000000E+03  0.17120000000E+03 0.  0.
         13    1    1    2    0    0 -0.16863557472E+01  0.11559186788E+02  0.68479354341E+02  0.69468638463E+02  0.10566000000E+00 0.  1.
        994    1    1    2    0    0  0.37895448134E+01  0.98872749419E+01  0.15204766344E+01  0.17153387626E+03  0.17120000000E+03 0.  0.
        998    1    1    2    0    0 -0.21031890662E+01 -0.21446461729E+02  0.14300001653E+04  0.14301974853E+04  0.10000000000E+02 0.  1.
</event>
<event>
 5    1  0.1488417E-008  0.3812011E+03  0.7957747E-01  0.3445945E+00
         13   -1    0    0    0    0  0.00000000000E+00  0.00000000000E+00  0.14999999963E+04  0.15000000000E+04  0.10566000000E+00 0.  1.
        994   -1    0    0    0    0 -0.00000000000E+00 -0.00000000000E+00  0.11368683772E-12  0.17120000000E+03  0.17120000000E+03 0.  0.
         13    1    1    2    0    0 -0.23880805969E+01 -0.21414371330E+02  0.69609829747E+02  0.72868496553E+02  0.10566000000E+00 0.  1.
        994    1    1    2    0    0  0.80704298015E+00 -0.24404314958E+01  0.35500666104E+01  0.17125609477E+03  0.17120000000E+03 0.  0.
        998    1    1    2    0    0  0.15810376167E+01  0.23854802826E+02  0.14268400999E+04  0.14270754087E+04  0.10000000000E+02 0.  1.
</event>
<event>
 5    1  0.1488417E-008  0.4062356E+03  0.7957747E-01  0.3344317E+00
         13   -1    0    0    0    0  0.00000000000E+00  0.00000000000E+00  0.14999999963E+04  0.15000000000E+04  0.10566000000E+00 0.  1.
        994   -1    0    0    0    0 -0.00000000000E+00 -0.00000000000E+00  0.11368683772E-12  0.17120000000E+03  0.17120000000E+03 0.  0.
         13    1    1    2    0    0  0.95145379083E+02  0.99213838093E+02  0.22831928894E+03  0.26650654344E+03  0.10566000000E+00 0.  1.
        994    1    1    2    0    0 -0.23127480715E+02 -0.17629846529E+03  0.17420502474E+03  0.30211398490E+03  0.17120000000E+03 0.  0.
        998    1    1    2    0    0 -0.72017898369E+02  0.77084627194E+02  0.10974756826E+04  0.11025794717E+04  0.10000000000E+02 0.  1.
</event>
<event>
 5    1  0.1488417E-008  0.3843502E+03  0.7957747E-01  0.3432433E+00
         13   -1    0    0    0    0  0.00000000000E+00  0.00000000000E+00  0.14999999963E+04  0.15000000000E+04  0.10566000000E+00 0. -1.
        994   -1    0    0    0    0 -0.00000000000E+00 -0.00000000000E+00  0.11368683772E-12  0.17120000000E+03  0.17120000000E+03 0.  0.
         13    1    1    2    0    0  0.69081126089E+00  0.13533673977E+02  0.48141893383E+02  0.50012904475E+02  0.10566000000E+00 0. -1.
        994    1    1    2    0    0 -0.51308762690E+01 -0.26421390011E+01  0.20628703877E+01  0.17130966763E+03  0.17120000000E+03 0.  0.
        998    1    1    2    0    0  0.44400650081E+01 -0.10891534976E+02  0.14497952325E+04  0.14498774279E+04  0.10000000000E+02 0. -1.
</event>
<event>
 5    1  0.1488417E-008  0.3846302E+03  0.7957747E-01  0.3431242E+00
         13   -1    0    0    0    0  0.00000000000E+00  0.00000000000E+00  0.14999999963E+04  0.15000000000E+04  0.10566000000E+00 0. -1.
        994   -1    0    0    0    0 -0.00000000000E+00 -0.00000000000E+00  0.11368683772E-12  0.17120000000E+03  0.17120000000E+03 0.  0.
         13    1    1    2    0    0 -0.11869642657E+02 -0.11935887721E+01  0.38908969404E+02  0.40696832003E+02  0.10566000000E+00 0. -1.
        994    1    1    2    0    0  0.84389196104E+01 -0.19665594486E+01  0.20611176248E+01  0.17143153422E+03  0.17120000000E+03 0.  0.
        998    1    1    2    0    0  0.34307230470E+01  0.31601482207E+01  0.14590299092E+04  0.14590716338E+04  0.10000000000E+02 0. -1.
</event>
<event>
 5    1  0.1488417E-008  0.3853383E+03  0.7957747E-01  0.3428239E+00
         13   -1    0    0    0    0  0.00000000000E+00  0.00000000000E+00  0.14999999963E+04  0.15000000000E+04  0.10566000000E+00 0.  1.
        994   -1    0    0    0    0 -0.00000000000E+00 -0.00000000000E+00  0.11368683772E-12  0.17120000000E+03  0.17120000000E+03 0.  0.
         13    1    1    2    0    0 -0.12983133181E+02 -0.32444274662E+01  0.66138324667E+02  0.67478716723E+02  0.10566000000E+00 0.  1.
        994    1    1    2    0    0 -0.35230630643E+01  0.63503536145E+01  0.16355397110E+01  0.17136176340E+03  0.17120000000E+03 0.  0.
        998    1    1    2    0    0  0.16506196246E+02 -0.31059261484E+01  0.14322261319E+04  0.14323595199E+04  0.10000000000E+02 0.  1.
</event>
<event>
 5    1  0.1488417E-008  0.3834421E+03  0.7957747E-01  0.3436306E+00
         13   -1    0    0    0    0  0.00000000000E+00  0.00000000000E+00  0.14999999963E+04  0.15000000000E+04  0.10566000000E+00 0.  1.
        994   -1    0    0    0    0 -0.00000000000E+00 -0.00000000000E+00  0.11368683772E-12  0.17120000000E+03  0.17120000000E+03 0.  0.
         13    1    1    2    0    0 -0.13750839789E+02 -0.98385179488E+01  0.59653395254E+02  0.62003393130E+02  0.10566000000E+00 0.  1.
        994    1    1    2    0    0  0.66793084340E+01  0.47103735576E+01  0.26264135002E+01  0.17141510677E+03  0.17120000000E+03 0.  0.
        998    1    1    2    0    0  0.70715313548E+01  0.51281443912E+01  0.14377201875E+04  0.14377815001E+04  0.10000000000E+02 0.  1.
</event>
<event>
 5    1  0.1488417E-008  0.3804446E+03  0.7957747E-01  0.3449225E+00
         13   -1    0    0    0    0  0.00000000000E+00  0.00000000000E+00  0.14999999963E+04  0.15000000000E+04  0.10566000000E+00 0.  1.
        994   -1    0    0    0    0 -0.00000000000E+00 -0.00000000000E+00  0.11368683772E-12  0.17120000000E+03  0.17120000000E+03 0.  0.
         13    1    1    2    0    0 -0.61579142594E+02  0.56546137852E+02  0.23102294254E+03  0.24568489504E+03  0.10566000000E+00 0.  1.
        994    1    1    2    0    0  0.16218856612E+02 -0.20905654760E+02  0.19116678190E+02  0.17428420782E+03  0.17120000000E+03 0.  0.
        998    1    1    2    0    0  0.45360285982E+02 -0.35640483093E+02  0.12498603755E+04  0.12512308971E+04  0.10000000000E+02 0.  1.
</event>
<event>
 5    1  0.1488417E-008  0.3829246E+03  0.7957747E-01  0.3438522E+00
         13   -1    0    0    0    0  0.00000000000E+00  0.00000000000E+00  0.14999999963E+04  0.15000000000E+04  0.10566000000E+00 0. -1.
        994   -1    0    0    0    0 -0.00000000000E+00 -0.00000000000E+00  0.11368683772E-12  0.17120000000E+03  0.17120000000E+03 0.  0.
         13    1    1    2    0    0  0.23205361292E+01 -0.11491172634E+02  0.24419009429E+02  0.27087471679E+02  0.10566000000E+00 0. -1.
        994    1    1    2    0    0 -0.10280809167E+02  0.11483259627E+02  0.34509911576E+01  0.17192704740E+03  0.17120000000E+03 0.  0.
        998    1    1    2    0    0  0.79602730382E+01  0.79130067473E-02  0.14721299957E+04  0.14721854809E+04  0.10000000000E+02 0. -1.
</event>
<event>
 5    1  0.1488417E-008  0.4033028E+03  0.7957747E-01  0.3355573E+00
         13   -1    0    0    0    0  0.00000000000E+00  0.00000000000E+00  0.14999999963E+04  0.15000000000E+04  0.10566000000E+00 0.  1.
        994   -1    0    0    0    0 -0.00000000000E+00 -0.00000000000E+00  0.11368683772E-12  0.17120000000E+03  0.17120000000E+03 0.  0.
         13    1    1    2    0    0 -0.65491787664E+02 -0.79398553722E+01  0.65988423495E+02  0.93309692712E+02  0.10566000000E+00 0.  1.
        994    1    1    2    0    0  0.35439181698E+02 -0.20707402315E+01  0.34783749265E+02  0.17826826071E+03  0.17120000000E+03 0.  0.
        998    1    1    2    0    0  0.30052605966E+02  0.10010595604E+02  0.13992278235E+04  0.13996220466E+04  0.10000000000E+02 0.  1.
</event>
<event>
 5    1  0.1488417E-008  0.3790460E+03  0.7957747E-01  0.3455323E+00
         13   -1    0    0    0    0  0.00000000000E+00  0.00000000000E+00  0.14999999963E+04  0.15000000000E+04  0.10566000000E+00 0. -1.
        994   -1    0    0    0    0 -0.00000000000E+00 -0.00000000000E+00  0.11368683772E-12  0.17120000000E+03  0.17120000000E+03 0.  0.
         13    1    1    2    0    0 -0.14318193684E+02  0.44166756538E+02  0.25336873311E+03  0.25758773095E+03  0.10566000000E+00 0. -1.
        994    1    1    2    0    0 -0.20125467342E+02 -0.24340550236E+02  0.79678554892E+01  0.17427112079E+03  0.17120000000E+03 0.  0.
        998    1    1    2    0    0  0.34443661026E+02 -0.19826206302E+02  0.12386634077E+04  0.12393411483E+04  0.10000000000E+02 0. -1.
</event>
<event>
 5    1  0.1488417E-008  0.3686670E+03  0.7957747E-01  0.3502040E+00
         13   -1    0    0    0    0  0.00000000000E+00  0.00000000000E+00  0.14999999963E+04  0.15000000000E+04  0.10566000000E+00 0.  1.
        994   -1    0    0    0    0 -0.00000000000E+00 -0.00000000000E+00  0.11368683772E-12  0.17120000000E+03  0.17120000000E+03 0.  0.
         13    1    1    2    0    0 -0.25755227482E+02  0.30368796759E+02  0.70662467029E+02  0.81109746455E+02  0.10566000000E+00 0.  1.
        994    1    1    2    0    0  0.81191471920E+01 -0.44529671282E+02  0.17399160917E+02  0.17793533369E+03  0.17120000000E+03 0.  0.
        998    1    1    2    0    0  0.17636080290E+02  0.14160874523E+02  0.14119383683E+04  0.14121549199E+04  0.10000000000E+02 0.  1.
</event>
<event>
 5    1  0.1488417E-008  0.3860930E+03  0.7957747E-01  0.3425050E+00
         13   -1    0    0    0    0  0.00000000000E+00  0.00000000000E+00  0.14999999963E+04  0.15000000000E+04  0.10566000000E+00 0. -1.
        994   -1    0    0    0    0 -0.00000000000E+00 -0.00000000000E+00  0.11368683772E-12  0.17120000000E+03  0.17120000000E+03 0.  0.
         13    1    1    2    0    0  0.11656501895E+02  0.40032414852E+01  0.69686211895E+02  0.70767784134E+02  0.10566000000E+00 0. -1.
        994    1    1    2    0    0 -0.75719471175E+01 -0.88771642099E+01  0.15347168960E+01  0.17160400282E+03  0.17120000000E+03 0.  0.
        998    1    1    2    0    0 -0.40845547772E+01  0.48739227247E+01  0.14287790675E+04  0.14288282130E+04  0.10000000000E+02 0. -1.
</event>
<event>
 5    1  0.1488417E-008  0.3693105E+03  0.7957747E-01  0.3499066E+00
         13   -1    0    0    0    0  0.00000000000E+00  0.00000000000E+00  0.14999999963E+04  0.15000000000E+04  0.10566000000E+00 0. -1.
        994   -1    0    0    0    0 -0.00000000000E+00 -0.00000000000E+00  0.11368683772E-12  0.17120000000E+03  0.17120000000E+03 0.  0.
         13    1    1    2    0    0  0.48749524279E+02  0.12303391810E+02  0.13551364777E+03  0.14454013098E+03  0.10566000000E+00 0. -1.
        994    1    1    2    0    0 -0.20669657945E+02  0.10872707795E+02  0.11522687057E+02  0.17316946281E+03  0.17120000000E+03 0.  0.
        998    1    1    2    0    0 -0.28079866334E+02 -0.23176099605E+02  0.13529636614E+04  0.13534904062E+04  0.10000000000E+02 0. -1.
</event>
<event>
 5    1  0.1488417E-008  0.3113787E+03  0.7957747E-01  0.3817992E+00
         13   -1    0    0    0    0  0.00000000000E+00  0.00000000000E+00  0.14999999963E+04  0.15000000000E+04  0.10566000000E+00 0.  1.
        994   -1    0    0    0    0 -0.00000000000E+00 -0.00000000000E+00  0.11368683772E-12  0.17120000000E+03  0.17120000000E+03 0.  0.
         13    1    1    2    0    0  0.11942539990E+03 -0.12107575332E+03  0.81333580947E+03  0.83092533619E+03  0.10566000000E+00 0.  1.
        994    1    1    2    0    0 -0.11062051247E+03  0.69173625021E+02  0.77524125368E+02  0.22878225060E+03  0.17120000000E+03 0.  0.
        998    1    1    2    0    0 -0.88048874306E+01  0.51902128301E+02  0.60914006144E+03  0.61149241321E+03  0.10000000000E+02 0.  1.
</event>
<event>
 5    1  0.1488417E-008  0.3763455E+03  0.7957747E-01  0.3467227E+00
         13   -1    0    0    0    0  0.00000000000E+00  0.00000000000E+00  0.14999999963E+04  0.15000000000E+04  0.10566000000E+00 0.  1.
        994   -1    0    0    0    0 -0.00000000000E+00 -0.00000000000E+00  0.11368683772E-12  0.17120000000E+03  0.17120000000E+03 0.  0.
         13    1    1    2    0    0 -0.76134486570E+01 -0.13015094340E+02  0.16203434606E+02  0.22134130617E+02  0.10566000000E+00 0.  1.
        994    1    1    2    0    0  0.73014243314E+01  0.13310349598E+02  0.67696780121E+01  0.17200507186E+03  0.17120000000E+03 0.  0.
        998    1    1    2    0    0  0.31202432567E+00 -0.29525525888E+00  0.14770268837E+04  0.14770607975E+04  0.10000000000E+02 0.  1.
</event>
<event>
 5    1  0.1488417E-008  0.3852051E+03  0.7957747E-01  0.3428803E+00
         13   -1    0    0    0    0  0.00000000000E+00  0.00000000000E+00  0.14999999963E+04  0.15000000000E+04  0.10566000000E+00 0.  1.
        994   -1    0    0    0    0 -0.00000000000E+00 -0.00000000000E+00  0.11368683772E-12  0.17120000000E+03  0.17120000000E+03 0.  0.
         13    1    1    2    0    0 -0.51970040227E+01 -0.11041658093E+02  0.51336260504E+02  0.52766939184E+02  0.10566000000E+00 0.  1.
        994    1    1    2    0    0  0.47537219443E+01 -0.28330793680E+01  0.16289731176E+01  0.17129716216E+03  0.17120000000E+03 0.  0.
        998    1    1    2    0    0  0.44328207838E+00  0.13874737461E+02  0.14470347627E+04  0.14471358987E+04  0.10000000000E+02 0.  1.
</event>
<event>
 5    1  0.1488417E-008  0.3837353E+03  0.7957747E-01  0.3435054E+00
         13   -1    0    0    0    0  0.00000000000E+00  0.00000000000E+00  0.14999999963E+04  0.15000000000E+04  0.10566000000E+00 0.  1.
        994   -1    0    0    0    0 -0.00000000000E+00 -0.00000000000E+00  0.11368683772E-12  0.17120000000E+03  0.17120000000E+03 0.  0.
         13    1    1    2    0    0  0.21957534889E+02 -0.62902301992E+01  0.10674182290E+03  0.10915827158E+03  0.10566000000E+00 0.  1.
        994    1    1    2    0    0 -0.26051151206E+02 -0.35708471161E+00  0.45040533775E+01  0.17322966399E+03  0.17120000000E+03 0.  0.
        998    1    1    2    0    0  0.40936163175E+01  0.66473149108E+01  0.13887541200E+04  0.13888120644E+04  0.10000000000E+02 0.  1.
</event>
<event>
 5    1  0.1488417E-008  0.3850577E+03  0.7957747E-01  0.3429428E+00
         13   -1    0    0    0    0  0.00000000000E+00  0.00000000000E+00  0.14999999963E+04  0.15000000000E+04  0.10566000000E+00 0.  1.
        994   -1    0    0    0    0 -0.00000000000E+00 -0.00000000000E+00  0.11368683772E-12  0.17120000000E+03  0.17120000000E+03 0.  0.
         13    1    1    2    0    0 -0.11474641353E+02  0.73856816189E+01  0.56580902350E+02  0.58203310576E+02  0.10566000000E+00 0.  1.
        994    1    1    2    0    0  0.92313276068E+01 -0.10974970854E+02  0.22780309109E+01  0.17181471654E+03  0.17120000000E+03 0.  0.
        998    1    1    2    0    0  0.22433137466E+01  0.35892892349E+01  0.14411410630E+04  0.14411819729E+04  0.10000000000E+02 0.  1.
</event>
<event>
 5    1  0.1488417E-008  0.3068217E+03  0.7957747E-01  0.3848490E+00
         13   -1    0    0    0    0  0.00000000000E+00  0.00000000000E+00  0.14999999963E+04  0.15000000000E+04  0.10566000000E+00 0. -1.
        994   -1    0    0    0    0 -0.00000000000E+00 -0.00000000000E+00  0.11368683772E-12  0.17120000000E+03  0.17120000000E+03 0.  0.
         13    1    1    2    0    0 -0.25146641227E+03 -0.11906343139E+03  0.66181052543E+03  0.71791687536E+03  0.10566000000E+00 0. -1.
        994    1    1    2    0    0  0.19312527911E+03  0.31242102606E+02  0.26811618461E+03  0.37345571472E+03  0.17120000000E+03 0.  0.
        998    1    1    2    0    0  0.58341133161E+02  0.87821328787E+02  0.57007328624E+03  0.57982740992E+03  0.10000000000E+02 0.  1.
</event>
<event>
 5    1  0.1488417E-008  0.3804758E+03  0.7957747E-01  0.3449089E+00
         13   -1    0    0    0    0  0.00000000000E+00  0.00000000000E+00  0.14999999963E+04  0.15000000000E+04  0.10566000000E+00 0.  1.
        994   -1    0    0    0    0 -0.00000000000E+00 -0.00000000000E+00  0.11368683772E-12  0.17120000000E+03  0.17120000000E+03 0.  0.
         13    1    1    2    0    0 -0.12516429562E+02 -0.28392646698E+01  0.20242185693E+02  0.23968305708E+02  0.10566000000E+00 0.  1.
        994    1    1    2    0    0 -0.33384544608E+01 -0.25220362010E+01  0.39515996509E+01  0.17129670483E+03  0.17120000000E+03 0.  0.
        998    1    1    2    0    0  0.15854884022E+02  0.53613008708E+01  0.14758062109E+04  0.14759349895E+04  0.10000000000E+02 0.  1.
</event>
<event>
 5    1  0.1488417E-008  0.3772782E+03  0.7957747E-01  0.3463096E+00
         13   -1    0    0    0    0  0.00000000000E+00  0.00000000000E+00  0.14999999963E+04  0.15000000000E+04  0.10566000000E+00 0. -1.
        994   -1    0    0    0    0 -0.00000000000E+00 -0.00000000000E+00  0.11368683772E-12  0.17120000000E+03  0.17120000000E+03 0.  0.
         13    1    1    2    0    0 -0.11025362659E+02  0.21201414232E+02  0.53257984869E+02  0.58373647338E+02  0.10566000000E+00 0. -1.
        994    1    1    2    0    0 -0.53788158891E+01  0.23827335151E+01  0.56302111868E+01  0.17139354818E+03  0.17120000000E+03 0.  0.
        998    1    1    2    0    0  0.16404178548E+02 -0.23584147747E+02  0.14411118002E+04  0.14414328045E+04  0.10000000000E+02 0. -1.
</event>
<event>
 5    1  0.1488417E-008  0.3833664E+03  0.7957747E-01  0.3436630E+00
         13   -1    0    0    0    0  0.00000000000E+00  0.00000000000E+00  0.14999999963E+04  0.15000000000E+04  0.10566000000E+00 0.  1.
        994   -1    0    0    0    0 -0.00000000000E+00 -0.00000000000E+00  0.11368683772E-12  0.17120000000E+03  0.17120000000E+03 0.  0.
         13    1    1    2    0    0 -0.67950621325E+01 -0.20379686092E+02  0.88759560905E+02  0.91322370155E+02  0.10566000000E+00 0.  1.
        994    1    1    2    0    0  0.47042717556E+02  0.10114376257E+02  0.10136163802E+02  0.17812214825E+03  0.17120000000E+03 0.  0.
        998    1    1    2    0    0 -0.40247655423E+02  0.10265309836E+02  0.14011042716E+04  0.14017554816E+04  0.10000000000E+02 0.  1.
</event>
<event>
 5    1  0.1488417E-008  0.3808014E+03  0.7957747E-01  0.3447676E+00
         13   -1    0    0    0    0  0.00000000000E+00  0.00000000000E+00  0.14999999963E+04  0.15000000000E+04  0.10566000000E+00 0. -1.
        994   -1    0    0    0    0 -0.00000000000E+00 -0.00000000000E+00  0.11368683772E-12  0.17120000000E+03  0.17120000000E+03 0.  0.
         13    1    1    2    0    0 -0.66124204863E+01  0.14652019571E+02  0.33292525906E+02  0.36970383112E+02  0.10566000000E+00 0. -1.
        994    1    1    2    0    0  0.91666013393E+01 -0.70284753443E+01  0.41741387230E+01  0.17163999965E+03  0.17120000000E+03 0.  0.
        998    1    1    2    0    0 -0.25541808530E+01 -0.76235442271E+01  0.14625333316E+04  0.14625896172E+04  0.10000000000E+02 0. -1.
</event>
<event>
 5    1  0.1488417E-008  0.3834683E+03  0.7957747E-01  0.3436194E+00
         13   -1    0    0    0    0  0.00000000000E+00  0.00000000000E+00  0.14999999963E+04  0.15000000000E+04  0.10566000000E+00 0.  1.
        994   -1    0    0    0    0 -0.00000000000E+00 -0.00000000000E+00  0.11368683772E-12  0.17120000000E+03  0.17120000000E+03 0.  0.
         13    1    1    2    0    0 -0.16968097441E+02  0.16924810207E+02  0.11178252409E+03  0.11432282968E+03  0.10566000000E+00 0.  1.
        994    1    1    2    0    0  0.13210449852E+02 -0.21270711529E+02  0.44674094278E+01  0.17307904813E+03  0.17120000000E+03 0.  0.
        998    1    1    2    0    0  0.37576475890E+01  0.43459013214E+01  0.13837500628E+04  0.13837981222E+04  0.10000000000E+02 0.  1.
</event>
<event>
 5    1  0.1488417E-008  0.3836841E+03  0.7957747E-01  0.3435272E+00
         13   -1    0    0    0    0  0.00000000000E+00  0.00000000000E+00  0.14999999963E+04  0.15000000000E+04  0.10566000000E+00 0.  1.
        994   -1    0    0    0    0 -0.00000000000E+00 -0.00000000000E+00  0.11368683772E-12  0.17120000000E+03  0.17120000000E+03 0.  0.
         13    1    1    2    0    0  0.99430905094E+01  0.57124718676E+01  0.27576869422E+02  0.29866239718E+02  0.10566000000E+00 0.  1.
        994    1    1    2    0    0 -0.11987632768E+02 -0.45500085839E+01  0.28280485113E+01  0.17170277743E+03  0.17120000000E+03 0.  0.
        998    1    1    2    0    0  0.20445422586E+01 -0.11624632837E+01  0.14695950783E+04  0.14696309829E+04  0.10000000000E+02 0.  1.
</event>
<event>
 5    1  0.1488417E-008  0.3861787E+03  0.7957747E-01  0.3424689E+00
         13   -1    0    0    0    0  0.00000000000E+00  0.00000000000E+00  0.14999999963E+04  0.15000000000E+04  0.10566000000E+00 0.  1.
        994   -1    0    0    0    0 -0.00000000000E+00 -0.00000000000E+00  0.11368683772E-12  0.17120000000E+03  0.17120000000E+03 0.  0.
         13    1    1    2    0    0 -0.95167532637E+00  0.11719121887E+02  0.69035686410E+02  0.70029855532E+02  0.10566000000E+00 0.  1.
        994    1    1    2    0    0 -0.15643487427E+01 -0.43847984803E+01  0.11170878743E+01  0.17126693064E+03  0.17120000000E+03 0.  0.
        998    1    1    2    0    0  0.25160240691E+01 -0.73343234066E+01  0.14298472220E+04  0.14299032138E+04  0.10000000000E+02 0.  1.
</event>
<event>
 5    1  0.1488417E-008  0.3818303E+03  0.7957747E-01  0.3443227E+00
         13   -1    0    0    0    0  0.00000000000E+00  0.00000000000E+00  0.14999999963E+04  0.15000000000E+04  0.10566000000E+00 0. -1.
        994   -1    0    0    0    0 -0.00000000000E+00 -0.00000000000E+00  0.11368683772E-12  0.17120000000E+03  0.17120000000E+03 0.  0.
         13    1    1    2    0    0 -0.20685554679E+02  0.25605969744E+02  0.18222122088E+03  0.18517057640E+03  0.10566000000E+00 0. -1.
        994    1    1    2    0    0  0.10821229813E+02 -0.26862424985E+01  0.36252428192E+01  0.17160098280E+03  0.17120000000E+03 0.  0.
        998    1    1    2    0    0  0.98643248660E+01 -0.22919727245E+02  0.13141535326E+04  0.13144284408E+04  0.10000000000E+02 0. -1.
</event>
<event>
 5    1  0.1488417E-008  0.3862776E+03  0.7957747E-01  0.3424272E+00
         13   -1    0    0    0    0  0.00000000000E+00  0.00000000000E+00  0.14999999963E+04  0.15000000000E+04  0.10566000000E+00 0.  1.
        994   -1    0    0    0    0 -0.00000000000E+00 -0.00000000000E+00  0.11368683772E-12  0.17120000000E+03  0.17120000000E+03 0.  0.
         13    1    1    2    0    0 -0.23146388111E+00 -0.10671107854E+02  0.57190523780E+02  0.58178116957E+02  0.10566000000E+00 0.  1.
        994    1    1    2    0    0  0.29132100634E+01  0.92001082802E+01  0.13022373410E+01  0.17147671739E+03  0.17120000000E+03 0.  0.
        998    1    1    2    0    0 -0.26817461823E+01  0.14709995741E+01  0.14415072352E+04  0.14415451657E+04  0.10000000000E+02 0.  1.
</event>
<event>
 5    1  0.1488417E-008  0.3848755E+03  0.7957747E-01  0.3430200E+00
         13   -1    0    0    0    0  0.00000000000E+00  0.00000000000E+00  0.14999999963E+04  0.15000000000E+04  0.10566000000E+00 0.  1.
        994   -1    0    0    0    0 -0.00000000000E+00 -0.00000000000E+00  0.11368683772E-12  0.17120000000E+03  0.17120000000E+03 0.  0.
         13    1    1    2    0    0 -0.18824219357E+02  0.16155571076E+01  0.10538365452E+03  0.10706393913E+03  0.10566000000E+00 0.  1.
        994    1    1    2    0    0  0.12577613502E+02  0.45824657495E+01  0.22817096644E+01  0.17173771150E+03  0.17120000000E+03 0.  0.
        998    1    1    2    0    0  0.62466058550E+01 -0.61980228572E+01  0.13923346321E+04  0.13923983494E+04  0.10000000000E+02 0.  1.
</event>
<event>
 5    1  0.1488417E-008  0.2641549E+03  0.7957747E-01  0.4190614E+00
         13   -1    0    0    0    0  0.00000000000E+00  0.00000000000E+00  0.14999999963E+04  0.15000000000E+04  0.10566000000E+00 0. -1.
        994   -1    0    0    0    0 -0.00000000000E+00 -0.00000000000E+00  0.11368683772E-12  0.17120000000E+03  0.17120000000E+03 0.  0.
         13    1    1    2    0    0  0.21215262954E+03 -0.66687772844E+02  0.63335086718E+03  0.67125950972E+03  0.10566000000E+00 0. -1.
        994    1    1    2    0    0 -0.61330173629E+02 -0.41121621565E+01  0.85201438296E+02  0.20086568936E+03  0.17120000000E+03 0.  0.
        998    1    1    2    0    0 -0.15082245591E+03  0.70799935000E+02  0.78144769081E+03  0.79907480092E+03  0.10000000000E+02 0.  1.
</event>
<event>
 5    1  0.1488417E-008  0.3688609E+03  0.7957747E-01  0.3501143E+00
         13   -1    0    0    0    0  0.00000000000E+00  0.00000000000E+00  0.14999999963E+04  0.15000000000E+04  0.10566000000E+00 0.  1.
        994   -1    0    0    0    0 -0.00000000000E+00 -0.00000000000E+00  0.11368683772E-12  0.17120000000E+03  0.17120000000E+03 0.  0.
         13    1    1    2    0    0  0.15580448253E+01 -0.14729747691E+02  0.66750512178E+01  0.16246859497E+02  0.10566000000E+00 0.  1.
        994    1    1    2    0    0  0.94824136330E+01  0.10474630709E+02  0.10558996452E+02  0.17210626503E+03  0.17120000000E+03 0.  0.
        998    1    1    2    0    0 -0.11040458458E+02  0.42551169818E+01  0.14827659486E+04  0.14828468755E+04  0.10000000000E+02 0.  1.
</event>
<event>
 5    1  0.1488417E-008  0.3777009E+03  0.7957747E-01  0.3461231E+00
         13   -1    0    0    0    0  0.00000000000E+00  0.00000000000E+00  0.14999999963E+04  0.15000000000E+04  0.10566000000E+00 0. -1.
        994   -1    0    0    0    0 -0.00000000000E+00 -0.00000000000E+00  0.11368683772E-12  0.17120000000E+03  0.17120000000E+03 0.  0.
         13    1    1    2    0    0 -0.57739942876E+02  0.23147467060E+02  0.33493486863E+03  0.34066271240E+03  0.10566000000E+00 0. -1.
        994    1    1    2    0    0  0.54778957857E+02  0.11843733359E+02  0.15952848928E+02  0.18084507633E+03  0.17120000000E+03 0.  0.
        998    1    1    2    0    0  0.29609850198E+01 -0.34991200419E+02  0.11491122787E+04  0.11496922113E+04  0.10000000000E+02 0. -1.
</event>
<event>
 5    1  0.1488417E-008  0.3725133E+03  0.7957747E-01  0.3484420E+00
         13   -1    0    0    0    0  0.00000000000E+00  0.00000000000E+00  0.14999999963E+04  0.15000000000E+04  0.10566000000E+00 0.  1.
        994   -1    0    0    0    0 -0.00000000000E+00 -0.00000000000E+00  0.11368683772E-12  0.17120000000E+03  0.17120000000E+03 0.  0.
         13    1    1    2    0    0 -0.49294018664E+02 -0.81079521195E+02  0.32022008210E+03  0.33398308516E+03  0.10566000000E+00 0.  1.
        994    1    1    2    0    0  0.29910444468E+02  0.71068257963E+02  0.33550738312E+02  0.19073653037E+03  0.17120000000E+03 0.  0.
        998    1    1    2    0    0  0.19383574195E+02  0.10011263233E+02  0.11462291759E+04  0.11464803845E+04  0.10000000000E+02 0.  1.
</event>
<event>
 5    1  0.1488417E-008  0.3796967E+03  0.7957747E-01  0.3452480E+00
         13   -1    0    0    0    0  0.00000000000E+00  0.00000000000E+00  0.14999999963E+04  0.15000000000E+04  0.10566000000E+00 0. -1.
        994   -1    0    0    0    0 -0.00000000000E+00 -0.00000000000E+00  0.11368683772E-12  0.17120000000E+03  0.17120000000E+03 0.  0.
         13    1    1    2    0    0 -0.75440856935E+01  0.10139470203E+02  0.16960146757E+02  0.21151355205E+02  0.10566000000E+00 0. -1.
        994    1    1    2    0    0  0.23182394059E+01 -0.50148868995E+01  0.43884626320E+01  0.17134532946E+03  0.17120000000E+03 0.  0.
        998    1    1    2    0    0  0.52258462876E+01 -0.51245833034E+01  0.14786513869E+04  0.14787033153E+04  0.10000000000E+02 0. -1.
</event>
<event>
 5    1  0.1488417E-008  0.4054664E+03  0.7957747E-01  0.3347254E+00
         13   -1    0    0    0    0  0.00000000000E+00  0.00000000000E+00  0.14999999963E+04  0.15000000000E+04  0.10566000000E+00 0. -1.
        994   -1    0    0    0    0 -0.00000000000E+00 -0.00000000000E+00  0.11368683772E-12  0.17120000000E+03  0.17120000000E+03 0.  0.
         13    1    1    2    0    0  0.55744978655E+00 -0.14247710997E+03  0.26467543347E+03  0.30058798024E+03  0.10566000000E+00 0. -1.
        994    1    1    2    0    0  0.38821854983E+01  0.13311296205E+03  0.10638555941E+03  0.24158116500E+03  0.17120000000E+03 0.  0.
        998    1    1    2    0    0 -0.44396352848E+01  0.93641479172E+01  0.11289390034E+04  0.11290308548E+04  0.10000000000E+02 0. -1.
</event>
<event>
 5    1  0.1488417E-008  0.3167476E+03  0.7957747E-01  0.3783265E+00
         13   -1    0    0    0    0  0.00000000000E+00  0.00000000000E+00  0.14999999963E+04  0.15000000000E+04  0.10566000000E+00 0.  1.
        994   -1    0    0    0    0 -0.00000000000E+00 -0.00000000000E+00  0.11368683772E-12  0.17120000000E+03  0.17120000000E+03 0.  0.
         13    1    1    2    0    0 -0.99460391550E+02 -0.12332251733E+03  0.87955426542E+03  0.89370942132E+03  0.10566000000E+00 0.  1.
        994    1    1    2    0    0  0.97633392814E+02  0.61665881301E+02  0.62073882246E+02  0.21563294546E+03  0.17120000000E+03 0.  0.
        998    1    1    2    0    0  0.18269987352E+01  0.61656636032E+02  0.55837184862E+03  0.56185763323E+03  0.10000000000E+02 0.  1.
</event>
<event>
 5    1  0.1488417E-008  0.3857793E+03  0.7957747E-01  0.3426374E+00
         13   -1    0    0    0    0  0.00000000000E+00  0.00000000000E+00  0.14999999963E+04  0.15000000000E+04  0.10566000000E+00 0. -1.
        994   -1    0    0    0    0 -0.00000000000E+00 -0.00000000000E+00  0.11368683772E-12  0.17120000000E+03  0.17120000000E+03 0.  0.
         13    1    1    2    0    0 -0.60626221357E+01 -0.11677047766E+02  0.60336804799E+02  0.61754756975E+02  0.10566000000E+00 0. -1.
        994    1    1    2    0    0  0.13939544881E+02  0.27814198344E+02  0.44253444432E+01  0.17406023157E+03  0.17120000000E+03 0.  0.
        998    1    1    2    0    0 -0.78769227455E+01 -0.16137150578E+02  0.14352378470E+04  0.14353850115E+04  0.10000000000E+02 0. -1.
</event>
<event>
 5    1  0.1488417E-008  0.3846400E+03  0.7957747E-01  0.3431200E+00
         13   -1    0    0    0    0  0.00000000000E+00  0.00000000000E+00  0.14999999963E+04  0.15000000000E+04  0.10566000000E+00 0. -1.
        994   -1    0    0    0    0 -0.00000000000E+00 -0.00000000000E+00  0.11368683772E-12  0.17120000000E+03  0.17120000000E+03 0.  0.
         13    1    1    2    0    0 -0.21498032917E+02  0.18844612172E+01  0.11629994370E+03  0.11828526824E+03  0.10566000000E+00 0. -1.
        994    1    1    2    0    0  0.27786463572E+02  0.13588879153E+02  0.49653866512E+01  0.17404263920E+03  0.17120000000E+03 0.  0.
        998    1    1    2    0    0 -0.62884306549E+01 -0.15473340370E+02  0.13787346659E+04  0.13788720926E+04  0.10000000000E+02 0. -1.
</event>
<event>
 5    1  0.1488417E-008  0.3840911E+03  0.7957747E-01  0.3433536E+00
         13   -1    0    0    0    0  0.00000000000E+00  0.00000000000E+00  0.14999999963E+04  0.15000000000E+04  0.10566000000E+00 0. -1.
        994   -1    0    0    0    0 -0.00000000000E+00 -0.00000000000E+00  0.11368683772E-12  0.17120000000E+03  0.17120000000E+03 0.  0.
         13    1    1    2    0    0 -0.62386184037E+01 -0.10449310575E+02  0.34438698078E+02  0.36525929700E+02  0.10566000000E+00 0. -1.
        994    1    1    2    0    0  0.81741190399E+01  0.95709680506E+01  0.26047604254E+01  0.17168181158E+03  0.17120000000E+03 0.  0.
        998    1    1    2    0    0 -0.19355006362E+01  0.87834252418E+00  0.14629565378E+04  0.14629922587E+04  0.10000000000E+02 0. -1.
</event>
<event>
 5    1  0.1488417E-008  0.3763959E+03  0.7957747E-01  0.3467003E+00
         13   -1    0    0    0    0  0.00000000000E+00  0.00000000000E+00  0.14999999963E+04  0.15000000000E+04  0.10566000000E+00 0. -1.
        994   -1    0    0    0    0 -0.00000000000E+00 -0.00000000000E+00  0.11368683772E-12  0.17120000000E+03  0.17120000000E+03 0.  0.
         13    1    1    2    0    0 -0.20790855314E+02 -0.43648382130E+01  0.34126176353E+02  0.40198489447E+02  0.10566000000E+00 0. -1.
        994    1    1    2    0    0  0.26860982848E+02  0.51451101668E+01  0.84984042918E+01  0.17357893718E+03  0.17120000000E+03 0.  0.
        998    1    1    2    0    0 -0.60701275335E+01 -0.78027195379E+00  0.14573754156E+04  0.14574225734E+04  0.10000000000E+02 0. -1.
</event>
<event>
 5    1  0.1488417E-008  0.3813376E+03  0.7957747E-01  0.3445355E+00
         13   -1    0    0    0    0  0.00000000000E+00  0.00000000000E+00  0.14999999963E+04  0.15000000000E+04  0.10566000000E+00 0. -1.
        994   -1    0    0    0    0 -0.00000000000E+00 -0.00000000000E+00  0.11368683772E-12  0.17120000000E+03  0.17120000000E+03 0.  0.
         13    1    1    2    0    0 -0.88751451731E+02  0.42112814761E+02  0.25715218930E+03  0.27527725837E+03  0.10566000000E+00 0. -1.
        994    1    1    2    0    0  0.62964788057E+02 -0.43797819109E+02  0.38812897324E+02  0.19156903323E+03  0.17120000000E+03 0.  0.
        998    1    1    2    0    0  0.25786663674E+02  0.16850043484E+01  0.12040349097E+04  0.12043537084E+04  0.10000000000E+02 0. -1.
</event>
<event>
 5    1  0.1488417E-008  0.3855600E+03  0.7957747E-01  0.3427300E+00
         13   -1    0    0    0    0  0.00000000000E+00  0.00000000000E+00  0.14999999963E+04  0.15000000000E+04  0.10566000000E+00 0.  1.
        994   -1    0    0    0    0 -0.00000000000E+00 -0.00000000000E+00  0.11368683772E-12  0.17120000000E+03  0.17120000000E+03 0.  0.
         13    1    1    2    0    0  0.12889985441E+02 -0.79467301628E+01  0.88404668061E+02  0.89692244614E+02  0.10566000000E+00 0.  1.
        994    1    1    2    0    0 -0.27190555411E+01  0.59004205919E+01  0.14909093622E+01  0.17132971440E+03  0.17120000000E+03 0.  0.
        998    1    1    2    0    0 -0.10170929900E+02  0.20463095709E+01  0.14101044189E+04  0.14101780410E+04  0.10000000000E+02 0.  1.
</event>
<event>
 5    1  0.1488417E-008  0.4067391E+03  0.7957747E-01  0.3342401E+00
         13   -1    0    0    0    0  0.00000000000E+00  0.00000000000E+00  0.14999999963E+04  0.15000000000E+04  0.10566000000E+00 0. -1.
        994   -1    0    0    0    0 -0.00000000000E+00 -0.00000000000E+00  0.11368683772E-12  0.17120000000E+03  0.17120000000E+03 0.  0.
         13    1    1    2    0    0 -0.68013704958E+02  0.47636129167E+02  0.13834930968E+03  0.16135553141E+03  0.10566000000E+00 0. -1.
        994    1    1    2    0    0 -0.68940931720E+02 -0.34081507617E+01  0.51315139030E+02  0.19159110379E+03  0.17120000000E+03 0.  0.
        998    1    1    2    0    0  0.13695463668E+03 -0.44227978405E+02  0.13103355476E+04  0.13182533648E+04  0.10000000000E+02 0. -1.
</event>
<event>
 5    1  0.1488417E-008  0.3729024E+03  0.7957747E-01  0.3482657E+00
         13   -1    0    0    0    0  0.00000000000E+00  0.00000000000E+00  0.14999999963E+04  0.15000000000E+04  0.10566000000E+00 0. -1.
        994   -1    0    0    0    0 -0.00000000000E+00 -0.00000000000E+00  0.11368683772E-12  0.17120000000E+03  0.17120000000E+03 0.  0.
         13    1    1    2    0    0  0.38510804982E+02 -0.58546430505E+02  0.37365700625E+03  0.38017145620E+03  0.10566000000E+00 0. -1.
        994    1    1    2    0    0 -0.10196207049E+02  0.16344554161E+02  0.90313137489E+01  0.17251698965E+03  0.17120000000E+03 0.  0.
        998    1    1    2    0    0 -0.28314597933E+02  0.42201876344E+02  0.11173116763E+04  0.11185115542E+04  0.10000000000E+02 0. -1.
</event>
<event>
 5    1  0.1488417E-008  0.3799014E+03  0.7957747E-01  0.3451588E+00
         13   -1    0    0    0    0  0.00000000000E+00  0.00000000000E+00  0.14999999963E+04  0.15000000000E+04  0.10566000000E+00 0. -1.
        994   -1    0    0    0    0 -0.00000000000E+00 -0.00000000000E+00  0.11368683772E-12  0.17120000000E+03  0.17120000000E+03 0.  0.
         13    1    1    2    0    0  0.27828524812E+02 -0.75716134607E+01  0.10159658233E+03  0.10561076096E+03  0.10566000000E+00 0. -1.
        994    1    1    2    0    0 -0.12517185853E+02 -0.55819528111E+01  0.48113250442E+01  0.17181509534E+03  0.17120000000E+03 0.  0.
        998    1    1    2    0    0 -0.15311338959E+02  0.13153566272E+02  0.13935920889E+04  0.13937741437E+04  0.10000000000E+02 0. -1.
</event>
<event>
 5    1  0.1488417E-008  0.4036132E+03  0.7957747E-01  0.3354374E+00
         13   -1    0    0    0    0  0.00000000000E+00  0.00000000000E+00  0.14999999963E+04  0.15000000000E+04  0.10566000000E+00 0. -1.
        994   -1    0    0    0    0 -0.00000000000E+00 -0.00000000000E+00  0.11368683772E-12  0.17120000000E+03  0.17120000000E+03 0.  0.
         13    1    1    2    0    0  0.98197336841E+02 -0.57840942002E+02  0.20429137047E+03  0.23393004670E+03  0.10566000000E+00 0. -1.
        994    1    1    2    0    0 -0.69421864497E+02  0.42508651289E+02  0.56802885018E+02  0.19789489243E+03  0.17120000000E+03 0.  0.
        998    1    1    2    0    0 -0.28775472344E+02  0.15332290712E+02  0.12389057408E+04  0.12393750609E+04  0.10000000000E+02 0.  1.
</event>
<event>
 5    1  0.1488417E-008  0.3800088E+03  0.7957747E-01  0.3451120E+00
         13   -1    0    0    0    0  0.00000000000E+00  0.00000000000E+00  0.14999999963E+04  0.15000000000E+04  0.10566000000E+00 0. -1.
        994   -1    0    0    0    0 -0.00000000000E+00 -0.00000000000E+00  0.11368683772E-12  0.17120000000E+03  0.17120000000E+03 0.  0.
         13    1    1    2    0    0  0.93900926111E+02  0.24368210662E+02  0.28303584314E+03  0.29919975482E+03  0.10566000000E+00 0. -1.
        994    1    1    2    0    0 -0.66187699704E+02  0.19521283543E+02  0.33796962108E+02  0.18765278242E+03  0.17120000000E+03 0.  0.
        998    1    1    2    0    0 -0.27713226407E+02 -0.43889494204E+02  0.11831671910E+04  0.11843474628E+04  0.10000000000E+02 0. -1.
</event>
<event>
 5    1  0.1488417E-008  0.3822421E+03  0.7957747E-01  0.3441454E+00
         13   -1    0    0    0    0  0.00000000000E+00  0.00000000000E+00  0.14999999963E+04  0.15000000000E+04  0.10566000000E+00 0. -1.
        994   -1    0    0    0    0 -0.00000000000E+00 -0.00000000000E+00  0.11368683772E-12  0.17120000000E+03  0.17120000000E+03 0.  0.
         13    1    1    2    0    0 -0.29323799298E+02  0.31834594550E+00  0.13331496144E+03  0.13650229543E+03  0.10566000000E+00 0. -1.
        994    1    1    2    0    0  0.27477061531E+02 -0.25235137501E+02  0.76378482761E+01  0.17538408651E+03  0.17120000000E+03 0.  0.
        998    1    1    2    0    0  0.18467377671E+01  0.24916791555E+02  0.13590471866E+04  0.13593136181E+04  0.10000000000E+02 0. -1.
</event>
<event>
 5    1  0.1488417E-008  0.3704533E+03  0.7957747E-01  0.3493810E+00
         13   -1    0    0    0    0  0.00000000000E+00  0.00000000000E+00  0.14999999963E+04  0.15000000000E+04  0.10566000000E+00 0.  1.
        994   -1    0    0    0    0 -0.00000000000E+00 -0.00000000000E+00  0.11368683772E-12  0.17120000000E+03  0.17120000000E+03 0.  0.
         13    1    1    2    0    0 -0.25526609992E+02 -0.52818513207E+02  0.13919553520E+03  0.15105234636E+03  0.10566000000E+00 0.  1.
        994    1    1    2    0    0  0.26611057183E+02  0.48023338865E+02  0.21809444104E+02  0.18110627071E+03  0.17120000000E+03 0.  0.
        998    1    1    2    0    0 -0.10844471909E+01  0.47951743415E+01  0.13389950170E+04  0.13390413829E+04  0.10000000000E+02 0.  1.
</event>
<event>
 5    1  0.1488417E-008  0.3779118E+03  0.7957747E-01  0.3460302E+00
         13   -1    0    0    0    0  0.00000000000E+00  0.00000000000E+00  0.14999999963E+04  0.15000000000E+04  0.10566000000E+00 0.  1.
        994   -1    0    0    0    0 -0.00000000000E+00 -0.00000000000E+00  0.11368683772E-12  0.17120000000E+03  0.17120000000E+03 0.  0.
         13    1    1    2    0    0 -0.15724447402E+02 -0.12393522122E+02  0.36718693401E+02  0.41822616439E+02  0.10566000000E+00 0.  1.
        994    1    1    2    0    0  0.14319172319E+02  0.10070434818E+01  0.58848799946E+01  0.17190149692E+03  0.17120000000E+03 0.  0.
        998    1    1    2    0    0  0.14052750823E+01  0.11386478640E+02  0.14573964229E+04  0.14574758866E+04  0.10000000000E+02 0.  1.
</event>
<event>
 5    1  0.1488417E-008  0.3843040E+03  0.7957747E-01  0.3432629E+00
         13   -1    0    0    0    0  0.00000000000E+00  0.00000000000E+00  0.14999999963E+04  0.15000000000E+04  0.10566000000E+00 0.  1.
        994   -1    0    0    0    0 -0.00000000000E+00 -0.00000000000E+00  0.11368683772E-12  0.17120000000E+03  0.17120000000E+03 0.  0.
         13    1    1    2    0    0 -0.17914597126E+02 -0.15027589761E+01  0.79628766355E+02  0.81632975384E+02  0.10566000000E+00 0.  1.
        994    1    1    2    0    0  0.14545850525E+02  0.87273733741E+01  0.29250941972E+01  0.17206320057E+03  0.17120000000E+03 0.  0.
        998    1    1    2    0    0  0.33687466018E+01 -0.72246143980E+01  0.14174461357E+04  0.14175038240E+04  0.10000000000E+02 0.  1.
</event>
<event>
 5    1  0.1488417E-008  0.3704194E+03  0.7957747E-01  0.3493966E+00
         13   -1    0    0    0    0  0.00000000000E+00  0.00000000000E+00  0.14999999963E+04  0.15000000000E+04  0.10566000000E+00 0.  1.
        994   -1    0    0    0    0 -0.00000000000E+00 -0.00000000000E+00  0.11368683772E-12  0.17120000000E+03  0.17120000000E+03 0.  0.
         13    1    1    2    0    0  0.75658655838E+01 -0.15073308795E+02  0.11452822379E+02  0.20386889526E+02  0.10566000000E+00 0.  1.
        994    1    1    2    0    0 -0.12488971870E+02  0.17817139560E+02  0.10686312009E+02  0.17290766942E+03  0.17120000000E+03 0.  0.
        998    1    1    2    0    0  0.49231062862E+01 -0.27438307655E+01  0.14778608619E+04  0.14779054411E+04  0.10000000000E+02 0.  1.
</event>
<event>
 5    1  0.1488417E-008  0.3766998E+03  0.7957747E-01  0.3465655E+00
         13   -1    0    0    0    0  0.00000000000E+00  0.00000000000E+00  0.14999999963E+04  0.15000000000E+04  0.10566000000E+00 0. -1.
        994   -1    0    0    0    0 -0.00000000000E+00 -0.00000000000E+00  0.11368683772E-12  0.17120000000E+03  0.17120000000E+03 0.  0.
         13    1    1    2    0    0  0.16797557403E+02  0.11003121289E+02  0.32421426920E+02  0.38136422228E+02  0.10566000000E+00 0. -1.
        994    1    1    2    0    0 -0.22655650261E+02  0.11403949996E+02  0.79858050988E+01  0.17325282580E+03  0.17120000000E+03 0.  0.
        998    1    1    2    0    0  0.58580928582E+01 -0.22407071285E+02  0.14595927643E+04  0.14598107520E+04  0.10000000000E+02 0. -1.
</event>
<event>
 5    1  0.1572575E-008  0.3851985E+03  0.7957747E-01  0.3428831E+00
         13   -1    0    0    0    0  0.00000000000E+00  0.00000000000E+00  0.14999999963E+04  0.15000000000E+04  0.10566000000E+00 0. -1.
        994   -1    0    0    0    0 -0.00000000000E+00 -0.00000000000E+00  0.11368683772E-12  0.17120000000E+03  0.17120000000E+03 0.  0.
         13    1    1    2    0    0  0.99939920530E+01 -0.34967567123E+01  0.35434396684E+02  0.36982628585E+02  0.10566000000E+00 0. -1.
        994    1    1    2    0    0 -0.12426938709E+02  0.50117648704E+01  0.21219109000E+01  0.17173668536E+03  0.17120000000E+03 0.  0.
        998    1    1    2    0    0  0.24329466559E+01 -0.15150081581E+01  0.14624436887E+04  0.14624806861E+04  0.10000000000E+02 0. -1.
</event>
<event>
 5    1  0.1488417E-008  0.3814795E+03  0.7957747E-01  0.3444741E+00
         13   -1    0    0    0    0  0.00000000000E+00  0.00000000000E+00  0.14999999963E+04  0.15000000000E+04  0.10566000000E+00 0.  1.
        994   -1    0    0    0    0 -0.00000000000E+00 -0.00000000000E+00  0.11368683772E-12  0.17120000000E+03  0.17120000000E+03 0.  0.
         13    1    1    2    0    0  0.10541568687E+02  0.35144625143E+02  0.17126067327E+03  0.17514707740E+03  0.10566000000E+00 0.  1.
        994    1    1    2    0    0 -0.66676768071E+01 -0.40921512812E+02  0.91279589473E+01  0.17638533884E+03  0.17120000000E+03 0.  0.
        998    1    1    2    0    0 -0.38738918801E+01  0.57768876688E+01  0.13196113641E+04  0.13196675838E+04  0.10000000000E+02 0.  1.
</event>
<event>
 5    1  0.1488417E-008  0.3814076E+03  0.7957747E-01  0.3445052E+00
         13   -1    0    0    0    0  0.00000000000E+00  0.00000000000E+00  0.14999999963E+04  0.15000000000E+04  0.10566000000E+00 0.  1.
        994   -1    0    0    0    0 -0.00000000000E+00 -0.00000000000E+00  0.11368683772E-12  0.17120000000E+03  0.17120000000E+03 0.  0.
         13    1    1    2    0    0 -0.19435443463E+02 -0.26958715409E+02  0.16405291722E+03  0.16738542234E+03  0.10566000000E+00 0.  1.
        994    1    1    2    0    0  0.22871700846E+02  0.39251888461E+01  0.52182480273E+01  0.17284441536E+03  0.17120000000E+03 0.  0.
        998    1    1    2    0    0 -0.34362573829E+01  0.23033526563E+02  0.13307288310E+04  0.13309701623E+04  0.10000000000E+02 0.  1.
</event>
<event>
 5    1  0.1488417E-008  0.3748533E+03  0.7957747E-01  0.3473879E+00
         13   -1    0    0    0    0  0.00000000000E+00  0.00000000000E+00  0.14999999963E+04  0.15000000000E+04  0.10566000000E+00 0.  1.
        994   -1    0    0    0    0 -0.00000000000E+00 -0.00000000000E+00  0.11368683772E-12  0.17120000000E+03  0.17120000000E+03 0.  0.
         13    1    1    2    0    0  0.41029079238E+02 -0.20234656151E+02  0.16607300750E+03  0.17225876360E+03  0.10566000000E+00 0.  1.
        994    1    1    2    0    0 -0.12624736764E+02  0.34612259130E+00  0.72967286965E+01  0.17182021426E+03  0.17120000000E+03 0.  0.
        998    1    1    2    0    0 -0.28404342474E+02  0.19888533560E+02  0.13266302601E+04  0.13271210221E+04  0.10000000000E+02 0.  1.
</event>
<event>
 5    1  0.1488417E-008  0.3798644E+03  0.7957747E-01  0.3451749E+00
         13   -1    0    0    0    0  0.00000000000E+00  0.00000000000E+00  0.14999999963E+04  0.15000000000E+04  0.10566000000E+00 0. -1.
        994   -1    0    0    0    0 -0.00000000000E+00 -0.00000000000E+00  0.11368683772E-12  0.17120000000E+03  0.17120000000E+03 0.  0.
         13    1    1    2    0    0 -0.67957211316E+01  0.13766149377E+02  0.25749856639E+02  0.29979242408E+02  0.10566000000E+00 0. -1.
        994    1    1    2    0    0  0.83598524467E+01 -0.16441602921E+02  0.53402264330E+01  0.17227353673E+03  0.17120000000E+03 0.  0.
        998    1    1    2    0    0 -0.15641313151E+01  0.26754535435E+01  0.14689099132E+04  0.14689472209E+04  0.10000000000E+02 0. -1.
</event>
<event>
 5    1  0.1488417E-008  0.3854359E+03  0.7957747E-01  0.3427826E+00
         13   -1    0    0    0    0  0.00000000000E+00  0.00000000000E+00  0.14999999963E+04  0.15000000000E+04  0.10566000000E+00 0. -1.
        994   -1    0    0    0    0 -0.00000000000E+00 -0.00000000000E+00  0.11368683772E-12  0.17120000000E+03  0.17120000000E+03 0.  0.
         13    1    1    2    0    0  0.11029167616E+02 -0.13188876754E+02  0.97772700397E+02  0.99272861927E+02  0.10566000000E+00 0. -1.
        994    1    1    2    0    0 -0.12285280261E+02  0.15343148584E+02  0.26836364043E+01  0.17234553149E+03  0.17120000000E+03 0.  0.
        998    1    1    2    0    0  0.12561126455E+01 -0.21542718303E+01  0.13995436595E+04  0.13995816066E+04  0.10000000000E+02 0. -1.
</event>
<event>
 5    1  0.1504294E-008  0.3859086E+03  0.7957747E-01  0.3425828E+00
         13   -1    0    0    0    0  0.00000000000E+00  0.00000000000E+00  0.14999999963E+04  0.15000000000E+04  0.10566000000E+00 0.  1.
        994   -1    0    0    0    0 -0.00000000000E+00 -0.00000000000E+00  0.11368683772E-12  0.17120000000E+03  0.17120000000E+03 0.  0.
         13    1    1    2    0    0  0.58232983302E+01 -0.93581520019E+01  0.53130656114E+02  0.54261990338E+02  0.10566000000E+00 0.  1.
        994    1    1    2    0    0 -0.73633898151E+01  0.49373422539E+00  0.13582921222E+01  0.17136437273E+03  0.17120000000E+03 0.  0.
        998    1    1    2    0    0  0.15400914849E+01  0.88644177765E+01  0.14455110480E+04  0.14455736369E+04  0.10000000000E+02 0.  1.
</event>
<event>
 5    1  0.1488417E-008  0.3728388E+03  0.7957747E-01  0.3482945E+00
         13   -1    0    0    0    0  0.00000000000E+00  0.00000000000E+00  0.14999999963E+04  0.15000000000E+04  0.10566000000E+00 0. -1.
        994   -1    0    0    0    0 -0.00000000000E+00 -0.00000000000E+00  0.11368683772E-12  0.17120000000E+03  0.17120000000E+03 0.  0.
         13    1    1    2    0    0  0.18224029579E+02 -0.28839005987E+02  0.79875973004E+02  0.86856120957E+02  0.10566000000E+00 0. -1.
        994    1    1    2    0    0  0.29172107134E+02  0.94388462180E+01  0.11018583288E+02  0.17427263936E+03  0.17120000000E+03 0.  0.
        998    1    1    2    0    0 -0.47396136713E+02  0.19400159769E+02  0.14091054400E+04  0.14100712397E+04  0.10000000000E+02 0. -1.
</event>
<event>
 5    1  0.1488417E-008  0.3767448E+03  0.7957747E-01  0.3465456E+00
         13   -1    0    0    0    0  0.00000000000E+00  0.00000000000E+00  0.14999999963E+04  0.15000000000E+04  0.10566000000E+00 0. -1.
        994   -1    0    0    0    0 -0.00000000000E+00 -0.00000000000E+00  0.11368683772E-12  0.17120000000E+03  0.17120000000E+03 0.  0.
         13    1    1    2    0    0 -0.33530271678E+02 -0.11789076278E+02  0.10119834465E+03  0.10725846149E+03  0.10566000000E+00 0. -1.
        994    1    1    2    0    0  0.33941735146E+02  0.69753382129E+01  0.98537431492E+01  0.17494922973E+03  0.17120000000E+03 0.  0.
        998    1    1    2    0    0 -0.41146346858E+00  0.48137380649E+01  0.13889479085E+04  0.13889923088E+04  0.10000000000E+02 0. -1.
</event>
<event>
 5    1  0.1488417E-008  0.3798784E+03  0.7957747E-01  0.3451688E+00
         13   -1    0    0    0    0  0.00000000000E+00  0.00000000000E+00  0.14999999963E+04  0.15000000000E+04  0.10566000000E+00 0.  1.
        994   -1    0    0    0    0 -0.00000000000E+00 -0.00000000000E+00  0.11368683772E-12  0.17120000000E+03  0.17120000000E+03 0.  0.
         13    1    1    2    0    0 -0.82971560118E+01  0.17419580074E+02  0.42165861473E+02  0.46370848662E+02  0.10566000000E+00 0.  1.
        994    1    1    2    0    0  0.61101271921E+01 -0.15834766486E+02  0.51585122720E+01  0.17211659924E+03  0.17120000000E+03 0.  0.
        998    1    1    2    0    0  0.21870288197E+01 -0.15848135882E+01  0.14526756225E+04  0.14527125521E+04  0.10000000000E+02 0.  1.
</event>
<event>
 5    1  0.1488417E-008  0.3834943E+03  0.7957747E-01  0.3436083E+00
         13   -1    0    0    0    0  0.00000000000E+00  0.00000000000E+00  0.14999999963E+04  0.15000000000E+04  0.10566000000E+00 0. -1.
        994   -1    0    0    0    0 -0.00000000000E+00 -0.00000000000E+00  0.11368683772E-12  0.17120000000E+03  0.17120000000E+03 0.  0.
         13    1    1    2    0    0 -0.23646713498E+02  0.20424823595E+02  0.17780481713E+03  0.18052951182E+03  0.10566000000E+00 0. -1.
        994    1    1    2    0    0  0.19424237518E+02 -0.30587669613E+02  0.67305370955E+01  0.17512180522E+03  0.17120000000E+03 0.  0.
        998    1    1    2    0    0  0.42224759799E+01  0.10162846018E+02  0.13154646421E+04  0.13155486830E+04  0.10000000000E+02 0.  1.
</event>
<event>
 5    1  0.1488417E-008  0.3853009E+03  0.7957747E-01  0.3428397E+00
         13   -1    0    0    0    0  0.00000000000E+00  0.00000000000E+00  0.14999999963E+04  0.15000000000E+04  0.10566000000E+00 0.  1.
        994   -1    0    0    0    0 -0.00000000000E+00 -0.00000000000E+00  0.11368683772E-12  0.17120000000E+03  0.17120000000E+03 0.  0.
         13    1    1    2    0    0  0.77374740854E+02  0.23465484021E+02  0.16374813028E+03  0.18262239949E+03  0.10566000000E+00 0.  1.
        994    1    1    2    0    0 -0.48127133984E+02 -0.21095513770E+02  0.29545758779E+02  0.18150381150E+03  0.17120000000E+03 0.  0.
        998    1    1    2    0    0 -0.29247606870E+02 -0.23699702513E+01  0.13067061072E+04  0.13070737890E+04  0.10000000000E+02 0.  1.
</event>
<event>
 5    1  0.1488417E-008  0.3858612E+03  0.7957747E-01  0.3426028E+00
         13   -1    0    0    0    0  0.00000000000E+00  0.00000000000E+00  0.14999999963E+04  0.15000000000E+04  0.10566000000E+00 0.  1.
        994   -1    0    0    0    0 -0.00000000000E+00 -0.00000000000E+00  0.11368683772E-12  0.17120000000E+03  0.17120000000E+03 0.  0.
         13    1    1    2    0    0 -0.12877640173E+02 -0.22460371718E+01  0.67176739620E+02  0.68436860020E+02  0.10566000000E+00 0.  1.
        994    1    1    2    0    0  0.17378875943E+02  0.22239937635E+01  0.22105376987E+01  0.17210839013E+03  0.17120000000E+03 0.  0.
        998    1    1    2    0    0 -0.45012357695E+01  0.22043408306E-01  0.14306127190E+04  0.14306547498E+04  0.10000000000E+02 0.  1.
</event>
<event>
 5    1  0.1488417E-008  0.3758008E+03  0.7957747E-01  0.3469649E+00
         13   -1    0    0    0    0  0.00000000000E+00  0.00000000000E+00  0.14999999963E+04  0.15000000000E+04  0.10566000000E+00 0.  1.
        994   -1    0    0    0    0 -0.00000000000E+00 -0.00000000000E+00  0.11368683772E-12  0.17120000000E+03  0.17120000000E+03 0.  0.
         13    1    1    2    0    0 -0.38386321098E+02 -0.18583791044E+01  0.16280922619E+03  0.16728364689E+03  0.10566000000E+00 0.  1.
        994    1    1    2    0    0 -0.35236592415E+02 -0.16194697873E+02  0.11383331752E+02  0.17590595762E+03  0.17120000000E+03 0.  0.
        998    1    1    2    0    0  0.73622913513E+02  0.18053076978E+02  0.13258074383E+04  0.13280103955E+04  0.10000000000E+02 0.  1.
</event>
<event>
 5    1  0.1488417E-008  0.3849688E+03  0.7957747E-01  0.3429804E+00
         13   -1    0    0    0    0  0.00000000000E+00  0.00000000000E+00  0.14999999963E+04  0.15000000000E+04  0.10566000000E+00 0. -1.
        994   -1    0    0    0    0 -0.00000000000E+00 -0.00000000000E+00  0.11368683772E-12  0.17120000000E+03  0.17120000000E+03 0.  0.
         13    1    1    2    0    0 -0.29193141009E+01 -0.11654234959E+02  0.43901897924E+02  0.45516276129E+02  0.10566000000E+00 0. -1.
        994    1    1    2    0    0  0.40901283210E+01  0.65981298272E+01  0.18438509334E+01  0.17138583446E+03  0.17120000000E+03 0.  0.
        998    1    1    2    0    0 -0.11708142201E+01  0.50561051321E+01  0.14542542474E+04  0.14542978894E+04  0.10000000000E+02 0. -1.
</event>
<event>
 5    1  0.1488417E-008  0.3777253E+03  0.7957747E-01  0.3461123E+00
         13   -1    0    0    0    0  0.00000000000E+00  0.00000000000E+00  0.14999999963E+04  0.15000000000E+04  0.10566000000E+00 0. -1.
        994   -1    0    0    0    0 -0.00000000000E+00 -0.00000000000E+00  0.11368683772E-12  0.17120000000E+03  0.17120000000E+03 0.  0.
         13    1    1    2    0    0  0.22475034968E+02 -0.19270736754E+02  0.84741206604E+02  0.89763978035E+02  0.10566000000E+00 0. -1.
        994    1    1    2    0    0  0.30888406244E+00  0.12530085165E+02  0.58151673865E+01  0.17175667270E+03  0.17120000000E+03 0.  0.
        998    1    1    2    0    0 -0.22783919030E+02  0.67406515896E+01  0.14094436223E+04  0.14096793493E+04  0.10000000000E+02 0. -1.
</event>
<event>
 5    1  0.1488417E-008  0.3828550E+03  0.7957747E-01  0.3438821E+00
         13   -1    0    0    0    0  0.00000000000E+00  0.00000000000E+00  0.14999999963E+04  0.15000000000E+04  0.10566000000E+00 0.  1.
        994   -1    0    0    0    0 -0.00000000000E+00 -0.00000000000E+00  0.11368683772E-12  0.17120000000E+03  0.17120000000E+03 0.  0.
         13    1    1    2    0    0  0.21376488143E+02  0.16395155803E+02  0.13446318977E+03  0.13713539275E+03  0.10566000000E+00 0.  1.
        994    1    1    2    0    0 -0.10966021794E+02 -0.10992997361E+02  0.34976882004E+01  0.17193828383E+03  0.17120000000E+03 0.  0.
        998    1    1    2    0    0 -0.10410466349E+02 -0.54021584420E+01  0.13620391183E+04  0.13621263234E+04  0.10000000000E+02 0.  1.
</event>
<event>
 5    1  0.1488417E-008  0.3716145E+03  0.7957747E-01  0.3488504E+00
         13   -1    0    0    0    0  0.00000000000E+00  0.00000000000E+00  0.14999999963E+04  0.15000000000E+04  0.10566000000E+00 0.  1.
        994   -1    0    0    0    0 -0.00000000000E+00 -0.00000000000E+00  0.11368683772E-12  0.17120000000E+03  0.17120000000E+03 0.  0.
         13    1    1    2    0    0  0.58936471602E+01 -0.27113210132E+02  0.27211345109E+02  0.38862960608E+02  0.10566000000E+00 0.  1.
        994    1    1    2    0    0 -0.91088225880E+01  0.27367358464E+02  0.14725591833E+02  0.17423612144E+03  0.17120000000E+03 0.  0.
        998    1    1    2    0    0  0.32151754278E+01 -0.25414833236E+00  0.14580630593E+04  0.14581009180E+04  0.10000000000E+02 0.  1.
</event>
<event>
 5    1  0.1488417E-008  0.3837742E+03  0.7957747E-01  0.3434887E+00
         13   -1    0    0    0    0  0.00000000000E+00  0.00000000000E+00  0.14999999963E+04  0.15000000000E+04  0.10566000000E+00 0.  1.
        994   -1    0    0    0    0 -0.00000000000E+00 -0.00000000000E+00  0.11368683772E-12  0.17120000000E+03  0.17120000000E+03 0.  0.
         13    1    1    2    0    0 -0.13448037012E+02  0.13863831645E+02  0.80463851744E+02  0.82749611049E+02  0.10566000000E+00 0.  1.
        994    1    1    2    0    0  0.77522044594E+01 -0.16199696479E+02  0.33055569403E+01  0.17217111705E+03  0.17120000000E+03 0.  0.
        998    1    1    2    0    0  0.56958325525E+01  0.23358648339E+01  0.14162305876E+04  0.14162792719E+04  0.10000000000E+02 0.  1.
</event>
<event>
 5    1  0.1488417E-008  0.2826219E+03  0.7957747E-01  0.4028466E+00
         13   -1    0    0    0    0  0.00000000000E+00  0.00000000000E+00  0.14999999963E+04  0.15000000000E+04  0.10566000000E+00 0. -1.
        994   -1    0    0    0    0 -0.00000000000E+00 -0.00000000000E+00  0.11368683772E-12  0.17120000000E+03  0.17120000000E+03 0.  0.
         13    1    1    2    0    0 -0.21869176730E+02 -0.14636483482E+03  0.70237580159E+03  0.71779711868E+03  0.10566000000E+00 0. -1.
        994    1    1    2    0    0  0.91599208678E+01  0.44779823798E+02  0.30974680736E+02  0.17988331667E+03  0.17120000000E+03 0.  0.
        998    1    1    2    0    0  0.12709255862E+02  0.10158501103E+03  0.76664951395E+03  0.77351956465E+03  0.10000000000E+02 0.  1.
</event>
<event>
 5    1  0.1488417E-008  0.3839103E+03  0.7957747E-01  0.3434307E+00
         13   -1    0    0    0    0  0.00000000000E+00  0.00000000000E+00  0.14999999963E+04  0.15000000000E+04  0.10566000000E+00 0. -1.
        994   -1    0    0    0    0 -0.00000000000E+00 -0.00000000000E+00  0.11368683772E-12  0.17120000000E+03  0.17120000000E+03 0.  0.
         13    1    1    2    0    0  0.27918477632E+02  0.73040804812E+00  0.16028572008E+03  0.16270063957E+03  0.10566000000E+00 0. -1.
        994    1    1    2    0    0 -0.29454317663E+02 -0.28339764995E+01  0.50671880750E+01  0.17381226840E+03  0.17120000000E+03 0.  0.
        998    1    1    2    0    0  0.15358400310E+01  0.21035684514E+01  0.13346470881E+04  0.13346870920E+04  0.10000000000E+02 0. -1.
</event>
<event>
 5    1  0.1488417E-008  0.3779301E+03  0.7957747E-01  0.3460221E+00
         13   -1    0    0    0    0  0.00000000000E+00  0.00000000000E+00  0.14999999963E+04  0.15000000000E+04  0.10566000000E+00 0. -1.
        994   -1    0    0    0    0 -0.00000000000E+00 -0.00000000000E+00  0.11368683772E-12  0.17120000000E+03  0.17120000000E+03 0.  0.
         13    1    1    2    0    0 -0.26975637296E+02 -0.67525475810E+02  0.38565128221E+03  0.39244655372E+03  0.10566000000E+00 0. -1.
        994    1    1    2    0    0  0.16592530604E+02  0.69675094453E+02  0.22647893195E+02  0.18695533671E+03  0.17120000000E+03 0.  0.
        998    1    1    2    0    0  0.10383106691E+02 -0.21496186427E+01  0.10917008209E+04  0.10917981096E+04  0.10000000000E+02 0. -1.
</event>
<event>
 5    1  0.1488417E-008  0.3826919E+03  0.7957747E-01  0.3439521E+00
         13   -1    0    0    0    0  0.00000000000E+00  0.00000000000E+00  0.14999999963E+04  0.15000000000E+04  0.10566000000E+00 0.  1.
        994   -1    0    0    0    0 -0.00000000000E+00 -0.00000000000E+00  0.11368683772E-12  0.17120000000E+03  0.17120000000E+03 0.  0.
         13    1    1    2    0    0  0.29443845706E+02 -0.26061631827E+02  0.22272651915E+03  0.22617086948E+03  0.10566000000E+00 0.  1.
        994    1    1    2    0    0 -0.83843644784E+01  0.67333893723E+02  0.18188793585E+02  0.18505248721E+03  0.17120000000E+03 0.  0.
        998    1    1    2    0    0 -0.21059481228E+02 -0.41272261895E+02  0.12590846835E+04  0.12599766433E+04  0.10000000000E+02 0.  1.
</event>
<event>
 5    1  0.1488417E-008  0.3803865E+03  0.7957747E-01  0.3449477E+00
         13   -1    0    0    0    0  0.00000000000E+00  0.00000000000E+00  0.14999999963E+04  0.15000000000E+04  0.10566000000E+00 0.  1.
        994   -1    0    0    0    0 -0.00000000000E+00 -0.00000000000E+00  0.11368683772E-12  0.17120000000E+03  0.17120000000E+03 0.  0.
         13    1    1    2    0    0  0.16259286508E+03 -0.92523071032E+02  0.98731121133E+03  0.10048782999E+04  0.10566000000E+00 0.  1.
        994    1    1    2    0    0 -0.16334865101E+03  0.10233621034E+03  0.13999874881E+03  0.29336763864E+03  0.17120000000E+03 0.  0.
        998    1    1    2    0    0  0.75578592596E+00 -0.98131393073E+01  0.37269003613E+03  0.37295406144E+03  0.10000000000E+02 0.  1.
</event>
<event>
 5    1  0.1488417E-008  0.3751210E+03  0.7957747E-01  0.3472682E+00
         13   -1    0    0    0    0  0.00000000000E+00  0.00000000000E+00  0.14999999963E+04  0.15000000000E+04  0.10566000000E+00 0.  1.
        994   -1    0    0    0    0 -0.00000000000E+00 -0.00000000000E+00  0.11368683772E-12  0.17120000000E+03  0.17120000000E+03 0.  0.
         13    1    1    2    0    0  0.14243390353E+02  0.18773932135E+02  0.40203971927E+02  0.46601558121E+02  0.10566000000E+00 0.  1.
        994    1    1    2    0    0 -0.70773577949E+01 -0.50008535660E+01  0.68718135354E+01  0.17155686915E+03  0.17120000000E+03 0.  0.
        998    1    1    2    0    0 -0.71660325583E+01 -0.13773078569E+02  0.14529242108E+04  0.14530415727E+04  0.10000000000E+02 0.  1.
</event>
<event>
 5    1  0.1488417E-008  0.3841747E+03  0.7957747E-01  0.3433180E+00
         13   -1    0    0    0    0  0.00000000000E+00  0.00000000000E+00  0.14999999963E+04  0.15000000000E+04  0.10566000000E+00 0.  1.
        994   -1    0    0    0    0 -0.00000000000E+00 -0.00000000000E+00  0.11368683772E-12  0.17120000000E+03  0.17120000000E+03 0.  0.
         13    1    1    2    0    0 -0.76022952123E+01 -0.22245986866E+02  0.11707638575E+03  0.11941344183E+03  0.10566000000E+00 0.  1.
        994    1    1    2    0    0 -0.12052911060E+02  0.40593529376E+02  0.79756866056E+01  0.17653939750E+03  0.17120000000E+03 0.  0.
        998    1    1    2    0    0  0.19655206273E+02 -0.18347542510E+02  0.13749479239E+04  0.13752471607E+04  0.10000000000E+02 0.  1.
</event>
<event>
 5    1  0.1488417E-008  0.3798704E+03  0.7957747E-01  0.3451723E+00
         13   -1    0    0    0    0  0.00000000000E+00  0.00000000000E+00  0.14999999963E+04  0.15000000000E+04  0.10566000000E+00 0. -1.
        994   -1    0    0    0    0 -0.00000000000E+00 -0.00000000000E+00  0.11368683772E-12  0.17120000000E+03  0.17120000000E+03 0.  0.
         13    1    1    2    0    0 -0.20198391680E+02 -0.13649242005E+02  0.70026529365E+02  0.74148518615E+02  0.10566000000E+00 0. -1.
        994    1    1    2    0    0  0.81265842309E+01  0.10938656577E+02  0.48198714206E+01  0.17180909970E+03  0.17120000000E+03 0.  0.
        998    1    1    2    0    0  0.12071807449E+02  0.27105854280E+01  0.14251535955E+04  0.14252423817E+04  0.10000000000E+02 0. -1.
</event>
<event>
 5    1  0.1488417E-008  0.3854274E+03  0.7957747E-01  0.3427861E+00
         13   -1    0    0    0    0  0.00000000000E+00  0.00000000000E+00  0.14999999963E+04  0.15000000000E+04  0.10566000000E+00 0.  1.
        994   -1    0    0    0    0 -0.00000000000E+00 -0.00000000000E+00  0.11368683772E-12  0.17120000000E+03  0.17120000000E+03 0.  0.
         13    1    1    2    0    0  0.15835655510E+02 -0.74745794710E+00  0.93175953209E+02  0.94515057527E+02  0.10566000000E+00 0.  1.
        994    1    1    2    0    0 -0.43779279573E+01  0.76632094748E+01  0.16739198002E+01  0.17143550694E+03  0.17120000000E+03 0.  0.
        998    1    1    2    0    0 -0.11457727552E+02 -0.69157515277E+01  0.14051501233E+04  0.14052494355E+04  0.10000000000E+02 0.  1.
</event>
<event>
 5    1  0.1488417E-008  0.3841538E+03  0.7957747E-01  0.3433269E+00
         13   -1    0    0    0    0  0.00000000000E+00  0.00000000000E+00  0.14999999963E+04  0.15000000000E+04  0.10566000000E+00 0. -1.
        994   -1    0    0    0    0 -0.00000000000E+00 -0.00000000000E+00  0.11368683772E-12  0.17120000000E+03  0.17120000000E+03 0.  0.
         13    1    1    2    0    0 -0.11387923647E+02  0.11520402353E+02  0.65249204597E+02  0.67230010709E+02  0.10566000000E+00 0. -1.
        994    1    1    2    0    0  0.61236587879E+01 -0.25557824278E+01  0.21960461624E+01  0.17134262120E+03  0.17120000000E+03 0.  0.
        998    1    1    2    0    0  0.52642648594E+01 -0.89646199248E+01  0.14325547455E+04  0.14326273681E+04  0.10000000000E+02 0. -1.
</event>
<event>
 5    1  0.1488417E-008  0.3839111E+03  0.7957747E-01  0.3434304E+00
         13   -1    0    0    0    0  0.00000000000E+00  0.00000000000E+00  0.14999999963E+04  0.15000000000E+04  0.10566000000E+00 0.  1.
        994   -1    0    0    0    0 -0.00000000000E+00 -0.00000000000E+00  0.11368683772E-12  0.17120000000E+03  0.17120000000E+03 0.  0.
         13    1    1    2    0    0 -0.13842808697E+02  0.10278697921E+02  0.70825127059E+02  0.72893653843E+02  0.10566000000E+00 0.  1.
        994    1    1    2    0    0  0.15393438536E+01 -0.48798079172E+01  0.22581514021E+01  0.17129133473E+03  0.17120000000E+03 0.  0.
        998    1    1    2    0    0  0.12303464843E+02 -0.53988900039E+01  0.14269167178E+04  0.14270150114E+04  0.10000000000E+02 0.  1.
</event>
<event>
 5    1  0.1488417E-008  0.3854854E+03  0.7957747E-01  0.3427616E+00
         13   -1    0    0    0    0  0.00000000000E+00  0.00000000000E+00  0.14999999963E+04  0.15000000000E+04  0.10566000000E+00 0.  1.
        994   -1    0    0    0    0 -0.00000000000E+00 -0.00000000000E+00  0.11368683772E-12  0.17120000000E+03  0.17120000000E+03 0.  0.
         13    1    1    2    0    0  0.12300030445E+02 -0.37554507726E+01  0.57422361995E+02  0.58844991126E+02  0.10566000000E+00 0.  1.
        994    1    1    2    0    0 -0.13829280118E+02  0.58944068422E+01  0.21317154568E+01  0.17187197919E+03  0.17120000000E+03 0.  0.
        998    1    1    2    0    0  0.15292496727E+01 -0.21389560696E+01  0.14404459188E+04  0.14404830297E+04  0.10000000000E+02 0.  1.
</event>
<event>
 5    1  0.1488417E-008  0.3789639E+03  0.7957747E-01  0.3455682E+00
         13   -1    0    0    0    0  0.00000000000E+00  0.00000000000E+00  0.14999999963E+04  0.15000000000E+04  0.10566000000E+00 0.  1.
        994   -1    0    0    0    0 -0.00000000000E+00 -0.00000000000E+00  0.11368683772E-12  0.17120000000E+03  0.17120000000E+03 0.  0.
         13    1    1    2    0    0 -0.87746699024E+00 -0.13756426493E+02  0.18911795751E+02  0.23402487063E+02  0.10566000000E+00 0.  1.
        994    1    1    2    0    0 -0.60663629522E+01 -0.15160978210E+00  0.47805983213E+01  0.17137420420E+03  0.17120000000E+03 0.  0.
        998    1    1    2    0    0  0.69438299424E+01  0.13908036275E+02  0.14763076022E+04  0.14764233087E+04  0.10000000000E+02 0.  1.
</event>
<event>
 5    1  0.1488417E-008  0.3826232E+03  0.7957747E-01  0.3439815E+00
         13   -1    0    0    0    0  0.00000000000E+00  0.00000000000E+00  0.14999999963E+04  0.15000000000E+04  0.10566000000E+00 0. -1.
        994   -1    0    0    0    0 -0.00000000000E+00 -0.00000000000E+00  0.11368683772E-12  0.17120000000E+03  0.17120000000E+03 0.  0.
         13    1    1    2    0    0  0.11730733133E+02  0.70764237791E+01  0.33353944572E+02  0.36058045647E+02  0.10566000000E+00 0. -1.
        994    1    1    2    0    0  0.81365721392E+00 -0.35689425635E+01  0.28592041441E+01  0.17126299786E+03  0.17120000000E+03 0.  0.
        998    1    1    2    0    0 -0.12544390347E+02 -0.35074812157E+01  0.14637868476E+04  0.14638789565E+04  0.10000000000E+02 0. -1.
</event>
<event>
 5    1  0.1488417E-008  0.3841993E+03  0.7957747E-01  0.3433075E+00
         13   -1    0    0    0    0  0.00000000000E+00  0.00000000000E+00  0.14999999963E+04  0.15000000000E+04  0.10566000000E+00 0. -1.
        994   -1    0    0    0    0 -0.00000000000E+00 -0.00000000000E+00  0.11368683772E-12  0.17120000000E+03  0.17120000000E+03 0.  0.
         13    1    1    2    0    0  0.75764161704E+01 -0.17553444657E+02  0.90804421333E+02  0.92795364102E+02  0.10566000000E+00 0. -1.
        994    1    1    2    0    0  0.63709377441E+00  0.11705357497E+02  0.24814338681E+01  0.17161881831E+03  0.17120000000E+03 0.  0.
        998    1    1    2    0    0 -0.82135099448E+01  0.58480871595E+01  0.14067141411E+04  0.14067858176E+04  0.10000000000E+02 0. -1.
</event>
<event>
 5    1  0.1488417E-008  0.3746577E+03  0.7957747E-01  0.3474755E+00
         13   -1    0    0    0    0  0.00000000000E+00  0.00000000000E+00  0.14999999963E+04  0.15000000000E+04  0.10566000000E+00 0.  1.
        994   -1    0    0    0    0 -0.00000000000E+00 -0.00000000000E+00  0.11368683772E-12  0.17120000000E+03  0.17120000000E+03 0.  0.
         13    1    1    2    0    0  0.23173152799E+01 -0.51087206467E+02  0.16647509880E+03  0.17415292791E+03  0.10566000000E+00 0.  1.
        994    1    1    2    0    0 -0.64686083207E+01  0.53166923845E+02  0.16680108460E+02  0.18015612869E+03  0.17120000000E+03 0.  0.
        998    1    1    2    0    0  0.41512930408E+01 -0.20797173780E+01  0.13168447890E+04  0.13168909434E+04  0.10000000000E+02 0.  1.
</event>
<event>
 5    1  0.1488417E-008  0.3837005E+03  0.7957747E-01  0.3435202E+00
         13   -1    0    0    0    0  0.00000000000E+00  0.00000000000E+00  0.14999999963E+04  0.15000000000E+04  0.10566000000E+00 0. -1.
        994   -1    0    0    0    0 -0.00000000000E+00 -0.00000000000E+00  0.11368683772E-12  0.17120000000E+03  0.17120000000E+03 0.  0.
         13    1    1    2    0    0  0.10231945423E+02 -0.16317282668E+02  0.99309922276E+02  0.10116035907E+03  0.10566000000E+00 0. -1.
        994    1    1    2    0    0  0.21221918039E+02 -0.66478232473E+01  0.39117239601E+01  0.17268267123E+03  0.17120000000E+03 0.  0.
        998    1    1    2    0    0 -0.31453863462E+02  0.22965105916E+02  0.13967783500E+04  0.13973569697E+04  0.10000000000E+02 0. -1.
</event>
<event>
 5    1  0.1488417E-008  0.3166594E+03  0.7957747E-01  0.3783825E+00
         13   -1    0    0    0    0  0.00000000000E+00  0.00000000000E+00  0.14999999963E+04  0.15000000000E+04  0.10566000000E+00 0.  1.
        994   -1    0    0    0    0 -0.00000000000E+00 -0.00000000000E+00  0.11368683772E-12  0.17120000000E+03  0.17120000000E+03 0.  0.
         13    1    1    2    0    0  0.25293864113E+03  0.91751574054E+02  0.52637729655E+03  0.59115934992E+03  0.10566000000E+00 0.  1.
        994    1    1    2    0    0 -0.23407992172E+03 -0.92980037941E+02  0.38435162245E+03  0.49038179706E+03  0.17120000000E+03 0.  0.
        998    1    1    2    0    0 -0.18858719406E+02  0.12284638872E+01  0.58927107728E+03  0.58965885302E+03  0.10000000000E+02 0.  1.
</event>
<event>
 5    1  0.1488417E-008  0.3813719E+03  0.7957747E-01  0.3445207E+00
         13   -1    0    0    0    0  0.00000000000E+00  0.00000000000E+00  0.14999999963E+04  0.15000000000E+04  0.10566000000E+00 0.  1.
        994   -1    0    0    0    0 -0.00000000000E+00 -0.00000000000E+00  0.11368683772E-12  0.17120000000E+03  0.17120000000E+03 0.  0.
         13    1    1    2    0    0 -0.31586157682E+02 -0.14646775032E+02  0.27649517075E+02  0.44460323148E+02  0.10566000000E+00 0.  1.
        994    1    1    2    0    0  0.38529691992E+02  0.13966196329E+02  0.23224510615E+02  0.17756241071E+03  0.17120000000E+03 0.  0.
        998    1    1    2    0    0 -0.69435343104E+01  0.68057870317E+00  0.14491259686E+04  0.14491772661E+04  0.10000000000E+02 0.  1.
</event>
<event>
 5    1  0.1488417E-008  0.3792344E+03  0.7957747E-01  0.3454499E+00
         13   -1    0    0    0    0  0.00000000000E+00  0.00000000000E+00  0.14999999963E+04  0.15000000000E+04  0.10566000000E+00 0.  1.
        994   -1    0    0    0    0 -0.00000000000E+00 -0.00000000000E+00  0.11368683772E-12  0.17120000000E+03  0.17120000000E+03 0.  0.
         13    1    1    2    0    0 -0.10305068682E+02  0.88856898888E+02  0.53416943107E+03  0.54160754720E+03  0.10566000000E+00 0.  1.
        994    1    1    2    0    0  0.11109258579E+02 -0.92503608268E+02  0.34183846911E+02  0.19788458393E+03  0.17120000000E+03 0.  0.
        998    1    1    2    0    0 -0.80418989691E+00  0.36467093805E+01  0.93164671829E+03  0.93170786887E+03  0.10000000000E+02 0.  0.
</event>
<event>
 5    1  0.1488417E-008  0.3857100E+03  0.7957747E-01  0.3426667E+00
         13   -1    0    0    0    0  0.00000000000E+00  0.00000000000E+00  0.14999999963E+04  0.15000000000E+04  0.10566000000E+00 0.  1.
        994   -1    0    0    0    0 -0.00000000000E+00 -0.00000000000E+00  0.11368683772E-12  0.17120000000E+03  0.17120000000E+03 0.  0.
         13    1    1    2    0    0  0.13633393668E+02  0.39486713920E+01  0.82805401357E+02  0.84013136393E+02  0.10566000000E+00 0.  1.
        994    1    1    2    0    0 -0.34981193796E+01 -0.27089303571E+01  0.13422840351E+01  0.17126242107E+03  0.17120000000E+03 0.  0.
        998    1    1    2    0    0 -0.10135274289E+02 -0.12397410348E+01  0.14158523109E+04  0.14159244425E+04  0.10000000000E+02 0.  1.
</event>
<event>
 5    1  0.1488417E-008  0.3746443E+03  0.7957747E-01  0.3474815E+00
         13   -1    0    0    0    0  0.00000000000E+00  0.00000000000E+00  0.14999999963E+04  0.15000000000E+04  0.10566000000E+00 0. -1.
        994   -1    0    0    0    0 -0.00000000000E+00 -0.00000000000E+00  0.11368683772E-12  0.17120000000E+03  0.17120000000E+03 0.  0.
         13    1    1    2    0    0  0.38607933190E+01 -0.21242451365E+02  0.30347307415E+02  0.37244029004E+02  0.10566000000E+00 0. -1.
        994    1    1    2    0    0  0.96417575568E+00  0.25077391489E+02  0.90078750933E+01  0.17326392300E+03  0.17120000000E+03 0.  0.
        998    1    1    2    0    0 -0.48249690747E+01 -0.38349401233E+01  0.14606448138E+04  0.14606920480E+04  0.10000000000E+02 0. -1.
</event>
<event>
 5    1  0.1488417E-008  0.3745087E+03  0.7957747E-01  0.3475423E+00
         13   -1    0    0    0    0  0.00000000000E+00  0.00000000000E+00  0.14999999963E+04  0.15000000000E+04  0.10566000000E+00 0. -1.
        994   -1    0    0    0    0 -0.00000000000E+00 -0.00000000000E+00  0.11368683772E-12  0.17120000000E+03  0.17120000000E+03 0.  0.
         13    1    1    2    0    0  0.16249297958E+02 -0.45619307388E+00  0.14149496876E+02  0.21551501622E+02  0.10566000000E+00 0. -1.
        994    1    1    2    0    0 -0.62671473026E+02 -0.11596068336E+02  0.20890631025E+02  0.18386962989E+03  0.17120000000E+03 0.  0.
        998    1    1    2    0    0  0.46422175067E+02  0.12052261410E+02  0.14649598684E+04  0.14657788685E+04  0.10000000000E+02 0. -1.
</event>
<event>
 5    1  0.1488417E-008  0.3794628E+03  0.7957747E-01  0.3453501E+00
         13   -1    0    0    0    0  0.00000000000E+00  0.00000000000E+00  0.14999999963E+04  0.15000000000E+04  0.10566000000E+00 0.  1.
        994   -1    0    0    0    0 -0.00000000000E+00 -0.00000000000E+00  0.11368683772E-12  0.17120000000E+03  0.17120000000E+03 0.  0.
         13    1    1    2    0    0 -0.14287001760E+02 -0.53798550769E+01  0.24022801614E+02  0.28463440083E+02  0.10566000000E+00 0.  1.
        994    1    1    2    0    0  0.17265983856E+02  0.10076825459E+02  0.57441190473E+01  0.17245895603E+03  0.17120000000E+03 0.  0.
        998    1    1    2    0    0 -0.29789820961E+01 -0.46969703824E+01  0.14702330756E+04  0.14702776039E+04  0.10000000000E+02 0.  1.
</event>
<event>
 5    1  0.1488417E-008  0.3796466E+03  0.7957747E-01  0.3452699E+00
         13   -1    0    0    0    0  0.00000000000E+00  0.00000000000E+00  0.14999999963E+04  0.15000000000E+04  0.10566000000E+00 0. -1.
        994   -1    0    0    0    0 -0.00000000000E+00 -0.00000000000E+00  0.11368683772E-12  0.17120000000E+03  0.17120000000E+03 0.  0.
         13    1    1    2    0    0  0.29668685509E+02  0.16907587859E+02  0.13027122914E+03  0.13467257231E+03  0.10566000000E+00 0. -1.
        994    1    1    2    0    0 -0.39408932838E+02  0.16664905076E+02  0.10463402230E+02  0.17677586327E+03  0.17120000000E+03 0.  0.
        998    1    1    2    0    0  0.97402473297E+01 -0.33572492935E+02  0.13592653649E+04  0.13597515644E+04  0.10000000000E+02 0. -1.
</event>
<event>
 5    1  0.1488417E-008  0.3840692E+03  0.7957747E-01  0.3433630E+00
         13   -1    0    0    0    0  0.00000000000E+00  0.00000000000E+00  0.14999999963E+04  0.15000000000E+04  0.10566000000E+00 0. -1.
        994   -1    0    0    0    0 -0.00000000000E+00 -0.00000000000E+00  0.11368683772E-12  0.17120000000E+03  0.17120000000E+03 0.  0.
         13    1    1    2    0    0 -0.69122044998E+01  0.21013760060E+02  0.12793510854E+03  0.12983358519E+03  0.10566000000E+00 0. -1.
        994    1    1    2    0    0  0.12180758825E+02  0.15610532785E+01  0.25905899971E+01  0.17165942715E+03  0.17120000000E+03 0.  0.
        998    1    1    2    0    0 -0.52685543254E+01 -0.22574813338E+02  0.13694742977E+04  0.13697069877E+04  0.10000000000E+02 0. -1.
</event>
<event>
 5    1  0.1488417E-008  0.3735799E+03  0.7957747E-01  0.3479598E+00
         13   -1    0    0    0    0  0.00000000000E+00  0.00000000000E+00  0.14999999963E+04  0.15000000000E+04  0.10566000000E+00 0. -1.
        994   -1    0    0    0    0 -0.00000000000E+00 -0.00000000000E+00  0.11368683772E-12  0.17120000000E+03  0.17120000000E+03 0.  0.
         13    1    1    2    0    0 -0.21695383477E+02  0.23627767416E+02  0.32913581987E+02  0.45959505007E+02  0.10566000000E+00 0. -1.
        994    1    1    2    0    0  0.23642028519E+02 -0.41337251873E+02  0.20916638105E+02  0.17892640849E+03  0.17120000000E+03 0.  0.
        998    1    1    2    0    0 -0.19466450416E+01  0.17709484457E+02  0.14461697762E+04  0.14463140865E+04  0.10000000000E+02 0. -1.
</event>
<event>
 5    1  0.1488417E-008  0.3808660E+03  0.7957747E-01  0.3447396E+00
         13   -1    0    0    0    0  0.00000000000E+00  0.00000000000E+00  0.14999999963E+04  0.15000000000E+04  0.10566000000E+00 0. -1.
        994   -1    0    0    0    0 -0.00000000000E+00 -0.00000000000E+00  0.11368683772E-12  0.17120000000E+03  0.17120000000E+03 0.  0.
         13    1    1    2    0    0 -0.39837099756E+01 -0.14045594176E+02  0.25514027670E+02  0.29396010494E+02  0.10566000000E+00 0. -1.
        994    1    1    2    0    0  0.14038766392E+02  0.30515896001E+02  0.74668521940E+01  0.17462388368E+03  0.17120000000E+03 0.  0.
        998    1    1    2    0    0 -0.10055056416E+02 -0.16470301825E+02  0.14670191164E+04  0.14671801058E+04  0.10000000000E+02 0. -1.
</event>
<event>
 5    1  0.1488417E-008  0.3856810E+03  0.7957747E-01  0.3426789E+00
         13   -1    0    0    0    0  0.00000000000E+00  0.00000000000E+00  0.14999999963E+04  0.15000000000E+04  0.10566000000E+00 0. -1.
        994   -1    0    0    0    0 -0.00000000000E+00 -0.00000000000E+00  0.11368683772E-12  0.17120000000E+03  0.17120000000E+03 0.  0.
         13    1    1    2    0    0  0.12720597368E+01  0.10381721165E+02  0.41276452950E+02  0.42581157834E+02  0.10566000000E+00 0. -1.
        994    1    1    2    0    0 -0.28224718134E+01 -0.12305115772E+02  0.18155695894E+01  0.17167445504E+03  0.17120000000E+03 0.  0.
        998    1    1    2    0    0  0.15504120765E+01  0.19233946071E+01  0.14569079737E+04  0.14569443871E+04  0.10000000000E+02 0. -1.
</event>
<event>
 5    1  0.1488417E-008  0.3855657E+03  0.7957747E-01  0.3427277E+00
         13   -1    0    0    0    0  0.00000000000E+00  0.00000000000E+00  0.14999999963E+04  0.15000000000E+04  0.10566000000E+00 0. -1.
        994   -1    0    0    0    0 -0.00000000000E+00 -0.00000000000E+00  0.11368683772E-12  0.17120000000E+03  0.17120000000E+03 0.  0.
         13    1    1    2    0    0  0.85403100065E+01  0.66860716349E+01  0.44059620715E+02  0.45375123035E+02  0.10566000000E+00 0. -1.
        994    1    1    2    0    0 -0.47673370591E+01 -0.40003871238E+01  0.14766901939E+01  0.17131944202E+03  0.17120000000E+03 0.  0.
        998    1    1    2    0    0 -0.37729729474E+01 -0.26856845112E+01  0.14544636854E+04  0.14545054349E+04  0.10000000000E+02 0. -1.
</event>
<event>
 5    1  0.1488417E-008  0.3800764E+03  0.7957747E-01  0.3450826E+00
         13   -1    0    0    0    0  0.00000000000E+00  0.00000000000E+00  0.14999999963E+04  0.15000000000E+04  0.10566000000E+00 0. -1.
        994   -1    0    0    0    0 -0.00000000000E+00 -0.00000000000E+00  0.11368683772E-12  0.17120000000E+03  0.17120000000E+03 0.  0.
         13    1    1    2    0    0 -0.21764178773E+01  0.15684780149E+02  0.29224853452E+02  0.33239319283E+02  0.10566000000E+00 0. -1.
        994    1    1    2    0    0  0.20440485012E+01 -0.79745296557E+01  0.43211090801E+01  0.17145227686E+03  0.17120000000E+03 0.  0.
        998    1    1    2    0    0  0.13236937604E+00 -0.77102504932E+01  0.14664540337E+04  0.14665084039E+04  0.10000000000E+02 0. -1.
</event>
<event>
 5    1  0.1488417E-008  0.3852939E+03  0.7957747E-01  0.3428427E+00
         13   -1    0    0    0    0  0.00000000000E+00  0.00000000000E+00  0.14999999963E+04  0.15000000000E+04  0.10566000000E+00 0. -1.
        994   -1    0    0    0    0 -0.00000000000E+00 -0.00000000000E+00  0.11368683772E-12  0.17120000000E+03  0.17120000000E+03 0.  0.
         13    1    1    2    0    0 -0.11595484430E+02 -0.95617440607E+01  0.77506372532E+02  0.78950181480E+02  0.10566000000E+00 0. -1.
        994    1    1    2    0    0  0.66286206901E+01  0.40801159156E+01  0.16833722796E+01  0.17138512100E+03  0.17120000000E+03 0.  0.
        998    1    1    2    0    0  0.49668637402E+01  0.54816281452E+01  0.14208102515E+04  0.14208646975E+04  0.10000000000E+02 0.  0.
</event>
<event>
 5    1  0.1488417E-008  0.3701069E+03  0.7957747E-01  0.3495400E+00
         13   -1    0    0    0    0  0.00000000000E+00  0.00000000000E+00  0.14999999963E+04  0.15000000000E+04  0.10566000000E+00 0. -1.
        994   -1    0    0    0    0 -0.00000000000E+00 -0.00000000000E+00  0.11368683772E-12  0.17120000000E+03  0.17120000000E+03 0.  0.
         13    1    1    2    0    0  0.23851501372E+02 -0.19757750219E+01  0.26607753252E+02  0.35788007793E+02  0.10566000000E+00 0. -1.
        994    1    1    2    0    0 -0.26958598906E+02 -0.31757596772E+01  0.11764253774E+02  0.17373741443E+03  0.17120000000E+03 0.  0.
        998    1    1    2    0    0  0.31070975347E+01  0.51515346991E+01  0.14616279893E+04  0.14616745778E+04  0.10000000000E+02 0. -1.
</event>
<event>
 5    1  0.1488417E-008  0.2566292E+03  0.7957747E-01  0.4264330E+00
         13   -1    0    0    0    0  0.00000000000E+00  0.00000000000E+00  0.14999999963E+04  0.15000000000E+04  0.10566000000E+00 0.  1.
        994   -1    0    0    0    0 -0.00000000000E+00 -0.00000000000E+00  0.11368683772E-12  0.17120000000E+03  0.17120000000E+03 0.  0.
         13    1    1    2    0    0 -0.79499124877E+02 -0.15343917462E+03  0.36487108071E+03  0.40372590686E+03  0.10566000000E+00 0.  1.
        994    1    1    2    0    0  0.12322550385E+03  0.11202019043E+03  0.15341556422E+03  0.28386409285E+03  0.17120000000E+03 0.  0.
        998    1    1    2    0    0 -0.43726378974E+02  0.41418984194E+02  0.98171335134E+03  0.98361000029E+03  0.10000000000E+02 0.  1.
</event>
<event>
 5    1  0.1488417E-008  0.3859025E+03  0.7957747E-01  0.3425853E+00
         13   -1    0    0    0    0  0.00000000000E+00  0.00000000000E+00  0.14999999963E+04  0.15000000000E+04  0.10566000000E+00 0.  1.
        994   -1    0    0    0    0 -0.00000000000E+00 -0.00000000000E+00  0.11368683772E-12  0.17120000000E+03  0.17120000000E+03 0.  0.
         13    1    1    2    0    0 -0.45909378656E+01  0.94076366340E+01  0.45842128142E+02  0.47022252329E+02  0.10566000000E+00 0.  1.
        994    1    1    2    0    0 -0.80447291574E+00 -0.11944720438E+02  0.16528128584E+01  0.17162603332E+03  0.17120000000E+03 0.  0.
        998    1    1    2    0    0  0.53954107813E+01  0.25370838037E+01  0.14525050553E+04  0.14525517144E+04  0.10000000000E+02 0.  1.
</event>
<event>
 5    1  0.1488417E-008  0.3695773E+03  0.7957747E-01  0.3497836E+00
         13   -1    0    0    0    0  0.00000000000E+00  0.00000000000E+00  0.14999999963E+04  0.15000000000E+04  0.10566000000E+00 0. -1.
        994   -1    0    0    0    0 -0.00000000000E+00 -0.00000000000E+00  0.11368683772E-12  0.17120000000E+03  0.17120000000E+03 0.  0.
         13    1    1    2    0    0 -0.66766151656E+02  0.73339583643E+02  0.43225071640E+03  0.44348292699E+03  0.10566000000E+00 0. -1.
        994    1    1    2    0    0  0.22285434875E+02 -0.90755314678E+02  0.40369892268E+02  0.19917915541E+03  0.17120000000E+03 0.  0.
        998    1    1    2    0    0  0.44480716781E+02  0.17415731035E+02  0.10273793876E+04  0.10285379176E+04  0.10000000000E+02 0. -1.
</event>
<event>
 5    1  0.1488417E-008  0.3787805E+03  0.7957747E-01  0.3456486E+00
         13   -1    0    0    0    0  0.00000000000E+00  0.00000000000E+00  0.14999999963E+04  0.15000000000E+04  0.10566000000E+00 0.  1.
        994   -1    0    0    0    0 -0.00000000000E+00 -0.00000000000E+00  0.11368683772E-12  0.17120000000E+03  0.17120000000E+03 0.  0.
         13    1    1    2    0    0  0.52773032348E+01  0.10296656654E+02  0.11584047788E+02  0.16372916505E+02  0.10566000000E+00 0.  1.
        994    1    1    2    0    0 -0.51107069494E+01 -0.23253527936E+02  0.66549090406E+01  0.17297564482E+03  0.17120000000E+03 0.  0.
        998    1    1    2    0    0 -0.16659628536E+00  0.12956871282E+02  0.14817610394E+04  0.14818514387E+04  0.10000000000E+02 0.  1.
</event>
<event>
 5    1  0.1488417E-008  0.3784274E+03  0.7957747E-01  0.3458035E+00
         13   -1    0    0    0    0  0.00000000000E+00  0.00000000000E+00  0.14999999963E+04  0.15000000000E+04  0.10566000000E+00 0. -1.
        994   -1    0    0    0    0 -0.00000000000E+00 -0.00000000000E+00  0.11368683772E-12  0.17120000000E+03  0.17120000000E+03 0.  0.
         13    1    1    2    0    0  0.21203115575E+02  0.12679546756E+02  0.61922703187E+02  0.66669148412E+02  0.10566000000E+00 0. -1.
        994    1    1    2    0    0 -0.10950091230E+02  0.28559313430E+01  0.53595380638E+01  0.17165729082E+03  0.17120000000E+03 0.  0.
        998    1    1    2    0    0 -0.10253024345E+02 -0.15535478099E+02  0.14327177550E+04  0.14328735608E+04  0.10000000000E+02 0. -1.
</event>
<event>
 5    1  0.1488417E-008  0.3847265E+03  0.7957747E-01  0.3430833E+00
         13   -1    0    0    0    0  0.00000000000E+00  0.00000000000E+00  0.14999999963E+04  0.15000000000E+04  0.10566000000E+00 0.  1.
        994   -1    0    0    0    0 -0.00000000000E+00 -0.00000000000E+00  0.11368683772E-12  0.17120000000E+03  0.17120000000E+03 0.  0.
         13    1    1    2    0    0  0.13452119523E+02  0.12557169688E+02  0.10059956881E+03  0.10226889282E+03  0.10566000000E+00 0.  1.
        994    1    1    2    0    0 -0.52569924106E+01 -0.21644335016E+01  0.18723668320E+01  0.17130460151E+03  0.17120000000E+03 0.  0.
        998    1    1    2    0    0 -0.81951271125E+01 -0.10392736186E+02  0.13975280606E+04  0.13976265057E+04  0.10000000000E+02 0.  1.
</event>
<event>
 5    1  0.1488417E-008  0.3824702E+03  0.7957747E-01  0.3440473E+00
         13   -1    0    0    0    0  0.00000000000E+00  0.00000000000E+00  0.14999999963E+04  0.15000000000E+04  0.10566000000E+00 0. -1.
        994   -1    0    0    0    0 -0.00000000000E+00 -0.00000000000E+00  0.11368683772E-12  0.17120000000E+03  0.17120000000E+03 0.  0.
         13    1    1    2    0    0  0.13180603395E+01 -0.18607139138E+02  0.58300931954E+02  0.61212521111E+02  0.10566000000E+00 0. -1.
        994    1    1    2    0    0 -0.47797844599E+01  0.15303330598E+02  0.37441346549E+01  0.17198981601E+03  0.17120000000E+03 0.  0.
        998    1    1    2    0    0  0.34617241204E+01  0.33038085408E+01  0.14379549297E+04  0.14379976629E+04  0.10000000000E+02 0. -1.
</event>
<event>
 5    1  0.1488417E-008  0.3805600E+03  0.7957747E-01  0.3448724E+00
         13   -1    0    0    0    0  0.00000000000E+00  0.00000000000E+00  0.14999999963E+04  0.15000000000E+04  0.10566000000E+00 0.  1.
        994   -1    0    0    0    0 -0.00000000000E+00 -0.00000000000E+00  0.11368683772E-12  0.17120000000E+03  0.17120000000E+03 0.  0.
         13    1    1    2    0    0  0.16455386189E+02  0.18829254250E+02  0.83431009752E+02  0.87098020084E+02  0.10566000000E+00 0.  1.
        994    1    1    2    0    0  0.44973215054E+01 -0.12825823200E+02  0.44673642847E+01  0.17179675487E+03  0.17120000000E+03 0.  0.
        998    1    1    2    0    0 -0.20952707694E+02 -0.60034310499E+01  0.14121016222E+04  0.14123052250E+04  0.10000000000E+02 0.  1.
</event>
<event>
 5    1  0.1488417E-008  0.3850222E+03  0.7957747E-01  0.3429578E+00
         13   -1    0    0    0    0  0.00000000000E+00  0.00000000000E+00  0.14999999963E+04  0.15000000000E+04  0.10566000000E+00 0. -1.
        994   -1    0    0    0    0 -0.00000000000E+00 -0.00000000000E+00  0.11368683772E-12  0.17120000000E+03  0.17120000000E+03 0.  0.
         13    1    1    2    0    0 -0.52260433672E+01 -0.13076851138E+02  0.62226935828E+02  0.63800613410E+02  0.10566000000E+00 0. -1.
        994    1    1    2    0    0  0.48853354293E+01  0.53668325100E+01  0.17923597003E+01  0.17136312890E+03  0.17120000000E+03 0.  0.
        998    1    1    2    0    0  0.34070793785E+00  0.77100186276E+01  0.14359807008E+04  0.14360362577E+04  0.10000000000E+02 0. -1.
</event>
<event>
 5    1  0.1488417E-008  0.3827738E+03  0.7957747E-01  0.3439169E+00
         13   -1    0    0    0    0  0.00000000000E+00  0.00000000000E+00  0.14999999963E+04  0.15000000000E+04  0.10566000000E+00 0.  1.
        994   -1    0    0    0    0 -0.00000000000E+00 -0.00000000000E+00  0.11368683772E-12  0.17120000000E+03  0.17120000000E+03 0.  0.
         13    1    1    2    0    0  0.21859333986E+02  0.15252965595E+02  0.14062026768E+03  0.14312426170E+03  0.10566000000E+00 0.  1.
        994    1    1    2    0    0 -0.58508362087E+01  0.72153219045E+00  0.28545986329E+01  0.17132525099E+03  0.17120000000E+03 0.  0.
        998    1    1    2    0    0 -0.16008497778E+02 -0.15974497785E+02  0.13565251300E+04  0.13567504873E+04  0.10000000000E+02 0.  1.
</event>
<event>
 5    1  0.1488417E-008  0.3696137E+03  0.7957747E-01  0.3497668E+00
         13   -1    0    0    0    0  0.00000000000E+00  0.00000000000E+00  0.14999999963E+04  0.15000000000E+04  0.10566000000E+00 0.  1.
        994   -1    0    0    0    0 -0.00000000000E+00 -0.00000000000E+00  0.11368683772E-12  0.17120000000E+03  0.17120000000E+03 0.  0.
         13    1    1    2    0    0 -0.11674079224E+02  0.42706064200E+02  0.91495508833E+02  0.10164414073E+03  0.10566000000E+00 0.  1.
        994    1    1    2    0    0 -0.21775405231E+02 -0.21913880542E+02  0.14073951228E+02  0.17453338516E+03  0.17120000000E+03 0.  0.
        998    1    1    2    0    0  0.33449484455E+02 -0.20792183657E+02  0.13944305362E+04  0.13950224741E+04  0.10000000000E+02 0.  1.
</event>
<event>
 5    1  0.1488417E-008  0.3780087E+03  0.7957747E-01  0.3459875E+00
         13   -1    0    0    0    0  0.00000000000E+00  0.00000000000E+00  0.14999999963E+04  0.15000000000E+04  0.10566000000E+00 0. -1.
        994   -1    0    0    0    0 -0.00000000000E+00 -0.00000000000E+00  0.11368683772E-12  0.17120000000E+03  0.17120000000E+03 0.  0.
         13    1    1    2    0    0  0.79348866834E+01 -0.16093620965E+02  0.28773989966E+02  0.33910481050E+02  0.10566000000E+00 0. -1.
        994    1    1    2    0    0 -0.44213265746E+01  0.17372330961E+02  0.62238187346E+01  0.17224843085E+03  0.17120000000E+03 0.  0.
        998    1    1    2    0    0 -0.35135601087E+01 -0.12787099963E+01  0.14650021876E+04  0.14650410881E+04  0.10000000000E+02 0. -1.
</event>
<event>
 5    1  0.1488417E-008  0.3748416E+03  0.7957747E-01  0.3473932E+00
         13   -1    0    0    0    0  0.00000000000E+00  0.00000000000E+00  0.14999999963E+04  0.15000000000E+04  0.10566000000E+00 0. -1.
        994   -1    0    0    0    0 -0.00000000000E+00 -0.00000000000E+00  0.11368683772E-12  0.17120000000E+03  0.17120000000E+03 0.  0.
         13    1    1    2    0    0  0.11689834122E+02 -0.35805122083E+01  0.79378925705E+01  0.14577159942E+02  0.10566000000E+00 0. -1.
        994    1    1    2    0    0 -0.10181303187E+02  0.61137148958E+01  0.72399264323E+01  0.17176406195E+03  0.17120000000E+03 0.  0.
        998    1    1    2    0    0 -0.15085309346E+01 -0.25332026875E+01  0.14848221773E+04  0.14848587781E+04  0.10000000000E+02 0. -1.
</event>
<event>
 5    1  0.1488417E-008  0.4105042E+03  0.7957747E-01  0.3328220E+00
         13   -1    0    0    0    0  0.00000000000E+00  0.00000000000E+00  0.14999999963E+04  0.15000000000E+04  0.10566000000E+00 0.  1.
        994   -1    0    0    0    0 -0.00000000000E+00 -0.00000000000E+00  0.11368683772E-12  0.17120000000E+03  0.17120000000E+03 0.  0.
         13    1    1    2    0    0 -0.26574542062E+02 -0.13724697265E+02 -0.12305828504E+01  0.29934914381E+02  0.10566000000E+00 0.  1.
        994    1    1    2    0    0  0.26740944557E+02  0.12685035705E+02  0.37805149500E+02  0.17780511122E+03  0.17120000000E+03 0.  0.
        998    1    1    2    0    0 -0.16640249411E+00  0.10396615594E+01  0.14634254296E+04  0.14634599744E+04  0.10000000000E+02 0.  1.
</event>
<event>
 5    1  0.1488417E-008  0.3782343E+03  0.7957747E-01  0.3458883E+00
         13   -1    0    0    0    0  0.00000000000E+00  0.00000000000E+00  0.14999999963E+04  0.15000000000E+04  0.10566000000E+00 0. -1.
        994   -1    0    0    0    0 -0.00000000000E+00 -0.00000000000E+00  0.11368683772E-12  0.17120000000E+03  0.17120000000E+03 0.  0.
         13    1    1    2    0    0 -0.28477175063E+02  0.48331508253E-01  0.19538496394E+02  0.34535718334E+02  0.10566000000E+00 0. -1.
        994    1    1    2    0    0  0.31246154130E+02  0.99929356766E+00  0.18887242633E+02  0.17505281680E+03  0.17120000000E+03 0.  0.
        998    1    1    2    0    0 -0.27689790675E+01 -0.10476250759E+01  0.14615742573E+04  0.14616114649E+04  0.10000000000E+02 0. -1.
</event>
<event>
 5    1  0.1488417E-008  0.3806745E+03  0.7957747E-01  0.3448227E+00
         13   -1    0    0    0    0  0.00000000000E+00  0.00000000000E+00  0.14999999963E+04  0.15000000000E+04  0.10566000000E+00 0.  1.
        994   -1    0    0    0    0 -0.00000000000E+00 -0.00000000000E+00  0.11368683772E-12  0.17120000000E+03  0.17120000000E+03 0.  0.
         13    1    1    2    0    0  0.13858210174E+02  0.15889488439E+02  0.55563259982E+02  0.59429057337E+02  0.10566000000E+00 0.  1.
        994    1    1    2    0    0 -0.16624923871E+02 -0.13248533629E+02  0.53018570194E+01  0.17259623815E+03  0.17120000000E+03 0.  0.
        998    1    1    2    0    0  0.27667136973E+01 -0.26409548103E+01  0.14391348793E+04  0.14391747045E+04  0.10000000000E+02 0.  1.
</event>
<event>
 5    1  0.1488417E-008  0.3856709E+03  0.7957747E-01  0.3426832E+00
         13   -1    0    0    0    0  0.00000000000E+00  0.00000000000E+00  0.14999999963E+04  0.15000000000E+04  0.10566000000E+00 0. -1.
        994   -1    0    0    0    0 -0.00000000000E+00 -0.00000000000E+00  0.11368683772E-12  0.17120000000E+03  0.17120000000E+03 0.  0.
         13    1    1    2    0    0 -0.63299977272E+01 -0.11164258878E+02  0.62549685025E+02  0.63852829290E+02  0.10566000000E+00 0. -1.
        994    1    1    2    0    0  0.86733619375E+01  0.85329034864E+01  0.17833642188E+01  0.17164107328E+03  0.17120000000E+03 0.  0.
        998    1    1    2    0    0 -0.23433642102E+01  0.26313553916E+01  0.14356669470E+04  0.14357060974E+04  0.10000000000E+02 0.  0.
</event>
<event>
 5    1  0.1488417E-008  0.3793985E+03  0.7957747E-01  0.3453782E+00
         13   -1    0    0    0    0  0.00000000000E+00  0.00000000000E+00  0.14999999963E+04  0.15000000000E+04  0.10566000000E+00 0. -1.
        994   -1    0    0    0    0 -0.00000000000E+00 -0.00000000000E+00  0.11368683772E-12  0.17120000000E+03  0.17120000000E+03 0.  0.
         13    1    1    2    0    0 -0.74448079180E+01 -0.23588097410E+02  0.65831764775E+02  0.70325357601E+02  0.10566000000E+00 0. -1.
        994    1    1    2    0    0  0.11391583590E+02  0.18585258331E+02  0.60303512449E+01  0.17268753615E+03  0.17120000000E+03 0.  0.
        998    1    1    2    0    0 -0.39467756717E+01  0.50028390786E+01  0.14281378803E+04  0.14281871063E+04  0.10000000000E+02 0. -1.
</event>
<event>
 5    1  0.1488417E-008  0.3840148E+03  0.7957747E-01  0.3433861E+00
         13   -1    0    0    0    0  0.00000000000E+00  0.00000000000E+00  0.14999999963E+04  0.15000000000E+04  0.10566000000E+00 0. -1.
        994   -1    0    0    0    0 -0.00000000000E+00 -0.00000000000E+00  0.11368683772E-12  0.17120000000E+03  0.17120000000E+03 0.  0.
         13    1    1    2    0    0 -0.78059043789E+02 -0.15749185648E+03  0.10156881661E+04  0.10307857979E+04  0.10566000000E+00 0. -1.
        994    1    1    2    0    0  0.84626449206E+02  0.17121821340E+03  0.13354108993E+03  0.28917118668E+03  0.17120000000E+03 0.  0.
        998    1    1    2    0    0 -0.65674054175E+01 -0.13726356918E+02  0.35077074025E+03  0.35124301545E+03  0.10000000000E+02 0.  1.
</event>
<event>
 5    1  0.1488417E-008  0.3837057E+03  0.7957747E-01  0.3435180E+00
         13   -1    0    0    0    0  0.00000000000E+00  0.00000000000E+00  0.14999999963E+04  0.15000000000E+04  0.10566000000E+00 0. -1.
        994   -1    0    0    0    0 -0.00000000000E+00 -0.00000000000E+00  0.11368683772E-12  0.17120000000E+03  0.17120000000E+03 0.  0.
         13    1    1    2    0    0 -0.10164957886E+02  0.15804749281E+02  0.75960353400E+02  0.78250258283E+02  0.10566000000E+00 0. -1.
        994    1    1    2    0    0  0.16249158422E+01 -0.16393305881E+02  0.31708610328E+01  0.17201998485E+03  0.17120000000E+03 0.  0.
        998    1    1    2    0    0  0.85400420440E+01  0.58855659957E+00  0.14208687818E+04  0.14209297569E+04  0.10000000000E+02 0. -1.
</event>
<event>
 5    1  0.1488417E-008  0.3714906E+03  0.7957747E-01  0.3489069E+00
         13   -1    0    0    0    0  0.00000000000E+00  0.00000000000E+00  0.14999999963E+04  0.15000000000E+04  0.10566000000E+00 0. -1.
        994   -1    0    0    0    0 -0.00000000000E+00 -0.00000000000E+00  0.11368683772E-12  0.17120000000E+03  0.17120000000E+03 0.  0.
         13    1    1    2    0    0 -0.15348705676E+02 -0.25076553887E+02  0.46433789985E+02  0.54959297095E+02  0.10566000000E+00 0. -1.
        994    1    1    2    0    0  0.45935915994E+01  0.30104419623E+02  0.11688849217E+02  0.17427979332E+03  0.17120000000E+03 0.  0.
        998    1    1    2    0    0  0.10755114076E+02 -0.50278657359E+01  0.14418773571E+04  0.14419609096E+04  0.10000000000E+02 0. -1.
</event>
<event>
 5    1  0.1488417E-008  0.3824101E+03  0.7957747E-01  0.3440731E+00
         13   -1    0    0    0    0  0.00000000000E+00  0.00000000000E+00  0.14999999963E+04  0.15000000000E+04  0.10566000000E+00 0.  1.
        994   -1    0    0    0    0 -0.00000000000E+00 -0.00000000000E+00  0.11368683772E-12  0.17120000000E+03  0.17120000000E+03 0.  0.
         13    1    1    2    0    0  0.14512180792E+02  0.15579268903E+02  0.84940079540E+02  0.87567946688E+02  0.10566000000E+00 0.  1.
        994    1    1    2    0    0 -0.45426848746E+00  0.69555054801E+01  0.30826174172E+01  0.17136956540E+03  0.17120000000E+03 0.  0.
        998    1    1    2    0    0 -0.14057912304E+02 -0.22534774383E+02  0.14119772993E+04  0.14122624879E+04  0.10000000000E+02 0.  1.
</event>
<event>
 5    1  0.1488417E-008  0.3849465E+03  0.7957747E-01  0.3429899E+00
         13   -1    0    0    0    0  0.00000000000E+00  0.00000000000E+00  0.14999999963E+04  0.15000000000E+04  0.10566000000E+00 0.  1.
        994   -1    0    0    0    0 -0.00000000000E+00 -0.00000000000E+00  0.11368683772E-12  0.17120000000E+03  0.17120000000E+03 0.  0.
         13    1    1    2    0    0  0.14734620576E+02 -0.79588787038E+01  0.86104238108E+02  0.87717750643E+02  0.10566000000E+00 0.  1.
        994    1    1    2    0    0 -0.37158513320E+01  0.11206683872E+02  0.21153309006E+01  0.17161967236E+03  0.17120000000E+03 0.  0.
        998    1    1    2    0    0 -0.11018769244E+02 -0.32478051686E+01  0.14117804273E+04  0.14118625770E+04  0.10000000000E+02 0.  1.
</event>
<event>
 5    1  0.1488417E-008  0.3865684E+03  0.7957747E-01  0.3423048E+00
         13   -1    0    0    0    0  0.00000000000E+00  0.00000000000E+00  0.14999999963E+04  0.15000000000E+04  0.10566000000E+00 0.  1.
        994   -1    0    0    0    0 -0.00000000000E+00 -0.00000000000E+00  0.11368683772E-12  0.17120000000E+03  0.17120000000E+03 0.  0.
         13    1    1    2    0    0  0.41921712902E+02 -0.89357303288E+02  0.24513301275E+03  0.26425813662E+03  0.10566000000E+00 0.  1.
        994    1    1    2    0    0 -0.24072097192E+02  0.48968503521E+02  0.31123206964E+02  0.18236083519E+03  0.17120000000E+03 0.  0.
        998    1    1    2    0    0 -0.17849615710E+02  0.40388799767E+02  0.12237437766E+04  0.12245810282E+04  0.10000000000E+02 0.  1.
</event>
<event>
 5    1  0.1488417E-008  0.3802872E+03  0.7957747E-01  0.3449909E+00
         13   -1    0    0    0    0  0.00000000000E+00  0.00000000000E+00  0.14999999963E+04  0.15000000000E+04  0.10566000000E+00 0. -1.
        994   -1    0    0    0    0 -0.00000000000E+00 -0.00000000000E+00  0.11368683772E-12  0.17120000000E+03  0.17120000000E+03 0.  0.
         13    1    1    2    0    0  0.31562036825E+02  0.18262775564E+02  0.19748076218E+03  0.20081920659E+03  0.10566000000E+00 0. -1.
        994    1    1    2    0    0  0.12176028650E+01  0.16490907469E+01  0.40022597456E+01  0.17125904397E+03  0.17120000000E+03 0.  0.
        998    1    1    2    0    0 -0.32779639690E+02 -0.19911866311E+02  0.12985169744E+04  0.12991217494E+04  0.10000000000E+02 0. -1.
</event>
<event>
 5    1  0.1488417E-008  0.3814336E+03  0.7957747E-01  0.3444940E+00
         13   -1    0    0    0    0  0.00000000000E+00  0.00000000000E+00  0.14999999963E+04  0.15000000000E+04  0.10566000000E+00 0.  1.
        994   -1    0    0    0    0 -0.00000000000E+00 -0.00000000000E+00  0.11368683772E-12  0.17120000000E+03  0.17120000000E+03 0.  0.
         13    1    1    2    0    0 -0.22321025380E+02  0.15958979225E+02  0.10711689334E+03  0.11057557232E+03  0.10566000000E+00 0.  1.
        994    1    1    2    0    0  0.14163673589E+02 -0.14686670398E+02  0.47975482554E+01  0.17247830126E+03  0.17120000000E+03 0.  0.
        998    1    1    2    0    0  0.81573517907E+01 -0.12723088274E+01  0.13880855547E+04  0.13881461264E+04  0.10000000000E+02 0.  0.
</event>
<event>
 5    1  0.1488417E-008  0.3857460E+03  0.7957747E-01  0.3426514E+00
         13   -1    0    0    0    0  0.00000000000E+00  0.00000000000E+00  0.14999999963E+04  0.15000000000E+04  0.10566000000E+00 0.  1.
        994   -1    0    0    0    0 -0.00000000000E+00 -0.00000000000E+00  0.11368683772E-12  0.17120000000E+03  0.17120000000E+03 0.  0.
         13    1    1    2    0    0 -0.11402386929E+02 -0.69120113624E+01  0.68056772562E+02  0.69350744656E+02  0.10566000000E+00 0.  1.
        994    1    1    2    0    0  0.11665550683E+02  0.94175477990E+01  0.19979834599E+01  0.17186682989E+03  0.17120000000E+03 0.  0.
        998    1    1    2    0    0 -0.26316375465E+00 -0.25055364366E+01  0.14299452403E+04  0.14299824255E+04  0.10000000000E+02 0.  1.
</event>
<event>
 5    1  0.1488417E-008  0.3742280E+03  0.7957747E-01  0.3476682E+00
         13   -1    0    0    0    0  0.00000000000E+00  0.00000000000E+00  0.14999999963E+04  0.15000000000E+04  0.10566000000E+00 0.  1.
        994   -1    0    0    0    0 -0.00000000000E+00 -0.00000000000E+00  0.11368683772E-12  0.17120000000E+03  0.17120000000E+03 0.  0.
         13    1    1    2    0    0 -0.77859280483E+01  0.10823788104E+02  0.93512267500E+01  0.16285934737E+02  0.10566000000E+00 0.  1.
        994    1    1    2    0    0  0.29547428657E+01 -0.11192078409E+02  0.75324697179E+01  0.17175613883E+03  0.17120000000E+03 0.  0.
        998    1    1    2    0    0  0.48311851825E+01  0.36829030539E+00  0.14831162998E+04  0.14831579264E+04  0.10000000000E+02 0.  1.
</event>
<event>
 5    1  0.1488417E-008  0.3830304E+03  0.7957747E-01  0.3438068E+00
         13   -1    0    0    0    0  0.00000000000E+00  0.00000000000E+00  0.14999999963E+04  0.15000000000E+04  0.10566000000E+00 0. -1.
        994   -1    0    0    0    0 -0.00000000000E+00 -0.00000000000E+00  0.11368683772E-12  0.17120000000E+03  0.17120000000E+03 0.  0.
         13    1    1    2    0    0 -0.21202831400E+02 -0.76049275748E+01  0.10118443280E+03  0.10366144697E+03  0.10566000000E+00 0. -1.
        994    1    1    2    0    0  0.90497402143E+01 -0.58578719049E+01  0.29958842376E+01  0.17156522895E+03  0.17120000000E+03 0.  0.
        998    1    1    2    0    0  0.12153091186E+02  0.13462799480E+02  0.13958196792E+04  0.13959733241E+04  0.10000000000E+02 0. -1.
</event>
<event>
 5    1  0.1488417E-008  0.3817798E+03  0.7957747E-01  0.3443445E+00
         13   -1    0    0    0    0  0.00000000000E+00  0.00000000000E+00  0.14999999963E+04  0.15000000000E+04  0.10566000000E+00 0.  1.
        994   -1    0    0    0    0 -0.00000000000E+00 -0.00000000000E+00  0.11368683772E-12  0.17120000000E+03  0.17120000000E+03 0.  0.
         13    1    1    2    0    0 -0.13328830416E+02  0.47726028703E+01  0.29258140069E+02  0.32503621071E+02  0.10566000000E+00 0.  1.
        994    1    1    2    0    0  0.60307859357E+01 -0.26574879332E+02  0.57092097961E+01  0.17344921351E+03  0.17120000000E+03 0.  0.
        998    1    1    2    0    0  0.72980444802E+01  0.21802276462E+02  0.14650326464E+04  0.14652471654E+04  0.10000000000E+02 0.  1.
</event>
<event>
 5    1  0.1488417E-008  0.3777320E+03  0.7957747E-01  0.3461094E+00
         13   -1    0    0    0    0  0.00000000000E+00  0.00000000000E+00  0.14999999963E+04  0.15000000000E+04  0.10566000000E+00 0. -1.
        994   -1    0    0    0    0 -0.00000000000E+00 -0.00000000000E+00  0.11368683772E-12  0.17120000000E+03  0.17120000000E+03 0.  0.
         13    1    1    2    0    0  0.47235882412E+02 -0.65324960919E+01  0.18284366066E+03  0.18895956578E+03  0.10566000000E+00 0. -1.
        994    1    1    2    0    0 -0.51403472105E+02  0.12993879831E+02  0.14810067054E+02  0.17983307800E+03  0.17120000000E+03 0.  0.
        998    1    1    2    0    0  0.41675896934E+01 -0.64613837390E+01  0.13023462686E+04  0.13024073562E+04  0.10000000000E+02 0. -1.
</event>
<event>
 5    1  0.1488417E-008  0.3856137E+03  0.7957747E-01  0.3427074E+00
         13   -1    0    0    0    0  0.00000000000E+00  0.00000000000E+00  0.14999999963E+04  0.15000000000E+04  0.10566000000E+00 0.  1.
        994   -1    0    0    0    0 -0.00000000000E+00 -0.00000000000E+00  0.11368683772E-12  0.17120000000E+03  0.17120000000E+03 0.  0.
         13    1    1    2    0    0 -0.36561156248E+01 -0.14412072691E+02  0.81565067815E+02  0.82909266505E+02  0.10566000000E+00 0.  1.
        994    1    1    2    0    0  0.10384245948E+02  0.11203813113E+02  0.20920262046E+01  0.17189291598E+03  0.17120000000E+03 0.  0.
        998    1    1    2    0    0 -0.67281303230E+01  0.32082595789E+01  0.14163429023E+04  0.14163978175E+04  0.10000000000E+02 0.  1.
</event>
<event>
 5    1  0.1488417E-008  0.2928145E+03  0.7957747E-01  0.3948691E+00
         13   -1    0    0    0    0  0.00000000000E+00  0.00000000000E+00  0.14999999963E+04  0.15000000000E+04  0.10566000000E+00 0. -1.
        994   -1    0    0    0    0 -0.00000000000E+00 -0.00000000000E+00  0.11368683772E-12  0.17120000000E+03  0.17120000000E+03 0.  0.
         13    1    1    2    0    0 -0.64215807046E+02  0.16235293643E+03  0.69527978273E+03  0.71686549176E+03  0.10566000000E+00 0. -1.
        994    1    1    2    0    0  0.56864652555E+02 -0.96932040195E+02  0.69732274751E+02  0.21633640301E+03  0.17120000000E+03 0.  0.
        998    1    1    2    0    0  0.73511544911E+01 -0.65420896238E+02  0.73498793880E+03  0.73799810523E+03  0.10000000000E+02 0. -1.
</event>
<event>
 5    1  0.1488417E-008  0.3837625E+03  0.7957747E-01  0.3434937E+00
         13   -1    0    0    0    0  0.00000000000E+00  0.00000000000E+00  0.14999999963E+04  0.15000000000E+04  0.10566000000E+00 0.  1.
        994   -1    0    0    0    0 -0.00000000000E+00 -0.00000000000E+00  0.11368683772E-12  0.17120000000E+03  0.17120000000E+03 0.  0.
         13    1    1    2    0    0  0.16436623137E+02  0.81273399055E+01  0.72085596315E+02  0.74381184410E+02  0.10566000000E+00 0.  1.
        994    1    1    2    0    0 -0.14802933820E+02 -0.88664783303E+01  0.32294860817E+01  0.17209767828E+03  0.17120000000E+03 0.  0.
        998    1    1    2    0    0 -0.16336893176E+01  0.73913842486E+00  0.14246849139E+04  0.14247211373E+04  0.10000000000E+02 0.  0.
</event>
<event>
 5    1  0.1488417E-008  0.3856865E+03  0.7957747E-01  0.3426766E+00
         13   -1    0    0    0    0  0.00000000000E+00  0.00000000000E+00  0.14999999963E+04  0.15000000000E+04  0.10566000000E+00 0. -1.
        994   -1    0    0    0    0 -0.00000000000E+00 -0.00000000000E+00  0.11368683772E-12  0.17120000000E+03  0.17120000000E+03 0.  0.
         13    1    1    2    0    0 -0.12522824811E+02 -0.64158878835E+00  0.66463755005E+02  0.67636341347E+02  0.10566000000E+00 0. -1.
        994    1    1    2    0    0 -0.27342955867E+01  0.39483570301E+01  0.13653697838E+01  0.17127279448E+03  0.17120000000E+03 0.  0.
        998    1    1    2    0    0  0.15257120397E+02 -0.33067682418E+01  0.14321708715E+04  0.14322908642E+04  0.10000000000E+02 0. -1.
</event>
<event>
 5    1  0.1488417E-008  0.3828461E+03  0.7957747E-01  0.3438859E+00
         13   -1    0    0    0    0  0.00000000000E+00  0.00000000000E+00  0.14999999963E+04  0.15000000000E+04  0.10566000000E+00 0. -1.
        994   -1    0    0    0    0 -0.00000000000E+00 -0.00000000000E+00  0.11368683772E-12  0.17120000000E+03  0.17120000000E+03 0.  0.
         13    1    1    2    0    0 -0.55183704610E+01  0.36865218814E+02  0.19168353020E+03  0.19527438051E+03  0.10566000000E+00 0. -1.
        994    1    1    2    0    0  0.24207999737E+02 -0.53950420298E+02  0.14371041927E+02  0.18169381373E+03  0.17120000000E+03 0.  0.
        998    1    1    2    0    0 -0.18689629276E+02  0.17085201483E+02  0.12939454242E+04  0.12942318058E+04  0.10000000000E+02 0. -1.
</event>
<event>
 5    1  0.1488417E-008  0.3811141E+03  0.7957747E-01  0.3446322E+00
         13   -1    0    0    0    0  0.00000000000E+00  0.00000000000E+00  0.14999999963E+04  0.15000000000E+04  0.10566000000E+00 0. -1.
        994   -1    0    0    0    0 -0.00000000000E+00 -0.00000000000E+00  0.11368683772E-12  0.17120000000E+03  0.17120000000E+03 0.  0.
         13    1    1    2    0    0  0.58313462174E+01 -0.13931464652E+02  0.30303238563E+02  0.33858348121E+02  0.10566000000E+00 0. -1.
        994    1    1    2    0    0 -0.53865374908E+01  0.11677677677E+02  0.41228504443E+01  0.17173182826E+03  0.17120000000E+03 0.  0.
        998    1    1    2    0    0 -0.44480872664E+00  0.22537869749E+01  0.14655739073E+04  0.14656098236E+04  0.10000000000E+02 0. -1.
</event>
<event>
 5    1  0.1488417E-008  0.3851467E+03  0.7957747E-01  0.3429050E+00
         13   -1    0    0    0    0  0.00000000000E+00  0.00000000000E+00  0.14999999963E+04  0.15000000000E+04  0.10566000000E+00 0. -1.
        994   -1    0    0    0    0 -0.00000000000E+00 -0.00000000000E+00  0.11368683772E-12  0.17120000000E+03  0.17120000000E+03 0.  0.
         13    1    1    2    0    0 -0.11665925914E+02 -0.12935013550E+02  0.10290789044E+03  0.10437170824E+03  0.10566000000E+00 0. -1.
        994    1    1    2    0    0  0.21709705638E+01  0.43688805719E+01  0.16355412408E+01  0.17127730505E+03  0.17120000000E+03 0.  0.
        998    1    1    2    0    0  0.94949553498E+01  0.85661329785E+01  0.13954565646E+04  0.13955509867E+04  0.10000000000E+02 0. -1.
</event>
<event>
 5    1  0.1488417E-008  0.3852416E+03  0.7957747E-01  0.3428648E+00
         13   -1    0    0    0    0  0.00000000000E+00  0.00000000000E+00  0.14999999963E+04  0.15000000000E+04  0.10566000000E+00 0. -1.
        994   -1    0    0    0    0 -0.00000000000E+00 -0.00000000000E+00  0.11368683772E-12  0.17120000000E+03  0.17120000000E+03 0.  0.
         13    1    1    2    0    0 -0.96239492759E+01 -0.81990133092E+01  0.53592526439E+02  0.55063729196E+02  0.10566000000E+00 0. -1.
        994    1    1    2    0    0 -0.64832673370E+01  0.18387494928E+02  0.27603670087E+01  0.17232873339E+03  0.17120000000E+03 0.  0.
        998    1    1    2    0    0  0.16107216613E+02 -0.10188481619E+02  0.14436471028E+04  0.14438075374E+04  0.10000000000E+02 0. -1.
</event>
<event>
 5    1  0.1488417E-008  0.3947149E+03  0.7957747E-01  0.3389487E+00
         13   -1    0    0    0    0  0.00000000000E+00  0.00000000000E+00  0.14999999963E+04  0.15000000000E+04  0.10566000000E+00 0. -1.
        994   -1    0    0    0    0 -0.00000000000E+00 -0.00000000000E+00  0.11368683772E-12  0.17120000000E+03  0.17120000000E+03 0.  0.
         13    1    1    2    0    0  0.16963385008E+02 -0.33492631946E+02  0.17431704205E+02  0.41393094848E+02  0.10566000000E+00 0. -1.
        994    1    1    2    0    0 -0.34167722859E+02  0.44588293918E+02  0.36851214759E+02  0.18391030767E+03  0.17120000000E+03 0.  0.
        998    1    1    2    0    0  0.17204337851E+02 -0.11095661972E+02  0.14457170773E+04  0.14458965975E+04  0.10000000000E+02 0. -1.
</event>
<event>
 5    1  0.1488417E-008  0.3860179E+03  0.7957747E-01  0.3425366E+00
         13   -1    0    0    0    0  0.00000000000E+00  0.00000000000E+00  0.14999999963E+04  0.15000000000E+04  0.10566000000E+00 0.  1.
        994   -1    0    0    0    0 -0.00000000000E+00 -0.00000000000E+00  0.11368683772E-12  0.17120000000E+03  0.17120000000E+03 0.  0.
         13    1    1    2    0    0  0.10355694422E+02 -0.55067936716E+01  0.57868289413E+02  0.59045027455E+02  0.10566000000E+00 0.  1.
        994    1    1    2    0    0 -0.17303226267E+02  0.43059121855E+01  0.21684416875E+01  0.17213972423E+03  0.17120000000E+03 0.  0.
        998    1    1    2    0    0  0.69475318452E+01  0.12008814861E+01  0.14399632652E+04  0.14400152483E+04  0.10000000000E+02 0.  1.
</event>
<event>
 5    1  0.1488417E-008  0.3830786E+03  0.7957747E-01  0.3437862E+00
         13   -1    0    0    0    0  0.00000000000E+00  0.00000000000E+00  0.14999999963E+04  0.15000000000E+04  0.10566000000E+00 0. -1.
        994   -1    0    0    0    0 -0.00000000000E+00 -0.00000000000E+00  0.11368683772E-12  0.17120000000E+03  0.17120000000E+03 0.  0.
         13    1    1    2    0    0  0.12528681462E+01 -0.35188025536E+02  0.20600487586E+03  0.20899231292E+03  0.10566000000E+00 0. -1.
        994    1    1    2    0    0 -0.12030834010E+01  0.36751200749E+02  0.70744494521E+01  0.17524721396E+03  0.17120000000E+03 0.  0.
        998    1    1    2    0    0 -0.49784745172E-01 -0.15631752134E+01  0.12869206710E+04  0.12869604731E+04  0.10000000000E+02 0.  0.
</event>
<event>
 5    1  0.1488417E-008  0.3831535E+03  0.7957747E-01  0.3437541E+00
         13   -1    0    0    0    0  0.00000000000E+00  0.00000000000E+00  0.14999999963E+04  0.15000000000E+04  0.10566000000E+00 0.  1.
        994   -1    0    0    0    0 -0.00000000000E+00 -0.00000000000E+00  0.11368683772E-12  0.17120000000E+03  0.17120000000E+03 0.  0.
         13    1    1    2    0    0  0.98995656757E+01  0.88134566825E+01  0.35467359861E+02  0.37863216963E+02  0.10566000000E+00 0.  1.
        994    1    1    2    0    0 -0.93089721855E+01  0.16974549672E+02  0.37906307501E+01  0.17233282096E+03  0.17120000000E+03 0.  0.
        998    1    1    2    0    0 -0.59059349019E+00 -0.25788006354E+02  0.14607420057E+04  0.14610039621E+04  0.10000000000E+02 0.  1.
</event>
<event>
 5    1  0.1488417E-008  0.3828277E+03  0.7957747E-01  0.3438938E+00
         13   -1    0    0    0    0  0.00000000000E+00  0.00000000000E+00  0.14999999963E+04  0.15000000000E+04  0.10566000000E+00 0. -1.
        994   -1    0    0    0    0 -0.00000000000E+00 -0.00000000000E+00  0.11368683772E-12  0.17120000000E+03  0.17120000000E+03 0.  0.
         13    1    1    2    0    0 -0.82689903869E+01 -0.10270156206E+02  0.30079106073E+02  0.32842291283E+02  0.10566000000E+00 0. -1.
        994    1    1    2    0    0  0.11799521565E+02  0.14209680523E+02  0.38431601361E+01  0.17223633069E+03  0.17120000000E+03 0.  0.
        998    1    1    2    0    0 -0.35305311784E+01 -0.39395243166E+01  0.14660777301E+04  0.14661213780E+04  0.10000000000E+02 0. -1.
</event>
<event>
 5    1  0.1488417E-008  0.3826709E+03  0.7957747E-01  0.3439611E+00
         13   -1    0    0    0    0  0.00000000000E+00  0.00000000000E+00  0.14999999963E+04  0.15000000000E+04  0.10566000000E+00 0.  1.
        994   -1    0    0    0    0 -0.00000000000E+00 -0.00000000000E+00  0.11368683772E-12  0.17120000000E+03  0.17120000000E+03 0.  0.
         13    1    1    2    0    0  0.52205744063E+01  0.95029360182E+01  0.20212852029E+02  0.22937540000E+02  0.10566000000E+00 0.  1.
        994    1    1    2    0    0 -0.86073051382E+00 -0.42096725639E+01  0.28521176158E+01  0.17127765988E+03  0.17120000000E+03 0.  0.
        998    1    1    2    0    0 -0.43598438924E+01 -0.52932634544E+01  0.14769350266E+04  0.14769848001E+04  0.10000000000E+02 0.  1.
</event>
<event>
 5    1  0.1488417E-008  0.3745735E+03  0.7957747E-01  0.3475133E+00
         13   -1    0    0    0    0  0.00000000000E+00  0.00000000000E+00  0.14999999963E+04  0.15000000000E+04  0.10566000000E+00 0. -1.
        994   -1    0    0    0    0 -0.00000000000E+00 -0.00000000000E+00  0.11368683772E-12  0.17120000000E+03  0.17120000000E+03 0.  0.
         13    1    1    2    0    0  0.11215834866E+03  0.15150131983E+02  0.56282798707E+03  0.57409439630E+03  0.10566000000E+00 0. -1.
        994    1    1    2    0    0 -0.11927082630E+03  0.19373301510E+02  0.58350011693E+02  0.21752015696E+03  0.17120000000E+03 0.  0.
        998    1    1    2    0    0  0.71124776461E+01 -0.34523433494E+02  0.87882199751E+03  0.87958544674E+03  0.10000000000E+02 0.  1.
</event>
<event>
 5    1  0.1488417E-008  0.3803623E+03  0.7957747E-01  0.3449583E+00
         13   -1    0    0    0    0  0.00000000000E+00  0.00000000000E+00  0.14999999963E+04  0.15000000000E+04  0.10566000000E+00 0. -1.
        994   -1    0    0    0    0 -0.00000000000E+00 -0.00000000000E+00  0.11368683772E-12  0.17120000000E+03  0.17120000000E+03 0.  0.
         13    1    1    2    0    0 -0.38610326678E+02  0.41346980547E+02  0.31069649939E+03  0.31580477517E+03  0.10566000000E+00 0. -1.
        994    1    1    2    0    0  0.38549174902E+02 -0.46482834388E+02  0.16223893335E+02  0.18226175543E+03  0.17120000000E+03 0.  0.
        998    1    1    2    0    0  0.61151776539E-01  0.51358538403E+01  0.11730796036E+04  0.11731334694E+04  0.10000000000E+02 0. -1.
</event>
<event>
 5    1  0.1488417E-008  0.3857812E+03  0.7957747E-01  0.3426366E+00
         13   -1    0    0    0    0  0.00000000000E+00  0.00000000000E+00  0.14999999963E+04  0.15000000000E+04  0.10566000000E+00 0. -1.
        994   -1    0    0    0    0 -0.00000000000E+00 -0.00000000000E+00  0.11368683772E-12  0.17120000000E+03  0.17120000000E+03 0.  0.
         13    1    1    2    0    0 -0.17334570155E+01 -0.12861676698E+02  0.72289129201E+02  0.73444924708E+02  0.10566000000E+00 0. -1.
        994    1    1    2    0    0  0.81771556030E+01  0.29631482770E+00  0.14624215875E+01  0.17140166963E+03  0.17120000000E+03 0.  0.
        998    1    1    2    0    0 -0.64436985875E+01  0.12565361870E+02  0.14262484455E+04  0.14263534057E+04  0.10000000000E+02 0. -1.
</event>
<event>
 5    1  0.1488417E-008  0.3836375E+03  0.7957747E-01  0.3435471E+00
         13   -1    0    0    0    0  0.00000000000E+00  0.00000000000E+00  0.14999999963E+04  0.15000000000E+04  0.10566000000E+00 0. -1.
        994   -1    0    0    0    0 -0.00000000000E+00 -0.00000000000E+00  0.11368683772E-12  0.17120000000E+03  0.17120000000E+03 0.  0.
         13    1    1    2    0    0  0.43572705874E+02  0.54580394683E+02  0.38498084759E+03  0.39126444300E+03  0.10566000000E+00 0. -1.
        994    1    1    2    0    0 -0.39321562817E+02 -0.14225635416E+03  0.77934537665E+02  0.23909472550E+03  0.17120000000E+03 0.  0.
        998    1    1    2    0    0 -0.42511430577E+01  0.87675959482E+02  0.10370846110E+04  0.10408408315E+04  0.10000000000E+02 0. -1.
</event>
<event>
 5    1  0.1488417E-008  0.3845172E+03  0.7957747E-01  0.3431722E+00
         13   -1    0    0    0    0  0.00000000000E+00  0.00000000000E+00  0.14999999963E+04  0.15000000000E+04  0.10566000000E+00 0.  1.
        994   -1    0    0    0    0 -0.00000000000E+00 -0.00000000000E+00  0.11368683772E-12  0.17120000000E+03  0.17120000000E+03 0.  0.
         13    1    1    2    0    0  0.97828946257E+01  0.19618000237E+02  0.12846148147E+03  0.13031858788E+03  0.10566000000E+00 0.  1.
        994    1    1    2    0    0 -0.41532451291E+01 -0.12890269051E+02  0.24743723518E+01  0.17175264481E+03  0.17120000000E+03 0.  0.
        998    1    1    2    0    0 -0.56296494965E+01 -0.67277311861E+01  0.13690641425E+04  0.13691287673E+04  0.10000000000E+02 0.  1.
</event>
<event>
 5    1  0.1488417E-008  0.3770332E+03  0.7957747E-01  0.3464179E+00
         13   -1    0    0    0    0  0.00000000000E+00  0.00000000000E+00  0.14999999963E+04  0.15000000000E+04  0.10566000000E+00 0. -1.
        994   -1    0    0    0    0 -0.00000000000E+00 -0.00000000000E+00  0.11368683772E-12  0.17120000000E+03  0.17120000000E+03 0.  0.
         13    1    1    2    0    0 -0.12247604532E+01 -0.50281022346E+02  0.18274463919E+03  0.18953969390E+03  0.10566000000E+00 0. -1.
        994    1    1    2    0    0  0.11987207224E+02  0.61828838972E+02  0.19148770671E+02  0.18341922986E+03  0.17120000000E+03 0.  0.
        998    1    1    2    0    0 -0.10762446771E+02 -0.11547816626E+02  0.12981065864E+04  0.12982410762E+04  0.10000000000E+02 0.  1.
</event>
<event>
 5    1  0.1488417E-008  0.3841413E+03  0.7957747E-01  0.3433322E+00
         13   -1    0    0    0    0  0.00000000000E+00  0.00000000000E+00  0.14999999963E+04  0.15000000000E+04  0.10566000000E+00 0.  1.
        994   -1    0    0    0    0 -0.00000000000E+00 -0.00000000000E+00  0.11368683772E-12  0.17120000000E+03  0.17120000000E+03 0.  0.
         13    1    1    2    0    0 -0.36265814210E+01  0.17248758914E+02  0.77041692865E+02  0.79032305929E+02  0.10566000000E+00 0.  1.
        994    1    1    2    0    0  0.73759057678E+00 -0.73579674933E+01  0.22374059002E+01  0.17137423876E+03  0.17120000000E+03 0.  0.
        998    1    1    2    0    0  0.28889908442E+01 -0.98907914207E+01  0.14207208975E+04  0.14207934553E+04  0.10000000000E+02 0.  1.
</event>
<event>
 5    1  0.1488417E-008  0.3829883E+03  0.7957747E-01  0.3438249E+00
         13   -1    0    0    0    0  0.00000000000E+00  0.00000000000E+00  0.14999999963E+04  0.15000000000E+04  0.10566000000E+00 0. -1.
        994   -1    0    0    0    0 -0.00000000000E+00 -0.00000000000E+00  0.11368683772E-12  0.17120000000E+03  0.17120000000E+03 0.  0.
         13    1    1    2    0    0  0.12476757933E+02  0.10753408820E+02  0.49966862728E+02  0.52611822100E+02  0.10566000000E+00 0. -1.
        994    1    1    2    0    0 -0.60190332031E+01 -0.14936299735E+02  0.34911145619E+01  0.17199113260E+03  0.17120000000E+03 0.  0.
        998    1    1    2    0    0 -0.64577247297E+01  0.41828909150E+01  0.14465420190E+04  0.14465970453E+04  0.10000000000E+02 0. -1.
</event>
<event>
 5    1  0.1488417E-008  0.3825810E+03  0.7957747E-01  0.3439997E+00
         13   -1    0    0    0    0  0.00000000000E+00  0.00000000000E+00  0.14999999963E+04  0.15000000000E+04  0.10566000000E+00 0. -1.
        994   -1    0    0    0    0 -0.00000000000E+00 -0.00000000000E+00  0.11368683772E-12  0.17120000000E+03  0.17120000000E+03 0.  0.
         13    1    1    2    0    0  0.14774574218E+02  0.46385052970E+01  0.42369240769E+02  0.45110614074E+02  0.10566000000E+00 0. -1.
        994    1    1    2    0    0 -0.47308662083E+01  0.69274290019E+00  0.29116819730E+01  0.17129150265E+03  0.17120000000E+03 0.  0.
        998    1    1    2    0    0 -0.10043708009E+02 -0.53312481972E+01  0.14547190735E+04  0.14547978833E+04  0.10000000000E+02 0. -1.
</event>
<event>
 5    1  0.1488417E-008  0.3855036E+03  0.7957747E-01  0.3427539E+00
         13   -1    0    0    0    0  0.00000000000E+00  0.00000000000E+00  0.14999999963E+04  0.15000000000E+04  0.10566000000E+00 0.  1.
        994   -1    0    0    0    0 -0.00000000000E+00 -0.00000000000E+00  0.11368683772E-12  0.17120000000E+03  0.17120000000E+03 0.  0.
         13    1    1    2    0    0  0.83446195257E+02  0.12565535468E+03  0.42146525804E+03  0.44764440191E+03  0.10566000000E+00 0.  1.
        994    1    1    2    0    0 -0.54866041351E+02 -0.13356999256E+03  0.10128254277E+03  0.24580239803E+03  0.17120000000E+03 0.  0.
        998    1    1    2    0    0 -0.28580153906E+02  0.79146378766E+01  0.97725219547E+03  0.97775320006E+03  0.10000000000E+02 0.  1.
</event>
<event>
 5    1  0.1488417E-008  0.3799005E+03  0.7957747E-01  0.3451592E+00
         13   -1    0    0    0    0  0.00000000000E+00  0.00000000000E+00  0.14999999963E+04  0.15000000000E+04  0.10566000000E+00 0. -1.
        994   -1    0    0    0    0 -0.00000000000E+00 -0.00000000000E+00  0.11368683772E-12  0.17120000000E+03  0.17120000000E+03 0.  0.
         13    1    1    2    0    0  0.19073519191E+02 -0.20810527795E+02  0.10044488060E+03  0.10433629476E+03  0.10566000000E+00 0. -1.
        994    1    1    2    0    0 -0.11185246717E+02 -0.46945654781E+01  0.46756021937E+01  0.17169289428E+03  0.17120000000E+03 0.  0.
        998    1    1    2    0    0 -0.78882724747E+01  0.25505093273E+02  0.13948795135E+04  0.13951708110E+04  0.10000000000E+02 0. -1.
</event>
<event>
 5    1  0.1488417E-008  0.3851622E+03  0.7957747E-01  0.3428985E+00
         13   -1    0    0    0    0  0.00000000000E+00  0.00000000000E+00  0.14999999963E+04  0.15000000000E+04  0.10566000000E+00 0. -1.
        994   -1    0    0    0    0 -0.00000000000E+00 -0.00000000000E+00  0.11368683772E-12  0.17120000000E+03  0.17120000000E+03 0.  0.
         13    1    1    2    0    0 -0.14185520092E+02 -0.20305729326E+01  0.68886361959E+02  0.70361169935E+02  0.10566000000E+00 0. -1.
        994    1    1    2    0    0  0.46026075615E+01 -0.43503579583E+01  0.16814992758E+01  0.17132535437E+03  0.17120000000E+03 0.  0.
        998    1    1    2    0    0  0.95829125304E+01  0.63809308909E+01  0.14294321350E+04  0.14295134757E+04  0.10000000000E+02 0. -1.
</event>
<event>
 5    1  0.1488417E-008  0.3862284E+03  0.7957747E-01  0.3424479E+00
         13   -1    0    0    0    0  0.00000000000E+00  0.00000000000E+00  0.14999999963E+04  0.15000000000E+04  0.10566000000E+00 0. -1.
        994   -1    0    0    0    0 -0.00000000000E+00 -0.00000000000E+00  0.11368683772E-12  0.17120000000E+03  0.17120000000E+03 0.  0.
         13    1    1    2    0    0  0.36737106652E+01  0.11269077455E+02  0.70585117562E+02  0.71573446486E+02  0.10566000000E+00 0. -1.
        994    1    1    2    0    0 -0.17812406816E+02 -0.16360326698E+01  0.20702518608E+01  0.17214437075E+03  0.17120000000E+03 0.  0.
        998    1    1    2    0    0  0.14138696151E+02 -0.96330447849E+01  0.14273446269E+04  0.14274821828E+04  0.10000000000E+02 0. -1.
</event>
<event>
 5    1  0.1488417E-008  0.3786766E+03  0.7957747E-01  0.3456941E+00
         13   -1    0    0    0    0  0.00000000000E+00  0.00000000000E+00  0.14999999963E+04  0.15000000000E+04  0.10566000000E+00 0.  1.
        994   -1    0    0    0    0 -0.00000000000E+00 -0.00000000000E+00  0.11368683772E-12  0.17120000000E+03  0.17120000000E+03 0.  0.
         13    1    1    2    0    0  0.70186030701E+02  0.43943852519E+02  0.45864985009E+03  0.46606527143E+03  0.10566000000E+00 0.  1.
        994    1    1    2    0    0 -0.80052292919E+02 -0.39414817823E+02  0.32018265335E+02  0.19569493295E+03  0.17120000000E+03 0.  0.
        998    1    1    2    0    0  0.98662622177E+01 -0.45290346968E+01  0.10093318809E+04  0.10094397956E+04  0.10000000000E+02 0.  1.
</event>
<event>
 5    1  0.1488417E-008  0.3783249E+03  0.7957747E-01  0.3458485E+00
         13   -1    0    0    0    0  0.00000000000E+00  0.00000000000E+00  0.14999999963E+04  0.15000000000E+04  0.10566000000E+00 0.  1.
        994   -1    0    0    0    0 -0.00000000000E+00 -0.00000000000E+00  0.11368683772E-12  0.17120000000E+03  0.17120000000E+03 0.  0.
         13    1    1    2    0    0  0.24626831269E+02 -0.37768920996E+02  0.23600614684E+03  0.24027460274E+03  0.10566000000E+00 0.  1.
        994    1    1    2    0    0 -0.78535335767E+00  0.64552356643E+01  0.51232621098E+01  0.17140004277E+03  0.17120000000E+03 0.  0.
        998    1    1    2    0    0 -0.23841477911E+02  0.31313685332E+02  0.12588705873E+04  0.12595253545E+04  0.10000000000E+02 0.  1.
</event>
<event>
 5    1  0.1488417E-008  0.3811144E+03  0.7957747E-01  0.3446321E+00
         13   -1    0    0    0    0  0.00000000000E+00  0.00000000000E+00  0.14999999963E+04  0.15000000000E+04  0.10566000000E+00 0.  1.
        994   -1    0    0    0    0 -0.00000000000E+00 -0.00000000000E+00  0.11368683772E-12  0.17120000000E+03  0.17120000000E+03 0.  0.
         13    1    1    2    0    0 -0.18974187549E+02  0.23424348410E+02  0.12074641037E+03  0.12445250770E+03  0.10566000000E+00 0.  1.
        994    1    1    2    0    0  0.12385339307E+02 -0.22424587240E+02  0.57605180710E+01  0.17320185424E+03  0.17120000000E+03 0.  0.
        998    1    1    2    0    0  0.65888482421E+01 -0.99976117031E+00  0.13734930678E+04  0.13735456381E+04  0.10000000000E+02 0.  1.
</event>
<event>
 5    1  0.1488417E-008  0.3820352E+03  0.7957747E-01  0.3442344E+00
         13   -1    0    0    0    0  0.00000000000E+00  0.00000000000E+00  0.14999999963E+04  0.15000000000E+04  0.10566000000E+00 0.  1.
        994   -1    0    0    0    0 -0.00000000000E+00 -0.00000000000E+00  0.11368683772E-12  0.17120000000E+03  0.17120000000E+03 0.  0.
         13    1    1    2    0    0  0.90469862171E+01 -0.76254982416E+01  0.21660886155E+02  0.24682004297E+02  0.10566000000E+00 0.  1.
        994    1    1    2    0    0  0.75926654748E+01  0.13095992763E+02  0.38705901086E+01  0.17191153267E+03  0.17120000000E+03 0.  0.
        998    1    1    2    0    0 -0.16639651692E+02 -0.54704945218E+01  0.14744685200E+04  0.14746064630E+04  0.10000000000E+02 0.  1.
</event>
<event>
 5    1  0.1488417E-008  0.3727589E+03  0.7957747E-01  0.3483307E+00
         13   -1    0    0    0    0  0.00000000000E+00  0.00000000000E+00  0.14999999963E+04  0.15000000000E+04  0.10566000000E+00 0.  1.
        994   -1    0    0    0    0 -0.00000000000E+00 -0.00000000000E+00  0.11368683772E-12  0.17120000000E+03  0.17120000000E+03 0.  0.
         13    1    1    2    0    0 -0.85624003198E+01  0.20825553658E+02  0.28334061011E+02  0.36191830042E+02  0.10566000000E+00 0.  1.
        994    1    1    2    0    0  0.65469486951E+01 -0.25657896498E+02  0.10239470682E+02  0.17353811382E+03  0.17120000000E+03 0.  0.
        998    1    1    2    0    0  0.20154516247E+01  0.48323428402E+01  0.14614264646E+04  0.14614700561E+04  0.10000000000E+02 0.  1.
</event>
<event>
 5    1  0.1488417E-008  0.3843227E+03  0.7957747E-01  0.3432550E+00
         13   -1    0    0    0    0  0.00000000000E+00  0.00000000000E+00  0.14999999963E+04  0.15000000000E+04  0.10566000000E+00 0.  1.
        994   -1    0    0    0    0 -0.00000000000E+00 -0.00000000000E+00  0.11368683772E-12  0.17120000000E+03  0.17120000000E+03 0.  0.
         13    1    1    2    0    0 -0.29984026365E+01 -0.14706459113E+02  0.55346896902E+02  0.57345972123E+02  0.10566000000E+00 0.  1.
        994    1    1    2    0    0  0.50726179520E+01  0.14507019932E+02  0.27455881879E+01  0.17191033516E+03  0.17120000000E+03 0.  0.
        998    1    1    2    0    0 -0.20742153155E+01  0.19943918119E+00  0.14419075112E+04  0.14419436927E+04  0.10000000000E+02 0.  1.
</event>
<event>
 5    1  0.1488417E-008  0.3844953E+03  0.7957747E-01  0.3431816E+00
         13   -1    0    0    0    0  0.00000000000E+00  0.00000000000E+00  0.14999999963E+04  0.15000000000E+04  0.10566000000E+00 0.  1.
        994   -1    0    0    0    0 -0.00000000000E+00 -0.00000000000E+00  0.11368683772E-12  0.17120000000E+03  0.17120000000E+03 0.  0.
         13    1    1    2    0    0  0.13694400997E+02 -0.11092830497E+02  0.78807993563E+02  0.80754557275E+02  0.10566000000E+00 0.  1.
        994    1    1    2    0    0 -0.11614145089E+02  0.14540123474E+02  0.30224844933E+01  0.17223495281E+03  0.17120000000E+03 0.  0.
        998    1    1    2    0    0 -0.20802559080E+01 -0.34472929763E+01  0.14181695182E+04  0.14182104899E+04  0.10000000000E+02 0.  1.
</event>
<event>
 5    1  0.1488417E-008  0.3789039E+03  0.7957747E-01  0.3455945E+00
         13   -1    0    0    0    0  0.00000000000E+00  0.00000000000E+00  0.14999999963E+04  0.15000000000E+04  0.10566000000E+00 0.  1.
        994   -1    0    0    0    0 -0.00000000000E+00 -0.00000000000E+00  0.11368683772E-12  0.17120000000E+03  0.17120000000E+03 0.  0.
         13    1    1    2    0    0 -0.11968794005E+03 -0.33322433926E+02  0.74283201411E+03  0.75315005141E+03  0.10566000000E+00 0.  1.
        994    1    1    2    0    0  0.12276046650E+03  0.33324290928E+02  0.61044614461E+02  0.22184797825E+03  0.17120000000E+03 0.  0.
        998    1    1    2    0    0 -0.30725264475E+01 -0.18570022530E-02  0.69612336771E+03  0.69620197033E+03  0.10000000000E+02 0.  0.
</event>
<event>
 5    1  0.1488417E-008  0.3856086E+03  0.7957747E-01  0.3427095E+00
         13   -1    0    0    0    0  0.00000000000E+00  0.00000000000E+00  0.14999999963E+04  0.15000000000E+04  0.10566000000E+00 0.  1.
        994   -1    0    0    0    0 -0.00000000000E+00 -0.00000000000E+00  0.11368683772E-12  0.17120000000E+03  0.17120000000E+03 0.  0.
         13    1    1    2    0    0  0.18961632950E+01  0.10114251155E+02  0.38495820977E+02  0.39847621113E+02  0.10566000000E+00 0.  1.
        994    1    1    2    0    0 -0.30595858828E+01 -0.13925177657E+02  0.19957262944E+01  0.17180423325E+03  0.17120000000E+03 0.  0.
        998    1    1    2    0    0  0.11634225878E+01  0.38109265015E+01  0.14595084490E+04  0.14595481456E+04  0.10000000000E+02 0.  1.
</event>
<event>
 5    1  0.1488417E-008  0.3808082E+03  0.7957747E-01  0.3447647E+00
         13   -1    0    0    0    0  0.00000000000E+00  0.00000000000E+00  0.14999999963E+04  0.15000000000E+04  0.10566000000E+00 0.  1.
        994   -1    0    0    0    0 -0.00000000000E+00 -0.00000000000E+00  0.11368683772E-12  0.17120000000E+03  0.17120000000E+03 0.  0.
         13    1    1    2    0    0 -0.13513879134E+02  0.20114983491E+02  0.80068143803E+02  0.83654983750E+02  0.10566000000E+00 0.  1.
        994    1    1    2    0    0  0.45324723133E+00 -0.99344762303E+01  0.40555282779E+01  0.17153654585E+03  0.17120000000E+03 0.  0.
        998    1    1    2    0    0  0.13060631903E+02 -0.10180507260E+02  0.14158763242E+04  0.14160084704E+04  0.10000000000E+02 0.  1.
</event>
<event>
 5    1  0.1488417E-008  0.3831766E+03  0.7957747E-01  0.3437443E+00
         13   -1    0    0    0    0  0.00000000000E+00  0.00000000000E+00  0.14999999963E+04  0.15000000000E+04  0.10566000000E+00 0. -1.
        994   -1    0    0    0    0 -0.00000000000E+00 -0.00000000000E+00  0.11368683772E-12  0.17120000000E+03  0.17120000000E+03 0.  0.
         13    1    1    2    0    0 -0.16300821827E+02 -0.24539110329E+02  0.15882997808E+03  0.16153902881E+03  0.10566000000E+00 0. -1.
        994    1    1    2    0    0  0.11510247168E+02  0.23722196162E+02  0.48415027602E+01  0.17328620409E+03  0.17120000000E+03 0.  0.
        998    1    1    2    0    0  0.47905746595E+01  0.81691416670E+00  0.13363285154E+04  0.13363747671E+04  0.10000000000E+02 0. -1.
</event>
<event>
 5    1  0.1488417E-008  0.3869693E+03  0.7957747E-01  0.3421363E+00
         13   -1    0    0    0    0  0.00000000000E+00  0.00000000000E+00  0.14999999963E+04  0.15000000000E+04  0.10566000000E+00 0. -1.
        994   -1    0    0    0    0 -0.00000000000E+00 -0.00000000000E+00  0.11368683772E-12  0.17120000000E+03  0.17120000000E+03 0.  0.
         13    1    1    2    0    0 -0.15003971761E+03 -0.62149614354E+02  0.43254035981E+03  0.46202344687E+03  0.10566000000E+00 0. -1.
        994    1    1    2    0    0  0.14965269667E+03  0.56631547534E+02  0.12301078341E+03  0.26465856236E+03  0.17120000000E+03 0.  0.
        998    1    1    2    0    0  0.38702094281E+00  0.55180668204E+01  0.94444885306E+03  0.94451799077E+03  0.10000000000E+02 0.  0.
</event>
<event>
 5    1  0.1488417E-008  0.3799352E+03  0.7957747E-01  0.3451441E+00
         13   -1    0    0    0    0  0.00000000000E+00  0.00000000000E+00  0.14999999963E+04  0.15000000000E+04  0.10566000000E+00 0.  1.
        994   -1    0    0    0    0 -0.00000000000E+00 -0.00000000000E+00  0.11368683772E-12  0.17120000000E+03  0.17120000000E+03 0.  0.
         13    1    1    2    0    0 -0.91052469806E+01 -0.13038032075E+02  0.28411393524E+02  0.32559395710E+02  0.10566000000E+00 0.  1.
        994    1    1    2    0    0  0.84606759824E+01  0.11276276056E+02  0.48306388537E+01  0.17184735236E+03  0.17120000000E+03 0.  0.
        998    1    1    2    0    0  0.64457099820E+00  0.17617560187E+01  0.14667579639E+04  0.14667932519E+04  0.10000000000E+02 0.  1.
</event>
<event>
 5    1  0.1488417E-008  0.3714704E+03  0.7957747E-01  0.3489160E+00
         13   -1    0    0    0    0  0.00000000000E+00  0.00000000000E+00  0.14999999963E+04  0.15000000000E+04  0.10566000000E+00 0. -1.
        994   -1    0    0    0    0 -0.00000000000E+00 -0.00000000000E+00  0.11368683772E-12  0.17120000000E+03  0.17120000000E+03 0.  0.
         13    1    1    2    0    0 -0.55410894579E+02  0.26843185392E+02  0.20833527094E+03  0.21724299786E+03  0.10566000000E+00 0. -1.
        994    1    1    2    0    0  0.25643536886E+02 -0.55424382160E+02  0.21443820723E+02  0.18302658432E+03  0.17120000000E+03 0.  0.
        998    1    1    2    0    0  0.29767357693E+02  0.28581196768E+02  0.12702209046E+04  0.12709304178E+04  0.10000000000E+02 0. -1.
</event>
<event>
 5    1  0.1488417E-008  0.3945591E+03  0.7957747E-01  0.3390116E+00
         13   -1    0    0    0    0  0.00000000000E+00  0.00000000000E+00  0.14999999963E+04  0.15000000000E+04  0.10566000000E+00 0. -1.
        994   -1    0    0    0    0 -0.00000000000E+00 -0.00000000000E+00  0.11368683772E-12  0.17120000000E+03  0.17120000000E+03 0.  0.
         13    1    1    2    0    0 -0.57149089898E+02  0.30109479142E+02  0.82154884208E+02  0.10450854211E+03  0.10566000000E+00 0. -1.
        994    1    1    2    0    0  0.24509103732E+02 -0.22337492188E+01  0.26889311366E+02  0.17503759844E+03  0.17120000000E+03 0.  0.
        998    1    1    2    0    0  0.32639986167E+02 -0.27875729923E+02  0.13909558007E+04  0.13916538595E+04  0.10000000000E+02 0. -1.
</event>
<event>
 5    1  0.1488417E-008  0.3830169E+03  0.7957747E-01  0.3438126E+00
         13   -1    0    0    0    0  0.00000000000E+00  0.00000000000E+00  0.14999999963E+04  0.15000000000E+04  0.10566000000E+00 0.  1.
        994   -1    0    0    0    0 -0.00000000000E+00 -0.00000000000E+00  0.11368683772E-12  0.17120000000E+03  0.17120000000E+03 0.  0.
         13    1    1    2    0    0  0.13618508951E+02  0.24508712253E+02  0.13472839870E+03  0.13761501859E+03  0.10566000000E+00 0.  1.
        994    1    1    2    0    0 -0.12898410290E+02 -0.28441856740E+02  0.58528059874E+01  0.17412352954E+03  0.17120000000E+03 0.  0.
        998    1    1    2    0    0 -0.72009866054E+00  0.39331444868E+01  0.13594187916E+04  0.13594614519E+04  0.10000000000E+02 0.  1.
</event>
<event>
 5    1  0.1488417E-008  0.3752885E+03  0.7957747E-01  0.3471934E+00
         13   -1    0    0    0    0  0.00000000000E+00  0.00000000000E+00  0.14999999963E+04  0.15000000000E+04  0.10566000000E+00 0. -1.
        994   -1    0    0    0    0 -0.00000000000E+00 -0.00000000000E+00  0.11368683772E-12  0.17120000000E+03  0.17120000000E+03 0.  0.
         13    1    1    2    0    0  0.23809975351E+02  0.11141949003E+02  0.51345061196E+02  0.57683484872E+02  0.10566000000E+00 0. -1.
        994    1    1    2    0    0 -0.89556763380E+01 -0.75758660235E+01  0.69980615954E+01  0.17174402683E+03  0.17120000000E+03 0.  0.
        998    1    1    2    0    0 -0.14854299013E+02 -0.35660829793E+01  0.14416568735E+04  0.14417724883E+04  0.10000000000E+02 0. -1.
</event>
<event>
 5    1  0.1488417E-008  0.3858678E+03  0.7957747E-01  0.3426000E+00
         13   -1    0    0    0    0  0.00000000000E+00  0.00000000000E+00  0.14999999963E+04  0.15000000000E+04  0.10566000000E+00 0.  1.
        994   -1    0    0    0    0 -0.00000000000E+00 -0.00000000000E+00  0.11368683772E-12  0.17120000000E+03  0.17120000000E+03 0.  0.
         13    1    1    2    0    0  0.34813927267E+02  0.86027402396E+02  0.34875488872E+03  0.36089154474E+03  0.10566000000E+00 0.  1.
        994    1    1    2    0    0  0.15867213688E+02  0.25541824897E+02  0.22943875735E+02  0.17532830554E+03  0.17120000000E+03 0.  0.
        998    1    1    2    0    0 -0.50681140955E+02 -0.11156922729E+03  0.11283012318E+04  0.11349801497E+04  0.10000000000E+02 0.  1.
</event>
<event>
 5    1  0.1488417E-008  0.3701014E+03  0.7957747E-01  0.3495425E+00
         13   -1    0    0    0    0  0.00000000000E+00  0.00000000000E+00  0.14999999963E+04  0.15000000000E+04  0.10566000000E+00 0.  1.
        994   -1    0    0    0    0 -0.00000000000E+00 -0.00000000000E+00  0.11368683772E-12  0.17120000000E+03  0.17120000000E+03 0.  0.
         13    1    1    2    0    0  0.61469976784E+02 -0.16820317571E+02  0.20034389689E+03  0.21023598482E+03  0.10566000000E+00 0.  1.
        994    1    1    2    0    0 -0.15702686386E+02  0.98393819035E+01  0.12194217322E+02  0.17263118702E+03  0.17120000000E+03 0.  0.
        998    1    1    2    0    0 -0.45767290398E+02  0.69809356679E+01  0.12874618821E+04  0.12883328282E+04  0.10000000000E+02 0.  1.
</event>
<event>
 5    1  0.1488417E-008  0.3842827E+03  0.7957747E-01  0.3432720E+00
         13   -1    0    0    0    0  0.00000000000E+00  0.00000000000E+00  0.14999999963E+04  0.15000000000E+04  0.10566000000E+00 0.  1.
        994   -1    0    0    0    0 -0.00000000000E+00 -0.00000000000E+00  0.11368683772E-12  0.17120000000E+03  0.17120000000E+03 0.  0.
         13    1    1    2    0    0 -0.11355628623E+02  0.17603328163E+02  0.11003546207E+03  0.11201179197E+03  0.10566000000E+00 0.  1.
        994    1    1    2    0    0  0.12746813979E+02 -0.75663929237E+01  0.27113027192E+01  0.17186192927E+03  0.17120000000E+03 0.  0.
        998    1    1    2    0    0 -0.13911853558E+01 -0.10036935240E+02  0.13872532315E+04  0.13873262788E+04  0.10000000000E+02 0.  1.
</event>
<event>
 5    1  0.1488417E-008  0.3835571E+03  0.7957747E-01  0.3435815E+00
         13   -1    0    0    0    0  0.00000000000E+00  0.00000000000E+00  0.14999999963E+04  0.15000000000E+04  0.10566000000E+00 0. -1.
        994   -1    0    0    0    0 -0.00000000000E+00 -0.00000000000E+00  0.11368683772E-12  0.17120000000E+03  0.17120000000E+03 0.  0.
         13    1    1    2    0    0  0.13152774224E+02  0.51204695261E+01  0.41307827954E+02  0.43652748966E+02  0.10566000000E+00 0. -1.
        994    1    1    2    0    0 -0.62555558849E+01 -0.17248583910E+02  0.34613312192E+01  0.17221517483E+03  0.17120000000E+03 0.  0.
        998    1    1    2    0    0 -0.68972183395E+01  0.12128114384E+02  0.14552308371E+04  0.14553320762E+04  0.10000000000E+02 0. -1.
</event>
<event>
 5    1  0.1488417E-008  0.3816424E+03  0.7957747E-01  0.3444038E+00
         13   -1    0    0    0    0  0.00000000000E+00  0.00000000000E+00  0.14999999963E+04  0.15000000000E+04  0.10566000000E+00 0. -1.
        994   -1    0    0    0    0 -0.00000000000E+00 -0.00000000000E+00  0.11368683772E-12  0.17120000000E+03  0.17120000000E+03 0.  0.
         13    1    1    2    0    0 -0.12961684217E+02 -0.20697237455E+02  0.89795663002E+02  0.93057257396E+02  0.10566000000E+00 0. -1.
        994    1    1    2    0    0  0.12590621101E+02  0.82944136026E+01  0.40625256495E+01  0.17191063129E+03  0.17120000000E+03 0.  0.
        998    1    1    2    0    0  0.37106311603E+00  0.12402823853E+02  0.14061418076E+04  0.14062321113E+04  0.10000000000E+02 0. -1.
</event>
<event>
 5    1  0.1488417E-008  0.4030003E+03  0.7957747E-01  0.3356743E+00
         13   -1    0    0    0    0  0.00000000000E+00  0.00000000000E+00  0.14999999963E+04  0.15000000000E+04  0.10566000000E+00 0. -1.
        994   -1    0    0    0    0 -0.00000000000E+00 -0.00000000000E+00  0.11368683772E-12  0.17120000000E+03  0.17120000000E+03 0.  0.
         13    1    1    2    0    0 -0.87993348870E+01  0.62832620234E+02  0.58777483758E+02  0.86487977320E+02  0.10566000000E+00 0. -1.
        994    1    1    2    0    0  0.13454421960E+02 -0.43325037329E+02  0.37783642175E+02  0.18109424051E+03  0.17120000000E+03 0.  0.
        998    1    1    2    0    0 -0.46550870729E+01 -0.19507582906E+02  0.14034388703E+04  0.14036177822E+04  0.10000000000E+02 0. -1.
</event>
<event>
 5    1  0.1488417E-008  0.3759344E+03  0.7957747E-01  0.3469054E+00
         13   -1    0    0    0    0  0.00000000000E+00  0.00000000000E+00  0.14999999963E+04  0.15000000000E+04  0.10566000000E+00 0.  1.
        994   -1    0    0    0    0 -0.00000000000E+00 -0.00000000000E+00  0.11368683772E-12  0.17120000000E+03  0.17120000000E+03 0.  0.
         13    1    1    2    0    0 -0.17818547249E+02  0.51745204809E+02  0.21287822929E+03  0.21980040609E+03  0.10566000000E+00 0.  1.
        994    1    1    2    0    0  0.12915990242E+02 -0.48724114711E+02  0.14858499462E+02  0.17908399472E+03  0.17120000000E+03 0.  0.
        998    1    1    2    0    0  0.49025570073E+01 -0.30210900974E+01  0.12722632675E+04  0.12723155992E+04  0.10000000000E+02 0.  1.
</event>
<event>
 5    1  0.1488417E-008  0.3806674E+03  0.7957747E-01  0.3448257E+00
         13   -1    0    0    0    0  0.00000000000E+00  0.00000000000E+00  0.14999999963E+04  0.15000000000E+04  0.10566000000E+00 0.  1.
        994   -1    0    0    0    0 -0.00000000000E+00 -0.00000000000E+00  0.11368683772E-12  0.17120000000E+03  0.17120000000E+03 0.  0.
         13    1    1    2    0    0 -0.68652290868E+01  0.33053144051E+02  0.14988580614E+03  0.15364051467E+03  0.10566000000E+00 0.  1.
        994    1    1    2    0    0  0.38976060690E+00 -0.19121495487E+02  0.50176461929E+01  0.17233804071E+03  0.17120000000E+03 0.  0.
        998    1    1    2    0    0  0.64754684799E+01 -0.13931648564E+02  0.13450965439E+04  0.13452214446E+04  0.10000000000E+02 0.  1.
</event>
<event>
 5    1  0.1488417E-008  0.3835888E+03  0.7957747E-01  0.3435679E+00
         13   -1    0    0    0    0  0.00000000000E+00  0.00000000000E+00  0.14999999963E+04  0.15000000000E+04  0.10566000000E+00 0.  1.
        994   -1    0    0    0    0 -0.00000000000E+00 -0.00000000000E+00  0.11368683772E-12  0.17120000000E+03  0.17120000000E+03 0.  0.
         13    1    1    2    0    0 -0.14265884415E+02  0.97807438532E+01  0.72657830888E+02  0.74688352250E+02  0.10566000000E+00 0.  1.
        994    1    1    2    0    0 -0.11556864644E+02  0.41222743199E+01  0.28299409854E+01  0.17166246774E+03  0.17120000000E+03 0.  0.
        998    1    1    2    0    0  0.25822749059E+02 -0.13903018173E+02  0.14245122244E+04  0.14248491800E+04  0.10000000000E+02 0.  1.
</event>
<event>
 5    1  0.1488417E-008  0.3848409E+03  0.7957747E-01  0.3430347E+00
         13   -1    0    0    0    0  0.00000000000E+00  0.00000000000E+00  0.14999999963E+04  0.15000000000E+04  0.10566000000E+00 0. -1.
        994   -1    0    0    0    0 -0.00000000000E+00 -0.00000000000E+00  0.11368683772E-12  0.17120000000E+03  0.17120000000E+03 0.  0.
         13    1    1    2    0    0  0.67928323660E+01  0.93277040601E+01  0.36894253062E+02  0.38656767940E+02  0.10566000000E+00 0. -1.
        994    1    1    2    0    0 -0.11816384907E+02 -0.13843741142E+02  0.27999331705E+01  0.17218755979E+03  0.17120000000E+03 0.  0.
        998    1    1    2    0    0  0.50235525406E+01  0.45160370824E+01  0.14603058100E+04  0.14603556723E+04  0.10000000000E+02 0. -1.
</event>
<event>
 5    1  0.1488417E-008  0.3840746E+03  0.7957747E-01  0.3433607E+00
         13   -1    0    0    0    0  0.00000000000E+00  0.00000000000E+00  0.14999999963E+04  0.15000000000E+04  0.10566000000E+00 0.  1.
        994   -1    0    0    0    0 -0.00000000000E+00 -0.00000000000E+00  0.11368683772E-12  0.17120000000E+03  0.17120000000E+03 0.  0.
         13    1    1    2    0    0 -0.20551274897E+02 -0.41820373993E+01  0.10902716288E+03  0.11102602284E+03  0.10566000000E+00 0.  1.
        994    1    1    2    0    0  0.11033006045E+02 -0.13548301306E+02  0.30979355677E+01  0.17211717199E+03  0.17120000000E+03 0.  0.
        998    1    1    2    0    0  0.95182688520E+01  0.17730338705E+02  0.13878748978E+04  0.13880568052E+04  0.10000000000E+02 0.  1.
</event>
<event>
 5    1  0.1488417E-008  0.3847765E+03  0.7957747E-01  0.3430620E+00
         13   -1    0    0    0    0  0.00000000000E+00  0.00000000000E+00  0.14999999963E+04  0.15000000000E+04  0.10566000000E+00 0. -1.
        994   -1    0    0    0    0 -0.00000000000E+00 -0.00000000000E+00  0.11368683772E-12  0.17120000000E+03  0.17120000000E+03 0.  0.
         13    1    1    2    0    0 -0.10170475268E+02 -0.55231956632E+01  0.37583718598E+02  0.39325453910E+02  0.10566000000E+00 0. -1.
        994    1    1    2    0    0  0.10414178023E+02  0.46809204445E+01  0.21702801113E+01  0.17159404487E+03  0.17120000000E+03 0.  0.
        998    1    1    2    0    0 -0.24370275511E+00  0.84227521873E+00  0.14602459976E+04  0.14602805012E+04  0.10000000000E+02 0. -1.
</event>
<event>
 5    1  0.1488417E-008  0.3146473E+03  0.7957747E-01  0.3796699E+00
         13   -1    0    0    0    0  0.00000000000E+00  0.00000000000E+00  0.14999999963E+04  0.15000000000E+04  0.10566000000E+00 0.  1.
        994   -1    0    0    0    0 -0.00000000000E+00 -0.00000000000E+00  0.11368683772E-12  0.17120000000E+03  0.17120000000E+03 0.  0.
         13    1    1    2    0    0 -0.28176387028E+02  0.16484159366E+03  0.85117178820E+03  0.86744457113E+03  0.10566000000E+00 0.  1.
        994    1    1    2    0    0 -0.14868429416E+02 -0.12353136181E+03  0.71681905681E+02  0.22344754003E+03  0.17120000000E+03 0.  0.
        998    1    1    2    0    0  0.43044816444E+02 -0.41310231852E+02  0.57714630240E+03  0.58030788884E+03  0.10000000000E+02 0.  1.
</event>
<event>
 5    1  0.1488417E-008  0.3829980E+03  0.7957747E-01  0.3438207E+00
         13   -1    0    0    0    0  0.00000000000E+00  0.00000000000E+00  0.14999999963E+04  0.15000000000E+04  0.10566000000E+00 0.  1.
        994   -1    0    0    0    0 -0.00000000000E+00 -0.00000000000E+00  0.11368683772E-12  0.17120000000E+03  0.17120000000E+03 0.  0.
         13    1    1    2    0    0 -0.42929895397E+00 -0.25875989095E+02  0.10724228687E+02  0.28013770796E+02  0.10566000000E+00 0.  1.
        994    1    1    2    0    0 -0.25926927186E+02  0.26543902542E+02  0.23044793862E+02  0.17668414428E+03  0.17120000000E+03 0.  0.
        998    1    1    2    0    0  0.26356226140E+02 -0.66791344702E+00  0.14662309737E+04  0.14665020849E+04  0.10000000000E+02 0.  1.
</event>
<event>
 5    1  0.1488417E-008  0.3733241E+03  0.7957747E-01  0.3480752E+00
         13   -1    0    0    0    0  0.00000000000E+00  0.00000000000E+00  0.14999999963E+04  0.15000000000E+04  0.10566000000E+00 0. -1.
        994   -1    0    0    0    0 -0.00000000000E+00 -0.00000000000E+00  0.11368683772E-12  0.17120000000E+03  0.17120000000E+03 0.  0.
         13    1    1    2    0    0 -0.59778208620E+02 -0.56729309051E+02  0.49292288642E+03  0.49976457643E+03  0.10566000000E+00 0. -1.
        994    1    1    2    0    0  0.24925490992E+02  0.28981313731E+02  0.12553429661E+02  0.17586422389E+03  0.17120000000E+03 0.  0.
        998    1    1    2    0    0  0.34852717628E+02  0.27747995320E+02  0.99452368020E+03  0.99557119969E+03  0.10000000000E+02 0. -1.
</event>
<event>
 5    1  0.1488417E-008  0.3762252E+03  0.7957747E-01  0.3467761E+00
         13   -1    0    0    0    0  0.00000000000E+00  0.00000000000E+00  0.14999999963E+04  0.15000000000E+04  0.10566000000E+00 0. -1.
        994   -1    0    0    0    0 -0.00000000000E+00 -0.00000000000E+00  0.11368683772E-12  0.17120000000E+03  0.17120000000E+03 0.  0.
         13    1    1    2    0    0  0.12462035235E+02  0.31236099828E+02  0.10180882807E+03  0.10721961057E+03  0.10566000000E+00 0. -1.
        994    1    1    2    0    0  0.33669629130E+01  0.27101460005E+01  0.61141410230E+01  0.17136366024E+03  0.17120000000E+03 0.  0.
        998    1    1    2    0    0 -0.15828998148E+02 -0.33946245828E+02  0.13920770272E+04  0.13926167292E+04  0.10000000000E+02 0. -1.
</event>
<event>
 5    1  0.1488417E-008  0.3862071E+03  0.7957747E-01  0.3424569E+00
         13   -1    0    0    0    0  0.00000000000E+00  0.00000000000E+00  0.14999999963E+04  0.15000000000E+04  0.10566000000E+00 0. -1.
        994   -1    0    0    0    0 -0.00000000000E+00 -0.00000000000E+00  0.11368683772E-12  0.17120000000E+03  0.17120000000E+03 0.  0.
         13    1    1    2    0    0  0.80524565051E+01  0.69959193467E+01  0.53306076500E+02  0.54362982802E+02  0.10566000000E+00 0. -1.
        994    1    1    2    0    0  0.55427054179E+00 -0.22807342247E+02  0.27388658531E+01  0.17273512516E+03  0.17120000000E+03 0.  0.
        998    1    1    2    0    0 -0.86067270469E+01  0.15811422901E+02  0.14439550539E+04  0.14441018920E+04  0.10000000000E+02 0. -1.
</event>
<event>
 5    1  0.1488417E-008  0.3808996E+03  0.7957747E-01  0.3447251E+00
         13   -1    0    0    0    0  0.00000000000E+00  0.00000000000E+00  0.14999999963E+04  0.15000000000E+04  0.10566000000E+00 0. -1.
        994   -1    0    0    0    0 -0.00000000000E+00 -0.00000000000E+00  0.11368683772E-12  0.17120000000E+03  0.17120000000E+03 0.  0.
         13    1    1    2    0    0  0.95511731369E+01 -0.40646072117E+01  0.13134789074E+02  0.16741558713E+02  0.10566000000E+00 0. -1.
        994    1    1    2    0    0 -0.44027857952E+01  0.29754958660E+01  0.37738348698E+01  0.17132402029E+03  0.17120000000E+03 0.  0.
        998    1    1    2    0    0 -0.51483873418E+01  0.10891113456E+01  0.14830913723E+04  0.14831344210E+04  0.10000000000E+02 0. -1.
</event>
<event>
 5    1  0.1488417E-008  0.3761450E+03  0.7957747E-01  0.3468118E+00
         13   -1    0    0    0    0  0.00000000000E+00  0.00000000000E+00  0.14999999963E+04  0.15000000000E+04  0.10566000000E+00 0.  1.
        994   -1    0    0    0    0 -0.00000000000E+00 -0.00000000000E+00  0.11368683772E-12  0.17120000000E+03  0.17120000000E+03 0.  0.
         13    1    1    2    0    0  0.23941401961E+02  0.84895192639E+02  0.43688873515E+03  0.44570411993E+03  0.10566000000E+00 0.  1.
        994    1    1    2    0    0 -0.20555138281E+02 -0.88073605653E+02  0.34311710005E+02  0.19663724766E+03  0.17120000000E+03 0.  0.
        998    1    1    2    0    0 -0.33862636798E+01  0.31784130139E+01  0.10287995511E+04  0.10288586324E+04  0.10000000000E+02 0. -1.
</event>
<event>
 5    1  0.1488417E-008  0.3754080E+03  0.7957747E-01  0.3471400E+00
         13   -1    0    0    0    0  0.00000000000E+00  0.00000000000E+00  0.14999999963E+04  0.15000000000E+04  0.10566000000E+00 0.  1.
        994   -1    0    0    0    0 -0.00000000000E+00 -0.00000000000E+00  0.11368683772E-12  0.17120000000E+03  0.17120000000E+03 0.  0.
         13    1    1    2    0    0  0.47298350486E+02  0.84667094774E+02  0.56276170324E+03  0.57105726218E+03  0.10566000000E+00 0.  1.
        994    1    1    2    0    0 -0.39932420338E+02 -0.67888890932E+02  0.27827373535E+02  0.19049226342E+03  0.17120000000E+03 0.  0.
        998    1    1    2    0    0 -0.73659301475E+01 -0.16778203842E+02  0.90941091950E+03  0.90965047439E+03  0.10000000000E+02 0.  1.
</event>
<event>
 5    1  0.1488417E-008  0.3689367E+03  0.7957747E-01  0.3500792E+00
         13   -1    0    0    0    0  0.00000000000E+00  0.00000000000E+00  0.14999999963E+04  0.15000000000E+04  0.10566000000E+00 0.  1.
        994   -1    0    0    0    0 -0.00000000000E+00 -0.00000000000E+00  0.11368683772E-12  0.17120000000E+03  0.17120000000E+03 0.  0.
         13    1    1    2    0    0 -0.10252802348E+03 -0.22020662181E+02  0.41882177174E+03  0.43175061414E+03  0.10566000000E+00 0.  1.
        994    1    1    2    0    0  0.89687229860E+02  0.54721508309E+02  0.49173888421E+02  0.20679882489E+03  0.17120000000E+03 0.  0.
        998    1    1    2    0    0  0.12840793621E+02 -0.32700846127E+02  0.10320043361E+04  0.10326505610E+04  0.10000000000E+02 0.  1.
</event>
<event>
 5    1  0.1488417E-008  0.3816476E+03  0.7957747E-01  0.3444016E+00
         13   -1    0    0    0    0  0.00000000000E+00  0.00000000000E+00  0.14999999963E+04  0.15000000000E+04  0.10566000000E+00 0.  1.
        994   -1    0    0    0    0 -0.00000000000E+00 -0.00000000000E+00  0.11368683772E-12  0.17120000000E+03  0.17120000000E+03 0.  0.
         13    1    1    2    0    0 -0.12457098233E+01 -0.24127653793E+02  0.79836637780E+02  0.83412201545E+02  0.10566000000E+00 0.  1.
        994    1    1    2    0    0  0.88743872055E+01  0.32311186856E+02  0.70457493732E+01  0.17459052130E+03  0.17120000000E+03 0.  0.
        998    1    1    2    0    0 -0.76286773822E+01 -0.81835330621E+01  0.14131176091E+04  0.14131972772E+04  0.10000000000E+02 0.  0.
</event>
<event>
 5    1  0.1488417E-008  0.3798773E+03  0.7957747E-01  0.3451693E+00
         13   -1    0    0    0    0  0.00000000000E+00  0.00000000000E+00  0.14999999963E+04  0.15000000000E+04  0.10566000000E+00 0. -1.
        994   -1    0    0    0    0 -0.00000000000E+00 -0.00000000000E+00  0.11368683772E-12  0.17120000000E+03  0.17120000000E+03 0.  0.
         13    1    1    2    0    0 -0.48136784721E+01  0.18609813029E+02  0.45160596486E+02  0.49081435191E+02  0.10566000000E+00 0. -1.
        994    1    1    2    0    0 -0.12504358982E+02  0.14958619019E+01  0.47256808888E+01  0.17172760016E+03  0.17120000000E+03 0.  0.
        998    1    1    2    0    0  0.17318037454E+02 -0.20105674931E+02  0.14501137189E+04  0.14503909646E+04  0.10000000000E+02 0. -1.
</event>
<event>
 5    1  0.1488417E-008  0.3773494E+03  0.7957747E-01  0.3462782E+00
         13   -1    0    0    0    0  0.00000000000E+00  0.00000000000E+00  0.14999999963E+04  0.15000000000E+04  0.10566000000E+00 0.  1.
        994   -1    0    0    0    0 -0.00000000000E+00 -0.00000000000E+00  0.11368683772E-12  0.17120000000E+03  0.17120000000E+03 0.  0.
         13    1    1    2    0    0 -0.19608587122E+02  0.11722435788E+02  0.48836209256E+02  0.53915662736E+02  0.10566000000E+00 0.  1.
        994    1    1    2    0    0  0.56322067714E+01  0.21088735882E+02  0.70856892356E+01  0.17273130442E+03  0.17120000000E+03 0.  0.
        998    1    1    2    0    0  0.13976380351E+02 -0.32811171670E+02  0.14440780978E+04  0.14445530328E+04  0.10000000000E+02 0.  1.
</event>
<event>
 5    1  0.1488417E-008  0.3774636E+03  0.7957747E-01  0.3462278E+00
         13   -1    0    0    0    0  0.00000000000E+00  0.00000000000E+00  0.14999999963E+04  0.15000000000E+04  0.10566000000E+00 0.  1.
        994   -1    0    0    0    0 -0.00000000000E+00 -0.00000000000E+00  0.11368683772E-12  0.17120000000E+03  0.17120000000E+03 0.  0.
         13    1    1    2    0    0 -0.31093776785E+02  0.67717312370E+01  0.10265965836E+03  0.10747881613E+03  0.10566000000E+00 0.  1.
        994    1    1    2    0    0 -0.29433538141E+01  0.97130129839E+01  0.57663660020E+01  0.17159748521E+03  0.17120000000E+03 0.  0.
        998    1    1    2    0    0  0.34037130599E+02 -0.16484744221E+02  0.13915739719E+04  0.13921236987E+04  0.10000000000E+02 0.  1.
</event>
<event>
 5    1  0.1488417E-008  0.3753350E+03  0.7957747E-01  0.3471726E+00
         13   -1    0    0    0    0  0.00000000000E+00  0.00000000000E+00  0.14999999963E+04  0.15000000000E+04  0.10566000000E+00 0. -1.
        994   -1    0    0    0    0 -0.00000000000E+00 -0.00000000000E+00  0.11368683772E-12  0.17120000000E+03  0.17120000000E+03 0.  0.
         13    1    1    2    0    0  0.35087262991E+02  0.22308615609E+01  0.99731401829E+02  0.10574713444E+03  0.10566000000E+00 0. -1.
        994    1    1    2    0    0 -0.48183340794E+01  0.55470349911E+01  0.66901290170E+01  0.17148814468E+03  0.17120000000E+03 0.  0.
        998    1    1    2    0    0 -0.30268928911E+02 -0.77778965521E+01  0.13935784654E+04  0.13939647209E+04  0.10000000000E+02 0. -1.
</event>
<event>
 5    1  0.1488417E-008  0.3838662E+03  0.7957747E-01  0.3434495E+00
         13   -1    0    0    0    0  0.00000000000E+00  0.00000000000E+00  0.14999999963E+04  0.15000000000E+04  0.10566000000E+00 0. -1.
        994   -1    0    0    0    0 -0.00000000000E+00 -0.00000000000E+00  0.11368683772E-12  0.17120000000E+03  0.17120000000E+03 0.  0.
         13    1    1    2    0    0  0.97319723078E+01  0.51736976100E+01  0.26472779667E+02  0.28675732934E+02  0.10566000000E+00 0. -1.
        994    1    1    2    0    0 -0.61094439376E+01 -0.16567401009E+02  0.32239899747E+01  0.17213842741E+03  0.17120000000E+03 0.  0.
        998    1    1    2    0    0 -0.36225283702E+01  0.11393703399E+02  0.14703032266E+04  0.14703858397E+04  0.10000000000E+02 0. -1.
</event>
<event>
 5    1  0.1488417E-008  0.3774775E+03  0.7957747E-01  0.3462216E+00
         13   -1    0    0    0    0  0.00000000000E+00  0.00000000000E+00  0.14999999963E+04  0.15000000000E+04  0.10566000000E+00 0.  1.
        994   -1    0    0    0    0 -0.00000000000E+00 -0.00000000000E+00  0.11368683772E-12  0.17120000000E+03  0.17120000000E+03 0.  0.
         13    1    1    2    0    0 -0.55005420175E+01  0.12917563758E+02  0.15640153390E+02  0.21017730088E+02  0.10566000000E+00 0.  1.
        994    1    1    2    0    0  0.86897092993E+01 -0.13442480553E+02  0.62760875053E+01  0.17206115368E+03  0.17120000000E+03 0.  0.
        998    1    1    2    0    0 -0.31891672818E+01  0.52491679514E+00  0.14780837554E+04  0.14781211162E+04  0.10000000000E+02 0.  1.
</event>
<event>
 5    1  0.1488417E-008  0.3742703E+03  0.7957747E-01  0.3476493E+00
         13   -1    0    0    0    0  0.00000000000E+00  0.00000000000E+00  0.14999999963E+04  0.15000000000E+04  0.10566000000E+00 0. -1.
        994   -1    0    0    0    0 -0.00000000000E+00 -0.00000000000E+00  0.11368683772E-12  0.17120000000E+03  0.17120000000E+03 0.  0.
         13    1    1    2    0    0  0.69356532740E+02  0.47718756631E+01  0.27860526051E+03  0.28714804854E+03  0.10566000000E+00 0. -1.
        994    1    1    2    0    0 -0.68518657815E+02 -0.83816132186E+01  0.23468975716E+02  0.18607872186E+03  0.17120000000E+03 0.  0.
        998    1    1    2    0    0 -0.83787492434E+00  0.36097375555E+01  0.11979257601E+04  0.11979732296E+04  0.10000000000E+02 0. -1.
</event>
<event>
 5    1  0.1488417E-008  0.3816509E+03  0.7957747E-01  0.3444002E+00
         13   -1    0    0    0    0  0.00000000000E+00  0.00000000000E+00  0.14999999963E+04  0.15000000000E+04  0.10566000000E+00 0. -1.
        994   -1    0    0    0    0 -0.00000000000E+00 -0.00000000000E+00  0.11368683772E-12  0.17120000000E+03  0.17120000000E+03 0.  0.
         13    1    1    2    0    0 -0.19851866917E+03  0.94440216193E+02  0.10819497118E+04  0.11040578818E+04  0.10566000000E+00 0. -1.
        994    1    1    2    0    0  0.20073243610E+03 -0.94632707934E+02  0.18943082805E+03  0.33829327355E+03  0.17120000000E+03 0.  0.
        998    1    1    2    0    0 -0.22137669241E+01  0.19249174184E+00  0.22861945648E+03  0.22884884465E+03  0.10000000000E+02 0.  0.
</event>
<event>
 5    1  0.1488417E-008  0.3858113E+03  0.7957747E-01  0.3426239E+00
         13   -1    0    0    0    0  0.00000000000E+00  0.00000000000E+00  0.14999999963E+04  0.15000000000E+04  0.10566000000E+00 0. -1.
        994   -1    0    0    0    0 -0.00000000000E+00 -0.00000000000E+00  0.11368683772E-12  0.17120000000E+03  0.17120000000E+03 0.  0.
         13    1    1    2    0    0 -0.60900023840E+01 -0.90070120563E+01  0.47858984862E+02  0.49078589948E+02  0.10566000000E+00 0. -1.
        994    1    1    2    0    0  0.43926514343E+01  0.86494786159E+01  0.15366216690E+01  0.17148151525E+03  0.17120000000E+03 0.  0.
        998    1    1    2    0    0  0.16973509497E+01  0.35753344034E+00  0.14506043897E+04  0.14506398948E+04  0.10000000000E+02 0. -1.
</event>
<event>
 5    1  0.1488417E-008  0.3385445E+03  0.7957747E-01  0.3654248E+00
         13   -1    0    0    0    0  0.00000000000E+00  0.00000000000E+00  0.14999999963E+04  0.15000000000E+04  0.10566000000E+00 0.  1.
        994   -1    0    0    0    0 -0.00000000000E+00 -0.00000000000E+00  0.11368683772E-12  0.17120000000E+03  0.17120000000E+03 0.  0.
         13    1    1    2    0    0 -0.76319029953E+02 -0.19069549883E+03  0.94681030972E+03  0.96883390803E+03  0.10566000000E+00 0.  1.
        994    1    1    2    0    0  0.73171423998E+02  0.16697812944E+03  0.13658909912E+03  0.28495925147E+03  0.17120000000E+03 0.  0.
        998    1    1    2    0    0  0.31476059553E+01  0.23717369393E+02  0.41660058745E+03  0.41740684050E+03  0.10000000000E+02 0. -1.
</event>
<event>
 5    1  0.1488417E-008  0.3851005E+03  0.7957747E-01  0.3429246E+00
         13   -1    0    0    0    0  0.00000000000E+00  0.00000000000E+00  0.14999999963E+04  0.15000000000E+04  0.10566000000E+00 0. -1.
        994   -1    0    0    0    0 -0.00000000000E+00 -0.00000000000E+00  0.11368683772E-12  0.17120000000E+03  0.17120000000E+03 0.  0.
         13    1    1    2    0    0  0.79736848733E+01 -0.12782851329E+02  0.68960922534E+02  0.70587540964E+02  0.10566000000E+00 0. -1.
        994    1    1    2    0    0 -0.11551582104E+02  0.11983531755E+02  0.24915847230E+01  0.17202526581E+03  0.17120000000E+03 0.  0.
        998    1    1    2    0    0  0.35778972307E+01  0.79931957421E+00  0.14285474890E+04  0.14285871932E+04  0.10000000000E+02 0. -1.
</event>
<event>
 5    1  0.1488417E-008  0.3815976E+03  0.7957747E-01  0.3444232E+00
         13   -1    0    0    0    0  0.00000000000E+00  0.00000000000E+00  0.14999999963E+04  0.15000000000E+04  0.10566000000E+00 0. -1.
        994   -1    0    0    0    0 -0.00000000000E+00 -0.00000000000E+00  0.11368683772E-12  0.17120000000E+03  0.17120000000E+03 0.  0.
         13    1    1    2    0    0 -0.13212226175E+02 -0.52704019029E+01  0.28554820125E+02  0.31901864728E+02  0.10566000000E+00 0. -1.
        994    1    1    2    0    0  0.16783177216E+02  0.67321549743E+00  0.42675945102E+01  0.17207492734E+03  0.17120000000E+03 0.  0.
        998    1    1    2    0    0 -0.35709510412E+01  0.45971864054E+01  0.14671775816E+04  0.14672232079E+04  0.10000000000E+02 0. -1.
</event>
<event>
 5    1  0.1488417E-008  0.3735658E+03  0.7957747E-01  0.3479662E+00
         13   -1    0    0    0    0  0.00000000000E+00  0.00000000000E+00  0.14999999963E+04  0.15000000000E+04  0.10566000000E+00 0. -1.
        994   -1    0    0    0    0 -0.00000000000E+00 -0.00000000000E+00  0.11368683772E-12  0.17120000000E+03  0.17120000000E+03 0.  0.
         13    1    1    2    0    0 -0.11424739738E+02  0.92169313983E+02  0.39861392943E+03  0.40929058506E+03  0.10566000000E+00 0. -1.
        994    1    1    2    0    0  0.80601525644E+01 -0.98422193830E+02  0.41496310954E+02  0.20194870171E+03  0.17120000000E+03 0.  0.
        998    1    1    2    0    0  0.33645871735E+01  0.62528798477E+01  0.10598897559E+04  0.10599607132E+04  0.10000000000E+02 0. -1.
</event>
<event>
 5    1  0.1488417E-008  0.3047692E+03  0.7957747E-01  0.3862548E+00
         13   -1    0    0    0    0  0.00000000000E+00  0.00000000000E+00  0.14999999963E+04  0.15000000000E+04  0.10566000000E+00 0. -1.
        994   -1    0    0    0    0 -0.00000000000E+00 -0.00000000000E+00  0.11368683772E-12  0.17120000000E+03  0.17120000000E+03 0.  0.
         13    1    1    2    0    0  0.21021798323E+02 -0.17756426002E+03  0.70625807602E+03  0.72854063960E+03  0.10566000000E+00 0. -1.
        994    1    1    2    0    0 -0.34435809483E+02  0.16254165292E+03  0.11730475506E+03  0.26584856492E+03  0.17120000000E+03 0.  0.
        998    1    1    2    0    0  0.13414011159E+02  0.15022607099E+02  0.67643716519E+03  0.67681079548E+03  0.10000000000E+02 0.  0.
</event>
<event>
 5    1  0.1488417E-008  0.3730663E+03  0.7957747E-01  0.3481916E+00
         13   -1    0    0    0    0  0.00000000000E+00  0.00000000000E+00  0.14999999963E+04  0.15000000000E+04  0.10566000000E+00 0. -1.
        994   -1    0    0    0    0 -0.00000000000E+00 -0.00000000000E+00  0.11368683772E-12  0.17120000000E+03  0.17120000000E+03 0.  0.
         13    1    1    2    0    0 -0.29278765475E+02 -0.82653699408E+02  0.34265143646E+03  0.35369322613E+03  0.10566000000E+00 0. -1.
        994    1    1    2    0    0  0.64531926526E+01  0.31139241741E+02  0.16151661964E+02  0.17487599108E+03  0.17120000000E+03 0.  0.
        998    1    1    2    0    0  0.22825572822E+02  0.51514457667E+02  0.11411968979E+04  0.11426307828E+04  0.10000000000E+02 0. -1.
</event>
<event>
 5    1  0.1488417E-008  0.3857328E+03  0.7957747E-01  0.3426570E+00
         13   -1    0    0    0    0  0.00000000000E+00  0.00000000000E+00  0.14999999963E+04  0.15000000000E+04  0.10566000000E+00 0. -1.
        994   -1    0    0    0    0 -0.00000000000E+00 -0.00000000000E+00  0.11368683772E-12  0.17120000000E+03  0.17120000000E+03 0.  0.
         13    1    1    2    0    0 -0.10129557748E+02 -0.28716515465E+01  0.43629849257E+02  0.44882393352E+02  0.10566000000E+00 0. -1.
        994    1    1    2    0    0  0.71765971135E+01  0.69552574124E+01  0.15945053578E+01  0.17149886763E+03  0.17120000000E+03 0.  0.
        998    1    1    2    0    0  0.29529606343E+01 -0.40836058659E+01  0.14547756417E+04  0.14548187390E+04  0.10000000000E+02 0. -1.
</event>
<event>
 5    1  0.1488417E-008  0.3731382E+03  0.7957747E-01  0.3481591E+00
         13   -1    0    0    0    0  0.00000000000E+00  0.00000000000E+00  0.14999999963E+04  0.15000000000E+04  0.10566000000E+00 0.  1.
        994   -1    0    0    0    0 -0.00000000000E+00 -0.00000000000E+00  0.11368683772E-12  0.17120000000E+03  0.17120000000E+03 0.  0.
         13    1    1    2    0    0 -0.18384739412E+02  0.10985469361E+03  0.42629772873E+03  0.44060846229E+03  0.10566000000E+00 0.  1.
        994    1    1    2    0    0  0.63431077669E+01 -0.83911168527E+02  0.38081387803E+02  0.19452750787E+03  0.17120000000E+03 0.  0.
        998    1    1    2    0    0  0.12041631645E+02 -0.25943525079E+02  0.10356208797E+04  0.10360640298E+04  0.10000000000E+02 0.  1.
</event>
<event>
 5    1  0.1488417E-008  0.3775221E+03  0.7957747E-01  0.3462019E+00
         13   -1    0    0    0    0  0.00000000000E+00  0.00000000000E+00  0.14999999963E+04  0.15000000000E+04  0.10566000000E+00 0. -1.
        994   -1    0    0    0    0 -0.00000000000E+00 -0.00000000000E+00  0.11368683772E-12  0.17120000000E+03  0.17120000000E+03 0.  0.
         13    1    1    2    0    0 -0.33839580195E+02  0.20318459244E+02  0.12269132507E+03  0.12888417042E+03  0.10566000000E+00 0. -1.
        994    1    1    2    0    0  0.45017952823E+02 -0.29157945931E+02  0.15147680900E+02  0.18004358951E+03  0.17120000000E+03 0.  0.
        998    1    1    2    0    0 -0.11178372628E+02  0.88394866867E+01  0.13621609903E+04  0.13622722401E+04  0.10000000000E+02 0. -1.
</event>
<event>
 5    1  0.1488417E-008  0.3710718E+03  0.7957747E-01  0.3490980E+00
         13   -1    0    0    0    0  0.00000000000E+00  0.00000000000E+00  0.14999999963E+04  0.15000000000E+04  0.10566000000E+00 0. -1.
        994   -1    0    0    0    0 -0.00000000000E+00 -0.00000000000E+00  0.11368683772E-12  0.17120000000E+03  0.17120000000E+03 0.  0.
         13    1    1    2    0    0 -0.31561849770E+02  0.18734997194E+02  0.73398499625E+02  0.82064007896E+02  0.10566000000E+00 0. -1.
        994    1    1    2    0    0  0.27045422114E+02 -0.64163636748E+01  0.11376153953E+02  0.17381450302E+03  0.17120000000E+03 0.  0.
        998    1    1    2    0    0  0.45164276561E+01 -0.12318633519E+02  0.14152253427E+04  0.14153214891E+04  0.10000000000E+02 0. -1.
</event>
<event>
 5    1  0.1488417E-008  0.3829116E+03  0.7957747E-01  0.3438578E+00
         13   -1    0    0    0    0  0.00000000000E+00  0.00000000000E+00  0.14999999963E+04  0.15000000000E+04  0.10566000000E+00 0. -1.
        994   -1    0    0    0    0 -0.00000000000E+00 -0.00000000000E+00  0.11368683772E-12  0.17120000000E+03  0.17120000000E+03 0.  0.
         13    1    1    2    0    0  0.64444450203E+01 -0.11941177029E+02  0.34332719066E+02  0.36917060324E+02  0.10566000000E+00 0. -1.
        994    1    1    2    0    0 -0.51501745663E+01  0.11139465387E+01  0.27625005916E+01  0.17130334668E+03  0.17120000000E+03 0.  0.
        998    1    1    2    0    0 -0.12942704540E+01  0.10827230490E+02  0.14629047766E+04  0.14629795930E+04  0.10000000000E+02 0. -1.
</event>
<event>
 5    1  0.2631065E-008  0.3862661E+03  0.7957747E-01  0.3424320E+00
         13   -1    0    0    0    0  0.00000000000E+00  0.00000000000E+00  0.14999999963E+04  0.15000000000E+04  0.10566000000E+00 0. -1.
        994   -1    0    0    0    0 -0.00000000000E+00 -0.00000000000E+00  0.11368683772E-12  0.17120000000E+03  0.17120000000E+03 0.  0.
         13    1    1    2    0    0 -0.93999627990E+01  0.42648510535E+01  0.51184325592E+02  0.52214888734E+02  0.10566000000E+00 0. -1.
        994    1    1    2    0    0  0.13078816291E+02 -0.65087693614E+01  0.17021311551E+01  0.17183060485E+03  0.17120000000E+03 0.  0.
        998    1    1    2    0    0 -0.36788534924E+01  0.22439183079E+01  0.14471135395E+04  0.14471545064E+04  0.10000000000E+02 0. -1.
</event>
<event>
 5    1  0.1488417E-008  0.3835210E+03  0.7957747E-01  0.3435969E+00
         13   -1    0    0    0    0  0.00000000000E+00  0.00000000000E+00  0.14999999963E+04  0.15000000000E+04  0.10566000000E+00 0.  1.
        994   -1    0    0    0    0 -0.00000000000E+00 -0.00000000000E+00  0.11368683772E-12  0.17120000000E+03  0.17120000000E+03 0.  0.
         13    1    1    2    0    0  0.41456490931E+01  0.20868785730E+02  0.89997596529E+02  0.92478490306E+02  0.10566000000E+00 0.  1.
        994    1    1    2    0    0 -0.80188621952E+01 -0.21050071824E+02  0.40447201630E+01  0.17272292099E+03  0.17120000000E+03 0.  0.
        998    1    1    2    0    0  0.38732131021E+01  0.18128609380E+00  0.14059576796E+04  0.14059985887E+04  0.10000000000E+02 0.  1.
</event>
<event>
 5    1  0.1488417E-008  0.3846749E+03  0.7957747E-01  0.3431052E+00
         13   -1    0    0    0    0  0.00000000000E+00  0.00000000000E+00  0.14999999963E+04  0.15000000000E+04  0.10566000000E+00 0. -1.
        994   -1    0    0    0    0 -0.00000000000E+00 -0.00000000000E+00  0.11368683772E-12  0.17120000000E+03  0.17120000000E+03 0.  0.
         13    1    1    2    0    0  0.10598442500E+02  0.12024237539E+02  0.67672174928E+02  0.69544544684E+02  0.10566000000E+00 0. -1.
        994    1    1    2    0    0 -0.17352898378E+02 -0.10866285054E+02  0.31729236375E+01  0.17244914229E+03  0.17120000000E+03 0.  0.
        998    1    1    2    0    0  0.67544558776E+01 -0.11579524847E+01  0.14291548977E+04  0.14292063130E+04  0.10000000000E+02 0. -1.
</event>
<event>
 5    1  0.1618540E-008  0.3857773E+03  0.7957747E-01  0.3426382E+00
         13   -1    0    0    0    0  0.00000000000E+00  0.00000000000E+00  0.14999999963E+04  0.15000000000E+04  0.10566000000E+00 0. -1.
        994   -1    0    0    0    0 -0.00000000000E+00 -0.00000000000E+00  0.11368683772E-12  0.17120000000E+03  0.17120000000E+03 0.  0.
         13    1    1    2    0    0 -0.13982841520E+01  0.10341685089E+02  0.45347424702E+02  0.46532845821E+02  0.10566000000E+00 0. -1.
        994    1    1    2    0    0  0.34596236631E+01 -0.19554054475E+01  0.12965016141E+01  0.17125102488E+03  0.17120000000E+03 0.  0.
        998    1    1    2    0    0 -0.20613395112E+01 -0.83862796420E+01  0.14533560700E+04  0.14534161293E+04  0.10000000000E+02 0. -1.
</event>
<event>
 5    1  0.1488417E-008  0.3803383E+03  0.7957747E-01  0.3449687E+00
         13   -1    0    0    0    0  0.00000000000E+00  0.00000000000E+00  0.14999999963E+04  0.15000000000E+04  0.10566000000E+00 0. -1.
        994   -1    0    0    0    0 -0.00000000000E+00 -0.00000000000E+00  0.11368683772E-12  0.17120000000E+03  0.17120000000E+03 0.  0.
         13    1    1    2    0    0  0.31902511119E+02 -0.80005385441E+01  0.15097056658E+03  0.15451181822E+03  0.10566000000E+00 0. -1.
        994    1    1    2    0    0 -0.32741195462E+01 -0.22343023140E+01  0.40149251277E+01  0.17129294086E+03  0.17120000000E+03 0.  0.
        998    1    1    2    0    0 -0.28628391573E+02  0.10234840858E+02  0.13450145046E+04  0.13453952409E+04  0.10000000000E+02 0. -1.
</event>
<event>
 5    1  0.1488417E-008  0.3793815E+03  0.7957747E-01  0.3453856E+00
         13   -1    0    0    0    0  0.00000000000E+00  0.00000000000E+00  0.14999999963E+04  0.15000000000E+04  0.10566000000E+00 0. -1.
        994   -1    0    0    0    0 -0.00000000000E+00 -0.00000000000E+00  0.11368683772E-12  0.17120000000E+03  0.17120000000E+03 0.  0.
         13    1    1    2    0    0  0.55715249618E+01  0.55540975495E+02  0.28819000810E+03  0.29354613570E+03  0.10566000000E+00 0. -1.
        994    1    1    2    0    0 -0.23988578674E+01 -0.54154877045E+02  0.14352666154E+02  0.18014978283E+03  0.17120000000E+03 0.  0.
        998    1    1    2    0    0 -0.31726670944E+01 -0.13860984501E+01  0.11974573220E+04  0.11975040815E+04  0.10000000000E+02 0. -1.
</event>
<event>
 5    1  0.1488417E-008  0.3841407E+03  0.7957747E-01  0.3433325E+00
         13   -1    0    0    0    0  0.00000000000E+00  0.00000000000E+00  0.14999999963E+04  0.15000000000E+04  0.10566000000E+00 0. -1.
        994   -1    0    0    0    0 -0.00000000000E+00 -0.00000000000E+00  0.11368683772E-12  0.17120000000E+03  0.17120000000E+03 0.  0.
         13    1    1    2    0    0 -0.23279731796E+02  0.14149271070E+02  0.16245945670E+03  0.16472775728E+03  0.10566000000E+00 0. -1.
        994    1    1    2    0    0  0.26271923275E+02 -0.10323910562E+02  0.46895078360E+01  0.17357485004E+03  0.17120000000E+03 0.  0.
        998    1    1    2    0    0 -0.29921914787E+01 -0.38253605077E+01  0.13328510317E+04  0.13328973927E+04  0.10000000000E+02 0. -1.
</event>
<event>
 5    1  0.1488417E-008  0.3712363E+03  0.7957747E-01  0.3490228E+00
         13   -1    0    0    0    0  0.00000000000E+00  0.00000000000E+00  0.14999999963E+04  0.15000000000E+04  0.10566000000E+00 0. -1.
        994   -1    0    0    0    0 -0.00000000000E+00 -0.00000000000E+00  0.11368683772E-12  0.17120000000E+03  0.17120000000E+03 0.  0.
         13    1    1    2    0    0  0.59107247292E+02 -0.22006979444E+02  0.19987429182E+03  0.20958940222E+03  0.10566000000E+00 0. -1.
        994    1    1    2    0    0 -0.60467323870E+02  0.14115358676E+02  0.22018064367E+02  0.18343875208E+03  0.17120000000E+03 0.  0.
        998    1    1    2    0    0  0.13600765783E+01  0.78916207683E+01  0.12781076401E+04  0.12781718457E+04  0.10000000000E+02 0. -1.
</event>
<event>
 5    1  0.1488417E-008  0.3861500E+03  0.7957747E-01  0.3424810E+00
         13   -1    0    0    0    0  0.00000000000E+00  0.00000000000E+00  0.14999999963E+04  0.15000000000E+04  0.10566000000E+00 0. -1.
        994   -1    0    0    0    0 -0.00000000000E+00 -0.00000000000E+00  0.11368683772E-12  0.17120000000E+03  0.17120000000E+03 0.  0.
         13    1    1    2    0    0 -0.10985307467E+02 -0.68188918254E+01  0.77315092464E+02  0.78388831811E+02  0.10566000000E+00 0. -1.
        994    1    1    2    0    0  0.11582426630E+02  0.49547928044E+01  0.15804167918E+01  0.17167014969E+03  0.17120000000E+03 0.  0.
        998    1    1    2    0    0 -0.59711916286E+00  0.18640990211E+01  0.14211044870E+04  0.14211410185E+04  0.10000000000E+02 0.  0.
</event>
<event>
 5    1  0.1488417E-008  0.3854023E+03  0.7957747E-01  0.3427968E+00
         13   -1    0    0    0    0  0.00000000000E+00  0.00000000000E+00  0.14999999963E+04  0.15000000000E+04  0.10566000000E+00 0.  1.
        994   -1    0    0    0    0 -0.00000000000E+00 -0.00000000000E+00  0.11368683772E-12  0.17120000000E+03  0.17120000000E+03 0.  0.
         13    1    1    2    0    0 -0.16217948582E+02 -0.91345060467E+00  0.93792438265E+02  0.95188701472E+02  0.10566000000E+00 0.  1.
        994    1    1    2    0    0  0.90811238596E+01 -0.28697799864E+01  0.17284963099E+01  0.17147340945E+03  0.17120000000E+03 0.  0.
        998    1    1    2    0    0  0.71368247224E+01  0.37832305911E+01  0.14044790617E+04  0.14045378891E+04  0.10000000000E+02 0.  1.
</event>
<event>
 5    1  0.1488417E-008  0.3770089E+03  0.7957747E-01  0.3464287E+00
         13   -1    0    0    0    0  0.00000000000E+00  0.00000000000E+00  0.14999999963E+04  0.15000000000E+04  0.10566000000E+00 0. -1.
        994   -1    0    0    0    0 -0.00000000000E+00 -0.00000000000E+00  0.11368683772E-12  0.17120000000E+03  0.17120000000E+03 0.  0.
         13    1    1    2    0    0 -0.97004394672E+02  0.41124369752E+02  0.51116874108E+03  0.52191432189E+03  0.10566000000E+00 0. -1.
        994    1    1    2    0    0  0.36816975857E+02  0.22456964529E+02  0.21389654414E+02  0.17783914722E+03  0.17120000000E+03 0.  0.
        998    1    1    2    0    0  0.60187418815E+02 -0.63581334282E+02  0.96744160078E+03  0.97144653089E+03  0.10000000000E+02 0. -1.
</event>
<event>
 5    1  0.1488417E-008  0.3830545E+03  0.7957747E-01  0.3437966E+00
         13   -1    0    0    0    0  0.00000000000E+00  0.00000000000E+00  0.14999999963E+04  0.15000000000E+04  0.10566000000E+00 0. -1.
        994   -1    0    0    0    0 -0.00000000000E+00 -0.00000000000E+00  0.11368683772E-12  0.17120000000E+03  0.17120000000E+03 0.  0.
         13    1    1    2    0    0 -0.80834353306E+01 -0.31206544025E+02  0.19017829440E+03  0.19289112251E+03  0.10566000000E+00 0. -1.
        994    1    1    2    0    0 -0.38251552078E-01  0.24979680283E+02  0.46669805375E+01  0.17307572504E+03  0.17120000000E+03 0.  0.
        998    1    1    2    0    0  0.81216868827E+01  0.62268637416E+01  0.13051547213E+04  0.13052331525E+04  0.10000000000E+02 0. -1.
</event>
<event>
 5    1  0.1488417E-008  0.3833068E+03  0.7957747E-01  0.3436885E+00
         13   -1    0    0    0    0  0.00000000000E+00  0.00000000000E+00  0.14999999963E+04  0.15000000000E+04  0.10566000000E+00 0. -1.
        994   -1    0    0    0    0 -0.00000000000E+00 -0.00000000000E+00  0.11368683772E-12  0.17120000000E+03  0.17120000000E+03 0.  0.
         13    1    1    2    0    0  0.11221849087E+02  0.21912206909E+02  0.11134367751E+03  0.11403289172E+03  0.10566000000E+00 0. -1.
        994    1    1    2    0    0 -0.16713959126E+02 -0.23479872384E+02  0.52247900791E+01  0.17368764858E+03  0.17120000000E+03 0.  0.
        998    1    1    2    0    0  0.54921100387E+01  0.15676654755E+01  0.13834315287E+04  0.13834794597E+04  0.10000000000E+02 0. -1.
</event>
<event>
 5    1  0.1488417E-008  0.3841005E+03  0.7957747E-01  0.3433496E+00
         13   -1    0    0    0    0  0.00000000000E+00  0.00000000000E+00  0.14999999963E+04  0.15000000000E+04  0.10566000000E+00 0. -1.
        994   -1    0    0    0    0 -0.00000000000E+00 -0.00000000000E+00  0.11368683772E-12  0.17120000000E+03  0.17120000000E+03 0.  0.
         13    1    1    2    0    0  0.74605659623E+01  0.14807743273E+02  0.60372685109E+02  0.62608318750E+02  0.10566000000E+00 0. -1.
        994    1    1    2    0    0 -0.56865042628E+01 -0.27095087373E+02  0.46095250832E+01  0.17348535331E+03  0.17120000000E+03 0.  0.
        998    1    1    2    0    0 -0.17740616995E+01  0.12287344100E+02  0.14350177861E+04  0.14351063279E+04  0.10000000000E+02 0. -1.
</event>
<event>
 5    1  0.1488417E-008  0.3836790E+03  0.7957747E-01  0.3435294E+00
         13   -1    0    0    0    0  0.00000000000E+00  0.00000000000E+00  0.14999999963E+04  0.15000000000E+04  0.10566000000E+00 0. -1.
        994   -1    0    0    0    0 -0.00000000000E+00 -0.00000000000E+00  0.11368683772E-12  0.17120000000E+03  0.17120000000E+03 0.  0.
         13    1    1    2    0    0 -0.20315678267E+02 -0.72138846037E+01  0.10704098891E+03  0.10919043633E+03  0.10566000000E+00 0. -1.
        994    1    1    2    0    0  0.68228884652E+01 -0.34840573582E+01  0.24812996364E+01  0.17138928587E+03  0.17120000000E+03 0.  0.
        998    1    1    2    0    0  0.13492789802E+02  0.10697941962E+02  0.13904777077E+04  0.13906202778E+04  0.10000000000E+02 0. -1.
</event>
<event>
 5    1  0.1488417E-008  0.3837380E+03  0.7957747E-01  0.3435042E+00
         13   -1    0    0    0    0  0.00000000000E+00  0.00000000000E+00  0.14999999963E+04  0.15000000000E+04  0.10566000000E+00 0. -1.
        994   -1    0    0    0    0 -0.00000000000E+00 -0.00000000000E+00  0.11368683772E-12  0.17120000000E+03  0.17120000000E+03 0.  0.
         13    1    1    2    0    0  0.26808221617E+01  0.12216748604E+02  0.33699457805E+02  0.35945797728E+02  0.10566000000E+00 0. -1.
        994    1    1    2    0    0  0.17949003560E+01 -0.11326795602E+02  0.26924107372E+01  0.17160479900E+03  0.17120000000E+03 0.  0.
        998    1    1    2    0    0 -0.44757225178E+01 -0.88995300134E+00  0.14636081277E+04  0.14636494033E+04  0.10000000000E+02 0. -1.
</event>
<event>
 5    1  0.1488417E-008  0.3807595E+03  0.7957747E-01  0.3447858E+00
         13   -1    0    0    0    0  0.00000000000E+00  0.00000000000E+00  0.14999999963E+04  0.15000000000E+04  0.10566000000E+00 0. -1.
        994   -1    0    0    0    0 -0.00000000000E+00 -0.00000000000E+00  0.11368683772E-12  0.17120000000E+03  0.17120000000E+03 0.  0.
         13    1    1    2    0    0 -0.81907013715E+01  0.88166091597E+01  0.17479522162E+02  0.21221805886E+02  0.10566000000E+00 0. -1.
        994    1    1    2    0    0  0.34449879118E+02  0.13381099049E+02  0.83181617031E+01  0.17534103854E+03  0.17120000000E+03 0.  0.
        998    1    1    2    0    0 -0.26259177747E+02 -0.22197708209E+02  0.14742023124E+04  0.14746371556E+04  0.10000000000E+02 0. -1.
</event>
<event>
 5    1  0.1488417E-008  0.3840272E+03  0.7957747E-01  0.3433809E+00
         13   -1    0    0    0    0  0.00000000000E+00  0.00000000000E+00  0.14999999963E+04  0.15000000000E+04  0.10566000000E+00 0. -1.
        994   -1    0    0    0    0 -0.00000000000E+00 -0.00000000000E+00  0.11368683772E-12  0.17120000000E+03  0.17120000000E+03 0.  0.
         13    1    1    2    0    0  0.19233824150E+02  0.99712439777E+01  0.10369559042E+03  0.10593466069E+03  0.10566000000E+00 0. -1.
        994    1    1    2    0    0 -0.18895457205E+02 -0.12921260547E+02  0.38445065139E+01  0.17276636683E+03  0.17120000000E+03 0.  0.
        998    1    1    2    0    0 -0.33836694458E+00  0.29500165690E+01  0.13924598993E+04  0.13924989725E+04  0.10000000000E+02 0. -1.
</event>
<event>
 5    1  0.1488417E-008  0.3848121E+03  0.7957747E-01  0.3430470E+00
         13   -1    0    0    0    0  0.00000000000E+00  0.00000000000E+00  0.14999999963E+04  0.15000000000E+04  0.10566000000E+00 0.  1.
        994   -1    0    0    0    0 -0.00000000000E+00 -0.00000000000E+00  0.11368683772E-12  0.17120000000E+03  0.17120000000E+03 0.  0.
         13    1    1    2    0    0  0.40738542232E+01  0.11107175622E+02  0.41121291722E+02  0.42789454722E+02  0.10566000000E+00 0.  1.
        994    1    1    2    0    0  0.41173648227E+01 -0.62374345561E+01  0.19073136515E+01  0.17137367397E+03  0.17120000000E+03 0.  0.
        998    1    1    2    0    0 -0.81912190459E+01 -0.48697410663E+01  0.14569713909E+04  0.14570368713E+04  0.10000000000E+02 0.  1.
</event>
<event>
 5    1  0.1488417E-008  0.3751260E+03  0.7957747E-01  0.3472659E+00
         13   -1    0    0    0    0  0.00000000000E+00  0.00000000000E+00  0.14999999963E+04  0.15000000000E+04  0.10566000000E+00 0. -1.
        994   -1    0    0    0    0 -0.00000000000E+00 -0.00000000000E+00  0.11368683772E-12  0.17120000000E+03  0.17120000000E+03 0.  0.
         13    1    1    2    0    0 -0.25601502597E+02 -0.29318165379E+01  0.46359217633E+02  0.53039803045E+02  0.10566000000E+00 0. -1.
        994    1    1    2    0    0  0.25118936682E+02  0.58535870614E+01  0.88776120570E+01  0.17335938814E+03  0.17120000000E+03 0.  0.
        998    1    1    2    0    0  0.48256591549E+00 -0.29217705235E+01  0.14447631666E+04  0.14448008088E+04  0.10000000000E+02 0. -1.
</event>
<event>
 5    1  0.1488417E-008  0.3836683E+03  0.7957747E-01  0.3435340E+00
         13   -1    0    0    0    0  0.00000000000E+00  0.00000000000E+00  0.14999999963E+04  0.15000000000E+04  0.10566000000E+00 0.  1.
        994   -1    0    0    0    0 -0.00000000000E+00 -0.00000000000E+00  0.11368683772E-12  0.17120000000E+03  0.17120000000E+03 0.  0.
         13    1    1    2    0    0  0.60031076530E+01 -0.14410788819E+02  0.45390597314E+02  0.48000266921E+02  0.10566000000E+00 0.  1.
        994    1    1    2    0    0 -0.86698058665E+01  0.42810397613E+02  0.86199880359E+01  0.17689443143E+03  0.17120000000E+03 0.  0.
        998    1    1    2    0    0  0.26666982135E+01 -0.28399608794E+02  0.14459894109E+04  0.14463053016E+04  0.10000000000E+02 0.  1.
</event>
<event>
 5    1  0.1488417E-008  0.3801550E+03  0.7957747E-01  0.3450484E+00
         13   -1    0    0    0    0  0.00000000000E+00  0.00000000000E+00  0.14999999963E+04  0.15000000000E+04  0.10566000000E+00 0.  1.
        994   -1    0    0    0    0 -0.00000000000E+00 -0.00000000000E+00  0.11368683772E-12  0.17120000000E+03  0.17120000000E+03 0.  0.
         13    1    1    2    0    0  0.12381598685E+02 -0.36909863463E+02  0.12362350955E+03  0.12960873923E+03  0.10566000000E+00 0.  1.
        994    1    1    2    0    0 -0.21596689936E+02  0.94473481245E+02  0.36100600694E+02  0.20001087232E+03  0.17120000000E+03 0.  0.
        998    1    1    2    0    0  0.92150912502E+01 -0.57563617782E+02  0.13402758860E+04  0.13415803885E+04  0.10000000000E+02 0.  1.
</event>
<event>
 5    1  0.1488417E-008  0.3848376E+03  0.7957747E-01  0.3430361E+00
         13   -1    0    0    0    0  0.00000000000E+00  0.00000000000E+00  0.14999999963E+04  0.15000000000E+04  0.10566000000E+00 0. -1.
        994   -1    0    0    0    0 -0.00000000000E+00 -0.00000000000E+00  0.11368683772E-12  0.17120000000E+03  0.17120000000E+03 0.  0.
         13    1    1    2    0    0 -0.92882712440E+01 -0.52011238442E+01  0.32033124959E+02  0.33755828098E+02  0.10566000000E+00 0. -1.
        994    1    1    2    0    0  0.97476545175E+01  0.90604184053E+01  0.22937605298E+01  0.17173179463E+03  0.17120000000E+03 0.  0.
        998    1    1    2    0    0 -0.45938327348E+00 -0.38592945611E+01  0.14656731108E+04  0.14657123773E+04  0.10000000000E+02 0. -1.
</event>
<event>
 5    1  0.1488417E-008  0.3840237E+03  0.7957747E-01  0.3433823E+00
         13   -1    0    0    0    0  0.00000000000E+00  0.00000000000E+00  0.14999999963E+04  0.15000000000E+04  0.10566000000E+00 0. -1.
        994   -1    0    0    0    0 -0.00000000000E+00 -0.00000000000E+00  0.11368683772E-12  0.17120000000E+03  0.17120000000E+03 0.  0.
         13    1    1    2    0    0  0.43355245963E+01  0.21196885103E+02  0.12120588876E+03  0.12312182319E+03  0.10566000000E+00 0. -1.
        994    1    1    2    0    0 -0.34127938615E+01 -0.60115220281E+00  0.21552432672E+01  0.17124863100E+03  0.17120000000E+03 0.  0.
        998    1    1    2    0    0 -0.92273073485E+00 -0.20595732900E+02  0.13766388643E+04  0.13768295458E+04  0.10000000000E+02 0. -1.
</event>
<event>
 5    1  0.1488417E-008  0.3818286E+03  0.7957747E-01  0.3443235E+00
         13   -1    0    0    0    0  0.00000000000E+00  0.00000000000E+00  0.14999999963E+04  0.15000000000E+04  0.10566000000E+00 0. -1.
        994   -1    0    0    0    0 -0.00000000000E+00 -0.00000000000E+00  0.11368683772E-12  0.17120000000E+03  0.17120000000E+03 0.  0.
         13    1    1    2    0    0 -0.13660159463E+02 -0.71260802295E+01  0.35986618220E+02  0.39146249258E+02  0.10566000000E+00 0. -1.
        994    1    1    2    0    0  0.61165281376E+01  0.72411452332E+01  0.35115012104E+01  0.17149815376E+03  0.17120000000E+03 0.  0.
        998    1    1    2    0    0  0.75436313249E+01 -0.11506500372E+00  0.14605018768E+04  0.14605555970E+04  0.10000000000E+02 0. -1.
</event>
<event>
 5    1  0.1488417E-008  0.3849506E+03  0.7957747E-01  0.3429882E+00
         13   -1    0    0    0    0  0.00000000000E+00  0.00000000000E+00  0.14999999963E+04  0.15000000000E+04  0.10566000000E+00 0.  1.
        994   -1    0    0    0    0 -0.00000000000E+00 -0.00000000000E+00  0.11368683772E-12  0.17120000000E+03  0.17120000000E+03 0.  0.
         13    1    1    2    0    0 -0.92611349149E+01  0.14311914537E+02  0.96098210360E+02  0.97598548739E+02  0.10566000000E+00 0.  1.
        994    1    1    2    0    0  0.30686914904E+01  0.26441142131E+01  0.17086170724E+01  0.17125643807E+03  0.17120000000E+03 0.  0.
        998    1    1    2    0    0  0.61924434245E+01 -0.16956028751E+02  0.14021931688E+04  0.14023450132E+04  0.10000000000E+02 0.  1.
</event>
<event>
 5    1  0.1488417E-008  0.3793210E+03  0.7957747E-01  0.3454120E+00
         13   -1    0    0    0    0  0.00000000000E+00  0.00000000000E+00  0.14999999963E+04  0.15000000000E+04  0.10566000000E+00 0.  1.
        994   -1    0    0    0    0 -0.00000000000E+00 -0.00000000000E+00  0.11368683772E-12  0.17120000000E+03  0.17120000000E+03 0.  0.
         13    1    1    2    0    0  0.18591084336E+02 -0.76305708685E+01  0.40737063396E+02  0.45424371506E+02  0.10566000000E+00 0.  1.
        994    1    1    2    0    0 -0.32902387840E+02  0.42189593250E+01  0.81717812240E+01  0.17457544143E+03  0.17120000000E+03 0.  0.
        998    1    1    2    0    0  0.14311303504E+02  0.34116115435E+01  0.14510911517E+04  0.14512001871E+04  0.10000000000E+02 0.  1.
</event>
<event>
 5    1  0.1488417E-008  0.3853268E+03  0.7957747E-01  0.3428287E+00
         13   -1    0    0    0    0  0.00000000000E+00  0.00000000000E+00  0.14999999963E+04  0.15000000000E+04  0.10566000000E+00 0.  1.
        994   -1    0    0    0    0 -0.00000000000E+00 -0.00000000000E+00  0.11368683772E-12  0.17120000000E+03  0.17120000000E+03 0.  0.
         13    1    1    2    0    0 -0.72385072380E+01  0.12406940257E+02  0.61179910386E+02  0.62843621414E+02  0.10566000000E+00 0.  1.
        994    1    1    2    0    0  0.53994991163E+01 -0.34111081859E+02  0.53960892217E+01  0.17473201846E+03  0.17120000000E+03 0.  0.
        998    1    1    2    0    0  0.18390081217E+01  0.21704141602E+02  0.14334239967E+04  0.14336243601E+04  0.10000000000E+02 0.  1.
</event>
<event>
 5    1  0.1488417E-008  0.3732877E+03  0.7957747E-01  0.3480916E+00
         13   -1    0    0    0    0  0.00000000000E+00  0.00000000000E+00  0.14999999963E+04  0.15000000000E+04  0.10566000000E+00 0.  1.
        994   -1    0    0    0    0 -0.00000000000E+00 -0.00000000000E+00  0.11368683772E-12  0.17120000000E+03  0.17120000000E+03 0.  0.
         13    1    1    2    0    0 -0.11885083604E+03  0.62101221160E+02  0.65440042622E+03  0.66799851190E+03  0.10566000000E+00 0.  1.
        994    1    1    2    0    0  0.11713549493E+03 -0.58926420399E+02  0.68835022332E+02  0.22636419216E+03  0.17120000000E+03 0.  0.
        998    1    1    2    0    0  0.17153411072E+01 -0.31748007614E+01  0.77676454772E+03  0.77683729593E+03  0.10000000000E+02 0.  0.
</event>
<event>
 5    1  0.1488417E-008  0.3745140E+03  0.7957747E-01  0.3475399E+00
         13   -1    0    0    0    0  0.00000000000E+00  0.00000000000E+00  0.14999999963E+04  0.15000000000E+04  0.10566000000E+00 0.  1.
        994   -1    0    0    0    0 -0.00000000000E+00 -0.00000000000E+00  0.11368683772E-12  0.17120000000E+03  0.17120000000E+03 0.  0.
         13    1    1    2    0    0 -0.74975226563E+02 -0.28170382746E+02  0.37020241852E+03  0.37876733875E+03  0.10566000000E+00 0.  1.
        994    1    1    2    0    0 -0.25581471518E+02  0.18277501895E+02  0.16865112182E+02  0.17487810260E+03  0.17120000000E+03 0.  0.
        998    1    1    2    0    0  0.10055669808E+03  0.98928808508E+01  0.11129324656E+04  0.11175545587E+04  0.10000000000E+02 0.  1.
</event>
<event>
 5    1  0.1488417E-008  0.3811381E+03  0.7957747E-01  0.3446218E+00
         13   -1    0    0    0    0  0.00000000000E+00  0.00000000000E+00  0.14999999963E+04  0.15000000000E+04  0.10566000000E+00 0.  1.
        994   -1    0    0    0    0 -0.00000000000E+00 -0.00000000000E+00  0.11368683772E-12  0.17120000000E+03  0.17120000000E+03 0.  0.
         13    1    1    2    0    0 -0.10342571733E+02 -0.60035061278E+01  0.18358736688E+02  0.21910391431E+02  0.10566000000E+00 0.  1.
        994    1    1    2    0    0  0.11830925037E+02  0.68366767570E+01  0.41818161326E+01  0.17179533906E+03  0.17120000000E+03 0.  0.
        998    1    1    2    0    0 -0.14883533042E+01 -0.83317062915E+00  0.14774594435E+04  0.14774942695E+04  0.10000000000E+02 0.  1.
</event>
<event>
 5    1  0.1488417E-008  0.3800564E+03  0.7957747E-01  0.3450913E+00
         13   -1    0    0    0    0  0.00000000000E+00  0.00000000000E+00  0.14999999963E+04  0.15000000000E+04  0.10566000000E+00 0.  1.
        994   -1    0    0    0    0 -0.00000000000E+00 -0.00000000000E+00  0.11368683772E-12  0.17120000000E+03  0.17120000000E+03 0.  0.
         13    1    1    2    0    0  0.19309966428E+02 -0.20974260024E+01  0.44357362238E+02  0.48423762225E+02  0.10566000000E+00 0.  1.
        994    1    1    2    0    0 -0.13096475485E+02  0.10078500082E+01  0.46815333559E+01  0.17176696477E+03  0.17120000000E+03 0.  0.
        998    1    1    2    0    0 -0.62134909434E+01  0.10895759942E+01  0.14509611007E+04  0.14510092730E+04  0.10000000000E+02 0.  1.
</event>
<event>
 5    1  0.1488417E-008  0.3841688E+03  0.7957747E-01  0.3433205E+00
         13   -1    0    0    0    0  0.00000000000E+00  0.00000000000E+00  0.14999999963E+04  0.15000000000E+04  0.10566000000E+00 0. -1.
        994   -1    0    0    0    0 -0.00000000000E+00 -0.00000000000E+00  0.11368683772E-12  0.17120000000E+03  0.17120000000E+03 0.  0.
         13    1    1    2    0    0 -0.10323739823E+02 -0.10593473038E+02  0.52955832675E+02  0.54983021501E+02  0.10566000000E+00 0. -1.
        994    1    1    2    0    0  0.68378127454E+01  0.79596275231E+01  0.24065696234E+01  0.17153816756E+03  0.17120000000E+03 0.  0.
        998    1    1    2    0    0  0.34859270774E+01  0.26338455151E+01  0.14446375940E+04  0.14446788109E+04  0.10000000000E+02 0. -1.
</event>
<event>
 5    1  0.1488417E-008  0.3804182E+03  0.7957747E-01  0.3449340E+00
         13   -1    0    0    0    0  0.00000000000E+00  0.00000000000E+00  0.14999999963E+04  0.15000000000E+04  0.10566000000E+00 0.  1.
        994   -1    0    0    0    0 -0.00000000000E+00 -0.00000000000E+00  0.11368683772E-12  0.17120000000E+03  0.17120000000E+03 0.  0.
         13    1    1    2    0    0  0.40415717848E+01  0.10896478614E+02  0.15325448290E+02  0.19234034367E+02  0.10566000000E+00 0.  1.
        994    1    1    2    0    0 -0.33059552416E+01 -0.13697933896E+02  0.45853207743E+01  0.17184012308E+03  0.17120000000E+03 0.  0.
        998    1    1    2    0    0 -0.73561654324E+00  0.28014552824E+01  0.14800892272E+04  0.14801258426E+04  0.10000000000E+02 0.  1.
</event>
<event>
 5    1  0.1488417E-008  0.3853715E+03  0.7957747E-01  0.3428098E+00
         13   -1    0    0    0    0  0.00000000000E+00  0.00000000000E+00  0.14999999963E+04  0.15000000000E+04  0.10566000000E+00 0.  1.
        994   -1    0    0    0    0 -0.00000000000E+00 -0.00000000000E+00  0.11368683772E-12  0.17120000000E+03  0.17120000000E+03 0.  0.
         13    1    1    2    0    0 -0.12336289724E+02 -0.44955872935E+01  0.59631561896E+02  0.61060041659E+02  0.10566000000E+00 0.  1.
        994    1    1    2    0    0  0.76541796587E+01  0.60340064601E+01  0.17578995319E+01  0.17148622659E+03  0.17120000000E+03 0.  0.
        998    1    1    2    0    0  0.46821100658E+01 -0.15384191666E+01  0.14386105349E+04  0.14386537317E+04  0.10000000000E+02 0.  1.
</event>
<event>
 5    1  0.1488417E-008  0.4127137E+03  0.7957747E-01  0.3320017E+00
         13   -1    0    0    0    0  0.00000000000E+00  0.00000000000E+00  0.14999999963E+04  0.15000000000E+04  0.10566000000E+00 0.  1.
        994   -1    0    0    0    0 -0.00000000000E+00 -0.00000000000E+00  0.11368683772E-12  0.17120000000E+03  0.17120000000E+03 0.  0.
         13    1    1    2    0    0  0.73802906774E+02  0.56176870181E+02  0.10517002580E+03  0.14022644288E+03  0.10566000000E+00 0.  1.
        994    1    1    2    0    0 -0.70644968047E+02 -0.48323924575E+02  0.66571140126E+02  0.20265011694E+03  0.17120000000E+03 0.  0.
        998    1    1    2    0    0 -0.31579387274E+01 -0.78529456065E+01  0.13282588304E+04  0.13283234402E+04  0.10000000000E+02 0.  1.
</event>
<event>
 5    1  0.1488417E-008  0.3730675E+03  0.7957747E-01  0.3481911E+00
         13   -1    0    0    0    0  0.00000000000E+00  0.00000000000E+00  0.14999999963E+04  0.15000000000E+04  0.10566000000E+00 0. -1.
        994   -1    0    0    0    0 -0.00000000000E+00 -0.00000000000E+00  0.11368683772E-12  0.17120000000E+03  0.17120000000E+03 0.  0.
         13    1    1    2    0    0  0.14025514958E+02 -0.53256822326E+01  0.31238336368E+01  0.15324733658E+02  0.10566000000E+00 0. -1.
        994    1    1    2    0    0 -0.17055800654E+02  0.85558177048E+01  0.13857838342E+02  0.17281661389E+03  0.17120000000E+03 0.  0.
        998    1    1    2    0    0  0.30302856960E+01 -0.32301354722E+01  0.14830183243E+04  0.14830586525E+04  0.10000000000E+02 0. -1.
</event>
<event>
 5    1  0.1488417E-008  0.3855694E+03  0.7957747E-01  0.3427261E+00
         13   -1    0    0    0    0  0.00000000000E+00  0.00000000000E+00  0.14999999963E+04  0.15000000000E+04  0.10566000000E+00 0. -1.
        994   -1    0    0    0    0 -0.00000000000E+00 -0.00000000000E+00  0.11368683772E-12  0.17120000000E+03  0.17120000000E+03 0.  0.
         13    1    1    2    0    0 -0.76140652837E-03 -0.11468548101E+02  0.50349561303E+02  0.51639297861E+02  0.10566000000E+00 0. -1.
        994    1    1    2    0    0  0.27194987461E+01  0.34676489504E+01  0.14114338081E+01  0.17126252482E+03  0.17120000000E+03 0.  0.
        998    1    1    2    0    0 -0.27187373395E+01  0.80008991509E+01  0.14482390012E+04  0.14482981773E+04  0.10000000000E+02 0. -1.
</event>
<event>
 5    1  0.1488417E-008  0.3753992E+03  0.7957747E-01  0.3471439E+00
         13   -1    0    0    0    0  0.00000000000E+00  0.00000000000E+00  0.14999999963E+04  0.15000000000E+04  0.10566000000E+00 0. -1.
        994   -1    0    0    0    0 -0.00000000000E+00 -0.00000000000E+00  0.11368683772E-12  0.17120000000E+03  0.17120000000E+03 0.  0.
         13    1    1    2    0    0  0.16767668079E+02 -0.15571482069E+02  0.37207840828E+02  0.43681349907E+02  0.10566000000E+00 0. -1.
        994    1    1    2    0    0 -0.10380227281E+02  0.20031049989E+02  0.82036410761E+01  0.17287490220E+03  0.17120000000E+03 0.  0.
        998    1    1    2    0    0 -0.63874407982E+01 -0.44595679200E+01  0.14545885144E+04  0.14546437479E+04  0.10000000000E+02 0. -1.
</event>
<event>
 5    1  0.1488417E-008  0.3868136E+03  0.7957747E-01  0.3422017E+00
         13   -1    0    0    0    0  0.00000000000E+00  0.00000000000E+00  0.14999999963E+04  0.15000000000E+04  0.10566000000E+00 0.  1.
        994   -1    0    0    0    0 -0.00000000000E+00 -0.00000000000E+00  0.11368683772E-12  0.17120000000E+03  0.17120000000E+03 0.  0.
         13    1    1    2    0    0  0.37657136743E+02  0.30746306335E+02  0.50409596383E+02  0.70032377315E+02  0.10566000000E+00 0.  1.
        994    1    1    2    0    0 -0.32643381461E+02 -0.28788363159E+02  0.27195224030E+02  0.17872711159E+03  0.17120000000E+03 0.  0.
        998    1    1    2    0    0 -0.50137552811E+01 -0.19579431763E+01  0.14223951759E+04  0.14224405111E+04  0.10000000000E+02 0.  1.
</event>
<event>
 5    1  0.1488417E-008  0.3796306E+03  0.7957747E-01  0.3452768E+00
         13   -1    0    0    0    0  0.00000000000E+00  0.00000000000E+00  0.14999999963E+04  0.15000000000E+04  0.10566000000E+00 0.  1.
        994   -1    0    0    0    0 -0.00000000000E+00 -0.00000000000E+00  0.11368683772E-12  0.17120000000E+03  0.17120000000E+03 0.  0.
         13    1    1    2    0    0  0.38662476895E+02  0.52026929042E+01  0.19962444086E+03  0.20340054987E+03  0.10566000000E+00 0.  1.
        994    1    1    2    0    0 -0.46096230350E+01  0.26066170277E-01  0.43908454685E+01  0.17131832601E+03  0.17120000000E+03 0.  0.
        998    1    1    2    0    0 -0.34052853860E+02 -0.52287590744E+01  0.12959847099E+04  0.12964811241E+04  0.10000000000E+02 0.  1.
</event>
<event>
 5    1  0.1488417E-008  0.3806821E+03  0.7957747E-01  0.3448194E+00
         13   -1    0    0    0    0  0.00000000000E+00  0.00000000000E+00  0.14999999963E+04  0.15000000000E+04  0.10566000000E+00 0. -1.
        994   -1    0    0    0    0 -0.00000000000E+00 -0.00000000000E+00  0.11368683772E-12  0.17120000000E+03  0.17120000000E+03 0.  0.
         13    1    1    2    0    0  0.18267150807E+02  0.21097994533E+02  0.95605946867E+02  0.99595795153E+02  0.10566000000E+00 0. -1.
        994    1    1    2    0    0 -0.15071767467E+02 -0.24702460634E+02  0.65871895113E+01  0.17375327566E+03  0.17120000000E+03 0.  0.
        998    1    1    2    0    0 -0.31953833398E+01  0.36044661014E+01  0.13978068599E+04  0.13978509292E+04  0.10000000000E+02 0. -1.
</event>
<event>
 5    1  0.1488417E-008  0.3718903E+03  0.7957747E-01  0.3487248E+00
         13   -1    0    0    0    0  0.00000000000E+00  0.00000000000E+00  0.14999999963E+04  0.15000000000E+04  0.10566000000E+00 0.  1.
        994   -1    0    0    0    0 -0.00000000000E+00 -0.00000000000E+00  0.11368683772E-12  0.17120000000E+03  0.17120000000E+03 0.  0.
         13    1    1    2    0    0 -0.24246975610E+02  0.21550587916E+02  0.68656162535E+02  0.75934336659E+02  0.10566000000E+00 0.  1.
        994    1    1    2    0    0 -0.14200469491E+02  0.10493182222E+02  0.93560743535E+01  0.17236222421E+03  0.17120000000E+03 0.  0.
        998    1    1    2    0    0  0.38447445101E+02 -0.32043770138E+02  0.14219877594E+04  0.14229034391E+04  0.10000000000E+02 0.  1.
</event>
<event>
 5    1  0.1488417E-008  0.3773386E+03  0.7957747E-01  0.3462829E+00
         13   -1    0    0    0    0  0.00000000000E+00  0.00000000000E+00  0.14999999963E+04  0.15000000000E+04  0.10566000000E+00 0. -1.
        994   -1    0    0    0    0 -0.00000000000E+00 -0.00000000000E+00  0.11368683772E-12  0.17120000000E+03  0.17120000000E+03 0.  0.
         13    1    1    2    0    0  0.16438064613E+02 -0.86337353220E+01  0.30482411650E+02  0.35692295217E+02  0.10566000000E+00 0. -1.
        994    1    1    2    0    0 -0.30751382973E+01 -0.11561245540E+02  0.59654891489E+01  0.17172112839E+03  0.17120000000E+03 0.  0.
        998    1    1    2    0    0 -0.13362926316E+02  0.20194980862E+02  0.14635520955E+04  0.14637865764E+04  0.10000000000E+02 0. -1.
</event>
<event>
 5    1  0.1488417E-008  0.3838387E+03  0.7957747E-01  0.3434612E+00
         13   -1    0    0    0    0  0.00000000000E+00  0.00000000000E+00  0.14999999963E+04  0.15000000000E+04  0.10566000000E+00 0.  1.
        994   -1    0    0    0    0 -0.00000000000E+00 -0.00000000000E+00  0.11368683772E-12  0.17120000000E+03  0.17120000000E+03 0.  0.
         13    1    1    2    0    0 -0.14679617670E+02  0.77344603918E+01  0.66639816813E+02  0.68674517846E+02  0.10566000000E+00 0.  1.
        994    1    1    2    0    0  0.37320417529E+01  0.11886073905E+02  0.27203074600E+01  0.17167424665E+03  0.17120000000E+03 0.  0.
        998    1    1    2    0    0  0.10947575917E+02 -0.19620534297E+02  0.14306398720E+04  0.14308512355E+04  0.10000000000E+02 0.  1.
</event>
<event>
 5    1  0.1488417E-008  0.3754084E+03  0.7957747E-01  0.3471398E+00
         13   -1    0    0    0    0  0.00000000000E+00  0.00000000000E+00  0.14999999963E+04  0.15000000000E+04  0.10566000000E+00 0. -1.
        994   -1    0    0    0    0 -0.00000000000E+00 -0.00000000000E+00  0.11368683772E-12  0.17120000000E+03  0.17120000000E+03 0.  0.
         13    1    1    2    0    0 -0.10526091116E+02  0.47761992171E+01  0.73054035734E+01  0.13674456426E+02  0.10566000000E+00 0. -1.
        994    1    1    2    0    0  0.13253674033E+02 -0.14814833176E+01  0.70731214180E+01  0.17186425956E+03  0.17120000000E+03 0.  0.
        998    1    1    2    0    0 -0.27275829167E+01 -0.32947158995E+01  0.14856214713E+04  0.14856612840E+04  0.10000000000E+02 0. -1.
</event>
<event>
 5    1  0.1488417E-008  0.3825751E+03  0.7957747E-01  0.3440022E+00
         13   -1    0    0    0    0  0.00000000000E+00  0.00000000000E+00  0.14999999963E+04  0.15000000000E+04  0.10566000000E+00 0. -1.
        994   -1    0    0    0    0 -0.00000000000E+00 -0.00000000000E+00  0.11368683772E-12  0.17120000000E+03  0.17120000000E+03 0.  0.
         13    1    1    2    0    0 -0.14631494428E+02  0.37357577481E+01  0.41177746699E+02  0.43859485888E+02  0.10566000000E+00 0. -1.
        994    1    1    2    0    0 -0.36301357005E+01 -0.61370136678E+01  0.30073985856E+01  0.17137480932E+03  0.17120000000E+03 0.  0.
        998    1    1    2    0    0  0.18261630129E+02  0.24012559196E+01  0.14558148510E+04  0.14559657048E+04  0.10000000000E+02 0. -1.
</event>
<event>
 5    1  0.1488417E-008  0.3718572E+03  0.7957747E-01  0.3487399E+00
         13   -1    0    0    0    0  0.00000000000E+00  0.00000000000E+00  0.14999999963E+04  0.15000000000E+04  0.10566000000E+00 0.  1.
        994   -1    0    0    0    0 -0.00000000000E+00 -0.00000000000E+00  0.11368683772E-12  0.17120000000E+03  0.17120000000E+03 0.  0.
         13    1    1    2    0    0 -0.68506251931E+01 -0.40442016409E+02  0.92762674246E+02  0.10142688329E+03  0.10566000000E+00 0.  1.
        994    1    1    2    0    0  0.16267306637E+02  0.39044644561E+02  0.14473386695E+02  0.17694074843E+03  0.17120000000E+03 0.  0.
        998    1    1    2    0    0 -0.94166814436E+01  0.13973718480E+01  0.13927639353E+04  0.13928323683E+04  0.10000000000E+02 0.  1.
</event>
<event>
 5    1  0.1488417E-008  0.3862719E+03  0.7957747E-01  0.3424296E+00
         13   -1    0    0    0    0  0.00000000000E+00  0.00000000000E+00  0.14999999963E+04  0.15000000000E+04  0.10566000000E+00 0. -1.
        994   -1    0    0    0    0 -0.00000000000E+00 -0.00000000000E+00  0.11368683772E-12  0.17120000000E+03  0.17120000000E+03 0.  0.
         13    1    1    2    0    0 -0.17255483796E+00  0.10432402437E+02  0.55930438769E+02  0.56895429876E+02  0.10566000000E+00 0. -1.
        994    1    1    2    0    0 -0.12021854992E+02 -0.60500967699E+01  0.15934232463E+01  0.17173557484E+03  0.17120000000E+03 0.  0.
        998    1    1    2    0    0  0.12194409830E+02 -0.43823056667E+01  0.14424761343E+04  0.14425689953E+04  0.10000000000E+02 0. -1.
</event>
<event>
 5    1  0.1488417E-008  0.3747644E+03  0.7957747E-01  0.3474277E+00
         13   -1    0    0    0    0  0.00000000000E+00  0.00000000000E+00  0.14999999963E+04  0.15000000000E+04  0.10566000000E+00 0.  1.
        994   -1    0    0    0    0 -0.00000000000E+00 -0.00000000000E+00  0.11368683772E-12  0.17120000000E+03  0.17120000000E+03 0.  0.
         13    1    1    2    0    0 -0.30356406367E+02  0.99650893452E+01  0.68414287828E+02  0.75507220557E+02  0.10566000000E+00 0.  1.
        994    1    1    2    0    0  0.37400873595E+02 -0.38211048577E+01  0.11623262963E+02  0.17566435731E+03  0.17120000000E+03 0.  0.
        998    1    1    2    0    0 -0.70444672276E+01 -0.61439844874E+01  0.14199624455E+04  0.14200284221E+04  0.10000000000E+02 0.  1.
</event>
<event>
 5    1  0.1488417E-008  0.2914981E+03  0.7957747E-01  0.3958649E+00
         13   -1    0    0    0    0  0.00000000000E+00  0.00000000000E+00  0.14999999963E+04  0.15000000000E+04  0.10566000000E+00 0.  1.
        994   -1    0    0    0    0 -0.00000000000E+00 -0.00000000000E+00  0.11368683772E-12  0.17120000000E+03  0.17120000000E+03 0.  0.
         13    1    1    2    0    0 -0.20810881017E+03  0.13261416454E+03  0.45055741281E+03  0.51370982754E+03  0.10566000000E+00 0.  1.
        994    1    1    2    0    0  0.18737830263E+03 -0.93234532978E+02  0.28933219423E+03  0.39601245568E+03  0.17120000000E+03 0.  0.
        998    1    1    2    0    0  0.20730507545E+02 -0.39379631566E+02  0.76011038924E+03  0.76147771678E+03  0.10000000000E+02 0.  1.
</event>
<event>
 5    1  0.1488417E-008  0.4050536E+03  0.7957747E-01  0.3348834E+00
         13   -1    0    0    0    0  0.00000000000E+00  0.00000000000E+00  0.14999999963E+04  0.15000000000E+04  0.10566000000E+00 0. -1.
        994   -1    0    0    0    0 -0.00000000000E+00 -0.00000000000E+00  0.11368683772E-12  0.17120000000E+03  0.17120000000E+03 0.  0.
         13    1    1    2    0    0 -0.40858717912E+02 -0.11251142771E+03  0.25278607121E+03  0.27969459265E+03  0.10566000000E+00 0. -1.
        994    1    1    2    0    0  0.27978831815E+01  0.50556390981E+02  0.41151948802E+02  0.18321217129E+03  0.17120000000E+03 0.  0.
        998    1    1    2    0    0  0.38060834731E+02  0.61955036725E+02  0.12060619763E+04  0.12082932361E+04  0.10000000000E+02 0. -1.
</event>
<event>
 5    1  0.1488417E-008  0.3755633E+03  0.7957747E-01  0.3470707E+00
         13   -1    0    0    0    0  0.00000000000E+00  0.00000000000E+00  0.14999999963E+04  0.15000000000E+04  0.10566000000E+00 0.  1.
        994   -1    0    0    0    0 -0.00000000000E+00 -0.00000000000E+00  0.11368683772E-12  0.17120000000E+03  0.17120000000E+03 0.  0.
         13    1    1    2    0    0  0.10661522706E+02 -0.30570791871E+02  0.76922946866E+02  0.83458925830E+02  0.10566000000E+00 0.  1.
        994    1    1    2    0    0 -0.12782181404E+02  0.26819065621E+02  0.93901572436E+01  0.17401224525E+03  0.17120000000E+03 0.  0.
        998    1    1    2    0    0  0.21206586981E+01  0.37517262501E+01  0.14136868922E+04  0.14137288289E+04  0.10000000000E+02 0.  1.
</event>
<event>
 5    1  0.1488417E-008  0.3816720E+03  0.7957747E-01  0.3443910E+00
         13   -1    0    0    0    0  0.00000000000E+00  0.00000000000E+00  0.14999999963E+04  0.15000000000E+04  0.10566000000E+00 0. -1.
        994   -1    0    0    0    0 -0.00000000000E+00 -0.00000000000E+00  0.11368683772E-12  0.17120000000E+03  0.17120000000E+03 0.  0.
         13    1    1    2    0    0 -0.29162085857E+02  0.26522447944E+01  0.14734837448E+03  0.15022987812E+03  0.10566000000E+00 0. -1.
        994    1    1    2    0    0 -0.17132735167E+01 -0.78062482165E+01  0.35038949712E+01  0.17142225672E+03  0.17120000000E+03 0.  0.
        998    1    1    2    0    0  0.30875359373E+02  0.51540034220E+01  0.13491477268E+04  0.13495478652E+04  0.10000000000E+02 0. -1.
</event>
<event>
 5    1  0.1488417E-008  0.3957614E+03  0.7957747E-01  0.3385276E+00
         13   -1    0    0    0    0  0.00000000000E+00  0.00000000000E+00  0.14999999963E+04  0.15000000000E+04  0.10566000000E+00 0. -1.
        994   -1    0    0    0    0 -0.00000000000E+00 -0.00000000000E+00  0.11368683772E-12  0.17120000000E+03  0.17120000000E+03 0.  0.
         13    1    1    2    0    0  0.38095017675E+02 -0.98823660173E+01  0.22510344312E+02  0.45338926926E+02  0.10566000000E+00 0. -1.
        994    1    1    2    0    0 -0.65015318098E+01 -0.97526655954E+02  0.63068015349E+02  0.20698003067E+03  0.17120000000E+03 0.  0.
        998    1    1    2    0    0 -0.31593485865E+02  0.10740902197E+03  0.14144216366E+04  0.14188810424E+04  0.10000000000E+02 0. -1.
</event>
<event>
 5    1  0.1488417E-008  0.3711918E+03  0.7957747E-01  0.3490431E+00
         13   -1    0    0    0    0  0.00000000000E+00  0.00000000000E+00  0.14999999963E+04  0.15000000000E+04  0.10566000000E+00 0.  1.
        994   -1    0    0    0    0 -0.00000000000E+00 -0.00000000000E+00  0.11368683772E-12  0.17120000000E+03  0.17120000000E+03 0.  0.
         13    1    1    2    0    0 -0.30217125919E+02 -0.19645624061E+02  0.74296098729E+02  0.82576913807E+02  0.10566000000E+00 0.  1.
        994    1    1    2    0    0  0.57652810983E+01  0.16043834853E+02  0.96488950798E+01  0.17231710385E+03  0.17120000000E+03 0.  0.
        998    1    1    2    0    0  0.24451844821E+02  0.36017892082E+01  0.14160550025E+04  0.14163059823E+04  0.10000000000E+02 0.  1.
</event>
<event>
 5    1  0.1488417E-008  0.3776507E+03  0.7957747E-01  0.3461452E+00
         13   -1    0    0    0    0  0.00000000000E+00  0.00000000000E+00  0.14999999963E+04  0.15000000000E+04  0.10566000000E+00 0. -1.
        994   -1    0    0    0    0 -0.00000000000E+00 -0.00000000000E+00  0.11368683772E-12  0.17120000000E+03  0.17120000000E+03 0.  0.
         13    1    1    2    0    0  0.25692763936E+01  0.17470408156E+02  0.26999180447E+02  0.32261172502E+02  0.10566000000E+00 0. -1.
        994    1    1    2    0    0  0.34281936243E+00 -0.13527417359E+02  0.59409345746E+01  0.17183667609E+03  0.17120000000E+03 0.  0.
        998    1    1    2    0    0 -0.29120957561E+01 -0.39429907973E+01  0.14670598813E+04  0.14671021514E+04  0.10000000000E+02 0. -1.
</event>
<event>
 5    1  0.1488417E-008  0.3852425E+03  0.7957747E-01  0.3428645E+00
         13   -1    0    0    0    0  0.00000000000E+00  0.00000000000E+00  0.14999999963E+04  0.15000000000E+04  0.10566000000E+00 0.  1.
        994   -1    0    0    0    0 -0.00000000000E+00 -0.00000000000E+00  0.11368683772E-12  0.17120000000E+03  0.17120000000E+03 0.  0.
         13    1    1    2    0    0  0.24063628046E+01 -0.13829017972E+02  0.72654702646E+02  0.73998306066E+02  0.10566000000E+00 0.  1.
        994    1    1    2    0    0  0.34708733817E+01 -0.50529540860E+01  0.16333123170E+01  0.17131750353E+03  0.17120000000E+03 0.  0.
        998    1    1    2    0    0 -0.58772361863E+01  0.18881972058E+02  0.14257119813E+04  0.14258841904E+04  0.10000000000E+02 0.  1.
</event>
<event>
 5    1  0.1488417E-008  0.3729927E+03  0.7957747E-01  0.3482249E+00
         13   -1    0    0    0    0  0.00000000000E+00  0.00000000000E+00  0.14999999963E+04  0.15000000000E+04  0.10566000000E+00 0. -1.
        994   -1    0    0    0    0 -0.00000000000E+00 -0.00000000000E+00  0.11368683772E-12  0.17120000000E+03  0.17120000000E+03 0.  0.
         13    1    1    2    0    0  0.10254960559E+03  0.60058669576E+02  0.55960910523E+03  0.57208900288E+03  0.10566000000E+00 0. -1.
        994    1    1    2    0    0 -0.60461223774E+02 -0.34844452620E+02  0.29940471529E+02  0.18728472253E+03  0.17120000000E+03 0.  0.
        998    1    1    2    0    0 -0.42088381816E+02 -0.25214216956E+02  0.91045041952E+03  0.91182627458E+03  0.10000000000E+02 0. -1.
</event>
<event>
 5    1  0.1488417E-008  0.3696632E+03  0.7957747E-01  0.3497440E+00
         13   -1    0    0    0    0  0.00000000000E+00  0.00000000000E+00  0.14999999963E+04  0.15000000000E+04  0.10566000000E+00 0.  1.
        994   -1    0    0    0    0 -0.00000000000E+00 -0.00000000000E+00  0.11368683772E-12  0.17120000000E+03  0.17120000000E+03 0.  0.
         13    1    1    2    0    0  0.24601085970E+02  0.39415560373E+02  0.10584424067E+03  0.11559331416E+03  0.10566000000E+00 0.  1.
        994    1    1    2    0    0 -0.21812524252E+02 -0.35171862873E+02  0.15397913680E+02  0.17680322932E+03  0.17120000000E+03 0.  0.
        998    1    1    2    0    0 -0.27885617186E+01 -0.42436975001E+01  0.13787578419E+04  0.13788034565E+04  0.10000000000E+02 0.  1.
</event>
<event>
 5    1  0.1488417E-008  0.3792377E+03  0.7957747E-01  0.3454484E+00
         13   -1    0    0    0    0  0.00000000000E+00  0.00000000000E+00  0.14999999963E+04  0.15000000000E+04  0.10566000000E+00 0. -1.
        994   -1    0    0    0    0 -0.00000000000E+00 -0.00000000000E+00  0.11368683772E-12  0.17120000000E+03  0.17120000000E+03 0.  0.
         13    1    1    2    0    0 -0.46700660907E+02 -0.41607503107E+02  0.10804194733E+03  0.12484073691E+03  0.10566000000E+00 0. -1.
        994    1    1    2    0    0  0.41481780497E+02  0.53804525256E+02  0.32782673939E+02  0.18708235823E+03  0.17120000000E+03 0.  0.
        998    1    1    2    0    0  0.52188804101E+01 -0.12197022149E+02  0.13591753750E+04  0.13592769049E+04  0.10000000000E+02 0. -1.
</event>
<event>
 5    1  0.1488417E-008  0.3768489E+03  0.7957747E-01  0.3464995E+00
         13   -1    0    0    0    0  0.00000000000E+00  0.00000000000E+00  0.14999999963E+04  0.15000000000E+04  0.10566000000E+00 0. -1.
        994   -1    0    0    0    0 -0.00000000000E+00 -0.00000000000E+00  0.11368683772E-12  0.17120000000E+03  0.17120000000E+03 0.  0.
         13    1    1    2    0    0 -0.36888743226E+02 -0.46201906882E+02  0.12625210169E+03  0.13940946855E+03  0.10566000000E+00 0. -1.
        994    1    1    2    0    0  0.20052586424E+02 -0.14248066537E+01  0.16055998667E+02  0.17312241735E+03  0.17120000000E+03 0.  0.
        998    1    1    2    0    0  0.16836156802E+02  0.47626713536E+02  0.13576918959E+04  0.13586681141E+04  0.10000000000E+02 0. -1.
</event>
<event>
 5    1  0.1488417E-008  0.3841831E+03  0.7957747E-01  0.3433144E+00
         13   -1    0    0    0    0  0.00000000000E+00  0.00000000000E+00  0.14999999963E+04  0.15000000000E+04  0.10566000000E+00 0. -1.
        994   -1    0    0    0    0 -0.00000000000E+00 -0.00000000000E+00  0.11368683772E-12  0.17120000000E+03  0.17120000000E+03 0.  0.
         13    1    1    2    0    0 -0.74434561687E+01 -0.86431524370E+01  0.30719906341E+02  0.32769390190E+02  0.10566000000E+00 0. -1.
        994    1    1    2    0    0  0.86626877577E+01  0.10241415211E+02  0.26297722454E+01  0.17174482364E+03  0.17120000000E+03 0.  0.
        998    1    1    2    0    0 -0.12192315889E+01 -0.15982627740E+01  0.14666503177E+04  0.14666857862E+04  0.10000000000E+02 0. -1.
</event>
<event>
 5    1  0.1488417E-008  0.3826330E+03  0.7957747E-01  0.3439773E+00
         13   -1    0    0    0    0  0.00000000000E+00  0.00000000000E+00  0.14999999963E+04  0.15000000000E+04  0.10566000000E+00 0. -1.
        994   -1    0    0    0    0 -0.00000000000E+00 -0.00000000000E+00  0.11368683772E-12  0.17120000000E+03  0.17120000000E+03 0.  0.
         13    1    1    2    0    0 -0.11739721373E+02  0.27403960734E+02  0.15704699681E+03  0.15985170782E+03  0.10566000000E+00 0. -1.
        994    1    1    2    0    0  0.27544455936E+01 -0.18297591196E+02  0.39454146519E+01  0.17224225704E+03  0.17120000000E+03 0.  0.
        998    1    1    2    0    0  0.89852757795E+01 -0.91063695389E+01  0.13390075848E+04  0.13391060351E+04  0.10000000000E+02 0. -1.
</event>
<event>
 5    1  0.1488417E-008  0.3815793E+03  0.7957747E-01  0.3444310E+00
         13   -1    0    0    0    0  0.00000000000E+00  0.00000000000E+00  0.14999999963E+04  0.15000000000E+04  0.10566000000E+00 0. -1.
        994   -1    0    0    0    0 -0.00000000000E+00 -0.00000000000E+00  0.11368683772E-12  0.17120000000E+03  0.17120000000E+03 0.  0.
         13    1    1    2    0    0  0.18056356326E+02  0.21515685616E+02  0.12633354030E+03  0.12941843493E+03  0.10566000000E+00 0. -1.
        994    1    1    2    0    0 -0.57976119121E+01 -0.17998652816E+01  0.34605885182E+01  0.17134254431E+03  0.17120000000E+03 0.  0.
        998    1    1    2    0    0 -0.12258744414E+02 -0.19715820334E+02  0.13702058675E+04  0.13704390208E+04  0.10000000000E+02 0. -1.
</event>
<event>
 5    1  0.1488417E-008  0.3835775E+03  0.7957747E-01  0.3435728E+00
         13   -1    0    0    0    0  0.00000000000E+00  0.00000000000E+00  0.14999999963E+04  0.15000000000E+04  0.10566000000E+00 0.  1.
        994   -1    0    0    0    0 -0.00000000000E+00 -0.00000000000E+00  0.11368683772E-12  0.17120000000E+03  0.17120000000E+03 0.  0.
         13    1    1    2    0    0  0.10244421273E+02 -0.10257358252E+02  0.46000334298E+02  0.48230731750E+02  0.10566000000E+00 0.  1.
        994    1    1    2    0    0 -0.59321520034E+01 -0.37384156053E+01  0.25004952653E+01  0.17136177711E+03  0.17120000000E+03 0.  0.
        998    1    1    2    0    0 -0.43122692698E+01  0.13995773857E+02  0.14514991667E+04  0.14516074911E+04  0.10000000000E+02 0.  1.
</event>
<event>
 5    1  0.1488417E-008  0.3854977E+03  0.7957747E-01  0.3427564E+00
         13   -1    0    0    0    0  0.00000000000E+00  0.00000000000E+00  0.14999999963E+04  0.15000000000E+04  0.10566000000E+00 0. -1.
        994   -1    0    0    0    0 -0.00000000000E+00 -0.00000000000E+00  0.11368683772E-12  0.17120000000E+03  0.17120000000E+03 0.  0.
         13    1    1    2    0    0  0.68852632657E+01 -0.11664963460E+02  0.69603748338E+02  0.70909598571E+02  0.10566000000E+00 0. -1.
        994    1    1    2    0    0 -0.48233833498E+01  0.54790450859E+00  0.14606059502E+01  0.17127503787E+03  0.17120000000E+03 0.  0.
        998    1    1    2    0    0 -0.20618799160E+01  0.11117058951E+02  0.14289356420E+04  0.14290153636E+04  0.10000000000E+02 0. -1.
</event>
<event>
 5    1  0.1488417E-008  0.3848871E+03  0.7957747E-01  0.3430151E+00
         13   -1    0    0    0    0  0.00000000000E+00  0.00000000000E+00  0.14999999963E+04  0.15000000000E+04  0.10566000000E+00 0.  1.
        994   -1    0    0    0    0 -0.00000000000E+00 -0.00000000000E+00  0.11368683772E-12  0.17120000000E+03  0.17120000000E+03 0.  0.
         13    1    1    2    0    0 -0.11883244665E+02 -0.10559984379E+02  0.76058942273E+02  0.77702629541E+02  0.10566000000E+00 0.  1.
        994    1    1    2    0    0  0.11995166175E+02 -0.11183062046E+01  0.21638057313E+01  0.17163699099E+03  0.17120000000E+03 0.  0.
        998    1    1    2    0    0 -0.11192151061E+00  0.11678290584E+02  0.14217772483E+04  0.14218603795E+04  0.10000000000E+02 0.  1.
</event>
<event>
 5    1  0.1488417E-008  0.3858762E+03  0.7957747E-01  0.3425965E+00
         13   -1    0    0    0    0  0.00000000000E+00  0.00000000000E+00  0.14999999963E+04  0.15000000000E+04  0.10566000000E+00 0. -1.
        994   -1    0    0    0    0 -0.00000000000E+00 -0.00000000000E+00  0.11368683772E-12  0.17120000000E+03  0.17120000000E+03 0.  0.
         13    1    1    2    0    0  0.12371996255E+02  0.23577263064E+01  0.65506768204E+02  0.66706618931E+02  0.10566000000E+00 0. -1.
        994    1    1    2    0    0 -0.11979119569E+02  0.18296284654E+01  0.16774518868E+01  0.17163653658E+03  0.17120000000E+03 0.  0.
        998    1    1    2    0    0 -0.39287668533E+00 -0.41873547719E+01  0.14328157762E+04  0.14328568445E+04  0.10000000000E+02 0. -1.
</event>
<event>
 5    1  0.1488417E-008  0.3832919E+03  0.7957747E-01  0.3436949E+00
         13   -1    0    0    0    0  0.00000000000E+00  0.00000000000E+00  0.14999999963E+04  0.15000000000E+04  0.10566000000E+00 0. -1.
        994   -1    0    0    0    0 -0.00000000000E+00 -0.00000000000E+00  0.11368683772E-12  0.17120000000E+03  0.17120000000E+03 0.  0.
         13    1    1    2    0    0 -0.82532619462E+01 -0.13554576666E+02  0.48400763812E+02  0.50936116685E+02  0.10566000000E+00 0. -1.
        994    1    1    2    0    0  0.12369713851E+02  0.13443539284E+02  0.35849985836E+01  0.17220926451E+03  0.17120000000E+03 0.  0.
        998    1    1    2    0    0 -0.41164519052E+01  0.11103738217E+00  0.14480142339E+04  0.14480546188E+04  0.10000000000E+02 0. -1.
</event>
<event>
 5    1  0.1488417E-008  0.3827989E+03  0.7957747E-01  0.3439061E+00
         13   -1    0    0    0    0  0.00000000000E+00  0.00000000000E+00  0.14999999963E+04  0.15000000000E+04  0.10566000000E+00 0.  1.
        994   -1    0    0    0    0 -0.00000000000E+00 -0.00000000000E+00  0.11368683772E-12  0.17120000000E+03  0.17120000000E+03 0.  0.
         13    1    1    2    0    0 -0.84069689305E+01 -0.24666102888E+02  0.12460321300E+03  0.12729911866E+03  0.10566000000E+00 0.  1.
        994    1    1    2    0    0 -0.45512843653E+01  0.17272059442E+02  0.37843351136E+01  0.17217084370E+03  0.17120000000E+03 0.  0.
        998    1    1    2    0    0  0.12958253296E+02  0.73940434460E+01  0.13716124482E+04  0.13717300376E+04  0.10000000000E+02 0.  1.
</event>
<event>
 5    1  0.1488417E-008  0.3797653E+03  0.7957747E-01  0.3452181E+00
         13   -1    0    0    0    0  0.00000000000E+00  0.00000000000E+00  0.14999999963E+04  0.15000000000E+04  0.10566000000E+00 0. -1.
        994   -1    0    0    0    0 -0.00000000000E+00 -0.00000000000E+00  0.11368683772E-12  0.17120000000E+03  0.17120000000E+03 0.  0.
         13    1    1    2    0    0 -0.20174958264E+02  0.86145324760E+01  0.53298369523E+02  0.57636502918E+02  0.10566000000E+00 0. -1.
        994    1    1    2    0    0  0.20452494507E+02 -0.94593855975E+01  0.59523154176E+01  0.17277920756E+03  0.17120000000E+03 0.  0.
        998    1    1    2    0    0 -0.27753624265E+00  0.84485312152E+00  0.14407493113E+04  0.14407842895E+04  0.10000000000E+02 0.  0.
</event>
<event>
 5    1  0.1488417E-008  0.3817649E+03  0.7957747E-01  0.3443509E+00
         13   -1    0    0    0    0  0.00000000000E+00  0.00000000000E+00  0.14999999963E+04  0.15000000000E+04  0.10566000000E+00 0.  1.
        994   -1    0    0    0    0 -0.00000000000E+00 -0.00000000000E+00  0.11368683772E-12  0.17120000000E+03  0.17120000000E+03 0.  0.
         13    1    1    2    0    0  0.10036136738E+02 -0.21120215248E+02  0.76565863045E+02  0.80057042667E+02  0.10566000000E+00 0.  1.
        994    1    1    2    0    0 -0.16535241694E+02  0.26820438541E+02  0.65513131957E+01  0.17419847831E+03  0.17120000000E+03 0.  0.
        998    1    1    2    0    0  0.64991049553E+01 -0.57002232936E+01  0.14168828200E+04  0.14169444790E+04  0.10000000000E+02 0.  1.
</event>
<event>
 5    1  0.1488417E-008  0.3792883E+03  0.7957747E-01  0.3454263E+00
         13   -1    0    0    0    0  0.00000000000E+00  0.00000000000E+00  0.14999999963E+04  0.15000000000E+04  0.10566000000E+00 0.  1.
        994   -1    0    0    0    0 -0.00000000000E+00 -0.00000000000E+00  0.11368683772E-12  0.17120000000E+03  0.17120000000E+03 0.  0.
         13    1    1    2    0    0  0.11943517655E+02  0.94009093959E+01  0.22603251213E+02  0.27238627735E+02  0.10566000000E+00 0.  1.
        994    1    1    2    0    0 -0.14995496121E+02 -0.29404481769E+02  0.81520983490E+01  0.17454336183E+03  0.17120000000E+03 0.  0.
        998    1    1    2    0    0  0.30519784660E+01  0.20003572373E+02  0.14692446467E+04  0.14694180104E+04  0.10000000000E+02 0.  1.
</event>
<event>
 5    1  0.1488417E-008  0.3783118E+03  0.7957747E-01  0.3458542E+00
         13   -1    0    0    0    0  0.00000000000E+00  0.00000000000E+00  0.14999999963E+04  0.15000000000E+04  0.10566000000E+00 0.  1.
        994   -1    0    0    0    0 -0.00000000000E+00 -0.00000000000E+00  0.11368683772E-12  0.17120000000E+03  0.17120000000E+03 0.  0.
         13    1    1    2    0    0 -0.11300823511E+03  0.82493718868E+02  0.54562752511E+03  0.56328099753E+03  0.10566000000E+00 0.  1.
        994    1    1    2    0    0  0.11168080404E+03 -0.23241808263E+02  0.63898308713E+02  0.21541870276E+03  0.17120000000E+03 0.  0.
        998    1    1    2    0    0  0.13274310674E+01 -0.59251910606E+02  0.89047416245E+03  0.89250029971E+03  0.10000000000E+02 0.  1.
</event>
<event>
 5    1  0.1488417E-008  0.3857764E+03  0.7957747E-01  0.3426386E+00
         13   -1    0    0    0    0  0.00000000000E+00  0.00000000000E+00  0.14999999963E+04  0.15000000000E+04  0.10566000000E+00 0. -1.
        994   -1    0    0    0    0 -0.00000000000E+00 -0.00000000000E+00  0.11368683772E-12  0.17120000000E+03  0.17120000000E+03 0.  0.
         13    1    1    2    0    0  0.89611686847E+01 -0.11283348206E+02  0.86480317589E+02  0.87672532673E+02  0.10566000000E+00 0. -1.
        994    1    1    2    0    0 -0.22486810595E+01  0.58773925964E+01  0.13750525928E+01  0.17132113436E+03  0.17120000000E+03 0.  0.
        998    1    1    2    0    0 -0.67124876252E+01  0.54059556098E+01  0.14121446261E+04  0.14122063330E+04  0.10000000000E+02 0. -1.
</event>
<event>
 5    1  0.1488417E-008  0.3846793E+03  0.7957747E-01  0.3431033E+00
         13   -1    0    0    0    0  0.00000000000E+00  0.00000000000E+00  0.14999999963E+04  0.15000000000E+04  0.10566000000E+00 0. -1.
        994   -1    0    0    0    0 -0.00000000000E+00 -0.00000000000E+00  0.11368683772E-12  0.17120000000E+03  0.17120000000E+03 0.  0.
         13    1    1    2    0    0  0.68485845132E+01 -0.13354901841E+02  0.63171456399E+02  0.64929966738E+02  0.10566000000E+00 0. -1.
        994    1    1    2    0    0 -0.94731653887E+01  0.51424568809E+01  0.21720050938E+01  0.17155274213E+03  0.17120000000E+03 0.  0.
        998    1    1    2    0    0  0.26245808755E+01  0.82124449596E+01  0.14346565348E+04  0.14347172911E+04  0.10000000000E+02 0. -1.
</event>
<event>
 5    1  0.1488417E-008  0.3744264E+03  0.7957747E-01  0.3475792E+00
         13   -1    0    0    0    0  0.00000000000E+00  0.00000000000E+00  0.14999999963E+04  0.15000000000E+04  0.10566000000E+00 0.  1.
        994   -1    0    0    0    0 -0.00000000000E+00 -0.00000000000E+00  0.11368683772E-12  0.17120000000E+03  0.17120000000E+03 0.  0.
         13    1    1    2    0    0  0.14809645615E+03 -0.87003905082E+02  0.81877624654E+03  0.83659834621E+03  0.10566000000E+00 0.  1.
        994    1    1    2    0    0 -0.14704124283E+03  0.88710950560E+02  0.11515594505E+03  0.26844197049E+03  0.17120000000E+03 0.  0.
        998    1    1    2    0    0 -0.10552133238E+01 -0.17070454781E+01  0.56606780470E+03  0.56615968330E+03  0.10000000000E+02 0.  0.
</event>
<event>
 5    1  0.1488417E-008  0.3745658E+03  0.7957747E-01  0.3475167E+00
         13   -1    0    0    0    0  0.00000000000E+00  0.00000000000E+00  0.14999999963E+04  0.15000000000E+04  0.10566000000E+00 0.  1.
        994   -1    0    0    0    0 -0.00000000000E+00 -0.00000000000E+00  0.11368683772E-12  0.17120000000E+03  0.17120000000E+03 0.  0.
         13    1    1    2    0    0  0.10597349427E+02  0.45010773415E+02  0.13836914283E+03  0.14589141301E+03  0.10566000000E+00 0.  1.
        994    1    1    2    0    0 -0.51603014179E+02 -0.37888734952E+02  0.20984232482E+02  0.18397881759E+03  0.17120000000E+03 0.  0.
        998    1    1    2    0    0  0.41005664753E+02 -0.71220384630E+01  0.13406466210E+04  0.13413297694E+04  0.10000000000E+02 0.  1.
</event>
<event>
 5    1  0.1488417E-008  0.3788298E+03  0.7957747E-01  0.3456270E+00
         13   -1    0    0    0    0  0.00000000000E+00  0.00000000000E+00  0.14999999963E+04  0.15000000000E+04  0.10566000000E+00 0.  1.
        994   -1    0    0    0    0 -0.00000000000E+00 -0.00000000000E+00  0.11368683772E-12  0.17120000000E+03  0.17120000000E+03 0.  0.
         13    1    1    2    0    0  0.71678636939E+01  0.23771718565E+02  0.64763602199E+02  0.69359989961E+02  0.10566000000E+00 0.  1.
        994    1    1    2    0    0  0.79724744924E+01 -0.13744734533E+02  0.55727654384E+01  0.17202608463E+03  0.17120000000E+03 0.  0.
        998    1    1    2    0    0 -0.15140338186E+02 -0.10026984031E+02  0.14296636286E+04  0.14298139254E+04  0.10000000000E+02 0.  1.
</event>
<event>
 5    1  0.1488417E-008  0.3859185E+03  0.7957747E-01  0.3425786E+00
         13   -1    0    0    0    0  0.00000000000E+00  0.00000000000E+00  0.14999999963E+04  0.15000000000E+04  0.10566000000E+00 0. -1.
        994   -1    0    0    0    0 -0.00000000000E+00 -0.00000000000E+00  0.11368683772E-12  0.17120000000E+03  0.17120000000E+03 0.  0.
         13    1    1    2    0    0 -0.12329807386E+02  0.60797202133E+01  0.79367279296E+02  0.80549136152E+02  0.10566000000E+00 0. -1.
        994    1    1    2    0    0  0.11811415831E+02 -0.29676155031E+01  0.16612565312E+01  0.17164065969E+03  0.17120000000E+03 0.  0.
        998    1    1    2    0    0  0.51839155499E+00 -0.31121047102E+01  0.14189714605E+04  0.14190102042E+04  0.10000000000E+02 0. -1.
</event>
<event>
 5    1  0.1488417E-008  0.3855175E+03  0.7957747E-01  0.3427481E+00
         13   -1    0    0    0    0  0.00000000000E+00  0.00000000000E+00  0.14999999963E+04  0.15000000000E+04  0.10566000000E+00 0. -1.
        994   -1    0    0    0    0 -0.00000000000E+00 -0.00000000000E+00  0.11368683772E-12  0.17120000000E+03  0.17120000000E+03 0.  0.
         13    1    1    2    0    0  0.20933016666E+01 -0.16924393122E+02  0.97320095193E+02  0.98802981163E+02  0.10566000000E+00 0. -1.
        994    1    1    2    0    0 -0.97885010101E+01  0.20734526885E+02  0.31014059910E+01  0.17275645886E+03  0.17120000000E+03 0.  0.
        998    1    1    2    0    0  0.76951993435E+01 -0.38101337630E+01  0.13995784951E+04  0.13996405600E+04  0.10000000000E+02 0. -1.
</event>
<event>
 5    1  0.1488417E-008  0.3816216E+03  0.7957747E-01  0.3444128E+00
         13   -1    0    0    0    0  0.00000000000E+00  0.00000000000E+00  0.14999999963E+04  0.15000000000E+04  0.10566000000E+00 0.  1.
        994   -1    0    0    0    0 -0.00000000000E+00 -0.00000000000E+00  0.11368683772E-12  0.17120000000E+03  0.17120000000E+03 0.  0.
         13    1    1    2    0    0  0.22700245427E+02 -0.87306465780E+01  0.92728654255E+02  0.95865216925E+02  0.10566000000E+00 0.  1.
        994    1    1    2    0    0 -0.75611553882E+01 -0.36955192243E+01  0.35523447271E+01  0.17144353906E+03  0.17120000000E+03 0.  0.
        998    1    1    2    0    0 -0.15139090039E+02  0.12426165802E+02  0.14037189973E+04  0.14038912440E+04  0.10000000000E+02 0.  1.
</event>
<event>
 5    1  0.1488417E-008  0.3851520E+03  0.7957747E-01  0.3429028E+00
         13   -1    0    0    0    0  0.00000000000E+00  0.00000000000E+00  0.14999999963E+04  0.15000000000E+04  0.10566000000E+00 0. -1.
        994   -1    0    0    0    0 -0.00000000000E+00 -0.00000000000E+00  0.11368683772E-12  0.17120000000E+03  0.17120000000E+03 0.  0.
         13    1    1    2    0    0 -0.10627228408E+02  0.10890991951E+02  0.79552265293E+02  0.80994603318E+02  0.10566000000E+00 0. -1.
        994    1    1    2    0    0  0.77381348199E+01  0.58561183974E+01  0.18643216068E+01  0.17148495138E+03  0.17120000000E+03 0.  0.
        998    1    1    2    0    0  0.28890935883E+01 -0.16747110348E+02  0.14185834094E+04  0.14187204453E+04  0.10000000000E+02 0. -1.
</event>
<event>
 5    1  0.1488417E-008  0.3849717E+03  0.7957747E-01  0.3429792E+00
         13   -1    0    0    0    0  0.00000000000E+00  0.00000000000E+00  0.14999999963E+04  0.15000000000E+04  0.10566000000E+00 0.  1.
        994   -1    0    0    0    0 -0.00000000000E+00 -0.00000000000E+00  0.11368683772E-12  0.17120000000E+03  0.17120000000E+03 0.  0.
         13    1    1    2    0    0  0.35573832394E+01 -0.12164943387E+02  0.50769939445E+02  0.52328183023E+02  0.10566000000E+00 0.  1.
        994    1    1    2    0    0  0.79909700353E+01  0.38443501232E+01  0.19028360979E+01  0.17144006362E+03  0.17120000000E+03 0.  0.
        998    1    1    2    0    0 -0.11548353275E+02  0.83205932642E+01  0.14473272207E+04  0.14474317534E+04  0.10000000000E+02 0.  1.
</event>
<event>
 5    1  0.1488417E-008  0.3830850E+03  0.7957747E-01  0.3437835E+00
         13   -1    0    0    0    0  0.00000000000E+00  0.00000000000E+00  0.14999999963E+04  0.15000000000E+04  0.10566000000E+00 0.  1.
        994   -1    0    0    0    0 -0.00000000000E+00 -0.00000000000E+00  0.11368683772E-12  0.17120000000E+03  0.17120000000E+03 0.  0.
         13    1    1    2    0    0 -0.92538165283E+01  0.59529898364E+01  0.21571345141E+02  0.24215806895E+02  0.10566000000E+00 0.  1.
        994    1    1    2    0    0  0.10704249201E+02 -0.21718486316E+02  0.45264154503E+01  0.17296300771E+03  0.17120000000E+03 0.  0.
        998    1    1    2    0    0 -0.14504326724E+01  0.15765496480E+02  0.14739022357E+04  0.14740211854E+04  0.10000000000E+02 0.  1.
</event>
<event>
 5    1  0.1488417E-008  0.3802679E+03  0.7957747E-01  0.3449993E+00
         13   -1    0    0    0    0  0.00000000000E+00  0.00000000000E+00  0.14999999963E+04  0.15000000000E+04  0.10566000000E+00 0.  1.
        994   -1    0    0    0    0 -0.00000000000E+00 -0.00000000000E+00  0.11368683772E-12  0.17120000000E+03  0.17120000000E+03 0.  0.
         13    1    1    2    0    0 -0.57722744300E+01 -0.91497282993E+01  0.12902520154E+02  0.16838137380E+02  0.10566000000E+00 0.  1.
        994    1    1    2    0    0  0.80278829014E+01  0.41883326373E+01  0.42718485022E+01  0.17149250049E+03  0.17120000000E+03 0.  0.
        998    1    1    2    0    0 -0.22556084714E+01  0.49613956620E+01  0.14828256276E+04  0.14828693621E+04  0.10000000000E+02 0.  1.
</event>
<event>
 5    1  0.1488417E-008  0.3713066E+03  0.7957747E-01  0.3489908E+00
         13   -1    0    0    0    0  0.00000000000E+00  0.00000000000E+00  0.14999999963E+04  0.15000000000E+04  0.10566000000E+00 0. -1.
        994   -1    0    0    0    0 -0.00000000000E+00 -0.00000000000E+00  0.11368683772E-12  0.17120000000E+03  0.17120000000E+03 0.  0.
         13    1    1    2    0    0 -0.23621133473E+02  0.48933891508E+01  0.29706966516E+02  0.38267717825E+02  0.10566000000E+00 0. -1.
        994    1    1    2    0    0  0.24400684118E+02 -0.60516791424E+01  0.10766284603E+02  0.17337061196E+03  0.17120000000E+03 0.  0.
        998    1    1    2    0    0 -0.77955064569E+00  0.11582899916E+01  0.14595267452E+04  0.14595616702E+04  0.10000000000E+02 0. -1.
</event>
<event>
 5    1  0.1488417E-008  0.4059630E+03  0.7957747E-01  0.3345357E+00
         13   -1    0    0    0    0  0.00000000000E+00  0.00000000000E+00  0.14999999963E+04  0.15000000000E+04  0.10566000000E+00 0. -1.
        994   -1    0    0    0    0 -0.00000000000E+00 -0.00000000000E+00  0.11368683772E-12  0.17120000000E+03  0.17120000000E+03 0.  0.
         13    1    1    2    0    0  0.27109629494E+02 -0.39496385429E+02  0.22529199773E+02  0.52938383804E+02  0.10566000000E+00 0. -1.
        994    1    1    2    0    0 -0.37778185020E+02  0.59836702974E+02  0.51777933178E+02  0.19234868508E+03  0.17120000000E+03 0.  0.
        998    1    1    2    0    0  0.10668555526E+02 -0.20340317545E+02  0.14256928633E+04  0.14259129311E+04  0.10000000000E+02 0. -1.
</event>
<event>
 5    1  0.1488417E-008  0.3692482E+03  0.7957747E-01  0.3499353E+00
         13   -1    0    0    0    0  0.00000000000E+00  0.00000000000E+00  0.14999999963E+04  0.15000000000E+04  0.10566000000E+00 0. -1.
        994   -1    0    0    0    0 -0.00000000000E+00 -0.00000000000E+00  0.11368683772E-12  0.17120000000E+03  0.17120000000E+03 0.  0.
         13    1    1    2    0    0  0.97530044958E+00  0.60559327926E+02  0.17381519275E+03  0.18406552042E+03  0.10566000000E+00 0. -1.
        994    1    1    2    0    0 -0.62264935820E+01 -0.51015610961E+02  0.18875691265E+02  0.17974174113E+03  0.17120000000E+03 0.  0.
        998    1    1    2    0    0  0.52511931324E+01 -0.95437169642E+01  0.13073091123E+04  0.13073927385E+04  0.10000000000E+02 0.  0.
</event>
<event>
 5    1  0.1488417E-008  0.3744783E+03  0.7957747E-01  0.3475559E+00
         13   -1    0    0    0    0  0.00000000000E+00  0.00000000000E+00  0.14999999963E+04  0.15000000000E+04  0.10566000000E+00 0. -1.
        994   -1    0    0    0    0 -0.00000000000E+00 -0.00000000000E+00  0.11368683772E-12  0.17120000000E+03  0.17120000000E+03 0.  0.
         13    1    1    2    0    0 -0.20453247060E+02 -0.73352919025E+02  0.22135551048E+03  0.23408814414E+03  0.10566000000E+00 0. -1.
        994    1    1    2    0    0  0.54315008796E+02  0.25735468271E+02  0.26270607068E+02  0.18333581020E+03  0.17120000000E+03 0.  0.
        998    1    1    2    0    0 -0.33861761736E+02  0.47617450754E+02  0.12523738787E+04  0.12537760457E+04  0.10000000000E+02 0. -1.
</event>
<event>
 5    1  0.1488417E-008  0.3837148E+03  0.7957747E-01  0.3435141E+00
         13   -1    0    0    0    0  0.00000000000E+00  0.00000000000E+00  0.14999999963E+04  0.15000000000E+04  0.10566000000E+00 0. -1.
        994   -1    0    0    0    0 -0.00000000000E+00 -0.00000000000E+00  0.11368683772E-12  0.17120000000E+03  0.17120000000E+03 0.  0.
         13    1    1    2    0    0  0.93383525681E+02 -0.61354431696E+02  0.61552784989E+03  0.62558723957E+03  0.10566000000E+00 0. -1.
        994    1    1    2    0    0  0.14633347718E+02  0.23223914165E+02  0.21155675447E+02  0.17467251546E+03  0.17120000000E+03 0.  0.
        998    1    1    2    0    0 -0.10801687340E+03  0.38130517531E+02  0.86331647094E+03  0.87094024496E+03  0.10000000000E+02 0.  1.
</event>
<event>
 5    1  0.1488417E-008  0.3826055E+03  0.7957747E-01  0.3439892E+00
         13   -1    0    0    0    0  0.00000000000E+00  0.00000000000E+00  0.14999999963E+04  0.15000000000E+04  0.10566000000E+00 0. -1.
        994   -1    0    0    0    0 -0.00000000000E+00 -0.00000000000E+00  0.11368683772E-12  0.17120000000E+03  0.17120000000E+03 0.  0.
         13    1    1    2    0    0 -0.96756600369E+01  0.12927099638E+02  0.45410832974E+02  0.48196298796E+02  0.10566000000E+00 0. -1.
        994    1    1    2    0    0  0.61615376945E+01 -0.77186763481E+01  0.31470252588E+01  0.17151351632E+03  0.17120000000E+03 0.  0.
        998    1    1    2    0    0  0.35141223424E+01 -0.52084232904E+01  0.14514421380E+04  0.14514901849E+04  0.10000000000E+02 0. -1.
</event>
<event>
 5    1  0.1488417E-008  0.3830784E+03  0.7957747E-01  0.3437863E+00
         13   -1    0    0    0    0  0.00000000000E+00  0.00000000000E+00  0.14999999963E+04  0.15000000000E+04  0.10566000000E+00 0.  1.
        994   -1    0    0    0    0 -0.00000000000E+00 -0.00000000000E+00  0.11368683772E-12  0.17120000000E+03  0.17120000000E+03 0.  0.
         13    1    1    2    0    0  0.11329201219E+01 -0.27832494697E+02  0.14229852869E+03  0.14499935759E+03  0.10566000000E+00 0.  1.
        994    1    1    2    0    0 -0.13812960951E+02  0.22677894270E+02  0.49239950884E+01  0.17331696543E+03  0.17120000000E+03 0.  0.
        998    1    1    2    0    0  0.12680040829E+02  0.51546004272E+01  0.13527774725E+04  0.13528836770E+04  0.10000000000E+02 0.  1.
</event>
<event>
 5    1  0.1488417E-008  0.3765130E+03  0.7957747E-01  0.3466484E+00
         13   -1    0    0    0    0  0.00000000000E+00  0.00000000000E+00  0.14999999963E+04  0.15000000000E+04  0.10566000000E+00 0. -1.
        994   -1    0    0    0    0 -0.00000000000E+00 -0.00000000000E+00  0.11368683772E-12  0.17120000000E+03  0.17120000000E+03 0.  0.
         13    1    1    2    0    0 -0.40057530653E+02 -0.18679754124E+02  0.14432900137E+03  0.15094505880E+03  0.10566000000E+00 0. -1.
        994    1    1    2    0    0  0.43618412892E+02  0.24241742048E+02  0.14372454643E+02  0.17890286597E+03  0.17120000000E+03 0.  0.
        998    1    1    2    0    0 -0.35608822388E+01 -0.55619879240E+01  0.13412985403E+04  0.13413520752E+04  0.10000000000E+02 0. -1.
</event>
<event>
 5    1  0.1488417E-008  0.3853808E+03  0.7957747E-01  0.3428059E+00
         13   -1    0    0    0    0  0.00000000000E+00  0.00000000000E+00  0.14999999963E+04  0.15000000000E+04  0.10566000000E+00 0. -1.
        994   -1    0    0    0    0 -0.00000000000E+00 -0.00000000000E+00  0.11368683772E-12  0.17120000000E+03  0.17120000000E+03 0.  0.
         13    1    1    2    0    0  0.26190584503E+01 -0.10945132684E+02  0.44926763136E+02  0.46315014915E+02  0.10566000000E+00 0. -1.
        994    1    1    2    0    0 -0.24789105670E+01  0.35555110898E+01  0.15028886176E+01  0.17126145314E+03  0.17120000000E+03 0.  0.
        998    1    1    2    0    0 -0.14014788332E+00  0.73896215940E+01  0.14535703445E+04  0.14536235319E+04  0.10000000000E+02 0. -1.
</event>
<event>
 5    1  0.1488417E-008  0.3862464E+03  0.7957747E-01  0.3424403E+00
         13   -1    0    0    0    0  0.00000000000E+00  0.00000000000E+00  0.14999999963E+04  0.15000000000E+04  0.10566000000E+00 0.  1.
        994   -1    0    0    0    0 -0.00000000000E+00 -0.00000000000E+00  0.11368683772E-12  0.17120000000E+03  0.17120000000E+03 0.  0.
         13    1    1    2    0    0  0.69004016069E+01 -0.84226308797E+01  0.62150656588E+02  0.63097317944E+02  0.10566000000E+00 0.  1.
        994    1    1    2    0    0  0.27837615853E+01  0.45839874433E+01  0.11067792436E+01  0.17128755714E+03  0.17120000000E+03 0.  0.
        998    1    1    2    0    0 -0.96841631923E+01  0.38386434365E+01  0.14367425604E+04  0.14368151249E+04  0.10000000000E+02 0.  1.
</event>
<event>
 5    1  0.1488417E-008  0.3831178E+03  0.7957747E-01  0.3437694E+00
         13   -1    0    0    0    0  0.00000000000E+00  0.00000000000E+00  0.14999999963E+04  0.15000000000E+04  0.10566000000E+00 0. -1.
        994   -1    0    0    0    0 -0.00000000000E+00 -0.00000000000E+00  0.11368683772E-12  0.17120000000E+03  0.17120000000E+03 0.  0.
         13    1    1    2    0    0 -0.18421645763E+02 -0.13309413285E+01  0.65297952537E+02  0.67859871846E+02  0.10566000000E+00 0. -1.
        994    1    1    2    0    0  0.13970777028E+02 -0.97688170610E+01  0.35296745537E+01  0.17208286085E+03  0.17120000000E+03 0.  0.
        998    1    1    2    0    0  0.44508687344E+01  0.11099758390E+02  0.14311723692E+04  0.14312572673E+04  0.10000000000E+02 0. -1.
</event>
<event>
 5    1  0.1488417E-008  0.3761336E+03  0.7957747E-01  0.3468168E+00
         13   -1    0    0    0    0  0.00000000000E+00  0.00000000000E+00  0.14999999963E+04  0.15000000000E+04  0.10566000000E+00 0.  1.
        994   -1    0    0    0    0 -0.00000000000E+00 -0.00000000000E+00  0.11368683772E-12  0.17120000000E+03  0.17120000000E+03 0.  0.
         13    1    1    2    0    0  0.30456936376E+02  0.22708775142E+01  0.26625920736E+02  0.40518300522E+02  0.10566000000E+00 0.  1.
        994    1    1    2    0    0 -0.28164838874E+02 -0.55113737748E+01  0.17167801762E+02  0.17443568100E+03  0.17120000000E+03 0.  0.
        998    1    1    2    0    0 -0.22920975027E+01  0.32404962605E+01  0.14562062738E+04  0.14562460185E+04  0.10000000000E+02 0.  1.
</event>
<event>
 5    1  0.1488417E-008  0.3812533E+03  0.7957747E-01  0.3445720E+00
         13   -1    0    0    0    0  0.00000000000E+00  0.00000000000E+00  0.14999999963E+04  0.15000000000E+04  0.10566000000E+00 0.  1.
        994   -1    0    0    0    0 -0.00000000000E+00 -0.00000000000E+00  0.11368683772E-12  0.17120000000E+03  0.17120000000E+03 0.  0.
         13    1    1    2    0    0  0.15822609367E+00  0.11897405573E+02  0.19388719600E+02  0.22748778135E+02  0.10566000000E+00 0.  1.
        994    1    1    2    0    0 -0.19610177787E+02  0.33800886060E+01  0.48212217538E+01  0.17242003437E+03  0.17120000000E+03 0.  0.
        998    1    1    2    0    0  0.19451951693E+02 -0.15277494179E+02  0.14757900549E+04  0.14760311875E+04  0.10000000000E+02 0.  1.
</event>
<event>
 5    1  0.1488417E-008  0.3821195E+03  0.7957747E-01  0.3441982E+00
         13   -1    0    0    0    0  0.00000000000E+00  0.00000000000E+00  0.14999999963E+04  0.15000000000E+04  0.10566000000E+00 0. -1.
        994   -1    0    0    0    0 -0.00000000000E+00 -0.00000000000E+00  0.11368683772E-12  0.17120000000E+03  0.17120000000E+03 0.  0.
         13    1    1    2    0    0 -0.11551750741E+02  0.19801245205E+02  0.90905651708E+02  0.93751698296E+02  0.10566000000E+00 0. -1.
        994    1    1    2    0    0  0.78477038354E+01  0.24512342219E+01  0.32914937115E+01  0.17142890344E+03  0.17120000000E+03 0.  0.
        998    1    1    2    0    0  0.37040469058E+01 -0.22252479427E+02  0.14058028509E+04  0.14060193983E+04  0.10000000000E+02 0. -1.
</event>
<event>
 5    1  0.1488417E-008  0.3696033E+03  0.7957747E-01  0.3497716E+00
         13   -1    0    0    0    0  0.00000000000E+00  0.00000000000E+00  0.14999999963E+04  0.15000000000E+04  0.10566000000E+00 0.  1.
        994   -1    0    0    0    0 -0.00000000000E+00 -0.00000000000E+00  0.11368683772E-12  0.17120000000E+03  0.17120000000E+03 0.  0.
         13    1    1    2    0    0 -0.22482184376E+02 -0.39829688833E+01  0.23543224763E+02  0.32796451816E+02  0.10566000000E+00 0.  1.
        994    1    1    2    0    0  0.13316851713E+02  0.15026921821E+02  0.10873622614E+02  0.17271601717E+03  0.17120000000E+03 0.  0.
        998    1    1    2    0    0  0.91653326631E+01 -0.11043952938E+02  0.14655831489E+04  0.14656875310E+04  0.10000000000E+02 0.  1.
</event>
<event>
 5    1  0.1488417E-008  0.3829401E+03  0.7957747E-01  0.3438456E+00
         13   -1    0    0    0    0  0.00000000000E+00  0.00000000000E+00  0.14999999963E+04  0.15000000000E+04  0.10566000000E+00 0.  1.
        994   -1    0    0    0    0 -0.00000000000E+00 -0.00000000000E+00  0.11368683772E-12  0.17120000000E+03  0.17120000000E+03 0.  0.
         13    1    1    2    0    0  0.10582731761E+02  0.21092106021E+02  0.10184076816E+03  0.10453910451E+03  0.10566000000E+00 0.  1.
        994    1    1    2    0    0 -0.13204940316E+02 -0.13539154377E+02  0.38414008096E+01  0.17228428689E+03  0.17120000000E+03 0.  0.
        998    1    1    2    0    0  0.26222085546E+01 -0.75529516436E+01  0.13943178273E+04  0.13943766086E+04  0.10000000000E+02 0.  1.
</event>
<event>
 5    1  0.1488417E-008  0.3851594E+03  0.7957747E-01  0.3428996E+00
         13   -1    0    0    0    0  0.00000000000E+00  0.00000000000E+00  0.14999999963E+04  0.15000000000E+04  0.10566000000E+00 0.  1.
        994   -1    0    0    0    0 -0.00000000000E+00 -0.00000000000E+00  0.11368683772E-12  0.17120000000E+03  0.17120000000E+03 0.  0.
         13    1    1    2    0    0 -0.36850603465E+01  0.18277585347E+02  0.10030559096E+03  0.10202388220E+03  0.10566000000E+00 0.  1.
        994    1    1    2    0    0  0.39357780463E+00 -0.26612571388E+02  0.38829053970E+01  0.17330003120E+03  0.17120000000E+03 0.  0.
        998    1    1    2    0    0  0.32914825419E+01  0.83349860409E+01  0.13958114999E+04  0.13958760866E+04  0.10000000000E+02 0.  1.
</event>
<event>
 5    1  0.1488417E-008  0.3828539E+03  0.7957747E-01  0.3438825E+00
         13   -1    0    0    0    0  0.00000000000E+00  0.00000000000E+00  0.14999999963E+04  0.15000000000E+04  0.10566000000E+00 0. -1.
        994   -1    0    0    0    0 -0.00000000000E+00 -0.00000000000E+00  0.11368683772E-12  0.17120000000E+03  0.17120000000E+03 0.  0.
         13    1    1    2    0    0  0.68128325540E+01  0.14415906194E+02  0.48096083217E+02  0.50670281464E+02  0.10566000000E+00 0. -1.
        994    1    1    2    0    0 -0.66527214984E+01  0.12786900979E+01  0.28514058545E+01  0.17135770851E+03  0.17120000000E+03 0.  0.
        998    1    1    2    0    0 -0.16011105558E+00 -0.15694596292E+02  0.14490525072E+04  0.14491720100E+04  0.10000000000E+02 0. -1.
</event>
<event>
 5    1  0.1488417E-008  0.3834873E+03  0.7957747E-01  0.3436113E+00
         13   -1    0    0    0    0  0.00000000000E+00  0.00000000000E+00  0.14999999963E+04  0.15000000000E+04  0.10566000000E+00 0.  1.
        994   -1    0    0    0    0 -0.00000000000E+00 -0.00000000000E+00  0.11368683772E-12  0.17120000000E+03  0.17120000000E+03 0.  0.
         13    1    1    2    0    0  0.16081892647E+02 -0.97707190140E+01  0.77716683790E+02  0.79962418201E+02  0.10566000000E+00 0.  1.
        994    1    1    2    0    0  0.43665529997E+00  0.64954492499E+01  0.25231253570E+01  0.17134231144E+03  0.17120000000E+03 0.  0.
        998    1    1    2    0    0 -0.16518547947E+02  0.32752697641E+01  0.14197601871E+04  0.14198952704E+04  0.10000000000E+02 0.  1.
</event>
<event>
 5    1  0.1488417E-008  0.3856436E+03  0.7957747E-01  0.3426947E+00
         13   -1    0    0    0    0  0.00000000000E+00  0.00000000000E+00  0.14999999963E+04  0.15000000000E+04  0.10566000000E+00 0. -1.
        994   -1    0    0    0    0 -0.00000000000E+00 -0.00000000000E+00  0.11368683772E-12  0.17120000000E+03  0.17120000000E+03 0.  0.
         13    1    1    2    0    0  0.80057946080E+00 -0.14295110687E+02  0.78722567545E+02  0.80014029532E+02  0.10566000000E+00 0. -1.
        994    1    1    2    0    0  0.23905853785E+01  0.95179432723E+01  0.16270577980E+01  0.17148875607E+03  0.17120000000E+03 0.  0.
        998    1    1    2    0    0 -0.31911648393E+01  0.47771674151E+01  0.14196503709E+04  0.14196972144E+04  0.10000000000E+02 0. -1.
</event>
<event>
 5    1  0.1488417E-008  0.3820520E+03  0.7957747E-01  0.3442272E+00
         13   -1    0    0    0    0  0.00000000000E+00  0.00000000000E+00  0.14999999963E+04  0.15000000000E+04  0.10566000000E+00 0.  1.
        994   -1    0    0    0    0 -0.00000000000E+00 -0.00000000000E+00  0.11368683772E-12  0.17120000000E+03  0.17120000000E+03 0.  0.
         13    1    1    2    0    0 -0.83735434661E+01 -0.25995913632E+02  0.12655058486E+03  0.12946414735E+03  0.10566000000E+00 0.  1.
        994    1    1    2    0    0 -0.21739184859E+01  0.86814811368E+01  0.33668636322E+01  0.17146681838E+03  0.17120000000E+03 0.  0.
        998    1    1    2    0    0  0.10547461952E+02  0.17314432495E+02  0.13700825478E+04  0.13702690343E+04  0.10000000000E+02 0.  1.
</event>
<event>
 5    1  0.1488417E-008  0.3747989E+03  0.7957747E-01  0.3474123E+00
         13   -1    0    0    0    0  0.00000000000E+00  0.00000000000E+00  0.14999999963E+04  0.15000000000E+04  0.10566000000E+00 0. -1.
        994   -1    0    0    0    0 -0.00000000000E+00 -0.00000000000E+00  0.11368683772E-12  0.17120000000E+03  0.17120000000E+03 0.  0.
         13    1    1    2    0    0 -0.77515505385E+02  0.28713597190E+02  0.33823751488E+03  0.34819211920E+03  0.10566000000E+00 0. -1.
        994    1    1    2    0    0  0.44697763084E+01  0.11509427033E+02  0.14041375933E+02  0.17221801894E+03  0.17120000000E+03 0.  0.
        998    1    1    2    0    0  0.73045729076E+02 -0.40223024223E+02  0.11477211055E+04  0.11507898619E+04  0.10000000000E+02 0. -1.
</event>
<event>
 5    1  0.1488417E-008  0.3803444E+03  0.7957747E-01  0.3449660E+00
         13   -1    0    0    0    0  0.00000000000E+00  0.00000000000E+00  0.14999999963E+04  0.15000000000E+04  0.10566000000E+00 0.  1.
        994   -1    0    0    0    0 -0.00000000000E+00 -0.00000000000E+00  0.11368683772E-12  0.17120000000E+03  0.17120000000E+03 0.  0.
         13    1    1    2    0    0 -0.25108531169E+02 -0.72939861344E+01  0.82026638044E+02  0.86093095449E+02  0.10566000000E+00 0.  1.
        994    1    1    2    0    0  0.24223425809E+02  0.12426592717E+01  0.59263193035E+01  0.17301121299E+03  0.17120000000E+03 0.  0.
        998    1    1    2    0    0  0.88510536046E+00  0.60513268627E+01  0.14120470389E+04  0.14120956916E+04  0.10000000000E+02 0.  1.
</event>
<event>
 5    1  0.1488417E-008  0.3825023E+03  0.7957747E-01  0.3440335E+00
         13   -1    0    0    0    0  0.00000000000E+00  0.00000000000E+00  0.14999999963E+04  0.15000000000E+04  0.10566000000E+00 0. -1.
        994   -1    0    0    0    0 -0.00000000000E+00 -0.00000000000E+00  0.11368683772E-12  0.17120000000E+03  0.17120000000E+03 0.  0.
         13    1    1    2    0    0  0.52547671240E+01 -0.19768021512E+02  0.74393265463E+02  0.77154107877E+02  0.10566000000E+00 0. -1.
        994    1    1    2    0    0 -0.30752681113E+01  0.58309761519E+01  0.30193997498E+01  0.17135347773E+03  0.17120000000E+03 0.  0.
        998    1    1    2    0    0 -0.21794990127E+01  0.13937045360E+02  0.14225873311E+04  0.14226924144E+04  0.10000000000E+02 0. -1.
</event>
<event>
 5    1  0.1488417E-008  0.3715679E+03  0.7957747E-01  0.3488716E+00
         13   -1    0    0    0    0  0.00000000000E+00  0.00000000000E+00  0.14999999963E+04  0.15000000000E+04  0.10566000000E+00 0.  1.
        994   -1    0    0    0    0 -0.00000000000E+00 -0.00000000000E+00  0.11368683772E-12  0.17120000000E+03  0.17120000000E+03 0.  0.
         13    1    1    2    0    0  0.28819289637E+02  0.88360505933E+01  0.51799179053E+02  0.59931572312E+02  0.10566000000E+00 0.  1.
        994    1    1    2    0    0 -0.11936325641E+02  0.46059469535E-01  0.89419608547E+01  0.17184841185E+03  0.17120000000E+03 0.  0.
        998    1    1    2    0    0 -0.16882963996E+02 -0.88821100629E+01  0.14392588564E+04  0.14394200158E+04  0.10000000000E+02 0.  1.
</event>
<event>
 5    1  0.1488417E-008  0.3805745E+03  0.7957747E-01  0.3448661E+00
         13   -1    0    0    0    0  0.00000000000E+00  0.00000000000E+00  0.14999999963E+04  0.15000000000E+04  0.10566000000E+00 0. -1.
        994   -1    0    0    0    0 -0.00000000000E+00 -0.00000000000E+00  0.11368683772E-12  0.17120000000E+03  0.17120000000E+03 0.  0.
         13    1    1    2    0    0 -0.43417128957E+02  0.20433801082E+02  0.27365101548E+03  0.27782634280E+03  0.10566000000E+00 0. -1.
        994    1    1    2    0    0  0.40373148113E+02 -0.19416497045E+01  0.93138876927E+01  0.17615319922E+03  0.17120000000E+03 0.  0.
        998    1    1    2    0    0  0.30439808441E+01 -0.18492151377E+02  0.12170350931E+04  0.12172204580E+04  0.10000000000E+02 0. -1.
</event>
<event>
 5    1  0.1488417E-008  0.3779749E+03  0.7957747E-01  0.3460024E+00
         13   -1    0    0    0    0  0.00000000000E+00  0.00000000000E+00  0.14999999963E+04  0.15000000000E+04  0.10566000000E+00 0.  1.
        994   -1    0    0    0    0 -0.00000000000E+00 -0.00000000000E+00  0.11368683772E-12  0.17120000000E+03  0.17120000000E+03 0.  0.
         13    1    1    2    0    0  0.19214834309E+02  0.37843871476E+02  0.66482268238E+02  0.78875038003E+02  0.10566000000E+00 0.  1.
        994    1    1    2    0    0 -0.22241717724E+01  0.58102191425E+02  0.27481545717E+02  0.18288107322E+03  0.17120000000E+03 0.  0.
        998    1    1    2    0    0 -0.16990662537E+02 -0.95946062900E+02  0.14060361823E+04  0.14094438888E+04  0.10000000000E+02 0.  1.
</event>
<event>
 5    1  0.1488417E-008  0.3840523E+03  0.7957747E-01  0.3433701E+00
         13   -1    0    0    0    0  0.00000000000E+00  0.00000000000E+00  0.14999999963E+04  0.15000000000E+04  0.10566000000E+00 0. -1.
        994   -1    0    0    0    0 -0.00000000000E+00 -0.00000000000E+00  0.11368683772E-12  0.17120000000E+03  0.17120000000E+03 0.  0.
         13    1    1    2    0    0 -0.15953048204E+02  0.22436583713E+01  0.64363622018E+02  0.66349233253E+02  0.10566000000E+00 0. -1.
        994    1    1    2    0    0  0.29867266581E+01  0.64766970453E+01  0.22691829091E+01  0.17136352392E+03  0.17120000000E+03 0.  0.
        998    1    1    2    0    0  0.12966321546E+02 -0.87203554166E+01  0.14333671914E+04  0.14334872428E+04  0.10000000000E+02 0. -1.
</event>
<event>
 5    1  0.1780926E-008  0.3862338E+03  0.7957747E-01  0.3424456E+00
         13   -1    0    0    0    0  0.00000000000E+00  0.00000000000E+00  0.14999999963E+04  0.15000000000E+04  0.10566000000E+00 0.  1.
        994   -1    0    0    0    0 -0.00000000000E+00 -0.00000000000E+00  0.11368683772E-12  0.17120000000E+03  0.17120000000E+03 0.  0.
         13    1    1    2    0    0 -0.92627013636E+01  0.50372937201E+01  0.55575831471E+02  0.56567271212E+02  0.10566000000E+00 0.  1.
        994    1    1    2    0    0  0.54008586253E+01 -0.42002545764E+01  0.11721594281E+01  0.17134067051E+03  0.17120000000E+03 0.  0.
        998    1    1    2    0    0  0.38618427383E+01 -0.83703914378E+00  0.14432520054E+04  0.14432920583E+04  0.10000000000E+02 0.  1.
</event>
<event>
 5    1  0.1488417E-008  0.3821390E+03  0.7957747E-01  0.3441898E+00
         13   -1    0    0    0    0  0.00000000000E+00  0.00000000000E+00  0.14999999963E+04  0.15000000000E+04  0.10566000000E+00 0. -1.
        994   -1    0    0    0    0 -0.00000000000E+00 -0.00000000000E+00  0.11368683772E-12  0.17120000000E+03  0.17120000000E+03 0.  0.
         13    1    1    2    0    0 -0.28448447805E+02  0.11305388474E+02  0.16737730282E+03  0.17015375005E+03  0.10566000000E+00 0. -1.
        994    1    1    2    0    0  0.13358108704E+02  0.15732264199E+02  0.44724614770E+01  0.17249749597E+03  0.17120000000E+03 0.  0.
        998    1    1    2    0    0  0.15090339101E+02 -0.27037652673E+02  0.13281502320E+04  0.13285487540E+04  0.10000000000E+02 0. -1.
</event>
<event>
 5    1  0.1488417E-008  0.3821914E+03  0.7957747E-01  0.3441672E+00
         13   -1    0    0    0    0  0.00000000000E+00  0.00000000000E+00  0.14999999963E+04  0.15000000000E+04  0.10566000000E+00 0. -1.
        994   -1    0    0    0    0 -0.00000000000E+00 -0.00000000000E+00  0.11368683772E-12  0.17120000000E+03  0.17120000000E+03 0.  0.
         13    1    1    2    0    0 -0.74031560287E+01 -0.18037580905E+02  0.64222602525E+02  0.67117172789E+02  0.10566000000E+00 0. -1.
        994    1    1    2    0    0  0.24906983880E+01  0.35945908342E+01  0.30944849448E+01  0.17128380104E+03  0.17120000000E+03 0.  0.
        998    1    1    2    0    0  0.49124576407E+01  0.14442990071E+02  0.14326829088E+04  0.14327990262E+04  0.10000000000E+02 0. -1.
</event>
<event>
 5    1  0.1488417E-008  0.3802872E+03  0.7957747E-01  0.3449909E+00
         13   -1    0    0    0    0  0.00000000000E+00  0.00000000000E+00  0.14999999963E+04  0.15000000000E+04  0.10566000000E+00 0. -1.
        994   -1    0    0    0    0 -0.00000000000E+00 -0.00000000000E+00  0.11368683772E-12  0.17120000000E+03  0.17120000000E+03 0.  0.
         13    1    1    2    0    0  0.10537961476E+02 -0.17373498763E+02  0.50437617576E+02  0.54376939249E+02  0.10566000000E+00 0. -1.
        994    1    1    2    0    0 -0.49869078600E+01  0.11580443538E+02  0.45193422272E+01  0.17172315038E+03  0.17120000000E+03 0.  0.
        998    1    1    2    0    0 -0.55510536159E+01  0.57930552253E+01  0.14450430365E+04  0.14450999104E+04  0.10000000000E+02 0. -1.
</event>
<event>
 5    1  0.1488417E-008  0.3791012E+03  0.7957747E-01  0.3455081E+00
         13   -1    0    0    0    0  0.00000000000E+00  0.00000000000E+00  0.14999999963E+04  0.15000000000E+04  0.10566000000E+00 0. -1.
        994   -1    0    0    0    0 -0.00000000000E+00 -0.00000000000E+00  0.11368683772E-12  0.17120000000E+03  0.17120000000E+03 0.  0.
         13    1    1    2    0    0 -0.22418325347E+02 -0.16235393681E+01  0.52088186264E+02  0.56731010071E+02  0.10566000000E+00 0. -1.
        994    1    1    2    0    0  0.21147937852E+02 -0.77491190154E+00  0.60905101459E+01  0.17261045761E+03  0.17120000000E+03 0.  0.
        998    1    1    2    0    0  0.12703874942E+01  0.23984512697E+01  0.14418212999E+04  0.14418585323E+04  0.10000000000E+02 0. -1.
</event>
<event>
 5    1  0.1488417E-008  0.3844234E+03  0.7957747E-01  0.3432121E+00
         13   -1    0    0    0    0  0.00000000000E+00  0.00000000000E+00  0.14999999963E+04  0.15000000000E+04  0.10566000000E+00 0. -1.
        994   -1    0    0    0    0 -0.00000000000E+00 -0.00000000000E+00  0.11368683772E-12  0.17120000000E+03  0.17120000000E+03 0.  0.
         13    1    1    2    0    0 -0.45488916347E+01  0.13225274394E+02  0.49109170351E+02  0.51061943505E+02  0.10566000000E+00 0. -1.
        994    1    1    2    0    0  0.50758444400E+01 -0.14757379133E+02  0.27195258701E+01  0.17193132424E+03  0.17120000000E+03 0.  0.
        998    1    1    2    0    0 -0.52695280527E+00  0.15321047392E+01  0.14481713001E+04  0.14482067323E+04  0.10000000000E+02 0. -1.
</event>
<event>
 5    1  0.1488417E-008  0.3766111E+03  0.7957747E-01  0.3466049E+00
         13   -1    0    0    0    0  0.00000000000E+00  0.00000000000E+00  0.14999999963E+04  0.15000000000E+04  0.10566000000E+00 0. -1.
        994   -1    0    0    0    0 -0.00000000000E+00 -0.00000000000E+00  0.11368683772E-12  0.17120000000E+03  0.17120000000E+03 0.  0.
         13    1    1    2    0    0 -0.77448866290E+01 -0.64484490277E+01  0.59610382594E+01  0.11709436576E+02  0.10566000000E+00 0. -1.
        994    1    1    2    0    0  0.86794925254E+01  0.37715717755E+01  0.61565557798E+01  0.17157185528E+03  0.17120000000E+03 0.  0.
        998    1    1    2    0    0 -0.93460589638E+00  0.26768772523E+01  0.14878824022E+04  0.14879187081E+04  0.10000000000E+02 0. -1.
</event>
<event>
 5    1  0.1488417E-008  0.3850746E+03  0.7957747E-01  0.3429356E+00
         13   -1    0    0    0    0  0.00000000000E+00  0.00000000000E+00  0.14999999963E+04  0.15000000000E+04  0.10566000000E+00 0.  1.
        994   -1    0    0    0    0 -0.00000000000E+00 -0.00000000000E+00  0.11368683772E-12  0.17120000000E+03  0.17120000000E+03 0.  0.
         13    1    1    2    0    0  0.88995375642E+01  0.54128793568E+01  0.35541888286E+02  0.37036981772E+02  0.10566000000E+00 0.  1.
        994    1    1    2    0    0  0.39376772493E+01 -0.12767370404E+01  0.16494236357E+01  0.17125798071E+03  0.17120000000E+03 0.  0.
        998    1    1    2    0    0 -0.12837214813E+02 -0.41361423164E+01  0.14628086844E+04  0.14629050375E+04  0.10000000000E+02 0.  1.
</event>
<event>
 5    1  0.1488417E-008  0.3792408E+03  0.7957747E-01  0.3454471E+00
         13   -1    0    0    0    0  0.00000000000E+00  0.00000000000E+00  0.14999999963E+04  0.15000000000E+04  0.10566000000E+00 0.  1.
        994   -1    0    0    0    0 -0.00000000000E+00 -0.00000000000E+00  0.11368683772E-12  0.17120000000E+03  0.17120000000E+03 0.  0.
         13    1    1    2    0    0  0.26331870289E+02  0.93532845257E+01  0.85403184899E+02  0.89858591572E+02  0.10566000000E+00 0.  1.
        994    1    1    2    0    0 -0.11710767679E+02 -0.14418465655E+02  0.56740542989E+01  0.17229819826E+03  0.17120000000E+03 0.  0.
        998    1    1    2    0    0 -0.14621102609E+02  0.50651811288E+01  0.14089227571E+04  0.14090432102E+04  0.10000000000E+02 0.  1.
</event>
<event>
 5    1  0.1488417E-008  0.3892931E+03  0.7957747E-01  0.3411666E+00
         13   -1    0    0    0    0  0.00000000000E+00  0.00000000000E+00  0.14999999963E+04  0.15000000000E+04  0.10566000000E+00 0. -1.
        994   -1    0    0    0    0 -0.00000000000E+00 -0.00000000000E+00  0.11368683772E-12  0.17120000000E+03  0.17120000000E+03 0.  0.
         13    1    1    2    0    0 -0.10503631675E+02 -0.24840618133E+02  0.69852028446E+01  0.27860129404E+02  0.10566000000E+00 0. -1.
        994    1    1    2    0    0  0.25322590782E+01  0.49861257869E+02  0.30940202557E+02  0.18099528587E+03  0.17120000000E+03 0.  0.
        998    1    1    2    0    0  0.79713725969E+01 -0.25020639736E+02  0.14620745909E+04  0.14623445847E+04  0.10000000000E+02 0. -1.
</event>
<event>
 5    1  0.1488417E-008  0.3820625E+03  0.7957747E-01  0.3442227E+00
         13   -1    0    0    0    0  0.00000000000E+00  0.00000000000E+00  0.14999999963E+04  0.15000000000E+04  0.10566000000E+00 0. -1.
        994   -1    0    0    0    0 -0.00000000000E+00 -0.00000000000E+00  0.11368683772E-12  0.17120000000E+03  0.17120000000E+03 0.  0.
         13    1    1    2    0    0 -0.34732265744E+02 -0.38650629951E+02  0.30750110809E+03  0.31186077683E+03  0.10566000000E+00 0. -1.
        994    1    1    2    0    0  0.46367439685E+02  0.44082956162E+02  0.16807539243E+02  0.18353522785E+03  0.17120000000E+03 0.  0.
        998    1    1    2    0    0 -0.11635173941E+02 -0.54323262107E+01  0.11756913489E+04  0.11758039953E+04  0.10000000000E+02 0.  1.
</event>
<event>
 5    1  0.1488417E-008  0.3800119E+03  0.7957747E-01  0.3451107E+00
         13   -1    0    0    0    0  0.00000000000E+00  0.00000000000E+00  0.14999999963E+04  0.15000000000E+04  0.10566000000E+00 0.  1.
        994   -1    0    0    0    0 -0.00000000000E+00 -0.00000000000E+00  0.11368683772E-12  0.17120000000E+03  0.17120000000E+03 0.  0.
         13    1    1    2    0    0  0.28902499183E+02  0.16975323106E+02  0.11912409051E+03  0.12375005519E+03  0.10566000000E+00 0.  1.
        994    1    1    2    0    0 -0.39628770931E+02 -0.15949088919E+02  0.10251343662E+02  0.17674655009E+03  0.17120000000E+03 0.  0.
        998    1    1    2    0    0  0.10726271748E+02 -0.10262341872E+01  0.13706245621E+04  0.13707033947E+04  0.10000000000E+02 0.  1.
</event>
<event>
 5    1  0.1488417E-008  0.3779773E+03  0.7957747E-01  0.3460013E+00
         13   -1    0    0    0    0  0.00000000000E+00  0.00000000000E+00  0.14999999963E+04  0.15000000000E+04  0.10566000000E+00 0. -1.
        994   -1    0    0    0    0 -0.00000000000E+00 -0.00000000000E+00  0.11368683772E-12  0.17120000000E+03  0.17120000000E+03 0.  0.
         13    1    1    2    0    0  0.56488944539E+01  0.26236959328E+02  0.72398101387E+02  0.77212591537E+02  0.10566000000E+00 0. -1.
        994    1    1    2    0    0  0.47932069369E+01 -0.22772709252E+01  0.52524874451E+01  0.17136274222E+03  0.17120000000E+03 0.  0.
        998    1    1    2    0    0 -0.10442101391E+02 -0.23959688403E+02  0.14223494074E+04  0.14226246662E+04  0.10000000000E+02 0. -1.
</event>
<event>
 5    1  0.1488417E-008  0.3753900E+03  0.7957747E-01  0.3471480E+00
         13   -1    0    0    0    0  0.00000000000E+00  0.00000000000E+00  0.14999999963E+04  0.15000000000E+04  0.10566000000E+00 0. -1.
        994   -1    0    0    0    0 -0.00000000000E+00 -0.00000000000E+00  0.11368683772E-12  0.17120000000E+03  0.17120000000E+03 0.  0.
         13    1    1    2    0    0  0.18093949555E+02 -0.18667230653E+02  0.47687734137E+02  0.54313788874E+02  0.10566000000E+00 0. -1.
        994    1    1    2    0    0 -0.18932767808E+02  0.23167729700E+02  0.95235073762E+01  0.17405553881E+03  0.17120000000E+03 0.  0.
        998    1    1    2    0    0  0.83881825354E+00 -0.45004990465E+01  0.14427887548E+04  0.14428306723E+04  0.10000000000E+02 0. -1.
</event>
<event>
 5    1  0.1488417E-008  0.3810478E+03  0.7957747E-01  0.3446609E+00
         13   -1    0    0    0    0  0.00000000000E+00  0.00000000000E+00  0.14999999963E+04  0.15000000000E+04  0.10566000000E+00 0. -1.
        994   -1    0    0    0    0 -0.00000000000E+00 -0.00000000000E+00  0.11368683772E-12  0.17120000000E+03  0.17120000000E+03 0.  0.
         13    1    1    2    0    0 -0.60672160218E+01  0.23769834882E+02  0.92382585091E+02  0.95584357260E+02  0.10566000000E+00 0. -1.
        994    1    1    2    0    0 -0.23079917283E+02  0.44228902179E+00  0.53824042100E+01  0.17283312320E+03  0.17120000000E+03 0.  0.
        998    1    1    2    0    0  0.29147133305E+02 -0.24212123903E+02  0.14022350070E+04  0.14027825195E+04  0.10000000000E+02 0. -1.
</event>
<event>
 5    1  0.1488417E-008  0.3842835E+03  0.7957747E-01  0.3432717E+00
         13   -1    0    0    0    0  0.00000000000E+00  0.00000000000E+00  0.14999999963E+04  0.15000000000E+04  0.10566000000E+00 0. -1.
        994   -1    0    0    0    0 -0.00000000000E+00 -0.00000000000E+00  0.11368683772E-12  0.17120000000E+03  0.17120000000E+03 0.  0.
         13    1    1    2    0    0  0.37846323554E+01  0.10402202320E+02  0.31508887120E+02  0.33396861929E+02  0.10566000000E+00 0. -1.
        994    1    1    2    0    0  0.94427344770E+01 -0.19425840647E+01  0.22926841696E+01  0.17148654544E+03  0.17120000000E+03 0.  0.
        998    1    1    2    0    0 -0.13227366832E+02 -0.84596182549E+01  0.14661984250E+04  0.14663165926E+04  0.10000000000E+02 0. -1.
</event>
<event>
 5    1  0.1488417E-008  0.3799551E+03  0.7957747E-01  0.3451354E+00
         13   -1    0    0    0    0  0.00000000000E+00  0.00000000000E+00  0.14999999963E+04  0.15000000000E+04  0.10566000000E+00 0.  1.
        994   -1    0    0    0    0 -0.00000000000E+00 -0.00000000000E+00  0.11368683772E-12  0.17120000000E+03  0.17120000000E+03 0.  0.
         13    1    1    2    0    0 -0.12485981045E+02  0.91224642732E+01  0.27035085011E+02  0.31145241413E+02  0.10566000000E+00 0.  1.
        994    1    1    2    0    0  0.11644436485E+02 -0.33702251396E+01  0.46472632080E+01  0.17169155009E+03  0.17120000000E+03 0.  0.
        998    1    1    2    0    0  0.84154455986E+00 -0.57522391336E+01  0.14683176481E+04  0.14683632085E+04  0.10000000000E+02 0.  1.
</event>
<event>
 5    1  0.1488417E-008  0.3848362E+03  0.7957747E-01  0.3430367E+00
         13   -1    0    0    0    0  0.00000000000E+00  0.00000000000E+00  0.14999999963E+04  0.15000000000E+04  0.10566000000E+00 0. -1.
        994   -1    0    0    0    0 -0.00000000000E+00 -0.00000000000E+00  0.11368683772E-12  0.17120000000E+03  0.17120000000E+03 0.  0.
         13    1    1    2    0    0  0.75654232596E+01 -0.11425460405E+02  0.52832463702E+02  0.54580739821E+02  0.10566000000E+00 0. -1.
        994    1    1    2    0    0 -0.17322822362E+02  0.72495114120E+01  0.28726560986E+01  0.17225076994E+03  0.17120000000E+03 0.  0.
        998    1    1    2    0    0  0.97573991022E+01  0.41759489933E+01  0.14442948765E+04  0.14443684902E+04  0.10000000000E+02 0. -1.
</event>
<event>
 5    1  0.1488417E-008  0.3813610E+03  0.7957747E-01  0.3445254E+00
         13   -1    0    0    0    0  0.00000000000E+00  0.00000000000E+00  0.14999999963E+04  0.15000000000E+04  0.10566000000E+00 0. -1.
        994   -1    0    0    0    0 -0.00000000000E+00 -0.00000000000E+00  0.11368683772E-12  0.17120000000E+03  0.17120000000E+03 0.  0.
         13    1    1    2    0    0  0.62805099004E+01 -0.11915345557E+02  0.24537722693E+02  0.27991628451E+02  0.10566000000E+00 0. -1.
        994    1    1    2    0    0 -0.67726165959E+01  0.13255224961E+02  0.41854283993E+01  0.17189685028E+03  0.17120000000E+03 0.  0.
        998    1    1    2    0    0  0.49210669550E+00 -0.13398794049E+01  0.14712768452E+04  0.14713115213E+04  0.10000000000E+02 0. -1.
</event>
<event>
 5    1  0.1488417E-008  0.3844827E+03  0.7957747E-01  0.3431869E+00
         13   -1    0    0    0    0  0.00000000000E+00  0.00000000000E+00  0.14999999963E+04  0.15000000000E+04  0.10566000000E+00 0.  1.
        994   -1    0    0    0    0 -0.00000000000E+00 -0.00000000000E+00  0.11368683772E-12  0.17120000000E+03  0.17120000000E+03 0.  0.
         13    1    1    2    0    0  0.18273547716E+02  0.10966635473E+02  0.12678373885E+03  0.12856250325E+03  0.10566000000E+00 0.  1.
        994    1    1    2    0    0 -0.39460290676E+01 -0.66360870944E+01  0.20835860057E+01  0.17138666847E+03  0.17120000000E+03 0.  0.
        998    1    1    2    0    0 -0.14327518649E+02 -0.43305483783E+01  0.13711326714E+04  0.13712508283E+04  0.10000000000E+02 0.  1.
</event>
<event>
 5    1  0.1488417E-008  0.3731419E+03  0.7957747E-01  0.3481575E+00
         13   -1    0    0    0    0  0.00000000000E+00  0.00000000000E+00  0.14999999963E+04  0.15000000000E+04  0.10566000000E+00 0.  1.
        994   -1    0    0    0    0 -0.00000000000E+00 -0.00000000000E+00  0.11368683772E-12  0.17120000000E+03  0.17120000000E+03 0.  0.
         13    1    1    2    0    0  0.36668427300E+02  0.79209861439E+01  0.82499250633E+02  0.90628103264E+02  0.10566000000E+00 0.  1.
        994    1    1    2    0    0 -0.43506803442E+02 -0.12759348577E+02  0.14700466117E+02  0.17771096372E+03  0.17120000000E+03 0.  0.
        998    1    1    2    0    0  0.68383761427E+01  0.48383624332E+01  0.14028002795E+04  0.14028609330E+04  0.10000000000E+02 0.  1.
</event>
<event>
 5    1  0.1488417E-008  0.3848235E+03  0.7957747E-01  0.3430421E+00
         13   -1    0    0    0    0  0.00000000000E+00  0.00000000000E+00  0.14999999963E+04  0.15000000000E+04  0.10566000000E+00 0. -1.
        994   -1    0    0    0    0 -0.00000000000E+00 -0.00000000000E+00  0.11368683772E-12  0.17120000000E+03  0.17120000000E+03 0.  0.
         13    1    1    2    0    0 -0.44362924466E+02  0.59659940291E+02  0.12285434606E+03  0.14359867357E+03  0.10566000000E+00 0. -1.
        994    1    1    2    0    0  0.33948748293E+02 -0.82405513316E+02  0.48933308637E+02  0.19911578247E+03  0.17120000000E+03 0.  0.
        998    1    1    2    0    0  0.10414176173E+02  0.22745573025E+02  0.13282123416E+04  0.13284855440E+04  0.10000000000E+02 0. -1.
</event>
<event>
 5    1  0.1488417E-008  0.3807445E+03  0.7957747E-01  0.3447923E+00
         13   -1    0    0    0    0  0.00000000000E+00  0.00000000000E+00  0.14999999963E+04  0.15000000000E+04  0.10566000000E+00 0. -1.
        994   -1    0    0    0    0 -0.00000000000E+00 -0.00000000000E+00  0.11368683772E-12  0.17120000000E+03  0.17120000000E+03 0.  0.
         13    1    1    2    0    0  0.85926767288E+01 -0.35080718549E+02  0.20803916561E+03  0.21115112242E+03  0.10566000000E+00 0. -1.
        994    1    1    2    0    0  0.73007426544E+01 -0.30712212576E+00  0.39358792105E+01  0.17140106859E+03  0.17120000000E+03 0.  0.
        998    1    1    2    0    0 -0.15893419383E+02  0.35387840675E+02  0.12880249515E+04  0.12886478090E+04  0.10000000000E+02 0. -1.
</event>
<event>
 5    1  0.1488417E-008  0.3736617E+03  0.7957747E-01  0.3479230E+00
         13   -1    0    0    0    0  0.00000000000E+00  0.00000000000E+00  0.14999999963E+04  0.15000000000E+04  0.10566000000E+00 0.  1.
        994   -1    0    0    0    0 -0.00000000000E+00 -0.00000000000E+00  0.11368683772E-12  0.17120000000E+03  0.17120000000E+03 0.  0.
         13    1    1    2    0    0  0.27027751621E+02  0.12712939375E+02  0.58493285262E+02  0.65677954977E+02  0.10566000000E+00 0.  1.
        994    1    1    2    0    0 -0.12417870677E+02 -0.98285216414E+01  0.82244348847E+01  0.17212752447E+03  0.17120000000E+03 0.  0.
        998    1    1    2    0    0 -0.14609880943E+02 -0.28844177335E+01  0.14332822761E+04  0.14333945206E+04  0.10000000000E+02 0.  1.
</event>
<event>
 5    1  0.1488417E-008  0.3828402E+03  0.7957747E-01  0.3438884E+00
         13   -1    0    0    0    0  0.00000000000E+00  0.00000000000E+00  0.14999999963E+04  0.15000000000E+04  0.10566000000E+00 0.  1.
        994   -1    0    0    0    0 -0.00000000000E+00 -0.00000000000E+00  0.11368683772E-12  0.17120000000E+03  0.17120000000E+03 0.  0.
         13    1    1    2    0    0 -0.68657687955E+02 -0.33789199013E+02  0.15042121123E+03  0.16876652523E+03  0.10566000000E+00 0.  1.
        994    1    1    2    0    0  0.58373393749E+02  0.23484115327E+02  0.32539852856E+02  0.18527611501E+03  0.17120000000E+03 0.  0.
        998    1    1    2    0    0  0.10284294206E+02  0.10305083686E+02  0.13170389322E+04  0.13171573598E+04  0.10000000000E+02 0.  1.
</event>
<event>
 5    1  0.1488417E-008  0.3851460E+03  0.7957747E-01  0.3429053E+00
         13   -1    0    0    0    0  0.00000000000E+00  0.00000000000E+00  0.14999999963E+04  0.15000000000E+04  0.10566000000E+00 0.  1.
        994   -1    0    0    0    0 -0.00000000000E+00 -0.00000000000E+00  0.11368683772E-12  0.17120000000E+03  0.17120000000E+03 0.  0.
         13    1    1    2    0    0 -0.11185736223E+01 -0.14561922717E+02  0.70132985699E+02  0.71637613355E+02  0.10566000000E+00 0.  1.
        994    1    1    2    0    0  0.17136849043E+02  0.53563581833E+01  0.26180345305E+01  0.17215881120E+03  0.17120000000E+03 0.  0.
        998    1    1    2    0    0 -0.16018275421E+02  0.92055645340E+01  0.14272489760E+04  0.14274035754E+04  0.10000000000E+02 0.  1.
</event>
<event>
 5    1  0.1488417E-008  0.3853393E+03  0.7957747E-01  0.3428235E+00
         13   -1    0    0    0    0  0.00000000000E+00  0.00000000000E+00  0.14999999963E+04  0.15000000000E+04  0.10566000000E+00 0.  1.
        994   -1    0    0    0    0 -0.00000000000E+00 -0.00000000000E+00  0.11368683772E-12  0.17120000000E+03  0.17120000000E+03 0.  0.
         13    1    1    2    0    0  0.47394928517E+01  0.14568850261E+02  0.84243372211E+02  0.85625178049E+02  0.10566000000E+00 0.  1.
        994    1    1    2    0    0  0.50735334499E+01 -0.60830172610E+01  0.16679327557E+01  0.17139126536E+03  0.17120000000E+03 0.  0.
        998    1    1    2    0    0 -0.98130263015E+01 -0.84858330004E+01  0.14140886913E+04  0.14141835566E+04  0.10000000000E+02 0.  1.
</event>
<event>
 5    1  0.1488417E-008  0.3855682E+03  0.7957747E-01  0.3427266E+00
         13   -1    0    0    0    0  0.00000000000E+00  0.00000000000E+00  0.14999999963E+04  0.15000000000E+04  0.10566000000E+00 0.  1.
        994   -1    0    0    0    0 -0.00000000000E+00 -0.00000000000E+00  0.11368683772E-12  0.17120000000E+03  0.17120000000E+03 0.  0.
         13    1    1    2    0    0  0.10827476185E+02  0.36410905020E+01  0.49072833474E+02  0.50384977224E+02  0.10566000000E+00 0.  1.
        994    1    1    2    0    0 -0.62038268227E+01 -0.10546855074E+01  0.14783102344E+01  0.17132199284E+03  0.17120000000E+03 0.  0.
        998    1    1    2    0    0 -0.46236493627E+01 -0.25864049946E+01  0.14494488526E+04  0.14494930299E+04  0.10000000000E+02 0.  1.
</event>
<event>
 5    1  0.1488417E-008  0.3830978E+03  0.7957747E-01  0.3437780E+00
         13   -1    0    0    0    0  0.00000000000E+00  0.00000000000E+00  0.14999999963E+04  0.15000000000E+04  0.10566000000E+00 0.  1.
        994   -1    0    0    0    0 -0.00000000000E+00 -0.00000000000E+00  0.11368683772E-12  0.17120000000E+03  0.17120000000E+03 0.  0.
         13    1    1    2    0    0 -0.25617460954E+02  0.16892414831E+02  0.16608370438E+03  0.16889468911E+03  0.10566000000E+00 0.  1.
        994    1    1    2    0    0  0.22596528543E+02 -0.18967354682E+02  0.54628989752E+01  0.17380922562E+03  0.17120000000E+03 0.  0.
        998    1    1    2    0    0  0.30209324113E+01  0.20749398517E+01  0.13284533929E+04  0.13284960853E+04  0.10000000000E+02 0.  1.
</event>
<event>
 5    1  0.1488417E-008  0.3797459E+03  0.7957747E-01  0.3452265E+00
         13   -1    0    0    0    0  0.00000000000E+00  0.00000000000E+00  0.14999999963E+04  0.15000000000E+04  0.10566000000E+00 0.  1.
        994   -1    0    0    0    0 -0.00000000000E+00 -0.00000000000E+00  0.11368683772E-12  0.17120000000E+03  0.17120000000E+03 0.  0.
         13    1    1    2    0    0  0.53473959284E+02 -0.56505613752E+02  0.45850879901E+03  0.46506201591E+03  0.10566000000E+00 0.  1.
        994    1    1    2    0    0 -0.50364636069E+02  0.67198994570E+02  0.28229534860E+02  0.19276578554E+03  0.17120000000E+03 0.  0.
        998    1    1    2    0    0 -0.31093232152E+01 -0.10693380818E+02  0.10132616624E+04  0.10133721985E+04  0.10000000000E+02 0.  1.
</event>
<event>
 5    1  0.1488417E-008  0.3814451E+03  0.7957747E-01  0.3444890E+00
         13   -1    0    0    0    0  0.00000000000E+00  0.00000000000E+00  0.14999999963E+04  0.15000000000E+04  0.10566000000E+00 0.  1.
        994   -1    0    0    0    0 -0.00000000000E+00 -0.00000000000E+00  0.11368683772E-12  0.17120000000E+03  0.17120000000E+03 0.  0.
         13    1    1    2    0    0  0.12221753778E+03 -0.23912148779E+03  0.79994214355E+03  0.84381494218E+03  0.10566000000E+00 0.  1.
        994    1    1    2    0    0 -0.15081623648E+03  0.26365625780E+03  0.42566498524E+03  0.55023656651E+03  0.17120000000E+03 0.  0.
        998    1    1    2    0    0  0.28598698695E+02 -0.24534770011E+02  0.27439286749E+03  0.27714849131E+03  0.10000000000E+02 0.  1.
</event>
<event>
 5    1  0.1488417E-008  0.3797608E+03  0.7957747E-01  0.3452201E+00
         13   -1    0    0    0    0  0.00000000000E+00  0.00000000000E+00  0.14999999963E+04  0.15000000000E+04  0.10566000000E+00 0.  1.
        994   -1    0    0    0    0 -0.00000000000E+00 -0.00000000000E+00  0.11368683772E-12  0.17120000000E+03  0.17120000000E+03 0.  0.
         13    1    1    2    0    0  0.19378692392E+02  0.22770572467E+02  0.10572855391E+03  0.10987525183E+03  0.10566000000E+00 0.  1.
        994    1    1    2    0    0 -0.11384895651E+02 -0.90362921046E+01  0.49610907967E+01  0.17188752964E+03  0.17120000000E+03 0.  0.
        998    1    1    2    0    0 -0.79937967414E+01 -0.13734280363E+02  0.13893103516E+04  0.13894372185E+04  0.10000000000E+02 0.  1.
</event>
<event>
 5    1  0.1488417E-008  0.3712789E+03  0.7957747E-01  0.3490034E+00
         13   -1    0    0    0    0  0.00000000000E+00  0.00000000000E+00  0.14999999963E+04  0.15000000000E+04  0.10566000000E+00 0.  1.
        994   -1    0    0    0    0 -0.00000000000E+00 -0.00000000000E+00  0.11368683772E-12  0.17120000000E+03  0.17120000000E+03 0.  0.
         13    1    1    2    0    0 -0.57942560213E+01  0.91698859062E+02  0.37105882013E+03  0.38226550108E+03  0.10566000000E+00 0.  1.
        994    1    1    2    0    0 -0.64915716295E+01 -0.90142573828E+02  0.37267701139E+02  0.19714498641E+03  0.17120000000E+03 0.  0.
        998    1    1    2    0    0  0.12285827651E+02 -0.15562852343E+01  0.10916734750E+04  0.10917895125E+04  0.10000000000E+02 0.  1.
</event>
<event>
 5    1  0.1488417E-008  0.3828449E+03  0.7957747E-01  0.3438864E+00
         13   -1    0    0    0    0  0.00000000000E+00  0.00000000000E+00  0.14999999963E+04  0.15000000000E+04  0.10566000000E+00 0.  1.
        994   -1    0    0    0    0 -0.00000000000E+00 -0.00000000000E+00  0.11368683772E-12  0.17120000000E+03  0.17120000000E+03 0.  0.
         13    1    1    2    0    0 -0.42251699596E+02 -0.25590632514E+02  0.24257067312E+03  0.24754924604E+03  0.10566000000E+00 0.  1.
        994    1    1    2    0    0  0.72129360162E+02  0.70420660477E+02  0.37119518408E+02  0.20211138678E+03  0.17120000000E+03 0.  0.
        998    1    1    2    0    0 -0.29877660566E+02 -0.44830027963E+02  0.12203098047E+04  0.12215393672E+04  0.10000000000E+02 0.  1.
</event>
<event>
 5    1  0.1488417E-008  0.3775841E+03  0.7957747E-01  0.3461746E+00
         13   -1    0    0    0    0  0.00000000000E+00  0.00000000000E+00  0.14999999963E+04  0.15000000000E+04  0.10566000000E+00 0. -1.
        994   -1    0    0    0    0 -0.00000000000E+00 -0.00000000000E+00  0.11368683772E-12  0.17120000000E+03  0.17120000000E+03 0.  0.
         13    1    1    2    0    0  0.30730114148E+02 -0.13923273703E+02  0.10227562265E+03  0.10769638629E+03  0.10566000000E+00 0. -1.
        994    1    1    2    0    0 -0.30549630277E+02 -0.69344921574E+01  0.86718018393E+01  0.17425844955E+03  0.17120000000E+03 0.  0.
        998    1    1    2    0    0 -0.18048387037E+00  0.20857765861E+02  0.13890525718E+04  0.13892451642E+04  0.10000000000E+02 0. -1.
</event>
<event>
 5    1  0.1488417E-008  0.3849619E+03  0.7957747E-01  0.3429834E+00
         13   -1    0    0    0    0  0.00000000000E+00  0.00000000000E+00  0.14999999963E+04  0.15000000000E+04  0.10566000000E+00 0. -1.
        994   -1    0    0    0    0 -0.00000000000E+00 -0.00000000000E+00  0.11368683772E-12  0.17120000000E+03  0.17120000000E+03 0.  0.
         13    1    1    2    0    0  0.91047378597E+00  0.11958499564E+02  0.42330356044E+02  0.43996646249E+02  0.10566000000E+00 0. -1.
        994    1    1    2    0    0 -0.21165424322E+01 -0.13239038991E+02  0.22404924172E+01  0.17173878919E+03  0.17120000000E+03 0.  0.
        998    1    1    2    0    0  0.12060686462E+01  0.12805394265E+01  0.14554291478E+04  0.14554645646E+04  0.10000000000E+02 0. -1.
</event>
<event>
 5    1  0.1488417E-008  0.3788763E+03  0.7957747E-01  0.3456066E+00
         13   -1    0    0    0    0  0.00000000000E+00  0.00000000000E+00  0.14999999963E+04  0.15000000000E+04  0.10566000000E+00 0. -1.
        994   -1    0    0    0    0 -0.00000000000E+00 -0.00000000000E+00  0.11368683772E-12  0.17120000000E+03  0.17120000000E+03 0.  0.
         13    1    1    2    0    0 -0.50390474156E+02 -0.54787580723E+01  0.27151193041E+03  0.27620274473E+03  0.10566000000E+00 0. -1.
        994    1    1    2    0    0  0.27204906082E+02  0.25804230612E+02  0.94334929055E+01  0.17551181163E+03  0.17120000000E+03 0.  0.
        998    1    1    2    0    0  0.23185568074E+02 -0.20325472540E+02  0.12190545730E+04  0.12194854436E+04  0.10000000000E+02 0. -1.
</event>
<event>
 5    1  0.1488417E-008  0.3863668E+03  0.7957747E-01  0.3423896E+00
         13   -1    0    0    0    0  0.00000000000E+00  0.00000000000E+00  0.14999999963E+04  0.15000000000E+04  0.10566000000E+00 0. -1.
        994   -1    0    0    0    0 -0.00000000000E+00 -0.00000000000E+00  0.11368683772E-12  0.17120000000E+03  0.17120000000E+03 0.  0.
         13    1    1    2    0    0 -0.25099307319E+01 -0.10300214667E+02  0.58407954162E+02  0.59362399277E+02  0.10566000000E+00 0. -1.
        994    1    1    2    0    0  0.33635671350E+01  0.10245765483E+02  0.13338907967E+01  0.17154447983E+03  0.17120000000E+03 0.  0.
        998    1    1    2    0    0 -0.85363640312E+00  0.54449184482E-01  0.14402581513E+04  0.14402931209E+04  0.10000000000E+02 0.  0.
</event>
<event>
 5    1  0.1488417E-008  0.3809691E+03  0.7957747E-01  0.3446950E+00
         13   -1    0    0    0    0  0.00000000000E+00  0.00000000000E+00  0.14999999963E+04  0.15000000000E+04  0.10566000000E+00 0.  1.
        994   -1    0    0    0    0 -0.00000000000E+00 -0.00000000000E+00  0.11368683772E-12  0.17120000000E+03  0.17120000000E+03 0.  0.
         13    1    1    2    0    0  0.23939725678E+02 -0.69937329990E+01  0.88703170375E+02  0.92142749934E+02  0.10566000000E+00 0.  1.
        994    1    1    2    0    0 -0.10660609693E+02 -0.17196389307E+02  0.50100584410E+01  0.17246421394E+03  0.17120000000E+03 0.  0.
        998    1    1    2    0    0 -0.13279115985E+02  0.24190122306E+02  0.14062867675E+04  0.14065930361E+04  0.10000000000E+02 0.  1.
</event>
<event>
 5    1  0.1488417E-008  0.3834322E+03  0.7957747E-01  0.3436349E+00
         13   -1    0    0    0    0  0.00000000000E+00  0.00000000000E+00  0.14999999963E+04  0.15000000000E+04  0.10566000000E+00 0.  1.
        994   -1    0    0    0    0 -0.00000000000E+00 -0.00000000000E+00  0.11368683772E-12  0.17120000000E+03  0.17120000000E+03 0.  0.
         13    1    1    2    0    0 -0.17762716683E+02  0.12028421361E+02  0.10002694160E+03  0.10230150162E+03  0.10566000000E+00 0.  1.
        994    1    1    2    0    0  0.73037769288E+01  0.12050506256E+01  0.25916951316E+01  0.17137956176E+03  0.17120000000E+03 0.  0.
        998    1    1    2    0    0  0.10458939754E+02 -0.13233471986E+02  0.13973813595E+04  0.13975189366E+04  0.10000000000E+02 0.  1.
</event>
<event>
 5    1  0.3452937E-008  0.3862053E+03  0.7957747E-01  0.3424576E+00
         13   -1    0    0    0    0  0.00000000000E+00  0.00000000000E+00  0.14999999963E+04  0.15000000000E+04  0.10566000000E+00 0. -1.
        994   -1    0    0    0    0 -0.00000000000E+00 -0.00000000000E+00  0.11368683772E-12  0.17120000000E+03  0.17120000000E+03 0.  0.
         13    1    1    2    0    0  0.85461585868E+01  0.75581936164E+01  0.65985860042E+02  0.66964975972E+02  0.10566000000E+00 0. -1.
        994    1    1    2    0    0 -0.37046065407E+01 -0.14738331690E+01  0.10849580677E+01  0.17124985672E+03  0.17120000000E+03 0.  0.
        998    1    1    2    0    0 -0.48415520461E+01 -0.60843604474E+01  0.14329291782E+04  0.14329851673E+04  0.10000000000E+02 0. -1.
</event>
<event>
 5    1  0.1488417E-008  0.3849437E+03  0.7957747E-01  0.3429911E+00
         13   -1    0    0    0    0  0.00000000000E+00  0.00000000000E+00  0.14999999963E+04  0.15000000000E+04  0.10566000000E+00 0.  1.
        994   -1    0    0    0    0 -0.00000000000E+00 -0.00000000000E+00  0.11368683772E-12  0.17120000000E+03  0.17120000000E+03 0.  0.
         13    1    1    2    0    0 -0.11975971768E+02  0.51284296159E+01  0.50227642547E+02  0.51889805646E+02  0.10566000000E+00 0.  1.
        994    1    1    2    0    0  0.10874977596E+02 -0.46390725699E+01  0.21180374902E+01  0.17162083852E+03  0.17120000000E+03 0.  0.
        998    1    1    2    0    0  0.11009941716E+01 -0.48935704598E+00  0.14476543162E+04  0.14476893558E+04  0.10000000000E+02 0.  1.
</event>
<event>
 5    1  0.1488417E-008  0.3795147E+03  0.7957747E-01  0.3453274E+00
         13   -1    0    0    0    0  0.00000000000E+00  0.00000000000E+00  0.14999999963E+04  0.15000000000E+04  0.10566000000E+00 0. -1.
        994   -1    0    0    0    0 -0.00000000000E+00 -0.00000000000E+00  0.11368683772E-12  0.17120000000E+03  0.17120000000E+03 0.  0.
         13    1    1    2    0    0  0.76292775895E+01  0.10300966032E+02  0.17061273059E+02  0.21340430646E+02  0.10566000000E+00 0. -1.
        994    1    1    2    0    0 -0.15520395794E+01 -0.54575238446E+01  0.44861279090E+01  0.17135273192E+03  0.17120000000E+03 0.  0.
        998    1    1    2    0    0 -0.60772380101E+01 -0.48434421871E+01  0.14784525953E+04  0.14785068374E+04  0.10000000000E+02 0. -1.
</event>
<event>
 5    1  0.1488417E-008  0.3787984E+03  0.7957747E-01  0.3456407E+00
         13   -1    0    0    0    0  0.00000000000E+00  0.00000000000E+00  0.14999999963E+04  0.15000000000E+04  0.10566000000E+00 0.  1.
        994   -1    0    0    0    0 -0.00000000000E+00 -0.00000000000E+00  0.11368683772E-12  0.17120000000E+03  0.17120000000E+03 0.  0.
         13    1    1    2    0    0  0.40698863726E+01  0.17072188746E+02  0.31033202718E+02  0.35652411400E+02  0.10566000000E+00 0.  1.
        994    1    1    2    0    0 -0.15327167287E+01 -0.67653341516E+01  0.49024297020E+01  0.17141059706E+03  0.17120000000E+03 0.  0.
        998    1    1    2    0    0 -0.25371696439E+01 -0.10306854594E+02  0.14640643639E+04  0.14641369915E+04  0.10000000000E+02 0.  1.
</event>
<event>
 5    1  0.1488417E-008  0.3853458E+03  0.7957747E-01  0.3428207E+00
         13   -1    0    0    0    0  0.00000000000E+00  0.00000000000E+00  0.14999999963E+04  0.15000000000E+04  0.10566000000E+00 0.  1.
        994   -1    0    0    0    0 -0.00000000000E+00 -0.00000000000E+00  0.11368683772E-12  0.17120000000E+03  0.17120000000E+03 0.  0.
         13    1    1    2    0    0  0.25209533435E+01  0.13201265403E+02  0.62098970778E+02  0.63536776356E+02  0.10566000000E+00 0.  1.
        994    1    1    2    0    0 -0.62252864629E+01 -0.79883420923E+01  0.17955492070E+01  0.17150869307E+03  0.17120000000E+03 0.  0.
        998    1    1    2    0    0  0.37043331193E+01 -0.52129233105E+01  0.14361054763E+04  0.14361545306E+04  0.10000000000E+02 0.  1.
</event>
<event>
 5    1  0.1488417E-008  0.3784252E+03  0.7957747E-01  0.3458044E+00
         13   -1    0    0    0    0  0.00000000000E+00  0.00000000000E+00  0.14999999963E+04  0.15000000000E+04  0.10566000000E+00 0.  1.
        994   -1    0    0    0    0 -0.00000000000E+00 -0.00000000000E+00  0.11368683772E-12  0.17120000000E+03  0.17120000000E+03 0.  0.
         13    1    1    2    0    0 -0.55289378334E+01  0.19479849814E+02  0.38520045606E+02  0.43518258006E+02  0.10566000000E+00 0.  1.
        994    1    1    2    0    0  0.58382518589E+01 -0.21776563025E+02  0.66401977108E+01  0.17280577568E+03  0.17120000000E+03 0.  0.
        998    1    1    2    0    0 -0.30931402550E+00  0.22967132103E+01  0.14548397530E+04  0.14548759663E+04  0.10000000000E+02 0.  1.
</event>
<event>
 5    1  0.1488417E-008  0.3825147E+03  0.7957747E-01  0.3440282E+00
         13   -1    0    0    0    0  0.00000000000E+00  0.00000000000E+00  0.14999999963E+04  0.15000000000E+04  0.10566000000E+00 0.  1.
        994   -1    0    0    0    0 -0.00000000000E+00 -0.00000000000E+00  0.11368683772E-12  0.17120000000E+03  0.17120000000E+03 0.  0.
         13    1    1    2    0    0  0.13227673563E+01 -0.14146205247E+02  0.33327473136E+02  0.36229773199E+02  0.10566000000E+00 0.  1.
        994    1    1    2    0    0 -0.25792468234E+01  0.16403049343E+02  0.37837176070E+01  0.17204496232E+03  0.17120000000E+03 0.  0.
        998    1    1    2    0    0  0.12564794671E+01 -0.22568440965E+01  0.14628888055E+04  0.14629252645E+04  0.10000000000E+02 0.  1.
</event>
<event>
 5    1  0.1488417E-008  0.4246562E+03  0.7957747E-01  0.3277133E+00
         13   -1    0    0    0    0  0.00000000000E+00  0.00000000000E+00  0.14999999963E+04  0.15000000000E+04  0.10566000000E+00 0.  1.
        994   -1    0    0    0    0 -0.00000000000E+00 -0.00000000000E+00  0.11368683772E-12  0.17120000000E+03  0.17120000000E+03 0.  0.
         13    1    1    2    0    0 -0.64592847113E+02 -0.57193149913E+02  0.70005703939E+02  0.11110401452E+03  0.10566000000E+00 0.  1.
        994    1    1    2    0    0  0.58189912081E+02  0.58944065983E+02  0.74038789920E+02  0.20408736167E+03  0.17120000000E+03 0.  0.
        998    1    1    2    0    0  0.64029350317E+01 -0.17509160692E+01  0.13559555024E+04  0.13560086238E+04  0.10000000000E+02 0.  1.
</event>
<event>
 5    1  0.1488417E-008  0.3788375E+03  0.7957747E-01  0.3456236E+00
         13   -1    0    0    0    0  0.00000000000E+00  0.00000000000E+00  0.14999999963E+04  0.15000000000E+04  0.10566000000E+00 0.  1.
        994   -1    0    0    0    0 -0.00000000000E+00 -0.00000000000E+00  0.11368683772E-12  0.17120000000E+03  0.17120000000E+03 0.  0.
         13    1    1    2    0    0  0.40636745477E+02 -0.29354095943E+02  0.21857645948E+03  0.22425139428E+03  0.10566000000E+00 0.  1.
        994    1    1    2    0    0 -0.45868838896E+02  0.31466686897E+02  0.15175360531E+02  0.18064837207E+03  0.17120000000E+03 0.  0.
        998    1    1    2    0    0  0.52320934182E+01 -0.21125909534E+01  0.12662481763E+04  0.12663002336E+04  0.10000000000E+02 0.  1.
</event>
<event>
 5    1  0.1488417E-008  0.3839254E+03  0.7957747E-01  0.3434242E+00
         13   -1    0    0    0    0  0.00000000000E+00  0.00000000000E+00  0.14999999963E+04  0.15000000000E+04  0.10566000000E+00 0.  1.
        994   -1    0    0    0    0 -0.00000000000E+00 -0.00000000000E+00  0.11368683772E-12  0.17120000000E+03  0.17120000000E+03 0.  0.
         13    1    1    2    0    0  0.43200656445E+01 -0.12576446981E+02  0.42451106665E+02  0.44485251567E+02  0.10566000000E+00 0.  1.
        994    1    1    2    0    0 -0.61227594870E+01 -0.45718413754E+01  0.23573094818E+01  0.17138665883E+03  0.17120000000E+03 0.  0.
        998    1    1    2    0    0  0.18026938425E+01  0.17148288356E+02  0.14551915801E+04  0.14553280896E+04  0.10000000000E+02 0.  1.
</event>
<event>
 5    1  0.1488417E-008  0.3762799E+03  0.7957747E-01  0.3467518E+00
         13   -1    0    0    0    0  0.00000000000E+00  0.00000000000E+00  0.14999999963E+04  0.15000000000E+04  0.10566000000E+00 0.  1.
        994   -1    0    0    0    0 -0.00000000000E+00 -0.00000000000E+00  0.11368683772E-12  0.17120000000E+03  0.17120000000E+03 0.  0.
         13    1    1    2    0    0  0.26115754141E+02 -0.70623285685E+02  0.38081173756E+03  0.38818458460E+03  0.10566000000E+00 0.  1.
        994    1    1    2    0    0 -0.31151783052E+02  0.59295490813E+02  0.21361746933E+02  0.18507337207E+03  0.17120000000E+03 0.  0.
        998    1    1    2    0    0  0.50360289109E+01  0.11327794873E+02  0.10978265118E+04  0.10979420433E+04  0.10000000000E+02 0.  1.
</event>
<event>
 5    1  0.1488417E-008  0.3846392E+03  0.7957747E-01  0.3431204E+00
         13   -1    0    0    0    0  0.00000000000E+00  0.00000000000E+00  0.14999999963E+04  0.15000000000E+04  0.10566000000E+00 0. -1.
        994   -1    0    0    0    0 -0.00000000000E+00 -0.00000000000E+00  0.11368683772E-12  0.17120000000E+03  0.17120000000E+03 0.  0.
         13    1    1    2    0    0  0.11486555878E+02 -0.10485900312E+02  0.63782828751E+02  0.65651774377E+02  0.10566000000E+00 0. -1.
        994    1    1    2    0    0 -0.16126576618E+02  0.86013600780E+01  0.29100141975E+01  0.17219743915E+03  0.17120000000E+03 0.  0.
        998    1    1    2    0    0  0.46400207395E+01  0.18845402340E+01  0.14333071533E+04  0.14333507865E+04  0.10000000000E+02 0. -1.
</event>
<event>
 5    1  0.1488417E-008  0.3851342E+03  0.7957747E-01  0.3429103E+00
         13   -1    0    0    0    0  0.00000000000E+00  0.00000000000E+00  0.14999999963E+04  0.15000000000E+04  0.10566000000E+00 0.  1.
        994   -1    0    0    0    0 -0.00000000000E+00 -0.00000000000E+00  0.11368683772E-12  0.17120000000E+03  0.17120000000E+03 0.  0.
         13    1    1    2    0    0  0.70790728480E+01 -0.11838787506E+02  0.60210149950E+02  0.61770085665E+02  0.10566000000E+00 0.  1.
        994    1    1    2    0    0 -0.22999311182E+01  0.11499069466E+02  0.20156889555E+01  0.17161299859E+03  0.17120000000E+03 0.  0.
        998    1    1    2    0    0 -0.47791417298E+01  0.33971803995E+00  0.14377741574E+04  0.14378169157E+04  0.10000000000E+02 0.  1.
</event>
<event>
 5    1  0.1488417E-008  0.3743800E+03  0.7957747E-01  0.3476000E+00
         13   -1    0    0    0    0  0.00000000000E+00  0.00000000000E+00  0.14999999963E+04  0.15000000000E+04  0.10566000000E+00 0. -1.
        994   -1    0    0    0    0 -0.00000000000E+00 -0.00000000000E+00  0.11368683772E-12  0.17120000000E+03  0.17120000000E+03 0.  0.
         13    1    1    2    0    0 -0.10295714856E+03  0.34440481428E+02  0.39180261435E+03  0.40656564166E+03  0.10566000000E+00 0. -1.
        994    1    1    2    0    0  0.73889739142E+02 -0.33919867938E+02  0.37132375936E+02  0.19312820699E+03  0.17120000000E+03 0.  0.
        998    1    1    2    0    0  0.29067409422E+02 -0.52061348975E+00  0.10710650060E+04  0.10715061514E+04  0.10000000000E+02 0. -1.
</event>
<event>
 5    1  0.1488417E-008  0.3766854E+03  0.7957747E-01  0.3465719E+00
         13   -1    0    0    0    0  0.00000000000E+00  0.00000000000E+00  0.14999999963E+04  0.15000000000E+04  0.10566000000E+00 0.  1.
        994   -1    0    0    0    0 -0.00000000000E+00 -0.00000000000E+00  0.11368683772E-12  0.17120000000E+03  0.17120000000E+03 0.  0.
         13    1    1    2    0    0  0.26386376252E+02  0.55189681551E+01  0.56795363784E+02  0.62868309764E+02  0.10566000000E+00 0.  1.
        994    1    1    2    0    0 -0.33446864130E+02 -0.79302017414E+01  0.98199273729E+01  0.17489268651E+03  0.17120000000E+03 0.  0.
        998    1    1    2    0    0  0.70604878785E+01  0.24112335863E+01  0.14333847051E+04  0.14334390037E+04  0.10000000000E+02 0.  1.
</event>
<event>
 5    1  0.1488417E-008  0.3801361E+03  0.7957747E-01  0.3450566E+00
         13   -1    0    0    0    0  0.00000000000E+00  0.00000000000E+00  0.14999999963E+04  0.15000000000E+04  0.10566000000E+00 0.  1.
        994   -1    0    0    0    0 -0.00000000000E+00 -0.00000000000E+00  0.11368683772E-12  0.17120000000E+03  0.17120000000E+03 0.  0.
         13    1    1    2    0    0  0.24532536242E+02 -0.87456341287E+01  0.89550543095E+02  0.93261151523E+02  0.10566000000E+00 0.  1.
        994    1    1    2    0    0  0.29290550346E+01  0.36067997343E+01  0.41366277019E+01  0.17131298858E+03  0.17120000000E+03 0.  0.
        998    1    1    2    0    0 -0.27461591276E+02  0.51388343945E+01  0.14063128255E+04  0.14066258599E+04  0.10000000000E+02 0.  1.
</event>
<event>
 5    1  0.1488417E-008  0.3727828E+03  0.7957747E-01  0.3483199E+00
         13   -1    0    0    0    0  0.00000000000E+00  0.00000000000E+00  0.14999999963E+04  0.15000000000E+04  0.10566000000E+00 0. -1.
        994   -1    0    0    0    0 -0.00000000000E+00 -0.00000000000E+00  0.11368683772E-12  0.17120000000E+03  0.17120000000E+03 0.  0.
         13    1    1    2    0    0  0.39116099102E+02 -0.48391294106E+02  0.21966644636E+03  0.22830931951E+03  0.10566000000E+00 0. -1.
        994    1    1    2    0    0 -0.52640019131E+02  0.28538716536E+02  0.20202609995E+02  0.18249113788E+03  0.17120000000E+03 0.  0.
        998    1    1    2    0    0  0.13523920029E+02  0.19852577570E+02  0.12601309399E+04  0.12603995426E+04  0.10000000000E+02 0. -1.
</event>
<event>
 5    1  0.1488417E-008  0.3788495E+03  0.7957747E-01  0.3456183E+00
         13   -1    0    0    0    0  0.00000000000E+00  0.00000000000E+00  0.14999999963E+04  0.15000000000E+04  0.10566000000E+00 0. -1.
        994   -1    0    0    0    0 -0.00000000000E+00 -0.00000000000E+00  0.11368683772E-12  0.17120000000E+03  0.17120000000E+03 0.  0.
         13    1    1    2    0    0 -0.17917400527E+02  0.11044211254E+02  0.44154069118E+02  0.48914219073E+02  0.10566000000E+00 0. -1.
        994    1    1    2    0    0  0.18511884611E+02 -0.90370695594E+01  0.61403511207E+01  0.17254420422E+03  0.17120000000E+03 0.  0.
        998    1    1    2    0    0 -0.59448408433E+00 -0.20071416950E+01  0.14497055760E+04  0.14497415767E+04  0.10000000000E+02 0. -1.
</event>
<event>
 5    1  0.1488417E-008  0.3692804E+03  0.7957747E-01  0.3499205E+00
         13   -1    0    0    0    0  0.00000000000E+00  0.00000000000E+00  0.14999999963E+04  0.15000000000E+04  0.10566000000E+00 0. -1.
        994   -1    0    0    0    0 -0.00000000000E+00 -0.00000000000E+00  0.11368683772E-12  0.17120000000E+03  0.17120000000E+03 0.  0.
         13    1    1    2    0    0 -0.45543347812E+02 -0.21217259059E+02  0.13782998922E+03  0.14670203034E+03  0.10566000000E+00 0. -1.
        994    1    1    2    0    0 -0.56672886295E+01 -0.12573030485E+02  0.11222333901E+02  0.17212082975E+03  0.17120000000E+03 0.  0.
        998    1    1    2    0    0  0.51210636441E+02  0.33790289544E+02  0.13509476732E+04  0.13523771399E+04  0.10000000000E+02 0. -1.
</event>
<event>
 5    1  0.1488417E-008  0.3813035E+03  0.7957747E-01  0.3445502E+00
         13   -1    0    0    0    0  0.00000000000E+00  0.00000000000E+00  0.14999999963E+04  0.15000000000E+04  0.10566000000E+00 0. -1.
        994   -1    0    0    0    0 -0.00000000000E+00 -0.00000000000E+00  0.11368683772E-12  0.17120000000E+03  0.17120000000E+03 0.  0.
         13    1    1    2    0    0  0.21032690469E+02 -0.78483056782E+02  0.17398820032E+03  0.19202569954E+03  0.10566000000E+00 0. -1.
        994    1    1    2    0    0  0.26099476531E+02  0.80891490823E+02  0.43848678135E+02  0.19610395849E+03  0.17120000000E+03 0.  0.
        998    1    1    2    0    0 -0.47132167000E+02 -0.24084340410E+01  0.12821631178E+04  0.12830703420E+04  0.10000000000E+02 0. -1.
</event>
<event>
 5    1  0.1488417E-008  0.3788392E+03  0.7957747E-01  0.3456229E+00
         13   -1    0    0    0    0  0.00000000000E+00  0.00000000000E+00  0.14999999963E+04  0.15000000000E+04  0.10566000000E+00 0. -1.
        994   -1    0    0    0    0 -0.00000000000E+00 -0.00000000000E+00  0.11368683772E-12  0.17120000000E+03  0.17120000000E+03 0.  0.
         13    1    1    2    0    0  0.42292022426E+01  0.33341857301E+02  0.10679386040E+03  0.11195760529E+03  0.10566000000E+00 0. -1.
        994    1    1    2    0    0  0.14029960156E+02 -0.42677622700E+02  0.11523013180E+02  0.17737090825E+03  0.17120000000E+03 0.  0.
        998    1    1    2    0    0 -0.18259162398E+02  0.93357653992E+01  0.13816831227E+04  0.13818714865E+04  0.10000000000E+02 0. -1.
</event>
<event>
 5    1  0.1488417E-008  0.3835012E+03  0.7957747E-01  0.3436054E+00
         13   -1    0    0    0    0  0.00000000000E+00  0.00000000000E+00  0.14999999963E+04  0.15000000000E+04  0.10566000000E+00 0.  1.
        994   -1    0    0    0    0 -0.00000000000E+00 -0.00000000000E+00  0.11368683772E-12  0.17120000000E+03  0.17120000000E+03 0.  0.
         13    1    1    2    0    0 -0.11499325244E+02 -0.16939545912E+02  0.10019180446E+03  0.10226236621E+03  0.10566000000E+00 0.  1.
        994    1    1    2    0    0  0.37179339899E+01 -0.10831630927E+02  0.28096125046E+01  0.17160559776E+03  0.17120000000E+03 0.  0.
        998    1    1    2    0    0  0.77813912545E+01  0.27771176839E+02  0.13969985793E+04  0.13973320360E+04  0.10000000000E+02 0.  1.
</event>
<event>
 5    1  0.1488417E-008  0.4165154E+03  0.7957747E-01  0.3306103E+00
         13   -1    0    0    0    0  0.00000000000E+00  0.00000000000E+00  0.14999999963E+04  0.15000000000E+04  0.10566000000E+00 0. -1.
        994   -1    0    0    0    0 -0.00000000000E+00 -0.00000000000E+00  0.11368683772E-12  0.17120000000E+03  0.17120000000E+03 0.  0.
         13    1    1    2    0    0  0.45842400533E+02 -0.95096631267E+02  0.12770778280E+03  0.16569304125E+03  0.10566000000E+00 0. -1.
        994    1    1    2    0    0 -0.44651958946E+02  0.86151154159E+02  0.78853255946E+02  0.21199786502E+03  0.17120000000E+03 0.  0.
        998    1    1    2    0    0 -0.11904415863E+01  0.89454771078E+01  0.12934389575E+04  0.12935090937E+04  0.10000000000E+02 0. -1.
</event>
<event>
 5    1  0.1488417E-008  0.3951808E+03  0.7957747E-01  0.3387609E+00
         13   -1    0    0    0    0  0.00000000000E+00  0.00000000000E+00  0.14999999963E+04  0.15000000000E+04  0.10566000000E+00 0.  1.
        994   -1    0    0    0    0 -0.00000000000E+00 -0.00000000000E+00  0.11368683772E-12  0.17120000000E+03  0.17120000000E+03 0.  0.
         13    1    1    2    0    0 -0.33173370468E+02 -0.69860232845E+01  0.12519711899E+02  0.36139056153E+02  0.10566000000E+00 0.  1.
        994    1    1    2    0    0  0.37319501233E+02  0.33770085499E+00  0.30295112495E+02  0.17782039550E+03  0.17120000000E+03 0.  0.
        998    1    1    2    0    0 -0.41461307645E+01  0.66483224295E+01  0.14571851719E+04  0.14572405483E+04  0.10000000000E+02 0.  1.
</event>
<event>
 5    1  0.1488417E-008  0.4225660E+03  0.7957747E-01  0.3284467E+00
         13   -1    0    0    0    0  0.00000000000E+00  0.00000000000E+00  0.14999999963E+04  0.15000000000E+04  0.10566000000E+00 0. -1.
        994   -1    0    0    0    0 -0.00000000000E+00 -0.00000000000E+00  0.11368683772E-12  0.17120000000E+03  0.17120000000E+03 0.  0.
         13    1    1    2    0    0 -0.26072137682E+02  0.18146175993E+02 -0.51470069122E+01  0.32179852558E+02  0.10566000000E+00 0. -1.
        994    1    1    2    0    0  0.29679974443E+02 -0.10194044368E+02  0.46290102464E+02  0.18010284009E+03  0.17120000000E+03 0.  0.
        998    1    1    2    0    0 -0.36078367613E+01 -0.79521316251E+01  0.14588569007E+04  0.14589173073E+04  0.10000000000E+02 0. -1.
</event>
<event>
 5    1  0.1488417E-008  0.3844443E+03  0.7957747E-01  0.3432032E+00
         13   -1    0    0    0    0  0.00000000000E+00  0.00000000000E+00  0.14999999963E+04  0.15000000000E+04  0.10566000000E+00 0. -1.
        994   -1    0    0    0    0 -0.00000000000E+00 -0.00000000000E+00  0.11368683772E-12  0.17120000000E+03  0.17120000000E+03 0.  0.
         13    1    1    2    0    0 -0.55872437061E+01  0.13209950683E+02  0.55400106679E+02  0.57226768854E+02  0.10566000000E+00 0. -1.
        994    1    1    2    0    0  0.43881007475E+01 -0.22049393276E+01  0.19857221917E+01  0.17128193214E+03  0.17120000000E+03 0.  0.
        998    1    1    2    0    0  0.11991429587E+01 -0.11005011356E+02  0.14426141674E+04  0.14426912990E+04  0.10000000000E+02 0. -1.
</event>
<event>
 5    1  0.1488417E-008  0.3859844E+03  0.7957747E-01  0.3425508E+00
         13   -1    0    0    0    0  0.00000000000E+00  0.00000000000E+00  0.14999999963E+04  0.15000000000E+04  0.10566000000E+00 0.  1.
        994   -1    0    0    0    0 -0.00000000000E+00 -0.00000000000E+00  0.11368683772E-12  0.17120000000E+03  0.17120000000E+03 0.  0.
         13    1    1    2    0    0 -0.13381453552E+02  0.10704667167E+01  0.77319277040E+02  0.78476053445E+02  0.10566000000E+00 0.  1.
        994    1    1    2    0    0  0.12829815368E+02  0.15547663051E+01  0.16899110199E+01  0.17169542003E+03  0.17120000000E+03 0.  0.
        998    1    1    2    0    0  0.55163818385E+00 -0.26252330218E+01  0.14209908082E+04  0.14210285265E+04  0.10000000000E+02 0.  1.
</event>
<event>
 5    1  0.1488417E-008  0.3812539E+03  0.7957747E-01  0.3445717E+00
         13   -1    0    0    0    0  0.00000000000E+00  0.00000000000E+00  0.14999999963E+04  0.15000000000E+04  0.10566000000E+00 0.  1.
        994   -1    0    0    0    0 -0.00000000000E+00 -0.00000000000E+00  0.11368683772E-12  0.17120000000E+03  0.17120000000E+03 0.  0.
         13    1    1    2    0    0  0.17440583696E+02  0.52767898581E+00  0.42594090231E+02  0.46029556715E+02  0.10566000000E+00 0.  1.
        994    1    1    2    0    0 -0.89674443490E+01 -0.42999088831E+01  0.38308452510E+01  0.17153139552E+03  0.17120000000E+03 0.  0.
        998    1    1    2    0    0 -0.84731393470E+01  0.37722298973E+01  0.14535750608E+04  0.14536390478E+04  0.10000000000E+02 0.  1.
</event>
<event>
 5    1  0.1488417E-008  0.3782538E+03  0.7957747E-01  0.3458797E+00
         13   -1    0    0    0    0  0.00000000000E+00  0.00000000000E+00  0.14999999963E+04  0.15000000000E+04  0.10566000000E+00 0.  1.
        994   -1    0    0    0    0 -0.00000000000E+00 -0.00000000000E+00  0.11368683772E-12  0.17120000000E+03  0.17120000000E+03 0.  0.
         13    1    1    2    0    0  0.97339173137E+02  0.90314429619E+02  0.79991809166E+03  0.81086409179E+03  0.10566000000E+00 0.  1.
        994    1    1    2    0    0 -0.97629227763E+02 -0.86431739744E+02  0.64493602431E+02  0.22465701971E+03  0.17120000000E+03 0.  0.
        998    1    1    2    0    0  0.29005462638E+00 -0.38826898750E+01  0.63558830219E+03  0.63567888851E+03  0.10000000000E+02 0. -1.
</event>
<event>
 5    1  0.1488417E-008  0.3791017E+03  0.7957747E-01  0.3455079E+00
         13   -1    0    0    0    0  0.00000000000E+00  0.00000000000E+00  0.14999999963E+04  0.15000000000E+04  0.10566000000E+00 0.  1.
        994   -1    0    0    0    0 -0.00000000000E+00 -0.00000000000E+00  0.11368683772E-12  0.17120000000E+03  0.17120000000E+03 0.  0.
         13    1    1    2    0    0 -0.14994769431E+02  0.63236481318E+01  0.27097342022E+02  0.31608681476E+02  0.10566000000E+00 0.  1.
        994    1    1    2    0    0  0.82382737624E+01 -0.58723721683E+01  0.49305452255E+01  0.17156953164E+03  0.17120000000E+03 0.  0.
        998    1    1    2    0    0  0.67564956689E+01 -0.45127596348E+00  0.14679721090E+04  0.14680217869E+04  0.10000000000E+02 0.  1.
</event>
<event>
 5    1  0.1488417E-008  0.3838118E+03  0.7957747E-01  0.3434727E+00
         13   -1    0    0    0    0  0.00000000000E+00  0.00000000000E+00  0.14999999963E+04  0.15000000000E+04  0.10566000000E+00 0. -1.
        994   -1    0    0    0    0 -0.00000000000E+00 -0.00000000000E+00  0.11368683772E-12  0.17120000000E+03  0.17120000000E+03 0.  0.
         13    1    1    2    0    0  0.17672257267E+02  0.11638219503E+02  0.10984148608E+03  0.11186116421E+03  0.10566000000E+00 0. -1.
        994    1    1    2    0    0 -0.30408141429E+01  0.33486479297E+01  0.22887674027E+01  0.17127503744E+03  0.17120000000E+03 0.  0.
        998    1    1    2    0    0 -0.14631443124E+02 -0.14986867433E+02  0.13878697428E+04  0.13880637984E+04  0.10000000000E+02 0. -1.
</event>
<event>
 5    1  0.1488417E-008  0.3856824E+03  0.7957747E-01  0.3426783E+00
         13   -1    0    0    0    0  0.00000000000E+00  0.00000000000E+00  0.14999999963E+04  0.15000000000E+04  0.10566000000E+00 0. -1.
        994   -1    0    0    0    0 -0.00000000000E+00 -0.00000000000E+00  0.11368683772E-12  0.17120000000E+03  0.17120000000E+03 0.  0.
         13    1    1    2    0    0 -0.92337615554E+01 -0.41954986256E+01  0.43982366615E+02  0.45136728928E+02  0.10566000000E+00 0. -1.
        994    1    1    2    0    0 -0.11872531474E+02  0.48178416985E+01  0.18305873317E+01  0.17168855423E+03  0.17120000000E+03 0.  0.
        998    1    1    2    0    0  0.21106293029E+02 -0.62234307294E+00  0.14541870423E+04  0.14543747168E+04  0.10000000000E+02 0. -1.
</event>
<event>
 5    1  0.1488417E-008  0.3797168E+03  0.7957747E-01  0.3452392E+00
         13   -1    0    0    0    0  0.00000000000E+00  0.00000000000E+00  0.14999999963E+04  0.15000000000E+04  0.10566000000E+00 0.  1.
        994   -1    0    0    0    0 -0.00000000000E+00 -0.00000000000E+00  0.11368683772E-12  0.17120000000E+03  0.17120000000E+03 0.  0.
         13    1    1    2    0    0  0.25716296955E+02 -0.67276138953E+02  0.34426208864E+03  0.35171551521E+03  0.10566000000E+00 0.  1.
        994    1    1    2    0    0 -0.16843313533E+02  0.10436446685E+03  0.42626005031E+02  0.20567463494E+03  0.17120000000E+03 0.  0.
        998    1    1    2    0    0 -0.88729834218E+01 -0.37088327895E+02  0.11131119026E+04  0.11138098499E+04  0.10000000000E+02 0.  1.
</event>
<event>
 5    1  0.1488417E-008  0.3762810E+03  0.7957747E-01  0.3467514E+00
         13   -1    0    0    0    0  0.00000000000E+00  0.00000000000E+00  0.14999999963E+04  0.15000000000E+04  0.10566000000E+00 0.  1.
        994   -1    0    0    0    0 -0.00000000000E+00 -0.00000000000E+00  0.11368683772E-12  0.17120000000E+03  0.17120000000E+03 0.  0.
         13    1    1    2    0    0 -0.46119948189E+00  0.10242298679E+02  0.59004925234E+01  0.11829808251E+02  0.10566000000E+00 0.  1.
        994    1    1    2    0    0 -0.64040364805E+00 -0.11688057190E+02  0.64862875018E+01  0.17172225460E+03  0.17120000000E+03 0.  0.
        998    1    1    2    0    0  0.11016031299E+01  0.14457585112E+01  0.14876132163E+04  0.14876479372E+04  0.10000000000E+02 0.  1.
</event>
<event>
 5    1  0.1488417E-008  0.3834551E+03  0.7957747E-01  0.3436251E+00
         13   -1    0    0    0    0  0.00000000000E+00  0.00000000000E+00  0.14999999963E+04  0.15000000000E+04  0.10566000000E+00 0. -1.
        994   -1    0    0    0    0 -0.00000000000E+00 -0.00000000000E+00  0.11368683772E-12  0.17120000000E+03  0.17120000000E+03 0.  0.
         13    1    1    2    0    0 -0.18044670635E+02  0.11919100274E+02  0.11876391553E+03  0.12071683348E+03  0.10566000000E+00 0. -1.
        994    1    1    2    0    0 -0.14665997030E+02  0.30159293761E+01  0.31404418168E+01  0.17188219708E+03  0.17120000000E+03 0.  0.
        998    1    1    2    0    0  0.32710667665E+02 -0.14935029650E+02  0.13780956389E+04  0.13786009694E+04  0.10000000000E+02 0. -1.
</event>
<event>
 5    1  0.1488417E-008  0.3801411E+03  0.7957747E-01  0.3450544E+00
         13   -1    0    0    0    0  0.00000000000E+00  0.00000000000E+00  0.14999999963E+04  0.15000000000E+04  0.10566000000E+00 0.  1.
        994   -1    0    0    0    0 -0.00000000000E+00 -0.00000000000E+00  0.11368683772E-12  0.17120000000E+03  0.17120000000E+03 0.  0.
         13    1    1    2    0    0 -0.44416286480E+01  0.17615968095E+02  0.38009271172E+02  0.42127974744E+02  0.10566000000E+00 0.  1.
        994    1    1    2    0    0  0.83823742501E+00 -0.20694167774E+02  0.54965410779E+01  0.17253580262E+03  0.17120000000E+03 0.  0.
        998    1    1    2    0    0  0.36033912230E+01  0.30781996795E+01  0.14564941840E+04  0.14565362226E+04  0.10000000000E+02 0.  1.
</event>
<event>
 5    1  0.1488417E-008  0.3816963E+03  0.7957747E-01  0.3443805E+00
         13   -1    0    0    0    0  0.00000000000E+00  0.00000000000E+00  0.14999999963E+04  0.15000000000E+04  0.10566000000E+00 0.  1.
        994   -1    0    0    0    0 -0.00000000000E+00 -0.00000000000E+00  0.11368683772E-12  0.17120000000E+03  0.17120000000E+03 0.  0.
         13    1    1    2    0    0 -0.32327352112E+02  0.16868917614E+02  0.16745915326E+03  0.17138318836E+03  0.10566000000E+00 0.  1.
        994    1    1    2    0    0  0.35491963019E+02 -0.34180073565E+02  0.11392926158E+02  0.17851385278E+03  0.17120000000E+03 0.  0.
        998    1    1    2    0    0 -0.31646109076E+01  0.17311155951E+02  0.13211479169E+04  0.13213029589E+04  0.10000000000E+02 0.  1.
</event>
<event>
 5    1  0.1488417E-008  0.3847700E+03  0.7957747E-01  0.3430648E+00
         13   -1    0    0    0    0  0.00000000000E+00  0.00000000000E+00  0.14999999963E+04  0.15000000000E+04  0.10566000000E+00 0. -1.
        994   -1    0    0    0    0 -0.00000000000E+00 -0.00000000000E+00  0.11368683772E-12  0.17120000000E+03  0.17120000000E+03 0.  0.
         13    1    1    2    0    0 -0.30495859435E+01  0.14727529481E+02  0.67594847577E+02  0.69247921861E+02  0.10566000000E+00 0. -1.
        994    1    1    2    0    0 -0.67384076663E+01 -0.45432103023E+01  0.19617757377E+01  0.17140401239E+03  0.17120000000E+03 0.  0.
        998    1    1    2    0    0  0.97879936098E+01 -0.10184319178E+02  0.14304433730E+04  0.14305480658E+04  0.10000000000E+02 0. -1.
</event>
<event>
 5    1  0.1488417E-008  0.3831666E+03  0.7957747E-01  0.3437485E+00
         13   -1    0    0    0    0  0.00000000000E+00  0.00000000000E+00  0.14999999963E+04  0.15000000000E+04  0.10566000000E+00 0.  1.
        994   -1    0    0    0    0 -0.00000000000E+00 -0.00000000000E+00  0.11368683772E-12  0.17120000000E+03  0.17120000000E+03 0.  0.
         13    1    1    2    0    0  0.16438499188E+02  0.19176524718E+02  0.13243841779E+03  0.13482547618E+03  0.10566000000E+00 0.  1.
        994    1    1    2    0    0 -0.49261151780E+01 -0.53553591610E+01  0.27183376009E+01  0.17137612390E+03  0.17120000000E+03 0.  0.
        998    1    1    2    0    0 -0.11512384010E+02 -0.13821165557E+02  0.13648432409E+04  0.13649983999E+04  0.10000000000E+02 0.  1.
</event>
<event>
 5    1  0.1488417E-008  0.3857793E+03  0.7957747E-01  0.3426374E+00
         13   -1    0    0    0    0  0.00000000000E+00  0.00000000000E+00  0.14999999963E+04  0.15000000000E+04  0.10566000000E+00 0. -1.
        994   -1    0    0    0    0 -0.00000000000E+00 -0.00000000000E+00  0.11368683772E-12  0.17120000000E+03  0.17120000000E+03 0.  0.
         13    1    1    2    0    0  0.10481631227E+02 -0.48975359581E+01  0.53507861927E+02  0.54744432628E+02  0.10566000000E+00 0. -1.
        994    1    1    2    0    0 -0.86052828028E+01  0.49665314557E+01  0.15676228533E+01  0.17149523249E+03  0.17120000000E+03 0.  0.
        998    1    1    2    0    0 -0.18763484243E+01 -0.68995497629E-01  0.14449245115E+04  0.14449603349E+04  0.10000000000E+02 0.  0.
</event>
<event>
 5    1  0.1488417E-008  0.3823437E+03  0.7957747E-01  0.3441017E+00
         13   -1    0    0    0    0  0.00000000000E+00  0.00000000000E+00  0.14999999963E+04  0.15000000000E+04  0.10566000000E+00 0. -1.
        994   -1    0    0    0    0 -0.00000000000E+00 -0.00000000000E+00  0.11368683772E-12  0.17120000000E+03  0.17120000000E+03 0.  0.
         13    1    1    2    0    0  0.10898613282E+02  0.18802945856E+02  0.83814138809E+02  0.86586093414E+02  0.10566000000E+00 0. -1.
        994    1    1    2    0    0  0.10847099198E+01 -0.40451562305E+01  0.30129088166E+01  0.17127772040E+03  0.17120000000E+03 0.  0.
        998    1    1    2    0    0 -0.11983323202E+02 -0.14757789626E+02  0.14131729487E+04  0.14133361862E+04  0.10000000000E+02 0. -1.
</event>
<event>
 5    1  0.1488417E-008  0.3690926E+03  0.7957747E-01  0.3500071E+00
         13   -1    0    0    0    0  0.00000000000E+00  0.00000000000E+00  0.14999999963E+04  0.15000000000E+04  0.10566000000E+00 0.  1.
        994   -1    0    0    0    0 -0.00000000000E+00 -0.00000000000E+00  0.11368683772E-12  0.17120000000E+03  0.17120000000E+03 0.  0.
         13    1    1    2    0    0  0.28331477990E+02 -0.20888405691E+02  0.54158760077E+02  0.64592419017E+02  0.10566000000E+00 0.  1.
        994    1    1    2    0    0 -0.13242006269E+02  0.33402044491E+02  0.14972403066E+02  0.17556953084E+03  0.17120000000E+03 0.  0.
        998    1    1    2    0    0 -0.15089471721E+02 -0.12513638800E+02  0.14308688331E+04  0.14310380501E+04  0.10000000000E+02 0.  1.
</event>
<event>
 5    1  0.1488417E-008  0.3803917E+03  0.7957747E-01  0.3449455E+00
         13   -1    0    0    0    0  0.00000000000E+00  0.00000000000E+00  0.14999999963E+04  0.15000000000E+04  0.10566000000E+00 0. -1.
        994   -1    0    0    0    0 -0.00000000000E+00 -0.00000000000E+00  0.11368683772E-12  0.17120000000E+03  0.17120000000E+03 0.  0.
         13    1    1    2    0    0 -0.39304448327E+02 -0.27287908559E+01  0.20338656643E+03  0.20716754699E+03  0.10566000000E+00 0. -1.
        994    1    1    2    0    0  0.18170021972E+02 -0.34574752098E+01  0.50785155582E+01  0.17227110946E+03  0.17120000000E+03 0.  0.
        998    1    1    2    0    0  0.21134426355E+02  0.61862660657E+01  0.12915349143E+04  0.12917613436E+04  0.10000000000E+02 0. -1.
</event>
<event>
 5    1  0.1488417E-008  0.3847108E+03  0.7957747E-01  0.3430900E+00
         13   -1    0    0    0    0  0.00000000000E+00  0.00000000000E+00  0.14999999963E+04  0.15000000000E+04  0.10566000000E+00 0. -1.
        994   -1    0    0    0    0 -0.00000000000E+00 -0.00000000000E+00  0.11368683772E-12  0.17120000000E+03  0.17120000000E+03 0.  0.
         13    1    1    2    0    0  0.65021217329E+01  0.11902255271E+02  0.53331717099E+02  0.55029305650E+02  0.10566000000E+00 0. -1.
        994    1    1    2    0    0  0.10650312855E+02 -0.98387556971E+01  0.24661223401E+01  0.17183059110E+03  0.17120000000E+03 0.  0.
        998    1    1    2    0    0 -0.17152434587E+02 -0.20634995737E+01  0.14442021568E+04  0.14443401033E+04  0.10000000000E+02 0. -1.
</event>
<event>
 5    1  0.1488417E-008  0.3861239E+03  0.7957747E-01  0.3424920E+00
         13   -1    0    0    0    0  0.00000000000E+00  0.00000000000E+00  0.14999999963E+04  0.15000000000E+04  0.10566000000E+00 0. -1.
        994   -1    0    0    0    0 -0.00000000000E+00 -0.00000000000E+00  0.11368683772E-12  0.17120000000E+03  0.17120000000E+03 0.  0.
         13    1    1    2    0    0 -0.56917144753E+01 -0.11659666218E+02  0.78025838370E+02  0.79097320102E+02  0.10566000000E+00 0. -1.
        994    1    1    2    0    0 -0.48386922422E+00  0.12243173499E+02  0.15652622811E+01  0.17164503917E+03  0.17120000000E+03 0.  0.
        998    1    1    2    0    0  0.61755836995E+01 -0.58350728108E+00  0.14204088956E+04  0.14204576407E+04  0.10000000000E+02 0. -1.
</event>
<event>
 5    1  0.2120484E-008  0.3864664E+03  0.7957747E-01  0.3423477E+00
         13   -1    0    0    0    0  0.00000000000E+00  0.00000000000E+00  0.14999999963E+04  0.15000000000E+04  0.10566000000E+00 0. -1.
        994   -1    0    0    0    0 -0.00000000000E+00 -0.00000000000E+00  0.11368683772E-12  0.17120000000E+03  0.17120000000E+03 0.  0.
         13    1    1    2    0    0  0.10297320620E+02  0.37302892004E+01  0.64616481145E+02  0.65538161929E+02  0.10566000000E+00 0. -1.
        994    1    1    2    0    0 -0.14420801207E+02  0.14749475606E+01  0.15919173403E+01  0.17181999063E+03  0.17120000000E+03 0.  0.
        998    1    1    2    0    0  0.41234805865E+01 -0.52052367610E+01  0.14337915978E+04  0.14338418474E+04  0.10000000000E+02 0. -1.
</event>
<event>
 5    1  0.1488417E-008  0.3831132E+03  0.7957747E-01  0.3437714E+00
         13   -1    0    0    0    0  0.00000000000E+00  0.00000000000E+00  0.14999999963E+04  0.15000000000E+04  0.10566000000E+00 0.  1.
        994   -1    0    0    0    0 -0.00000000000E+00 -0.00000000000E+00  0.11368683772E-12  0.17120000000E+03  0.17120000000E+03 0.  0.
         13    1    1    2    0    0 -0.10374181724E+02  0.11316134958E+02  0.47003281099E+02  0.49446922603E+02  0.10566000000E+00 0.  1.
        994    1    1    2    0    0 -0.30169587247E+01 -0.39173764082E+01  0.26506975893E+01  0.17129189729E+03  0.17120000000E+03 0.  0.
        998    1    1    2    0    0  0.13391140448E+02 -0.73987585495E+01  0.14503460176E+04  0.14504611801E+04  0.10000000000E+02 0.  1.
</event>
<event>
 5    1  0.1488417E-008  0.3829156E+03  0.7957747E-01  0.3438561E+00
         13   -1    0    0    0    0  0.00000000000E+00  0.00000000000E+00  0.14999999963E+04  0.15000000000E+04  0.10566000000E+00 0. -1.
        994   -1    0    0    0    0 -0.00000000000E+00 -0.00000000000E+00  0.11368683772E-12  0.17120000000E+03  0.17120000000E+03 0.  0.
         13    1    1    2    0    0  0.12701996877E+02  0.23244015132E+01  0.29461420412E+02  0.32167219709E+02  0.10566000000E+00 0. -1.
        994    1    1    2    0    0 -0.17746044505E+02  0.26707141682E+01  0.37356001151E+01  0.17217853966E+03  0.17120000000E+03 0.  0.
        998    1    1    2    0    0  0.50440476281E+01 -0.49951156814E+01  0.14668029758E+04  0.14668542406E+04  0.10000000000E+02 0. -1.
</event>
<event>
 5    1  0.1488417E-008  0.3759453E+03  0.7957747E-01  0.3469006E+00
         13   -1    0    0    0    0  0.00000000000E+00  0.00000000000E+00  0.14999999963E+04  0.15000000000E+04  0.10566000000E+00 0.  1.
        994   -1    0    0    0    0 -0.00000000000E+00 -0.00000000000E+00  0.11368683772E-12  0.17120000000E+03  0.17120000000E+03 0.  0.
         13    1    1    2    0    0 -0.58370041830E+02  0.30729110532E+01  0.29166257500E+03  0.29746188560E+03  0.10566000000E+00 0.  1.
        994    1    1    2    0    0  0.26093092941E+02  0.11770858059E+02  0.89755569610E+01  0.17380852459E+03  0.17120000000E+03 0.  0.
        998    1    1    2    0    0  0.32276948889E+02 -0.14843769112E+02  0.11993618643E+04  0.11999295898E+04  0.10000000000E+02 0.  1.
</event>
<event>
 5    1  0.1488417E-008  0.3804186E+03  0.7957747E-01  0.3449338E+00
         13   -1    0    0    0    0  0.00000000000E+00  0.00000000000E+00  0.14999999963E+04  0.15000000000E+04  0.10566000000E+00 0.  1.
        994   -1    0    0    0    0 -0.00000000000E+00 -0.00000000000E+00  0.11368683772E-12  0.17120000000E+03  0.17120000000E+03 0.  0.
         13    1    1    2    0    0 -0.87151994497E+01  0.70722018156E+01  0.14310605233E+02  0.18187229754E+02  0.10566000000E+00 0.  1.
        994    1    1    2    0    0  0.71190335129E+01 -0.70173985517E+01  0.42556137265E+01  0.17154438134E+03  0.17120000000E+03 0.  0.
        998    1    1    2    0    0  0.15961659368E+01 -0.54803263875E-01  0.14814337773E+04  0.14814683889E+04  0.10000000000E+02 0.  1.
</event>
<event>
 5    1  0.1488417E-008  0.3833230E+03  0.7957747E-01  0.3436816E+00
         13   -1    0    0    0    0  0.00000000000E+00  0.00000000000E+00  0.14999999963E+04  0.15000000000E+04  0.10566000000E+00 0. -1.
        994   -1    0    0    0    0 -0.00000000000E+00 -0.00000000000E+00  0.11368683772E-12  0.17120000000E+03  0.17120000000E+03 0.  0.
         13    1    1    2    0    0  0.25041846482E+02 -0.29853911088E+01  0.11941563833E+03  0.12204963121E+03  0.10566000000E+00 0. -1.
        994    1    1    2    0    0 -0.24740035009E+02  0.96356884315E+01  0.47994208613E+01  0.17331298354E+03  0.17120000000E+03 0.  0.
        998    1    1    2    0    0 -0.30181147276E+00 -0.66502973226E+01  0.13757849371E+04  0.13758373852E+04  0.10000000000E+02 0. -1.
</event>
<event>
 5    1  0.1488417E-008  0.3844681E+03  0.7957747E-01  0.3431931E+00
         13   -1    0    0    0    0  0.00000000000E+00  0.00000000000E+00  0.14999999963E+04  0.15000000000E+04  0.10566000000E+00 0. -1.
        994   -1    0    0    0    0 -0.00000000000E+00 -0.00000000000E+00  0.11368683772E-12  0.17120000000E+03  0.17120000000E+03 0.  0.
         13    1    1    2    0    0  0.11705252892E+02 -0.18518688601E+02  0.12510320001E+03  0.12700699425E+03  0.10566000000E+00 0. -1.
        994    1    1    2    0    0 -0.16087645189E+02  0.75861614692E+01  0.29373260115E+01  0.17214653658E+03  0.17120000000E+03 0.  0.
        998    1    1    2    0    0  0.43823922966E+01  0.10932527132E+02  0.13719594703E+04  0.13720464692E+04  0.10000000000E+02 0. -1.
</event>
<event>
 5    1  0.1488417E-008  0.3723861E+03  0.7957747E-01  0.3484996E+00
         13   -1    0    0    0    0  0.00000000000E+00  0.00000000000E+00  0.14999999963E+04  0.15000000000E+04  0.10566000000E+00 0. -1.
        994   -1    0    0    0    0 -0.00000000000E+00 -0.00000000000E+00  0.11368683772E-12  0.17120000000E+03  0.17120000000E+03 0.  0.
         13    1    1    2    0    0  0.65204044119E+01  0.33203015116E+02  0.78024066113E+02  0.85045411066E+02  0.10566000000E+00 0. -1.
        994    1    1    2    0    0  0.24065428153E+02  0.11237967201E+02  0.10450247900E+02  0.17356291199E+03  0.17120000000E+03 0.  0.
        998    1    1    2    0    0 -0.30585832564E+02 -0.44440982317E+02  0.14115256823E+04  0.14125916769E+04  0.10000000000E+02 0. -1.
</event>
<event>
 5    1  0.1488417E-008  0.3774566E+03  0.7957747E-01  0.3462308E+00
         13   -1    0    0    0    0  0.00000000000E+00  0.00000000000E+00  0.14999999963E+04  0.15000000000E+04  0.10566000000E+00 0.  1.
        994   -1    0    0    0    0 -0.00000000000E+00 -0.00000000000E+00  0.11368683772E-12  0.17120000000E+03  0.17120000000E+03 0.  0.
         13    1    1    2    0    0 -0.71686809308E+01 -0.23967006528E+02  0.54171611765E+02  0.59668937258E+02  0.10566000000E+00 0.  1.
        994    1    1    2    0    0  0.72720860804E+01  0.22667893550E+02  0.73354610681E+01  0.17300279080E+03  0.17120000000E+03 0.  0.
        998    1    1    2    0    0 -0.10340514961E+00  0.12991129784E+01  0.14384929234E+04  0.14385282719E+04  0.10000000000E+02 0.  1.
</event>
<event>
 5    1  0.1488417E-008  0.3819167E+03  0.7957747E-01  0.3442855E+00
         13   -1    0    0    0    0  0.00000000000E+00  0.00000000000E+00  0.14999999963E+04  0.15000000000E+04  0.10566000000E+00 0.  1.
        994   -1    0    0    0    0 -0.00000000000E+00 -0.00000000000E+00  0.11368683772E-12  0.17120000000E+03  0.17120000000E+03 0.  0.
         13    1    1    2    0    0  0.77975384886E+01  0.19816703794E+02  0.68546505376E+02  0.71778394514E+02  0.10566000000E+00 0.  1.
        994    1    1    2    0    0 -0.55172603152E+01 -0.18722032942E+02  0.44352463609E+01  0.17236608161E+03  0.17120000000E+03 0.  0.
        998    1    1    2    0    0 -0.22802781734E+01 -0.10946708524E+01  0.14270182445E+04  0.14270555239E+04  0.10000000000E+02 0.  1.
</event>
<event>
 5    1  0.1488417E-008  0.3851283E+03  0.7957747E-01  0.3429128E+00
         13   -1    0    0    0    0  0.00000000000E+00  0.00000000000E+00  0.14999999963E+04  0.15000000000E+04  0.10566000000E+00 0.  1.
        994   -1    0    0    0    0 -0.00000000000E+00 -0.00000000000E+00  0.11368683772E-12  0.17120000000E+03  0.17120000000E+03 0.  0.
         13    1    1    2    0    0 -0.11182240985E+02  0.10278906292E+02  0.69914936742E+02  0.71545845244E+02  0.10566000000E+00 0.  1.
        994    1    1    2    0    0  0.17179568856E+02 -0.80079890186E+01  0.27483257311E+01  0.17226798533E+03  0.17120000000E+03 0.  0.
        998    1    1    2    0    0 -0.59973278702E+01 -0.22709172738E+01  0.14273367338E+04  0.14273861694E+04  0.10000000000E+02 0.  1.
</event>
<event>
 5    1  0.1488417E-008  0.3774096E+03  0.7957747E-01  0.3462516E+00
         13   -1    0    0    0    0  0.00000000000E+00  0.00000000000E+00  0.14999999963E+04  0.15000000000E+04  0.10566000000E+00 0. -1.
        994   -1    0    0    0    0 -0.00000000000E+00 -0.00000000000E+00  0.11368683772E-12  0.17120000000E+03  0.17120000000E+03 0.  0.
         13    1    1    2    0    0 -0.55310511793E+02  0.91550137565E+01  0.24669284232E+03  0.25298307573E+03  0.10566000000E+00 0. -1.
        994    1    1    2    0    0  0.52417558309E+02 -0.75969222176E+01  0.14964585475E+02  0.17982962065E+03  0.17120000000E+03 0.  0.
        998    1    1    2    0    0  0.28929534836E+01 -0.15580915388E+01  0.12383425685E+04  0.12383873036E+04  0.10000000000E+02 0.  0.
</event>
<event>
 5    1  0.1488417E-008  0.3854082E+03  0.7957747E-01  0.3427943E+00
         13   -1    0    0    0    0  0.00000000000E+00  0.00000000000E+00  0.14999999963E+04  0.15000000000E+04  0.10566000000E+00 0.  1.
        994   -1    0    0    0    0 -0.00000000000E+00 -0.00000000000E+00  0.11368683772E-12  0.17120000000E+03  0.17120000000E+03 0.  0.
         13    1    1    2    0    0 -0.62964059273E-01  0.17801689790E+02  0.10537864604E+03  0.10687176581E+03  0.10566000000E+00 0.  1.
        994    1    1    2    0    0  0.26748391271E+01 -0.17861583345E+02  0.24996546616E+01  0.17216817127E+03  0.17120000000E+03 0.  0.
        998    1    1    2    0    0 -0.26118750678E+01  0.59893554960E-01  0.13921216956E+04  0.13921600629E+04  0.10000000000E+02 0.  1.
</event>
<event>
 5    1  0.1488417E-008  0.3715859E+03  0.7957747E-01  0.3488634E+00
         13   -1    0    0    0    0  0.00000000000E+00  0.00000000000E+00  0.14999999963E+04  0.15000000000E+04  0.10566000000E+00 0. -1.
        994   -1    0    0    0    0 -0.00000000000E+00 -0.00000000000E+00  0.11368683772E-12  0.17120000000E+03  0.17120000000E+03 0.  0.
         13    1    1    2    0    0 -0.21302375130E+02 -0.53819567640E+01  0.15570707790E+02  0.26929811546E+02  0.10566000000E+00 0. -1.
        994    1    1    2    0    0  0.19956177881E+02 -0.40941791758E+02  0.19108508777E+02  0.17818264353E+03  0.17120000000E+03 0.  0.
        998    1    1    2    0    0  0.13461972492E+01  0.46323748522E+02  0.14653207797E+04  0.14660875449E+04  0.10000000000E+02 0. -1.
</event>
<event>
 5    1  0.1488417E-008  0.3851826E+03  0.7957747E-01  0.3428898E+00
         13   -1    0    0    0    0  0.00000000000E+00  0.00000000000E+00  0.14999999963E+04  0.15000000000E+04  0.10566000000E+00 0. -1.
        994   -1    0    0    0    0 -0.00000000000E+00 -0.00000000000E+00  0.11368683772E-12  0.17120000000E+03  0.17120000000E+03 0.  0.
         13    1    1    2    0    0  0.13101152732E+02  0.74025262095E+01  0.70744744202E+02  0.72327502331E+02  0.10566000000E+00 0. -1.
        994    1    1    2    0    0 -0.15434850408E+02 -0.50897114692E+01  0.24081452244E+01  0.17198656614E+03  0.17120000000E+03 0.  0.
        998    1    1    2    0    0  0.23336976767E+01 -0.23128147403E+01  0.14268471069E+04  0.14268859315E+04  0.10000000000E+02 0. -1.
</event>
<event>
 5    1  0.1488417E-008  0.3799116E+03  0.7957747E-01  0.3451543E+00
         13   -1    0    0    0    0  0.00000000000E+00  0.00000000000E+00  0.14999999963E+04  0.15000000000E+04  0.10566000000E+00 0. -1.
        994   -1    0    0    0    0 -0.00000000000E+00 -0.00000000000E+00  0.11368683772E-12  0.17120000000E+03  0.17120000000E+03 0.  0.
         13    1    1    2    0    0  0.17096826763E+02 -0.20414909865E+01  0.34167465725E+02  0.38260894513E+02  0.10566000000E+00 0. -1.
        994    1    1    2    0    0 -0.77665955175E+01  0.81216998217E+01  0.46001556013E+01  0.17163007733E+03  0.17120000000E+03 0.  0.
        998    1    1    2    0    0 -0.93302312458E+01 -0.60802088352E+01  0.14612323750E+04  0.14613090282E+04  0.10000000000E+02 0. -1.
</event>
<event>
 5    1  0.1488417E-008  0.3777303E+03  0.7957747E-01  0.3461101E+00
         13   -1    0    0    0    0  0.00000000000E+00  0.00000000000E+00  0.14999999963E+04  0.15000000000E+04  0.10566000000E+00 0.  1.
        994   -1    0    0    0    0 -0.00000000000E+00 -0.00000000000E+00  0.11368683772E-12  0.17120000000E+03  0.17120000000E+03 0.  0.
         13    1    1    2    0    0 -0.66333456902E+02  0.37225153156E+02  0.41622310432E+03  0.42311644174E+03  0.10566000000E+00 0.  1.
        994    1    1    2    0    0  0.78392124021E+02 -0.91707196011E+01  0.26561016225E+02  0.19037950202E+03  0.17120000000E+03 0.  0.
        998    1    1    2    0    0 -0.12058667119E+02 -0.28054433555E+02  0.10572158757E+04  0.10577040562E+04  0.10000000000E+02 0.  1.
</event>
<event>
 5    1  0.1488417E-008  0.4026089E+03  0.7957747E-01  0.3358260E+00
         13   -1    0    0    0    0  0.00000000000E+00  0.00000000000E+00  0.14999999963E+04  0.15000000000E+04  0.10566000000E+00 0.  1.
        994   -1    0    0    0    0 -0.00000000000E+00 -0.00000000000E+00  0.11368683772E-12  0.17120000000E+03  0.17120000000E+03 0.  0.
         13    1    1    2    0    0  0.92759340570E+02  0.42030594106E+02  0.23739453105E+03  0.25831577699E+03  0.10566000000E+00 0.  1.
        994    1    1    2    0    0  0.23209176105E+02 -0.15994069912E+01  0.31492577154E+02  0.17562017644E+03  0.17120000000E+03 0.  0.
        998    1    1    2    0    0 -0.11596851668E+03 -0.40431187115E+02  0.12311128881E+04  0.12372640466E+04  0.10000000000E+02 0.  1.
</event>
<event>
 5    1  0.1488417E-008  0.3712578E+03  0.7957747E-01  0.3490130E+00
         13   -1    0    0    0    0  0.00000000000E+00  0.00000000000E+00  0.14999999963E+04  0.15000000000E+04  0.10566000000E+00 0. -1.
        994   -1    0    0    0    0 -0.00000000000E+00 -0.00000000000E+00  0.11368683772E-12  0.17120000000E+03  0.17120000000E+03 0.  0.
         13    1    1    2    0    0 -0.43660716392E+02  0.53343360329E+02  0.22949883198E+03  0.23962783080E+03  0.10566000000E+00 0. -1.
        994    1    1    2    0    0 -0.10106262282E+02 -0.29065433679E+02  0.14937792867E+02  0.17458382980E+03  0.17120000000E+03 0.  0.
        998    1    1    2    0    0  0.53766978674E+02 -0.24277926650E+02  0.12555633714E+04  0.12569883394E+04  0.10000000000E+02 0. -1.
</event>
<event>
 5    1  0.1488417E-008  0.2482862E+03  0.7957747E-01  0.4352113E+00
         13   -1    0    0    0    0  0.00000000000E+00  0.00000000000E+00  0.14999999963E+04  0.15000000000E+04  0.10566000000E+00 0. -1.
        994   -1    0    0    0    0 -0.00000000000E+00 -0.00000000000E+00  0.11368683772E-12  0.17120000000E+03  0.17120000000E+03 0.  0.
         13    1    1    2    0    0 -0.22256919989E+02  0.12861560878E+03  0.38647784184E+02  0.13612864392E+03  0.10566000000E+00 0. -1.
        994    1    1    2    0    0  0.17544837705E+02 -0.10153403518E+03  0.23540357618E+03  0.30877380930E+03  0.17120000000E+03 0.  0.
        998    1    1    2    0    0  0.47120822841E+01 -0.27081573592E+02  0.12259486359E+04  0.12262975468E+04  0.10000000000E+02 0. -1.
</event>
<event>
 5    1  0.1488417E-008  0.3695232E+03  0.7957747E-01  0.3498085E+00
         13   -1    0    0    0    0  0.00000000000E+00  0.00000000000E+00  0.14999999963E+04  0.15000000000E+04  0.10566000000E+00 0.  1.
        994   -1    0    0    0    0 -0.00000000000E+00 -0.00000000000E+00  0.11368683772E-12  0.17120000000E+03  0.17120000000E+03 0.  0.
         13    1    1    2    0    0  0.94454928379E+01 -0.70821255628E+01  0.15283228669E+01  0.11904653387E+02  0.10566000000E+00 0.  1.
        994    1    1    2    0    0 -0.95198548181E+01  0.82362704410E+01  0.11240176006E+02  0.17202978040E+03  0.17120000000E+03 0.  0.
        998    1    1    2    0    0  0.74361980201E-01 -0.11541448782E+01  0.14872314974E+04  0.14872655662E+04  0.10000000000E+02 0.  1.
</event>
<event>
 5    1  0.1488417E-008  0.3854387E+03  0.7957747E-01  0.3427814E+00
         13   -1    0    0    0    0  0.00000000000E+00  0.00000000000E+00  0.14999999963E+04  0.15000000000E+04  0.10566000000E+00 0.  1.
        994   -1    0    0    0    0 -0.00000000000E+00 -0.00000000000E+00  0.11368683772E-12  0.17120000000E+03  0.17120000000E+03 0.  0.
         13    1    1    2    0    0  0.79108870239E+00 -0.14961771384E+02  0.83728288424E+02  0.85058320409E+02  0.10566000000E+00 0.  1.
        994    1    1    2    0    0 -0.12214352091E+02  0.32106123986E+01  0.19364383015E+01  0.17167611430E+03  0.17120000000E+03 0.  0.
        998    1    1    2    0    0  0.11423263389E+02  0.11751158985E+02  0.14143352696E+04  0.14144655653E+04  0.10000000000E+02 0.  1.
</event>
<event>
 5    1  0.1488417E-008  0.3825750E+03  0.7957747E-01  0.3440022E+00
         13   -1    0    0    0    0  0.00000000000E+00  0.00000000000E+00  0.14999999963E+04  0.15000000000E+04  0.10566000000E+00 0. -1.
        994   -1    0    0    0    0 -0.00000000000E+00 -0.00000000000E+00  0.11368683772E-12  0.17120000000E+03  0.17120000000E+03 0.  0.
         13    1    1    2    0    0 -0.88872313144E+01 -0.19722853111E+02  0.80460244294E+02  0.83317680544E+02  0.10566000000E+00 0. -1.
        994    1    1    2    0    0  0.81188177753E+01  0.14012931331E+02  0.37087488072E+01  0.17200427978E+03  0.17120000000E+03 0.  0.
        998    1    1    2    0    0  0.76841353905E+00  0.57099217800E+01  0.14158310032E+04  0.14158780397E+04  0.10000000000E+02 0. -1.
</event>
<event>
 5    1  0.1488417E-008  0.3775611E+03  0.7957747E-01  0.3461847E+00
         13   -1    0    0    0    0  0.00000000000E+00  0.00000000000E+00  0.14999999963E+04  0.15000000000E+04  0.10566000000E+00 0. -1.
        994   -1    0    0    0    0 -0.00000000000E+00 -0.00000000000E+00  0.11368683772E-12  0.17120000000E+03  0.17120000000E+03 0.  0.
         13    1    1    2    0    0 -0.21671320052E+01 -0.46960043043E+02  0.19914758725E+03  0.20462090503E+03  0.10566000000E+00 0. -1.
        994    1    1    2    0    0  0.87077089142E+01  0.30503075116E+02  0.87680388153E+01  0.17433467897E+03  0.17120000000E+03 0.  0.
        998    1    1    2    0    0 -0.65405769090E+01  0.16456967927E+02  0.12920843702E+04  0.12922444160E+04  0.10000000000E+02 0. -1.
</event>
<event>
 5    1  0.1488417E-008  0.3802723E+03  0.7957747E-01  0.3449974E+00
         13   -1    0    0    0    0  0.00000000000E+00  0.00000000000E+00  0.14999999963E+04  0.15000000000E+04  0.10566000000E+00 0.  1.
        994   -1    0    0    0    0 -0.00000000000E+00 -0.00000000000E+00  0.11368683772E-12  0.17120000000E+03  0.17120000000E+03 0.  0.
         13    1    1    2    0    0  0.16270640977E+02 -0.12630588708E+02  0.48518787687E+02  0.52710050764E+02  0.10566000000E+00 0.  1.
        994    1    1    2    0    0 -0.26258337965E+02  0.14966613705E+02  0.70527559814E+01  0.17399046297E+03  0.17120000000E+03 0.  0.
        998    1    1    2    0    0  0.99876969881E+01 -0.23360249965E+01  0.14444284526E+04  0.14444994863E+04  0.10000000000E+02 0.  1.
</event>
<event>
 5    1  0.1488417E-008  0.3848098E+03  0.7957747E-01  0.3430479E+00
         13   -1    0    0    0    0  0.00000000000E+00  0.00000000000E+00  0.14999999963E+04  0.15000000000E+04  0.10566000000E+00 0. -1.
        994   -1    0    0    0    0 -0.00000000000E+00 -0.00000000000E+00  0.11368683772E-12  0.17120000000E+03  0.17120000000E+03 0.  0.
         13    1    1    2    0    0  0.12630058804E+02  0.97491088985E+00  0.47892293553E+02  0.49539396266E+02  0.10566000000E+00 0. -1.
        994    1    1    2    0    0 -0.20294453845E+01 -0.53038997482E+01  0.18307206752E+01  0.17130394490E+03  0.17120000000E+03 0.  0.
        998    1    1    2    0    0 -0.10600613419E+02  0.43289888584E+01  0.14502769821E+04  0.14503566588E+04  0.10000000000E+02 0. -1.
</event>
<event>
 5    1  0.1488417E-008  0.3852739E+03  0.7957747E-01  0.3428511E+00
         13   -1    0    0    0    0  0.00000000000E+00  0.00000000000E+00  0.14999999963E+04  0.15000000000E+04  0.10566000000E+00 0.  1.
        994   -1    0    0    0    0 -0.00000000000E+00 -0.00000000000E+00  0.11368683772E-12  0.17120000000E+03  0.17120000000E+03 0.  0.
         13    1    1    2    0    0 -0.13060005874E+02  0.10608175266E+02  0.95002975241E+02  0.96481467674E+02  0.10566000000E+00 0.  1.
        994    1    1    2    0    0  0.10299400948E+02 -0.44863385550E+01  0.19090077497E+01  0.17157881339E+03  0.17120000000E+03 0.  0.
        998    1    1    2    0    0  0.27606049263E+01 -0.61218367107E+01  0.14030880133E+04  0.14031397189E+04  0.10000000000E+02 0.  1.
</event>
<event>
 5    1  0.1488417E-008  0.3776717E+03  0.7957747E-01  0.3461360E+00
         13   -1    0    0    0    0  0.00000000000E+00  0.00000000000E+00  0.14999999963E+04  0.15000000000E+04  0.10566000000E+00 0. -1.
        994   -1    0    0    0    0 -0.00000000000E+00 -0.00000000000E+00  0.11368683772E-12  0.17120000000E+03  0.17120000000E+03 0.  0.
         13    1    1    2    0    0  0.78360423568E+02 -0.91355882427E+00  0.42042799072E+03  0.42766914445E+03  0.10566000000E+00 0. -1.
        994    1    1    2    0    0 -0.76714743117E+02  0.40779983951E+01  0.25460564288E+02  0.18936594788E+03  0.17120000000E+03 0.  0.
        998    1    1    2    0    0 -0.16456804501E+01 -0.31644395708E+01  0.10541114413E+04  0.10541649077E+04  0.10000000000E+02 0.  0.
</event>
<event>
 5    1  0.1488417E-008  0.3790839E+03  0.7957747E-01  0.3455157E+00
         13   -1    0    0    0    0  0.00000000000E+00  0.00000000000E+00  0.14999999963E+04  0.15000000000E+04  0.10566000000E+00 0.  1.
        994   -1    0    0    0    0 -0.00000000000E+00 -0.00000000000E+00  0.11368683772E-12  0.17120000000E+03  0.17120000000E+03 0.  0.
         13    1    1    2    0    0 -0.55833051686E+01 -0.22874142989E+02  0.60314929607E+02  0.64747985387E+02  0.10566000000E+00 0.  1.
        994    1    1    2    0    0  0.26782562136E+01  0.72971628169E+01  0.47989363781E+01  0.17144355174E+03  0.17120000000E+03 0.  0.
        998    1    1    2    0    0  0.29050489550E+01  0.15576980172E+02  0.14348861303E+04  0.14350084629E+04  0.10000000000E+02 0.  1.
</event>
<event>
 5    1  0.1488417E-008  0.3690274E+03  0.7957747E-01  0.3500373E+00
         13   -1    0    0    0    0  0.00000000000E+00  0.00000000000E+00  0.14999999963E+04  0.15000000000E+04  0.10566000000E+00 0.  1.
        994   -1    0    0    0    0 -0.00000000000E+00 -0.00000000000E+00  0.11368683772E-12  0.17120000000E+03  0.17120000000E+03 0.  0.
         13    1    1    2    0    0  0.12132675978E+03 -0.16500938949E+03  0.76309880205E+03  0.79010636886E+03  0.10566000000E+00 0.  1.
        994    1    1    2    0    0 -0.12580222687E+03  0.16272281525E+03  0.17648134183E+03  0.32056203596E+03  0.17120000000E+03 0.  0.
        998    1    1    2    0    0  0.44754670910E+01  0.22865742386E+01  0.56041985240E+03  0.56053159517E+03  0.10000000000E+02 0.  0.
</event>
<event>
 5    1  0.1488417E-008  0.3860108E+03  0.7957747E-01  0.3425397E+00
         13   -1    0    0    0    0  0.00000000000E+00  0.00000000000E+00  0.14999999963E+04  0.15000000000E+04  0.10566000000E+00 0. -1.
        994   -1    0    0    0    0 -0.00000000000E+00 -0.00000000000E+00  0.11368683772E-12  0.17120000000E+03  0.17120000000E+03 0.  0.
         13    1    1    2    0    0 -0.13523975112E+02 -0.16216716045E+01  0.77985773404E+02  0.79166405369E+02  0.10566000000E+00 0. -1.
        994    1    1    2    0    0  0.16003286661E+02  0.72901479989E+01  0.21434870299E+01  0.17211416554E+03  0.17120000000E+03 0.  0.
        998    1    1    2    0    0 -0.24793115491E+01 -0.56684763944E+01  0.14198707358E+04  0.14199194291E+04  0.10000000000E+02 0. -1.
</event>
<event>
 5    1  0.1488417E-008  0.3840750E+03  0.7957747E-01  0.3433605E+00
         13   -1    0    0    0    0  0.00000000000E+00  0.00000000000E+00  0.14999999963E+04  0.15000000000E+04  0.10566000000E+00 0.  1.
        994   -1    0    0    0    0 -0.00000000000E+00 -0.00000000000E+00  0.11368683772E-12  0.17120000000E+03  0.17120000000E+03 0.  0.
         13    1    1    2    0    0 -0.62955136175E+00 -0.12811904918E+02  0.40836932995E+02  0.42804293045E+02  0.10566000000E+00 0.  1.
        994    1    1    2    0    0  0.52465793258E+01 -0.24181281600E+01  0.22001584568E+01  0.17131157181E+03  0.17120000000E+03 0.  0.
        998    1    1    2    0    0 -0.46170279640E+01  0.15230033078E+02  0.14569629048E+04  0.14570841351E+04  0.10000000000E+02 0.  1.
</event>
<event>
 5    1  0.1488417E-008  0.2400650E+03  0.7957747E-01  0.4445641E+00
         13   -1    0    0    0    0  0.00000000000E+00  0.00000000000E+00  0.14999999963E+04  0.15000000000E+04  0.10566000000E+00 0. -1.
        994   -1    0    0    0    0 -0.00000000000E+00 -0.00000000000E+00  0.11368683772E-12  0.17120000000E+03  0.17120000000E+03 0.  0.
         13    1    1    2    0    0  0.19728709736E+02 -0.16464518371E+03  0.26403455397E+03  0.31178761258E+03  0.10566000000E+00 0. -1.
        994    1    1    2    0    0  0.86287489145E+02  0.14902204934E+03  0.19105406343E+03  0.30897280969E+03  0.17120000000E+03 0.  0.
        998    1    1    2    0    0 -0.10601619888E+03  0.15623134375E+02  0.10449113789E+04  0.10504395777E+04  0.10000000000E+02 0. -1.
</event>
<event>
 5    1  0.1488417E-008  0.3857603E+03  0.7957747E-01  0.3426454E+00
         13   -1    0    0    0    0  0.00000000000E+00  0.00000000000E+00  0.14999999963E+04  0.15000000000E+04  0.10566000000E+00 0.  1.
        994   -1    0    0    0    0 -0.00000000000E+00 -0.00000000000E+00  0.11368683772E-12  0.17120000000E+03  0.17120000000E+03 0.  0.
         13    1    1    2    0    0 -0.22620109462E+03  0.18021460610E+03  0.10248106440E+04  0.10648385355E+04  0.10566000000E+00 0.  1.
        994    1    1    2    0    0  0.23385583816E+03 -0.18587752618E+03  0.39075318335E+03  0.52080370398E+03  0.17120000000E+03 0.  0.
        998    1    1    2    0    0 -0.76547435332E+01  0.56629200796E+01  0.84436168970E+02  0.85557760564E+02  0.10000000000E+02 0. -1.
</event>
<event>
 5    1  0.1488417E-008  0.3830087E+03  0.7957747E-01  0.3438162E+00
         13   -1    0    0    0    0  0.00000000000E+00  0.00000000000E+00  0.14999999963E+04  0.15000000000E+04  0.10566000000E+00 0. -1.
        994   -1    0    0    0    0 -0.00000000000E+00 -0.00000000000E+00  0.11368683772E-12  0.17120000000E+03  0.17120000000E+03 0.  0.
         13    1    1    2    0    0  0.11535655239E+02 -0.69987233073E+01  0.33440941061E+02  0.36060520973E+02  0.10566000000E+00 0. -1.
        994    1    1    2    0    0 -0.13763033559E+02  0.12499501484E+01  0.32544350055E+01  0.17178770275E+03  0.17120000000E+03 0.  0.
        998    1    1    2    0    0  0.22273783202E+01  0.57487731588E+01  0.14633046202E+04  0.14633517763E+04  0.10000000000E+02 0. -1.
</event>
<event>
 5    1  0.1488417E-008  0.3858216E+03  0.7957747E-01  0.3426195E+00
         13   -1    0    0    0    0  0.00000000000E+00  0.00000000000E+00  0.14999999963E+04  0.15000000000E+04  0.10566000000E+00 0.  1.
        994   -1    0    0    0    0 -0.00000000000E+00 -0.00000000000E+00  0.11368683772E-12  0.17120000000E+03  0.17120000000E+03 0.  0.
         13    1    1    2    0    0 -0.94805066826E+01 -0.10868692241E+02  0.78142821525E+02  0.79462696896E+02  0.10566000000E+00 0.  1.
        994    1    1    2    0    0  0.15434545480E+02  0.14917705258E+02  0.27354925861E+01  0.17256212227E+03  0.17120000000E+03 0.  0.
        998    1    1    2    0    0 -0.59540387971E+01 -0.40490130164E+01  0.14191216822E+04  0.14191751808E+04  0.10000000000E+02 0.  1.
</event>
<event>
 5    1  0.1488417E-008  0.3760416E+03  0.7957747E-01  0.3468578E+00
         13   -1    0    0    0    0  0.00000000000E+00  0.00000000000E+00  0.14999999963E+04  0.15000000000E+04  0.10566000000E+00 0. -1.
        994   -1    0    0    0    0 -0.00000000000E+00 -0.00000000000E+00  0.11368683772E-12  0.17120000000E+03  0.17120000000E+03 0.  0.
         13    1    1    2    0    0  0.62082520190E+02 -0.14806445651E+03  0.79906067735E+03  0.81503085822E+03  0.10566000000E+00 0. -1.
        994    1    1    2    0    0 -0.36458782294E+02  0.16680312280E+03  0.11231041812E+03  0.26660006489E+03  0.17120000000E+03 0.  0.
        998    1    1    2    0    0 -0.25623737895E+02 -0.18738666292E+02  0.58862890081E+03  0.58956907689E+03  0.10000000000E+02 0. -1.
</event>
<event>
 5    1  0.1488417E-008  0.3781556E+03  0.7957747E-01  0.3459229E+00
         13   -1    0    0    0    0  0.00000000000E+00  0.00000000000E+00  0.14999999963E+04  0.15000000000E+04  0.10566000000E+00 0.  1.
        994   -1    0    0    0    0 -0.00000000000E+00 -0.00000000000E+00  0.11368683772E-12  0.17120000000E+03  0.17120000000E+03 0.  0.
         13    1    1    2    0    0 -0.17951868089E+02  0.21511927602E+02  0.82037646729E+02  0.86690364181E+02  0.10566000000E+00 0.  1.
        994    1    1    2    0    0 -0.23513826675E+02 -0.18489415764E+02  0.80824284833E+01  0.17398139036E+03  0.17120000000E+03 0.  0.
        998    1    1    2    0    0  0.41465694764E+02 -0.30225118386E+01  0.14098799211E+04  0.14105282455E+04  0.10000000000E+02 0.  1.
</event>
<event>
 5    1  0.1488417E-008  0.3850713E+03  0.7957747E-01  0.3429370E+00
         13   -1    0    0    0    0  0.00000000000E+00  0.00000000000E+00  0.14999999963E+04  0.15000000000E+04  0.10566000000E+00 0. -1.
        994   -1    0    0    0    0 -0.00000000000E+00 -0.00000000000E+00  0.11368683772E-12  0.17120000000E+03  0.17120000000E+03 0.  0.
         13    1    1    2    0    0 -0.11671192140E+02 -0.13360966725E+02  0.10491320494E+03  0.10640264984E+03  0.10566000000E+00 0. -1.
        994    1    1    2    0    0  0.28071206757E+01  0.28960431603E+01  0.16482438954E+01  0.17125543408E+03  0.17120000000E+03 0.  0.
        998    1    1    2    0    0  0.88640714640E+01  0.10464923565E+02  0.13934385474E+04  0.13935419161E+04  0.10000000000E+02 0. -1.
</event>
<event>
 5    1  0.1488417E-008  0.3831022E+03  0.7957747E-01  0.3437761E+00
         13   -1    0    0    0    0  0.00000000000E+00  0.00000000000E+00  0.14999999963E+04  0.15000000000E+04  0.10566000000E+00 0. -1.
        994   -1    0    0    0    0 -0.00000000000E+00 -0.00000000000E+00  0.11368683772E-12  0.17120000000E+03  0.17120000000E+03 0.  0.
         13    1    1    2    0    0  0.72483382460E+01 -0.12644427477E+02  0.42192869287E+02  0.44639324998E+02  0.10566000000E+00 0. -1.
        994    1    1    2    0    0  0.30481740799E+01  0.15045113846E+01  0.26135622924E+01  0.17125368792E+03  0.17120000000E+03 0.  0.
        998    1    1    2    0    0 -0.10296512326E+02  0.11139916092E+02  0.14551935647E+04  0.14553069871E+04  0.10000000000E+02 0. -1.
</event>
<event>
 5    1  0.1488417E-008  0.3033403E+03  0.7957747E-01  0.3872457E+00
         13   -1    0    0    0    0  0.00000000000E+00  0.00000000000E+00  0.14999999963E+04  0.15000000000E+04  0.10566000000E+00 0.  1.
        994   -1    0    0    0    0 -0.00000000000E+00 -0.00000000000E+00  0.11368683772E-12  0.17120000000E+03  0.17120000000E+03 0.  0.
         13    1    1    2    0    0  0.56719854684E+02  0.22236578476E+03  0.63421775645E+03  0.67445967849E+03  0.10566000000E+00 0.  1.
        994    1    1    2    0    0 -0.55939621727E+02 -0.18197832794E+03  0.18791125164E+03  0.31759318571E+03  0.17120000000E+03 0.  0.
        998    1    1    2    0    0 -0.78023295673E+00 -0.40387456822E+02  0.67787098820E+03  0.67914713580E+03  0.10000000000E+02 0. -1.
</event>
<event>
 5    1  0.1488417E-008  0.3936839E+03  0.7957747E-01  0.3393657E+00
         13   -1    0    0    0    0  0.00000000000E+00  0.00000000000E+00  0.14999999963E+04  0.15000000000E+04  0.10566000000E+00 0.  1.
        994   -1    0    0    0    0 -0.00000000000E+00 -0.00000000000E+00  0.11368683772E-12  0.17120000000E+03  0.17120000000E+03 0.  0.
         13    1    1    2    0    0 -0.32978846424E+02 -0.17908650054E+01  0.12562654513E+02  0.35336142423E+02  0.10566000000E+00 0.  1.
        994    1    1    2    0    0  0.33057130059E+02  0.34583823035E+01  0.28283996946E+02  0.17667529182E+03  0.17120000000E+03 0.  0.
        998    1    1    2    0    0 -0.78283635376E-01 -0.16675172981E+01  0.14591533448E+04  0.14591885658E+04  0.10000000000E+02 0.  1.
</event>
<event>
 5    1  0.1770931E-008  0.3861584E+03  0.7957747E-01  0.3424774E+00
         13   -1    0    0    0    0  0.00000000000E+00  0.00000000000E+00  0.14999999963E+04  0.15000000000E+04  0.10566000000E+00 0.  1.
        994   -1    0    0    0    0 -0.00000000000E+00 -0.00000000000E+00  0.11368683772E-12  0.17120000000E+03  0.17120000000E+03 0.  0.
         13    1    1    2    0    0 -0.75152724533E+01 -0.68109523684E+01  0.50127030902E+02  0.51142925056E+02  0.10566000000E+00 0.  1.
        994    1    1    2    0    0  0.37407764562E+01  0.29546611042E+01  0.11305353894E+01  0.17127008361E+03  0.17120000000E+03 0.  0.
        998    1    1    2    0    0  0.37744959971E+01  0.38562912642E+01  0.14487424300E+04  0.14487869913E+04  0.10000000000E+02 0.  1.
</event>
<event>
 5    1  0.1488417E-008  0.3779517E+03  0.7957747E-01  0.3460126E+00
         13   -1    0    0    0    0  0.00000000000E+00  0.00000000000E+00  0.14999999963E+04  0.15000000000E+04  0.10566000000E+00 0.  1.
        994   -1    0    0    0    0 -0.00000000000E+00 -0.00000000000E+00  0.11368683772E-12  0.17120000000E+03  0.17120000000E+03 0.  0.
         13    1    1    2    0    0  0.82692158824E+02 -0.19750457786E+03  0.91819656035E+03  0.94283136669E+03  0.10566000000E+00 0.  1.
        994    1    1    2    0    0 -0.80842740100E+02  0.20916287728E+03  0.19898513622E+03  0.34523786336E+03  0.17120000000E+03 0.  0.
        998    1    1    2    0    0 -0.18494187239E+01 -0.11658299423E+02  0.38281829971E+03  0.38313076995E+03  0.10000000000E+02 0.  1.
</event>
<event>
 5    1  0.1488417E-008  0.3802406E+03  0.7957747E-01  0.3450112E+00
         13   -1    0    0    0    0  0.00000000000E+00  0.00000000000E+00  0.14999999963E+04  0.15000000000E+04  0.10566000000E+00 0.  1.
        994   -1    0    0    0    0 -0.00000000000E+00 -0.00000000000E+00  0.11368683772E-12  0.17120000000E+03  0.17120000000E+03 0.  0.
         13    1    1    2    0    0  0.18605898907E+02 -0.27894903489E+02  0.14744618697E+03  0.15121076130E+03  0.10566000000E+00 0.  1.
        994    1    1    2    0    0  0.33096904662E+02  0.37918839562E+02  0.12520249330E+02  0.17888387332E+03  0.17120000000E+03 0.  0.
        998    1    1    2    0    0 -0.51702803568E+02 -0.10023936072E+02  0.13400335600E+04  0.13411053654E+04  0.10000000000E+02 0.  1.
</event>
<event>
 5    1  0.1488417E-008  0.4159813E+03  0.7957747E-01  0.3308043E+00
         13   -1    0    0    0    0  0.00000000000E+00  0.00000000000E+00  0.14999999963E+04  0.15000000000E+04  0.10566000000E+00 0. -1.
        994   -1    0    0    0    0 -0.00000000000E+00 -0.00000000000E+00  0.11368683772E-12  0.17120000000E+03  0.17120000000E+03 0.  0.
         13    1    1    2    0    0  0.15273658813E+02  0.57671123497E+02  0.34102265997E+02  0.68718402551E+02  0.10566000000E+00 0. -1.
        994    1    1    2    0    0 -0.29786239470E+01 -0.50755515595E+02  0.48608734003E+02  0.18508712431E+03  0.17120000000E+03 0.  0.
        998    1    1    2    0    0 -0.12295034866E+02 -0.69156079021E+01  0.14172889963E+04  0.14173944731E+04  0.10000000000E+02 0. -1.
</event>
<event>
 5    1  0.1488417E-008  0.3729318E+03  0.7957747E-01  0.3482525E+00
         13   -1    0    0    0    0  0.00000000000E+00  0.00000000000E+00  0.14999999963E+04  0.15000000000E+04  0.10566000000E+00 0. -1.
        994   -1    0    0    0    0 -0.00000000000E+00 -0.00000000000E+00  0.11368683772E-12  0.17120000000E+03  0.17120000000E+03 0.  0.
         13    1    1    2    0    0  0.62612174446E+02 -0.15952765261E+02  0.14356073926E+03  0.15743084872E+03  0.10566000000E+00 0. -1.
        994    1    1    2    0    0 -0.70199367737E+02  0.14971411906E+02  0.30926575720E+02  0.18819667237E+03  0.17120000000E+03 0.  0.
        998    1    1    2    0    0  0.75871932903E+01  0.98135335494E+00  0.13255126813E+04  0.13255724789E+04  0.10000000000E+02 0. -1.
</event>
<event>
 5    1  0.1488417E-008  0.3833398E+03  0.7957747E-01  0.3436744E+00
         13   -1    0    0    0    0  0.00000000000E+00  0.00000000000E+00  0.14999999963E+04  0.15000000000E+04  0.10566000000E+00 0.  1.
        994   -1    0    0    0    0 -0.00000000000E+00 -0.00000000000E+00  0.11368683772E-12  0.17120000000E+03  0.17120000000E+03 0.  0.
         13    1    1    2    0    0 -0.53570170426E+01  0.19119174097E+02  0.85999219552E+02  0.88261641597E+02  0.10566000000E+00 0.  1.
        994    1    1    2    0    0 -0.86762458591E+01 -0.24136035256E+01  0.27248320616E+01  0.17145835481E+03  0.17120000000E+03 0.  0.
        998    1    1    2    0    0  0.14033262902E+02 -0.16705570571E+02  0.14112759447E+04  0.14114800036E+04  0.10000000000E+02 0.  1.
</event>
<event>
 5    1  0.1488417E-008  0.3771258E+03  0.7957747E-01  0.3463770E+00
         13   -1    0    0    0    0  0.00000000000E+00  0.00000000000E+00  0.14999999963E+04  0.15000000000E+04  0.10566000000E+00 0.  1.
        994   -1    0    0    0    0 -0.00000000000E+00 -0.00000000000E+00  0.11368683772E-12  0.17120000000E+03  0.17120000000E+03 0.  0.
         13    1    1    2    0    0  0.14319159680E+02 -0.20176748771E+02  0.52150804787E+02  0.57722241197E+02  0.10566000000E+00 0.  1.
        994    1    1    2    0    0 -0.17381376548E+02  0.10453597666E+02  0.69807713900E+01  0.17253857865E+03  0.17120000000E+03 0.  0.
        998    1    1    2    0    0  0.30622168680E+01  0.97231511051E+01  0.14408684201E+04  0.14409391801E+04  0.10000000000E+02 0.  1.
</event>
<event>
 5    1  0.1488417E-008  0.3845202E+03  0.7957747E-01  0.3431710E+00
         13   -1    0    0    0    0  0.00000000000E+00  0.00000000000E+00  0.14999999963E+04  0.15000000000E+04  0.10566000000E+00 0.  1.
        994   -1    0    0    0    0 -0.00000000000E+00 -0.00000000000E+00  0.11368683772E-12  0.17120000000E+03  0.17120000000E+03 0.  0.
         13    1    1    2    0    0 -0.14855265042E+02  0.54399891724E+01  0.70240572688E+02  0.72000149981E+02  0.10566000000E+00 0.  1.
        994    1    1    2    0    0  0.80520695170E+00 -0.41284451939E+01  0.19268207577E+01  0.17126250336E+03  0.17120000000E+03 0.  0.
        998    1    1    2    0    0  0.14050058090E+02 -0.13115439785E+01  0.14278326028E+04  0.14279373467E+04  0.10000000000E+02 0.  1.
</event>
<event>
 5    1  0.1488417E-008  0.3800102E+03  0.7957747E-01  0.3451114E+00
         13   -1    0    0    0    0  0.00000000000E+00  0.00000000000E+00  0.14999999963E+04  0.15000000000E+04  0.10566000000E+00 0. -1.
        994   -1    0    0    0    0 -0.00000000000E+00 -0.00000000000E+00  0.11368683772E-12  0.17120000000E+03  0.17120000000E+03 0.  0.
         13    1    1    2    0    0 -0.11721382972E+02  0.42540452450E+02  0.20973919058E+03  0.21433063277E+03  0.10566000000E+00 0. -1.
        994    1    1    2    0    0  0.27904325407E+02 -0.34590309885E+02  0.10758942935E+02  0.17720139889E+03  0.17120000000E+03 0.  0.
        998    1    1    2    0    0 -0.16182942435E+02 -0.79501425650E+01  0.12795018628E+04  0.12796679683E+04  0.10000000000E+02 0. -1.
</event>
<event>
 5    1  0.1488417E-008  0.3810462E+03  0.7957747E-01  0.3446616E+00
         13   -1    0    0    0    0  0.00000000000E+00  0.00000000000E+00  0.14999999963E+04  0.15000000000E+04  0.10566000000E+00 0. -1.
        994   -1    0    0    0    0 -0.00000000000E+00 -0.00000000000E+00  0.11368683772E-12  0.17120000000E+03  0.17120000000E+03 0.  0.
         13    1    1    2    0    0  0.28624725498E+02 -0.16797249725E+02  0.14898318446E+03  0.15263526108E+03  0.10566000000E+00 0. -1.
        994    1    1    2    0    0 -0.26474404605E+02 -0.93703300525E+00  0.59473688152E+01  0.17333950307E+03  0.17120000000E+03 0.  0.
        998    1    1    2    0    0 -0.21503208937E+01  0.17734282730E+02  0.13450694430E+04  0.13452252359E+04  0.10000000000E+02 0. -1.
</event>
<event>
 5    1  0.1488417E-008  0.3842420E+03  0.7957747E-01  0.3432893E+00
         13   -1    0    0    0    0  0.00000000000E+00  0.00000000000E+00  0.14999999963E+04  0.15000000000E+04  0.10566000000E+00 0. -1.
        994   -1    0    0    0    0 -0.00000000000E+00 -0.00000000000E+00  0.11368683772E-12  0.17120000000E+03  0.17120000000E+03 0.  0.
         13    1    1    2    0    0 -0.57687077249E+00  0.22430690357E+02  0.11846662551E+03  0.12057288739E+03  0.10566000000E+00 0. -1.
        994    1    1    2    0    0  0.54330733389E+01 -0.20842464496E+02  0.35378862477E+01  0.17258587211E+03  0.17120000000E+03 0.  0.
        998    1    1    2    0    0 -0.48562025664E+01 -0.15882258615E+01  0.13779954845E+04  0.13780412405E+04  0.10000000000E+02 0. -1.
</event>
<event>
 5    1  0.1488417E-008  0.3819995E+03  0.7957747E-01  0.3442498E+00
         13   -1    0    0    0    0  0.00000000000E+00  0.00000000000E+00  0.14999999963E+04  0.15000000000E+04  0.10566000000E+00 0. -1.
        994   -1    0    0    0    0 -0.00000000000E+00 -0.00000000000E+00  0.11368683772E-12  0.17120000000E+03  0.17120000000E+03 0.  0.
         13    1    1    2    0    0  0.10904066300E+02  0.57086117701E+01  0.22909060460E+02  0.26006213208E+02  0.10566000000E+00 0. -1.
        994    1    1    2    0    0 -0.16332444040E+02  0.96434822100E+01  0.43228016031E+01  0.17230168917E+03  0.17120000000E+03 0.  0.
        998    1    1    2    0    0  0.54283777399E+01 -0.15352093980E+02  0.14727681342E+04  0.14728920976E+04  0.10000000000E+02 0. -1.
</event>
<event>
 5    1  0.1488417E-008  0.3816073E+03  0.7957747E-01  0.3444189E+00
         13   -1    0    0    0    0  0.00000000000E+00  0.00000000000E+00  0.14999999963E+04  0.15000000000E+04  0.10566000000E+00 0.  1.
        994   -1    0    0    0    0 -0.00000000000E+00 -0.00000000000E+00  0.11368683772E-12  0.17120000000E+03  0.17120000000E+03 0.  0.
         13    1    1    2    0    0 -0.21611338982E+02  0.21689427320E+02  0.12994969765E+03  0.13350811328E+03  0.10566000000E+00 0.  1.
        994    1    1    2    0    0  0.20510319061E+02 -0.21668613068E+02  0.62897484513E+01  0.17389422910E+03  0.17120000000E+03 0.  0.
        998    1    1    2    0    0  0.11010199206E+01 -0.20814252244E-01  0.13637605502E+04  0.13637976576E+04  0.10000000000E+02 0.  0.
</event>
<event>
 5    1  0.1488417E-008  0.3777368E+03  0.7957747E-01  0.3461073E+00
         13   -1    0    0    0    0  0.00000000000E+00  0.00000000000E+00  0.14999999963E+04  0.15000000000E+04  0.10566000000E+00 0. -1.
        994   -1    0    0    0    0 -0.00000000000E+00 -0.00000000000E+00  0.11368683772E-12  0.17120000000E+03  0.17120000000E+03 0.  0.
         13    1    1    2    0    0 -0.12573980833E+02  0.39462258393E+01  0.14060136749E+02  0.19271126117E+02  0.10566000000E+00 0. -1.
        994    1    1    2    0    0  0.11838326171E+02 -0.12138820007E+01  0.57571195000E+01  0.17170964999E+03  0.17120000000E+03 0.  0.
        998    1    1    2    0    0  0.73565466212E+00 -0.27323438387E+01  0.14801827400E+04  0.14802192239E+04  0.10000000000E+02 0. -1.
</event>
<event>
 5    1  0.1488417E-008  0.3731321E+03  0.7957747E-01  0.3481619E+00
         13   -1    0    0    0    0  0.00000000000E+00  0.00000000000E+00  0.14999999963E+04  0.15000000000E+04  0.10566000000E+00 0.  1.
        994   -1    0    0    0    0 -0.00000000000E+00 -0.00000000000E+00  0.11368683772E-12  0.17120000000E+03  0.17120000000E+03 0.  0.
         13    1    1    2    0    0  0.37756646797E+02  0.20264122953E+02  0.11211156000E+03  0.12002171514E+03  0.10566000000E+00 0.  1.
        994    1    1    2    0    0 -0.39695212959E+02 -0.49315552531E+01  0.13134199524E+02  0.17630081499E+03  0.17120000000E+03 0.  0.
        998    1    1    2    0    0  0.19385661623E+01 -0.15332567700E+02  0.13747542368E+04  0.13748774699E+04  0.10000000000E+02 0.  1.
</event>
<event>
 5    1  0.1488417E-008  0.3847877E+03  0.7957747E-01  0.3430573E+00
         13   -1    0    0    0    0  0.00000000000E+00  0.00000000000E+00  0.14999999963E+04  0.15000000000E+04  0.10566000000E+00 0. -1.
        994   -1    0    0    0    0 -0.00000000000E+00 -0.00000000000E+00  0.11368683772E-12  0.17120000000E+03  0.17120000000E+03 0.  0.
         13    1    1    2    0    0  0.87132670398E+00 -0.16101025939E+02  0.77663142209E+02  0.79319462103E+02  0.10566000000E+00 0. -1.
        994    1    1    2    0    0 -0.16301114534E+00  0.49864953651E+01  0.18174959471E+01  0.17128232542E+03  0.17120000000E+03 0.  0.
        998    1    1    2    0    0 -0.70831555865E+00  0.11114530574E+02  0.14205193581E+04  0.14205982125E+04  0.10000000000E+02 0. -1.
</event>
<event>
 5    1  0.1488417E-008  0.3725404E+03  0.7957747E-01  0.3484296E+00
         13   -1    0    0    0    0  0.00000000000E+00  0.00000000000E+00  0.14999999963E+04  0.15000000000E+04  0.10566000000E+00 0. -1.
        994   -1    0    0    0    0 -0.00000000000E+00 -0.00000000000E+00  0.11368683772E-12  0.17120000000E+03  0.17120000000E+03 0.  0.
         13    1    1    2    0    0  0.61166578737E+02  0.78852125686E+02  0.45030893336E+03  0.46123438153E+03  0.10566000000E+00 0. -1.
        994    1    1    2    0    0 -0.44203542679E+02 -0.86426584277E+02  0.40972693453E+02  0.20102663820E+03  0.17120000000E+03 0.  0.
        998    1    1    2    0    0 -0.16963036058E+02  0.75744585909E+01  0.10087183695E+04  0.10089389803E+04  0.10000000000E+02 0.  1.
</event>
<event>
 5    1  0.1488417E-008  0.3771619E+03  0.7957747E-01  0.3463610E+00
         13   -1    0    0    0    0  0.00000000000E+00  0.00000000000E+00  0.14999999963E+04  0.15000000000E+04  0.10566000000E+00 0.  1.
        994   -1    0    0    0    0 -0.00000000000E+00 -0.00000000000E+00  0.11368683772E-12  0.17120000000E+03  0.17120000000E+03 0.  0.
         13    1    1    2    0    0 -0.79660503742E+00 -0.38415948426E+02  0.14940221447E+03  0.15426422957E+03  0.10566000000E+00 0.  1.
        994    1    1    2    0    0 -0.10975572839E+02 -0.85134333560E+00  0.59817616813E+01  0.17165782667E+03  0.17120000000E+03 0.  0.
        998    1    1    2    0    0  0.11772177876E+02  0.39267291762E+02  0.13446160201E+04  0.13452779438E+04  0.10000000000E+02 0.  1.
</event>
<event>
 5    1  0.1488417E-008  0.3748773E+03  0.7957747E-01  0.3473772E+00
         13   -1    0    0    0    0  0.00000000000E+00  0.00000000000E+00  0.14999999963E+04  0.15000000000E+04  0.10566000000E+00 0. -1.
        994   -1    0    0    0    0 -0.00000000000E+00 -0.00000000000E+00  0.11368683772E-12  0.17120000000E+03  0.17120000000E+03 0.  0.
         13    1    1    2    0    0 -0.42004596177E+02  0.10982353509E+03  0.34410008832E+03  0.36363508756E+03  0.10566000000E+00 0. -1.
        994    1    1    2    0    0  0.92706865371E+01 -0.13934939684E+03  0.86590578402E+02  0.23730058638E+03  0.17120000000E+03 0.  0.
        998    1    1    2    0    0  0.32733909640E+02  0.29525861755E+02  0.10693093296E+04  0.10702643261E+04  0.10000000000E+02 0. -1.
</event>
<event>
 5    1  0.1488417E-008  0.3872709E+03  0.7957747E-01  0.3420098E+00
         13   -1    0    0    0    0  0.00000000000E+00  0.00000000000E+00  0.14999999963E+04  0.15000000000E+04  0.10566000000E+00 0.  1.
        994   -1    0    0    0    0 -0.00000000000E+00 -0.00000000000E+00  0.11368683772E-12  0.17120000000E+03  0.17120000000E+03 0.  0.
         13    1    1    2    0    0  0.19095395971E+02 -0.11331751819E+03  0.29096648099E+03  0.31283701555E+03  0.10566000000E+00 0.  1.
        994    1    1    2    0    0 -0.31982098133E+02  0.84381850866E+02  0.51377416101E+02  0.20023044284E+03  0.17120000000E+03 0.  0.
        998    1    1    2    0    0  0.12886702161E+02  0.28935667320E+02  0.11576560992E+04  0.11581325416E+04  0.10000000000E+02 0.  1.
</event>
<event>
 5    1  0.1488417E-008  0.3724789E+03  0.7957747E-01  0.3484576E+00
         13   -1    0    0    0    0  0.00000000000E+00  0.00000000000E+00  0.14999999963E+04  0.15000000000E+04  0.10566000000E+00 0.  1.
        994   -1    0    0    0    0 -0.00000000000E+00 -0.00000000000E+00  0.11368683772E-12  0.17120000000E+03  0.17120000000E+03 0.  0.
         13    1    1    2    0    0 -0.34922155541E+02 -0.10652273888E+01  0.72568128497E+02  0.80540897032E+02  0.10566000000E+00 0.  1.
        994    1    1    2    0    0  0.26081594746E+02  0.46266257256E+01  0.10388405411E+02  0.17354830514E+03  0.17120000000E+03 0.  0.
        998    1    1    2    0    0  0.88405607958E+01 -0.35613983368E+01  0.14170434624E+04  0.14171107978E+04  0.10000000000E+02 0.  1.
</event>
<event>
 5    1  0.2283537E-008  0.3860419E+03  0.7957747E-01  0.3425265E+00
         13   -1    0    0    0    0  0.00000000000E+00  0.00000000000E+00  0.14999999963E+04  0.15000000000E+04  0.10566000000E+00 0.  1.
        994   -1    0    0    0    0 -0.00000000000E+00 -0.00000000000E+00  0.11368683772E-12  0.17120000000E+03  0.17120000000E+03 0.  0.
         13    1    1    2    0    0  0.30934912756E+01 -0.12106537975E+02  0.73915452056E+02  0.74964279272E+02  0.10566000000E+00 0.  1.
        994    1    1    2    0    0  0.15361873019E+01  0.37895138434E+01  0.11685177488E+01  0.17125281230E+03  0.17120000000E+03 0.  0.
        998    1    1    2    0    0 -0.46296785775E+01  0.83170241317E+01  0.14249160265E+04  0.14249829084E+04  0.10000000000E+02 0.  1.
</event>
<event>
 5    1  0.1488417E-008  0.3826938E+03  0.7957747E-01  0.3439512E+00
         13   -1    0    0    0    0  0.00000000000E+00  0.00000000000E+00  0.14999999963E+04  0.15000000000E+04  0.10566000000E+00 0.  1.
        994   -1    0    0    0    0 -0.00000000000E+00 -0.00000000000E+00  0.11368683772E-12  0.17120000000E+03  0.17120000000E+03 0.  0.
         13    1    1    2    0    0 -0.57469309531E+02  0.93908868798E+02  0.39645494025E+03  0.41145853739E+03  0.10566000000E+00 0.  1.
        994    1    1    2    0    0  0.35079082484E+02 -0.23668912512E+02  0.24397140060E+02  0.17803207545E+03  0.17120000000E+03 0.  0.
        998    1    1    2    0    0  0.22390227047E+02 -0.70239956286E+02  0.10791479160E+04  0.10817093872E+04  0.10000000000E+02 0.  1.
</event>
<event>
 5    1  0.1488417E-008  0.3856778E+03  0.7957747E-01  0.3426803E+00
         13   -1    0    0    0    0  0.00000000000E+00  0.00000000000E+00  0.14999999963E+04  0.15000000000E+04  0.10566000000E+00 0.  1.
        994   -1    0    0    0    0 -0.00000000000E+00 -0.00000000000E+00  0.11368683772E-12  0.17120000000E+03  0.17120000000E+03 0.  0.
         13    1    1    2    0    0  0.13445244156E+02  0.69923745319E+01  0.84639411615E+02  0.85985516539E+02  0.10566000000E+00 0.  1.
        994    1    1    2    0    0 -0.14213396844E+02 -0.87436241491E+01  0.22083219953E+01  0.17202554548E+03  0.17120000000E+03 0.  0.
        998    1    1    2    0    0  0.76815268810E+00  0.17512496173E+01  0.14131522627E+04  0.14131889380E+04  0.10000000000E+02 0.  1.
</event>
<event>
 5    1  0.1488417E-008  0.3827239E+03  0.7957747E-01  0.3439383E+00
         13   -1    0    0    0    0  0.00000000000E+00  0.00000000000E+00  0.14999999963E+04  0.15000000000E+04  0.10566000000E+00 0.  1.
        994   -1    0    0    0    0 -0.00000000000E+00 -0.00000000000E+00  0.11368683772E-12  0.17120000000E+03  0.17120000000E+03 0.  0.
         13    1    1    2    0    0 -0.12004004324E+02 -0.61156204906E+00  0.24793386258E+02  0.27553462471E+02  0.10566000000E+00 0.  1.
        994    1    1    2    0    0  0.12415491743E+02 -0.47338057395E+00  0.32760080910E+01  0.17168150964E+03  0.17120000000E+03 0.  0.
        998    1    1    2    0    0 -0.41148741896E+00  0.10849426230E+01  0.14719306019E+04  0.14719650279E+04  0.10000000000E+02 0.  1.
</event>
<event>
 5    1  0.1488417E-008  0.3849287E+03  0.7957747E-01  0.3429974E+00
         13   -1    0    0    0    0  0.00000000000E+00  0.00000000000E+00  0.14999999963E+04  0.15000000000E+04  0.10566000000E+00 0.  1.
        994   -1    0    0    0    0 -0.00000000000E+00 -0.00000000000E+00  0.11368683772E-12  0.17120000000E+03  0.17120000000E+03 0.  0.
         13    1    1    2    0    0 -0.14476944794E+02 -0.10306871340E+02  0.86581615767E+02  0.88386655556E+02  0.10566000000E+00 0.  1.
        994    1    1    2    0    0  0.18724212208E+02  0.15455861042E+02  0.36069588024E+01  0.17295065746E+03  0.17120000000E+03 0.  0.
        998    1    1    2    0    0 -0.42472674135E+01 -0.51489897025E+01  0.14098114217E+04  0.14098626870E+04  0.10000000000E+02 0.  1.
</event>
<event>
 5    1  0.1488417E-008  0.3788215E+03  0.7957747E-01  0.3456306E+00
         13   -1    0    0    0    0  0.00000000000E+00  0.00000000000E+00  0.14999999963E+04  0.15000000000E+04  0.10566000000E+00 0. -1.
        994   -1    0    0    0    0 -0.00000000000E+00 -0.00000000000E+00  0.11368683772E-12  0.17120000000E+03  0.17120000000E+03 0.  0.
         13    1    1    2    0    0 -0.11792629964E+02 -0.10320012999E+02  0.23693990477E+02  0.28407483847E+02  0.10566000000E+00 0. -1.
        994    1    1    2    0    0  0.10700483890E+02  0.11435658868E+02  0.55528151834E+01  0.17200450112E+03  0.17120000000E+03 0.  0.
        998    1    1    2    0    0  0.10921460743E+01 -0.11156458690E+01  0.14707531906E+04  0.14707880150E+04  0.10000000000E+02 0. -1.
</event>
<event>
 5    1  0.1488417E-008  0.3838221E+03  0.7957747E-01  0.3434683E+00
         13   -1    0    0    0    0  0.00000000000E+00  0.00000000000E+00  0.14999999963E+04  0.15000000000E+04  0.10566000000E+00 0. -1.
        994   -1    0    0    0    0 -0.00000000000E+00 -0.00000000000E+00  0.11368683772E-12  0.17120000000E+03  0.17120000000E+03 0.  0.
         13    1    1    2    0    0 -0.37158438871E+01 -0.12362597204E+02  0.35586660962E+02  0.37855817358E+02  0.10566000000E+00 0. -1.
        994    1    1    2    0    0  0.76155425333E+01  0.16615426127E+02  0.33196708608E+01  0.17220490437E+03  0.17120000000E+03 0.  0.
        998    1    1    2    0    0 -0.38996986462E+01 -0.42528289229E+01  0.14610936645E+04  0.14611392783E+04  0.10000000000E+02 0. -1.
</event>
<event>
 5    1  0.1488417E-008  0.3739433E+03  0.7957747E-01  0.3477962E+00
         13   -1    0    0    0    0  0.00000000000E+00  0.00000000000E+00  0.14999999963E+04  0.15000000000E+04  0.10566000000E+00 0. -1.
        994   -1    0    0    0    0 -0.00000000000E+00 -0.00000000000E+00  0.11368683772E-12  0.17120000000E+03  0.17120000000E+03 0.  0.
         13    1    1    2    0    0 -0.41058971891E+02  0.40163165741E+02  0.12303943114E+03  0.13578524159E+03  0.10566000000E+00 0. -1.
        994    1    1    2    0    0  0.26977461327E+02 -0.21729043746E+02  0.17304898537E+02  0.17552445492E+03  0.17120000000E+03 0.  0.
        998    1    1    2    0    0  0.14081510564E+02 -0.18434121996E+02  0.13596556666E+04  0.13598903035E+04  0.10000000000E+02 0. -1.
</event>
<event>
 5    1  0.1488417E-008  0.3854160E+03  0.7957747E-01  0.3427910E+00
         13   -1    0    0    0    0  0.00000000000E+00  0.00000000000E+00  0.14999999963E+04  0.15000000000E+04  0.10566000000E+00 0. -1.
        994   -1    0    0    0    0 -0.00000000000E+00 -0.00000000000E+00  0.11368683772E-12  0.17120000000E+03  0.17120000000E+03 0.  0.
         13    1    1    2    0    0 -0.12777476991E+02 -0.42687506277E+01  0.62632654425E+02  0.64065175521E+02  0.10566000000E+00 0. -1.
        994    1    1    2    0    0  0.13324015830E+02 -0.12573684699E+01  0.20121877424E+01  0.17173409467E+03  0.17120000000E+03 0.  0.
        998    1    1    2    0    0 -0.54653883868E+00  0.55261190977E+01  0.14353551541E+04  0.14354007298E+04  0.10000000000E+02 0. -1.
</event>
<event>
 5    1  0.1488417E-008  0.3798960E+03  0.7957747E-01  0.3451611E+00
         13   -1    0    0    0    0  0.00000000000E+00  0.00000000000E+00  0.14999999963E+04  0.15000000000E+04  0.10566000000E+00 0. -1.
        994   -1    0    0    0    0 -0.00000000000E+00 -0.00000000000E+00  0.11368683772E-12  0.17120000000E+03  0.17120000000E+03 0.  0.
         13    1    1    2    0    0  0.39491686639E+02 -0.36173924879E+01  0.20753946166E+03  0.21129438741E+03  0.10566000000E+00 0. -1.
        994    1    1    2    0    0 -0.88730590814E+01  0.43668969393E+00  0.44496162939E+01  0.17148807819E+03  0.17120000000E+03 0.  0.
        998    1    1    2    0    0 -0.30618627558E+02  0.31807027940E+01  0.12880109183E+04  0.12884175344E+04  0.10000000000E+02 0. -1.
</event>
<event>
 5    1  0.1488417E-008  0.3790335E+03  0.7957747E-01  0.3455378E+00
         13   -1    0    0    0    0  0.00000000000E+00  0.00000000000E+00  0.14999999963E+04  0.15000000000E+04  0.10566000000E+00 0. -1.
        994   -1    0    0    0    0 -0.00000000000E+00 -0.00000000000E+00  0.11368683772E-12  0.17120000000E+03  0.17120000000E+03 0.  0.
         13    1    1    2    0    0 -0.21318826634E+02  0.65022694808E+01  0.57198858626E+02  0.61388048264E+02  0.10566000000E+00 0. -1.
        994    1    1    2    0    0 -0.48817784123E+01  0.19570363948E+02  0.59873673337E+01  0.17248802704E+03  0.17120000000E+03 0.  0.
        998    1    1    2    0    0  0.26200605046E+02 -0.26072633429E+02  0.14368137703E+04  0.14373239247E+04  0.10000000000E+02 0. -1.
</event>
<event>
 5    1  0.1488417E-008  0.3728168E+03  0.7957747E-01  0.3483045E+00
         13   -1    0    0    0    0  0.00000000000E+00  0.00000000000E+00  0.14999999963E+04  0.15000000000E+04  0.10566000000E+00 0.  1.
        994   -1    0    0    0    0 -0.00000000000E+00 -0.00000000000E+00  0.11368683772E-12  0.17120000000E+03  0.17120000000E+03 0.  0.
         13    1    1    2    0    0  0.96762876193E+01  0.14287591144E+02  0.15533414810E+02  0.23217750591E+02  0.10566000000E+00 0.  1.
        994    1    1    2    0    0 -0.10478652054E+02 -0.12478080539E+02  0.87138361771E+01  0.17219429603E+03  0.17120000000E+03 0.  0.
        998    1    1    2    0    0  0.80236443515E+00 -0.18095106053E+01  0.14757527453E+04  0.14757879534E+04  0.10000000000E+02 0.  1.
</event>
<event>
 5    1  0.1488417E-008  0.3818924E+03  0.7957747E-01  0.3442960E+00
         13   -1    0    0    0    0  0.00000000000E+00  0.00000000000E+00  0.14999999963E+04  0.15000000000E+04  0.10566000000E+00 0.  1.
        994   -1    0    0    0    0 -0.00000000000E+00 -0.00000000000E+00  0.11368683772E-12  0.17120000000E+03  0.17120000000E+03 0.  0.
         13    1    1    2    0    0  0.47464070143E+01 -0.37182051087E+02  0.22070631555E+03  0.22386675097E+03  0.10566000000E+00 0.  1.
        994    1    1    2    0    0 -0.20824226224E+02  0.19319431546E+02  0.58661308699E+01  0.17363968534E+03  0.17120000000E+03 0.  0.
        998    1    1    2    0    0  0.16077819210E+02  0.17862619541E+02  0.12734275499E+04  0.12736935637E+04  0.10000000000E+02 0.  1.
</event>
<event>
 5    1  0.1488417E-008  0.3056692E+03  0.7957747E-01  0.3856360E+00
         13   -1    0    0    0    0  0.00000000000E+00  0.00000000000E+00  0.14999999963E+04  0.15000000000E+04  0.10566000000E+00 0. -1.
        994   -1    0    0    0    0 -0.00000000000E+00 -0.00000000000E+00  0.11368683772E-12  0.17120000000E+03  0.17120000000E+03 0.  0.
         13    1    1    2    0    0 -0.20085694485E+03  0.12403069899E+03  0.19294411486E+03  0.30488451783E+03  0.10566000000E+00 0. -1.
        994    1    1    2    0    0  0.16788435803E+03 -0.14419108208E+03  0.64518771461E+03  0.70324451857E+03  0.17120000000E+03 0.  0.
        998    1    1    2    0    0  0.32972586823E+02  0.20160383087E+02  0.66186816682E+03  0.66307096360E+03  0.10000000000E+02 0.  1.
</event>
<event>
 5    1  0.1488417E-008  0.3762407E+03  0.7957747E-01  0.3467693E+00
         13   -1    0    0    0    0  0.00000000000E+00  0.00000000000E+00  0.14999999963E+04  0.15000000000E+04  0.10566000000E+00 0. -1.
        994   -1    0    0    0    0 -0.00000000000E+00 -0.00000000000E+00  0.11368683772E-12  0.17120000000E+03  0.17120000000E+03 0.  0.
         13    1    1    2    0    0 -0.30403267024E+01 -0.12759422493E+02  0.11395927135E+02  0.17375982508E+02  0.10566000000E+00 0. -1.
        994    1    1    2    0    0  0.43368593196E+01  0.14446248962E+02  0.68134783328E+01  0.17199815681E+03  0.17120000000E+03 0.  0.
        998    1    1    2    0    0 -0.12965326172E+01 -0.16868264687E+01  0.14817905908E+04  0.14818258607E+04  0.10000000000E+02 0. -1.
</event>
<event>
 5    1  0.1488417E-008  0.3838636E+03  0.7957747E-01  0.3434506E+00
         13   -1    0    0    0    0  0.00000000000E+00  0.00000000000E+00  0.14999999963E+04  0.15000000000E+04  0.10566000000E+00 0. -1.
        994   -1    0    0    0    0 -0.00000000000E+00 -0.00000000000E+00  0.11368683772E-12  0.17120000000E+03  0.17120000000E+03 0.  0.
         13    1    1    2    0    0  0.26054197345E+01  0.12319193622E+02  0.35216583224E+02  0.37400128897E+02  0.10566000000E+00 0. -1.
        994    1    1    2    0    0 -0.50197762858E+02 -0.12606812539E+01  0.10562923500E+02  0.17872442493E+03  0.17120000000E+03 0.  0.
        998    1    1    2    0    0  0.47592343124E+02 -0.11058512369E+02  0.14542204896E+04  0.14550754462E+04  0.10000000000E+02 0. -1.
</event>
<event>
 5    1  0.1488417E-008  0.3772100E+03  0.7957747E-01  0.3463397E+00
         13   -1    0    0    0    0  0.00000000000E+00  0.00000000000E+00  0.14999999963E+04  0.15000000000E+04  0.10566000000E+00 0. -1.
        994   -1    0    0    0    0 -0.00000000000E+00 -0.00000000000E+00  0.11368683772E-12  0.17120000000E+03  0.17120000000E+03 0.  0.
         13    1    1    2    0    0 -0.30695155671E+02 -0.94294580396E+02  0.52737590146E+03  0.53661812594E+03  0.10566000000E+00 0. -1.
        994    1    1    2    0    0  0.10675385971E+03  0.90095421807E+02  0.74504474832E+02  0.23318217848E+03  0.17120000000E+03 0.  0.
        998    1    1    2    0    0 -0.76058704036E+02  0.41991585885E+01  0.89811961998E+03  0.90139969558E+03  0.10000000000E+02 0. -1.
</event>
<event>
 5    1  0.1488417E-008  0.3752561E+03  0.7957747E-01  0.3472078E+00
         13   -1    0    0    0    0  0.00000000000E+00  0.00000000000E+00  0.14999999963E+04  0.15000000000E+04  0.10566000000E+00 0. -1.
        994   -1    0    0    0    0 -0.00000000000E+00 -0.00000000000E+00  0.11368683772E-12  0.17120000000E+03  0.17120000000E+03 0.  0.
         13    1    1    2    0    0 -0.18431801902E+02 -0.41554306901E+01  0.24071445359E+02  0.30601381852E+02  0.10566000000E+00 0. -1.
        994    1    1    2    0    0  0.19191476589E+02  0.68290337213E+01  0.79578033263E+01  0.17259117912E+03  0.17120000000E+03 0.  0.
        998    1    1    2    0    0 -0.75967468720E+00 -0.26736030312E+01  0.14679707476E+04  0.14680074390E+04  0.10000000000E+02 0.  0.
</event>
<event>
 5    1  0.1488417E-008  0.3841872E+03  0.7957747E-01  0.3433127E+00
         13   -1    0    0    0    0  0.00000000000E+00  0.00000000000E+00  0.14999999963E+04  0.15000000000E+04  0.10566000000E+00 0.  1.
        994   -1    0    0    0    0 -0.00000000000E+00 -0.00000000000E+00  0.11368683772E-12  0.17120000000E+03  0.17120000000E+03 0.  0.
         13    1    1    2    0    0  0.48393704402E+00 -0.12784736200E+02  0.41481495079E+02  0.43409783146E+02  0.10566000000E+00 0.  1.
        994    1    1    2    0    0 -0.10027448644E+02 -0.69394246660E+00  0.23674255289E+01  0.17151115412E+03  0.17120000000E+03 0.  0.
        998    1    1    2    0    0  0.95435116000E+01  0.13478678667E+02  0.14561510757E+04  0.14562790627E+04  0.10000000000E+02 0.  1.
</event>
<event>
 5    1  0.1488417E-008  0.3855263E+03  0.7957747E-01  0.3427443E+00
         13   -1    0    0    0    0  0.00000000000E+00  0.00000000000E+00  0.14999999963E+04  0.15000000000E+04  0.10566000000E+00 0.  1.
        994   -1    0    0    0    0 -0.00000000000E+00 -0.00000000000E+00  0.11368683772E-12  0.17120000000E+03  0.17120000000E+03 0.  0.
         13    1    1    2    0    0  0.63749765946E+01 -0.11675745394E+02  0.64394320684E+02  0.65754110575E+02  0.10566000000E+00 0.  1.
        994    1    1    2    0    0 -0.80749543208E+01  0.71595048594E+01  0.17515197523E+01  0.17154874298E+03  0.17120000000E+03 0.  0.
        998    1    1    2    0    0  0.16999777263E+01  0.45162405350E+01  0.14338541558E+04  0.14338971464E+04  0.10000000000E+02 0.  1.
</event>
<event>
 5    1  0.1488417E-008  0.3732994E+03  0.7957747E-01  0.3480864E+00
         13   -1    0    0    0    0  0.00000000000E+00  0.00000000000E+00  0.14999999963E+04  0.15000000000E+04  0.10566000000E+00 0. -1.
        994   -1    0    0    0    0 -0.00000000000E+00 -0.00000000000E+00  0.11368683772E-12  0.17120000000E+03  0.17120000000E+03 0.  0.
         13    1    1    2    0    0  0.29230858121E+02 -0.38907611581E+02  0.19338679368E+03  0.19941591822E+03  0.10566000000E+00 0. -1.
        994    1    1    2    0    0 -0.28389436099E+01 -0.15495126834E+02  0.84034870546E+01  0.17212849024E+03  0.17120000000E+03 0.  0.
        998    1    1    2    0    0 -0.26391914511E+02  0.54402738415E+02  0.12982097155E+04  0.12996555915E+04  0.10000000000E+02 0. -1.
</event>
<event>
 5    1  0.1488417E-008  0.3840682E+03  0.7957747E-01  0.3433634E+00
         13   -1    0    0    0    0  0.00000000000E+00  0.00000000000E+00  0.14999999963E+04  0.15000000000E+04  0.10566000000E+00 0.  1.
        994   -1    0    0    0    0 -0.00000000000E+00 -0.00000000000E+00  0.11368683772E-12  0.17120000000E+03  0.17120000000E+03 0.  0.
         13    1    1    2    0    0 -0.61232554805E+00  0.22011625226E+02  0.10929885264E+03  0.11149500859E+03  0.10566000000E+00 0.  1.
        994    1    1    2    0    0  0.35719525727E+00 -0.21182774107E+02  0.35753935437E+01  0.17254292494E+03  0.17120000000E+03 0.  0.
        998    1    1    2    0    0  0.25513029078E+00 -0.82885111863E+00  0.13871257501E+04  0.13871620665E+04  0.10000000000E+02 0.  1.
</event>
<event>
 5    1  0.1488417E-008  0.3832291E+03  0.7957747E-01  0.3437218E+00
         13   -1    0    0    0    0  0.00000000000E+00  0.00000000000E+00  0.14999999963E+04  0.15000000000E+04  0.10566000000E+00 0.  1.
        994   -1    0    0    0    0 -0.00000000000E+00 -0.00000000000E+00  0.11368683772E-12  0.17120000000E+03  0.17120000000E+03 0.  0.
         13    1    1    2    0    0 -0.86546446923E+01  0.17179711862E+02  0.82772430586E+02  0.84978419634E+02  0.10566000000E+00 0.  1.
        994    1    1    2    0    0  0.45901234542E+01  0.12100582650E+02  0.30661199304E+01  0.17171585374E+03  0.17120000000E+03 0.  0.
        998    1    1    2    0    0  0.40645212382E+01 -0.29280294512E+02  0.14141614458E+04  0.14145057266E+04  0.10000000000E+02 0.  1.
</event>
<event>
 5    1  0.1488417E-008  0.3746357E+03  0.7957747E-01  0.3474854E+00
         13   -1    0    0    0    0  0.00000000000E+00  0.00000000000E+00  0.14999999963E+04  0.15000000000E+04  0.10566000000E+00 0. -1.
        994   -1    0    0    0    0 -0.00000000000E+00 -0.00000000000E+00  0.11368683772E-12  0.17120000000E+03  0.17120000000E+03 0.  0.
         13    1    1    2    0    0 -0.48798900957E+01 -0.97379416778E+01  0.54987447487E+01  0.12201974976E+02  0.10566000000E+00 0. -1.
        994    1    1    2    0    0  0.61658363259E+01  0.41965591836E+01  0.70552858951E+01  0.17150756749E+03  0.17120000000E+03 0.  0.
        998    1    1    2    0    0 -0.12859462302E+01  0.55413824942E+01  0.14874459656E+04  0.14874904575E+04  0.10000000000E+02 0. -1.
</event>
<event>
 5    1  0.1488417E-008  0.3843343E+03  0.7957747E-01  0.3432501E+00
         13   -1    0    0    0    0  0.00000000000E+00  0.00000000000E+00  0.14999999963E+04  0.15000000000E+04  0.10566000000E+00 0. -1.
        994   -1    0    0    0    0 -0.00000000000E+00 -0.00000000000E+00  0.11368683772E-12  0.17120000000E+03  0.17120000000E+03 0.  0.
         13    1    1    2    0    0 -0.43287234928E+00 -0.18388972721E+02  0.83408677691E+02  0.85412881783E+02  0.10566000000E+00 0. -1.
        994    1    1    2    0    0  0.17244544573E+01  0.16391804556E+02  0.28568775143E+01  0.17201530964E+03  0.17120000000E+03 0.  0.
        998    1    1    2    0    0 -0.12915821080E+01  0.19971681649E+01  0.14137344411E+04  0.14137718086E+04  0.10000000000E+02 0. -1.
</event>
<event>
 5    1  0.1488417E-008  0.3763235E+03  0.7957747E-01  0.3467325E+00
         13   -1    0    0    0    0  0.00000000000E+00  0.00000000000E+00  0.14999999963E+04  0.15000000000E+04  0.10566000000E+00 0.  1.
        994   -1    0    0    0    0 -0.00000000000E+00 -0.00000000000E+00  0.11368683772E-12  0.17120000000E+03  0.17120000000E+03 0.  0.
         13    1    1    2    0    0  0.73906205244E+02 -0.71864061148E+02  0.55606937526E+03  0.56554374873E+03  0.10566000000E+00 0.  1.
        994    1    1    2    0    0 -0.74801145741E+02  0.68296388925E+02  0.41550118174E+02  0.20321284523E+03  0.17120000000E+03 0.  0.
        998    1    1    2    0    0  0.89494049766E+00  0.35676722234E+01  0.90238050285E+03  0.90244340605E+03  0.10000000000E+02 0.  1.
</event>
<event>
 5    1  0.1488417E-008  0.3852799E+03  0.7957747E-01  0.3428486E+00
         13   -1    0    0    0    0  0.00000000000E+00  0.00000000000E+00  0.14999999963E+04  0.15000000000E+04  0.10566000000E+00 0. -1.
        994   -1    0    0    0    0 -0.00000000000E+00 -0.00000000000E+00  0.11368683772E-12  0.17120000000E+03  0.17120000000E+03 0.  0.
         13    1    1    2    0    0 -0.60218399892E+01  0.11777031631E+02  0.59183821192E+02  0.60644017725E+02  0.10566000000E+00 0. -1.
        994    1    1    2    0    0  0.28169499173E+01 -0.73143222075E+01  0.16931160504E+01  0.17138769255E+03  0.17120000000E+03 0.  0.
        998    1    1    2    0    0  0.32048900720E+01 -0.44627094239E+01  0.14391230590E+04  0.14391682897E+04  0.10000000000E+02 0. -1.
</event>
<event>
 5    1  0.1488417E-008  0.3775971E+03  0.7957747E-01  0.3461688E+00
         13   -1    0    0    0    0  0.00000000000E+00  0.00000000000E+00  0.14999999963E+04  0.15000000000E+04  0.10566000000E+00 0. -1.
        994   -1    0    0    0    0 -0.00000000000E+00 -0.00000000000E+00  0.11368683772E-12  0.17120000000E+03  0.17120000000E+03 0.  0.
         13    1    1    2    0    0  0.49959626701E+02  0.92113510074E+01  0.20405328435E+03  0.21028211361E+03  0.10566000000E+00 0. -1.
        994    1    1    2    0    0 -0.52850520770E+02 -0.98062844343E+01  0.15149854500E+02  0.18007859076E+03  0.17120000000E+03 0.  0.
        998    1    1    2    0    0  0.28908940684E+01  0.59493342684E+00  0.12807968574E+04  0.12808392956E+04  0.10000000000E+02 0. -1.
</event>
<event>
 5    1  0.1488417E-008  0.3818565E+03  0.7957747E-01  0.3443114E+00
         13   -1    0    0    0    0  0.00000000000E+00  0.00000000000E+00  0.14999999963E+04  0.15000000000E+04  0.10566000000E+00 0. -1.
        994   -1    0    0    0    0 -0.00000000000E+00 -0.00000000000E+00  0.11368683772E-12  0.17120000000E+03  0.17120000000E+03 0.  0.
         13    1    1    2    0    0 -0.12848252976E+02 -0.24591041448E+02  0.14704685707E+02  0.31401208095E+02  0.10566000000E+00 0. -1.
        994    1    1    2    0    0  0.70677207063E+01  0.25832665598E+02  0.19971913543E+02  0.17442934563E+03  0.17120000000E+03 0.  0.
        998    1    1    2    0    0  0.57805322698E+01 -0.12416241501E+01  0.14653233970E+04  0.14653694463E+04  0.10000000000E+02 0. -1.
</event>
<event>
 5    1  0.1488417E-008  0.3688828E+03  0.7957747E-01  0.3501041E+00
         13   -1    0    0    0    0  0.00000000000E+00  0.00000000000E+00  0.14999999963E+04  0.15000000000E+04  0.10566000000E+00 0. -1.
        994   -1    0    0    0    0 -0.00000000000E+00 -0.00000000000E+00  0.11368683772E-12  0.17120000000E+03  0.17120000000E+03 0.  0.
         13    1    1    2    0    0 -0.10574904458E+01 -0.12204483559E+02  0.29845473813E+01  0.12608980613E+02  0.10566000000E+00 0. -1.
        994    1    1    2    0    0  0.98949838521E+01  0.15140101833E+02  0.10990482444E+02  0.17250322923E+03  0.17120000000E+03 0.  0.
        998    1    1    2    0    0 -0.88374934063E+01 -0.29356182735E+01  0.14860249665E+04  0.14860877902E+04  0.10000000000E+02 0. -1.
</event>
<event>
 5    1  0.1488417E-008  0.3778274E+03  0.7957747E-01  0.3460673E+00
         13   -1    0    0    0    0  0.00000000000E+00  0.00000000000E+00  0.14999999963E+04  0.15000000000E+04  0.10566000000E+00 0. -1.
        994   -1    0    0    0    0 -0.00000000000E+00 -0.00000000000E+00  0.11368683772E-12  0.17120000000E+03  0.17120000000E+03 0.  0.
         13    1    1    2    0    0 -0.98258067533E+01  0.45559065025E+01  0.88007419812E+01  0.13955894306E+02  0.10566000000E+00 0. -1.
        994    1    1    2    0    0  0.86980729334E+01 -0.52077212481E+01  0.55800323020E+01  0.17159065707E+03  0.17120000000E+03 0.  0.
        998    1    1    2    0    0  0.11277338199E+01  0.65181474558E+00  0.14856192220E+04  0.14856534486E+04  0.10000000000E+02 0. -1.
</event>
<event>
 5    1  0.1488417E-008  0.3775652E+03  0.7957747E-01  0.3461829E+00
         13   -1    0    0    0    0  0.00000000000E+00  0.00000000000E+00  0.14999999963E+04  0.15000000000E+04  0.10566000000E+00 0. -1.
        994   -1    0    0    0    0 -0.00000000000E+00 -0.00000000000E+00  0.11368683772E-12  0.17120000000E+03  0.17120000000E+03 0.  0.
         13    1    1    2    0    0 -0.88039752954E+00  0.10085487189E+02  0.71377685584E+01  0.12387536304E+02  0.10566000000E+00 0. -1.
        994    1    1    2    0    0 -0.17829848279E+01 -0.52236117680E+01  0.54699796448E+01  0.17137626975E+03  0.17120000000E+03 0.  0.
        998    1    1    2    0    0  0.26633823574E+01 -0.48618754208E+01  0.14873922481E+04  0.14874361940E+04  0.10000000000E+02 0. -1.
</event>
<event>
 5    1  0.1488417E-008  0.3845170E+03  0.7957747E-01  0.3431723E+00
         13   -1    0    0    0    0  0.00000000000E+00  0.00000000000E+00  0.14999999963E+04  0.15000000000E+04  0.10566000000E+00 0. -1.
        994   -1    0    0    0    0 -0.00000000000E+00 -0.00000000000E+00  0.11368683772E-12  0.17120000000E+03  0.17120000000E+03 0.  0.
         13    1    1    2    0    0  0.99284515567E+01  0.41711017246E+01  0.30411431566E+02  0.32262029909E+02  0.10566000000E+00 0. -1.
        994    1    1    2    0    0 -0.10349931930E+02  0.18992729131E+01  0.22349295860E+01  0.17153764380E+03  0.17120000000E+03 0.  0.
        998    1    1    2    0    0  0.42148037368E+00 -0.60703746377E+01  0.14673536351E+04  0.14674003263E+04  0.10000000000E+02 0. -1.
</event>
<event>
 5    1  0.1488417E-008  0.3802769E+03  0.7957747E-01  0.3449954E+00
         13   -1    0    0    0    0  0.00000000000E+00  0.00000000000E+00  0.14999999963E+04  0.15000000000E+04  0.10566000000E+00 0.  1.
        994   -1    0    0    0    0 -0.00000000000E+00 -0.00000000000E+00  0.11368683772E-12  0.17120000000E+03  0.17120000000E+03 0.  0.
         13    1    1    2    0    0  0.21636940939E+02  0.18431043727E+02  0.97050233586E+02  0.10112675012E+03  0.10566000000E+00 0.  1.
        994    1    1    2    0    0 -0.97131420556E+01 -0.23821817557E+02  0.62069464706E+01  0.17323334063E+03  0.17120000000E+03 0.  0.
        998    1    1    2    0    0 -0.11923798884E+02  0.53907738302E+01  0.13967428162E+04  0.13968399093E+04  0.10000000000E+02 0.  1.
</event>
<event>
 5    1  0.1488417E-008  0.3826205E+03  0.7957747E-01  0.3439827E+00
         13   -1    0    0    0    0  0.00000000000E+00  0.00000000000E+00  0.14999999963E+04  0.15000000000E+04  0.10566000000E+00 0.  1.
        994   -1    0    0    0    0 -0.00000000000E+00 -0.00000000000E+00  0.11368683772E-12  0.17120000000E+03  0.17120000000E+03 0.  0.
         13    1    1    2    0    0 -0.86615048381E+01 -0.71956908150E+01  0.21359097268E+02  0.24145845037E+02  0.10566000000E+00 0.  1.
        994    1    1    2    0    0  0.72907007594E+01  0.56894602147E+01  0.30996490134E+01  0.17147761399E+03  0.17120000000E+03 0.  0.
        998    1    1    2    0    0  0.13708040787E+01  0.15062306003E+01  0.14755412500E+04  0.14755765410E+04  0.10000000000E+02 0.  1.
</event>
<event>
 5    1  0.1488417E-008  0.3686817E+03  0.7957747E-01  0.3501972E+00
         13   -1    0    0    0    0  0.00000000000E+00  0.00000000000E+00  0.14999999963E+04  0.15000000000E+04  0.10566000000E+00 0. -1.
        994   -1    0    0    0    0 -0.00000000000E+00 -0.00000000000E+00  0.11368683772E-12  0.17120000000E+03  0.17120000000E+03 0.  0.
         13    1    1    2    0    0 -0.28454375924E+02 -0.41588129093E+02  0.13293107298E+03  0.14216154655E+03  0.10566000000E+00 0. -1.
        994    1    1    2    0    0 -0.19596904768E+02  0.31394205950E+02  0.14732118523E+02  0.17577289370E+03  0.17120000000E+03 0.  0.
        998    1    1    2    0    0  0.48051280692E+02  0.10193923143E+02  0.13523368048E+04  0.13532655597E+04  0.10000000000E+02 0. -1.
</event>
<event>
 5    1  0.1488417E-008  0.3704427E+03  0.7957747E-01  0.3493859E+00
         13   -1    0    0    0    0  0.00000000000E+00  0.00000000000E+00  0.14999999963E+04  0.15000000000E+04  0.10566000000E+00 0.  1.
        994   -1    0    0    0    0 -0.00000000000E+00 -0.00000000000E+00  0.11368683772E-12  0.17120000000E+03  0.17120000000E+03 0.  0.
         13    1    1    2    0    0  0.22853072693E+02  0.29563445878E+02  0.56545276506E+02  0.67776395027E+02  0.10566000000E+00 0.  1.
        994    1    1    2    0    0 -0.18004679436E+02 -0.31178633330E+02  0.15725523313E+02  0.17565024265E+03  0.17120000000E+03 0.  0.
        998    1    1    2    0    0 -0.48483932574E+01  0.16151874515E+01  0.14277291965E+04  0.14277733623E+04  0.10000000000E+02 0.  1.
</event>
<event>
 5    1  0.1488417E-008  0.3862258E+03  0.7957747E-01  0.3424490E+00
         13   -1    0    0    0    0  0.00000000000E+00  0.00000000000E+00  0.14999999963E+04  0.15000000000E+04  0.10566000000E+00 0. -1.
        994   -1    0    0    0    0 -0.00000000000E+00 -0.00000000000E+00  0.11368683772E-12  0.17120000000E+03  0.17120000000E+03 0.  0.
         13    1    1    2    0    0  0.50826340832E+00  0.10116057424E+02  0.51806707566E+02  0.52787679077E+02  0.10566000000E+00 0. -1.
        994    1    1    2    0    0 -0.45851378619E+01 -0.42946435333E+01  0.11520749500E+01  0.17131910206E+03  0.17120000000E+03 0.  0.
        998    1    1    2    0    0  0.40768744535E+01 -0.58214138906E+01  0.14470412138E+04  0.14470932189E+04  0.10000000000E+02 0. -1.
</event>
<event>
 5    1  0.1488417E-008  0.3721456E+03  0.7957747E-01  0.3486088E+00
         13   -1    0    0    0    0  0.00000000000E+00  0.00000000000E+00  0.14999999963E+04  0.15000000000E+04  0.10566000000E+00 0.  1.
        994   -1    0    0    0    0 -0.00000000000E+00 -0.00000000000E+00  0.11368683772E-12  0.17120000000E+03  0.17120000000E+03 0.  0.
         13    1    1    2    0    0 -0.28883910527E+01 -0.11230332453E+02  0.44626028107E+01  0.12425343366E+02  0.10566000000E+00 0.  1.
        994    1    1    2    0    0  0.92930535391E-01  0.10811442935E+02  0.85532137624E+01  0.17175416560E+03  0.17120000000E+03 0.  0.
        998    1    1    2    0    0  0.27954605173E+01  0.41888951815E+00  0.14869841797E+04  0.14870204910E+04  0.10000000000E+02 0.  1.
</event>
<event>
 5    1  0.1488417E-008  0.3836002E+03  0.7957747E-01  0.3435631E+00
         13   -1    0    0    0    0  0.00000000000E+00  0.00000000000E+00  0.14999999963E+04  0.15000000000E+04  0.10566000000E+00 0.  1.
        994   -1    0    0    0    0 -0.00000000000E+00 -0.00000000000E+00  0.11368683772E-12  0.17120000000E+03  0.17120000000E+03 0.  0.
         13    1    1    2    0    0  0.18989799434E+02 -0.13136154905E+01  0.79069950561E+02  0.81329000448E+02  0.10566000000E+00 0.  1.
        994    1    1    2    0    0 -0.93372902624E+01 -0.11599380271E+02  0.30595535203E+01  0.17187359157E+03  0.17120000000E+03 0.  0.
        998    1    1    2    0    0 -0.96525091712E+01  0.12912995761E+02  0.14178704922E+04  0.14179974080E+04  0.10000000000E+02 0.  1.
</event>
<event>
 5    1  0.1488417E-008  0.3809859E+03  0.7957747E-01  0.3446877E+00
         13   -1    0    0    0    0  0.00000000000E+00  0.00000000000E+00  0.14999999963E+04  0.15000000000E+04  0.10566000000E+00 0. -1.
        994   -1    0    0    0    0 -0.00000000000E+00 -0.00000000000E+00  0.11368683772E-12  0.17120000000E+03  0.17120000000E+03 0.  0.
         13    1    1    2    0    0  0.58492384203E+02  0.23860481683E+01  0.33728520057E+03  0.34232786904E+03  0.10566000000E+00 0. -1.
        994    1    1    2    0    0 -0.66084880073E+02 -0.14790101410E+02  0.19070989204E+02  0.18509214220E+03  0.17120000000E+03 0.  0.
        998    1    1    2    0    0  0.75924958699E+01  0.12404053242E+02  0.11436438065E+04  0.11437799888E+04  0.10000000000E+02 0. -1.
</event>
<event>
 5    1  0.1488417E-008  0.3688362E+03  0.7957747E-01  0.3501257E+00
         13   -1    0    0    0    0  0.00000000000E+00  0.00000000000E+00  0.14999999963E+04  0.15000000000E+04  0.10566000000E+00 0. -1.
        994   -1    0    0    0    0 -0.00000000000E+00 -0.00000000000E+00  0.11368683772E-12  0.17120000000E+03  0.17120000000E+03 0.  0.
         13    1    1    2    0    0  0.20848958588E+02  0.17410256245E+02  0.32678902628E+02  0.42493739983E+02  0.10566000000E+00 0. -1.
        994    1    1    2    0    0 -0.20315147951E+02 -0.17441852565E+02  0.12371542255E+02  0.17372224531E+03  0.17120000000E+03 0.  0.
        998    1    1    2    0    0 -0.53381063743E+00  0.31596319510E-01  0.14549495514E+04  0.14549840147E+04  0.10000000000E+02 0. -1.
</event>
<event>
 5    1  0.1488417E-008  0.3746656E+03  0.7957747E-01  0.3474720E+00
         13   -1    0    0    0    0  0.00000000000E+00  0.00000000000E+00  0.14999999963E+04  0.15000000000E+04  0.10566000000E+00 0.  1.
        994   -1    0    0    0    0 -0.00000000000E+00 -0.00000000000E+00  0.11368683772E-12  0.17120000000E+03  0.17120000000E+03 0.  0.
         13    1    1    2    0    0  0.38122295755E+02 -0.64576629124E+01  0.10289211316E+03  0.10991728235E+03  0.10566000000E+00 0.  1.
        994    1    1    2    0    0 -0.32055959217E+02  0.36640597152E+01  0.10401335789E+02  0.17452403170E+03  0.17120000000E+03 0.  0.
        998    1    1    2    0    0 -0.60663365387E+01  0.27936031971E+01  0.13867065473E+04  0.13867586859E+04  0.10000000000E+02 0.  1.
</event>
<event>
 5    1  0.1488417E-008  0.3855912E+03  0.7957747E-01  0.3427169E+00
         13   -1    0    0    0    0  0.00000000000E+00  0.00000000000E+00  0.14999999963E+04  0.15000000000E+04  0.10566000000E+00 0.  1.
        994   -1    0    0    0    0 -0.00000000000E+00 -0.00000000000E+00  0.11368683772E-12  0.17120000000E+03  0.17120000000E+03 0.  0.
         13    1    1    2    0    0 -0.91826154127E+01 -0.46649300179E+01  0.40279130344E+02  0.41575251090E+02  0.10566000000E+00 0.  1.
        994    1    1    2    0    0  0.62096228964E+01 -0.11641473766E+01  0.14679068698E+01  0.17132282220E+03  0.17120000000E+03 0.  0.
        998    1    1    2    0    0  0.29729925163E+01  0.58290773945E+01  0.14582529591E+04  0.14583019267E+04  0.10000000000E+02 0.  1.
</event>
<event>
 5    1  0.1488417E-008  0.3849377E+03  0.7957747E-01  0.3429937E+00
         13   -1    0    0    0    0  0.00000000000E+00  0.00000000000E+00  0.14999999963E+04  0.15000000000E+04  0.10566000000E+00 0. -1.
        994   -1    0    0    0    0 -0.00000000000E+00 -0.00000000000E+00  0.11368683772E-12  0.17120000000E+03  0.17120000000E+03 0.  0.
         13    1    1    2    0    0  0.15424126530E+01 -0.17804080114E+02  0.10521943928E+03  0.10672631293E+03  0.10566000000E+00 0. -1.
        994    1    1    2    0    0 -0.12773061758E+02 -0.48189384202E+00  0.21986885386E+01  0.17169058669E+03  0.17120000000E+03 0.  0.
        998    1    1    2    0    0  0.11230649105E+02  0.18285973956E+02  0.13925818685E+04  0.13927831004E+04  0.10000000000E+02 0. -1.
</event>
<event>
 5    1  0.1488417E-008  0.3857190E+03  0.7957747E-01  0.3426629E+00
         13   -1    0    0    0    0  0.00000000000E+00  0.00000000000E+00  0.14999999963E+04  0.15000000000E+04  0.10566000000E+00 0. -1.
        994   -1    0    0    0    0 -0.00000000000E+00 -0.00000000000E+00  0.11368683772E-12  0.17120000000E+03  0.17120000000E+03 0.  0.
         13    1    1    2    0    0  0.11188464310E+02  0.21116606499E+00  0.54288656940E+02  0.55430097971E+02  0.10566000000E+00 0. -1.
        994    1    1    2    0    0  0.63209359352E+01  0.67728110474E+00  0.14062151317E+01  0.17132375895E+03  0.17120000000E+03 0.  0.
        998    1    1    2    0    0 -0.17509400246E+02 -0.88844716972E+00  0.14443051242E+04  0.14444461431E+04  0.10000000000E+02 0. -1.
</event>
<event>
 5    1  0.1999695E-008  0.3859379E+03  0.7957747E-01  0.3425704E+00
         13   -1    0    0    0    0  0.00000000000E+00  0.00000000000E+00  0.14999999963E+04  0.15000000000E+04  0.10566000000E+00 0.  1.
        994   -1    0    0    0    0 -0.00000000000E+00 -0.00000000000E+00  0.11368683772E-12  0.17120000000E+03  0.17120000000E+03 0.  0.
         13    1    1    2    0    0 -0.97408630787E+01 -0.32501221107E+01  0.46027420419E+02  0.47159116846E+02  0.10566000000E+00 0.  1.
        994    1    1    2    0    0  0.68810615342E+01 -0.20289992421E+01  0.13339552180E+01  0.17135543552E+03  0.17120000000E+03 0.  0.
        998    1    1    2    0    0  0.28598015445E+01  0.52791213528E+01  0.14526386206E+04  0.14526854476E+04  0.10000000000E+02 0.  1.
</event>
<event>
 5    1  0.1488417E-008  0.3702486E+03  0.7957747E-01  0.3494749E+00
         13   -1    0    0    0    0  0.00000000000E+00  0.00000000000E+00  0.14999999963E+04  0.15000000000E+04  0.10566000000E+00 0.  1.
        994   -1    0    0    0    0 -0.00000000000E+00 -0.00000000000E+00  0.11368683772E-12  0.17120000000E+03  0.17120000000E+03 0.  0.
         13    1    1    2    0    0 -0.94439868007E+01 -0.58702862533E+02  0.14451738191E+03  0.15627059798E+03  0.10566000000E+00 0.  1.
        994    1    1    2    0    0 -0.14380411461E+02  0.10144511652E+03  0.46332446278E+02  0.20482686220E+03  0.17120000000E+03 0.  0.
        998    1    1    2    0    0  0.23824398262E+02 -0.42742253986E+02  0.13091501681E+04  0.13101025398E+04  0.10000000000E+02 0.  1.
</event>
<event>
 5    1  0.1488417E-008  0.3838043E+03  0.7957747E-01  0.3434759E+00
         13   -1    0    0    0    0  0.00000000000E+00  0.00000000000E+00  0.14999999963E+04  0.15000000000E+04  0.10566000000E+00 0. -1.
        994   -1    0    0    0    0 -0.00000000000E+00 -0.00000000000E+00  0.11368683772E-12  0.17120000000E+03  0.17120000000E+03 0.  0.
         13    1    1    2    0    0 -0.75222627926E+01 -0.10654479574E+02  0.40210074630E+02  0.42272492691E+02  0.10566000000E+00 0. -1.
        994    1    1    2    0    0 -0.64992968915E+01 -0.29553761036E+01  0.23932343854E+01  0.17136552360E+03  0.17120000000E+03 0.  0.
        998    1    1    2    0    0  0.14021559684E+02  0.13609855677E+02  0.14573966873E+04  0.14575619837E+04  0.10000000000E+02 0. -1.
</event>
<event>
 5    1  0.1488417E-008  0.3834008E+03  0.7957747E-01  0.3436483E+00
         13   -1    0    0    0    0  0.00000000000E+00  0.00000000000E+00  0.14999999963E+04  0.15000000000E+04  0.10566000000E+00 0.  1.
        994   -1    0    0    0    0 -0.00000000000E+00 -0.00000000000E+00  0.11368683772E-12  0.17120000000E+03  0.17120000000E+03 0.  0.
         13    1    1    2    0    0  0.18091975752E+02  0.11584046300E+02  0.98669900414E+02  0.10098153359E+03  0.10566000000E+00 0.  1.
        994    1    1    2    0    0  0.35994569758E+01 -0.18949271488E+02  0.36570356139E+01  0.17232192226E+03  0.17120000000E+03 0.  0.
        998    1    1    2    0    0 -0.21691432728E+02  0.73652251880E+01  0.13976730603E+04  0.13978965441E+04  0.10000000000E+02 0.  1.
</event>
<event>
 5    1  0.1488417E-008  0.3856005E+03  0.7957747E-01  0.3427130E+00
         13   -1    0    0    0    0  0.00000000000E+00  0.00000000000E+00  0.14999999963E+04  0.15000000000E+04  0.10566000000E+00 0.  1.
        994   -1    0    0    0    0 -0.00000000000E+00 -0.00000000000E+00  0.11368683772E-12  0.17120000000E+03  0.17120000000E+03 0.  0.
         13    1    1    2    0    0 -0.11022392427E+02 -0.93388997962E+01  0.80574241091E+02  0.81859194204E+02  0.10566000000E+00 0.  1.
        994    1    1    2    0    0  0.21092237513E+01  0.77960539697E+01  0.15464374673E+01  0.17139737090E+03  0.17120000000E+03 0.  0.
        998    1    1    2    0    0  0.89131686760E+01  0.15428458265E+01  0.14178793177E+04  0.14179434349E+04  0.10000000000E+02 0.  1.
</event>
<event>
 5    1  0.1488417E-008  0.2736733E+03  0.7957747E-01  0.4103964E+00
         13   -1    0    0    0    0  0.00000000000E+00  0.00000000000E+00  0.14999999963E+04  0.15000000000E+04  0.10566000000E+00 0.  1.
        994   -1    0    0    0    0 -0.00000000000E+00 -0.00000000000E+00  0.11368683772E-12  0.17120000000E+03  0.17120000000E+03 0.  0.
         13    1    1    2    0    0  0.10489375431E+03  0.84619204930E+02  0.64167070531E+03  0.65567096531E+03  0.10566000000E+00 0.  1.
        994    1    1    2    0    0 -0.24200353962E+02 -0.24439997859E+02  0.25375185469E+02  0.17645484030E+03  0.17120000000E+03 0.  0.
        998    1    1    2    0    0 -0.80693400344E+02 -0.60179207071E+02  0.83295410550E+03  0.83907419439E+03  0.10000000000E+02 0.  1.
</event>
<event>
 5    1  0.1488417E-008  0.3766744E+03  0.7957747E-01  0.3465768E+00
         13   -1    0    0    0    0  0.00000000000E+00  0.00000000000E+00  0.14999999963E+04  0.15000000000E+04  0.10566000000E+00 0. -1.
        994   -1    0    0    0    0 -0.00000000000E+00 -0.00000000000E+00  0.11368683772E-12  0.17120000000E+03  0.17120000000E+03 0.  0.
         13    1    1    2    0    0  0.13177281382E+03  0.24234559863E+02  0.69957324704E+03  0.71228795265E+03  0.10566000000E+00 0. -1.
        994    1    1    2    0    0 -0.13626635226E+03 -0.32648451554E+02  0.75363029301E+02  0.23371663684E+03  0.17120000000E+03 0.  0.
        998    1    1    2    0    0  0.44935384484E+01  0.84138916919E+01  0.72506371994E+03  0.72519541051E+03  0.10000000000E+02 0. -1.
</event>
<event>
 5    1  0.1488417E-008  0.3845696E+03  0.7957747E-01  0.3431500E+00
         13   -1    0    0    0    0  0.00000000000E+00  0.00000000000E+00  0.14999999963E+04  0.15000000000E+04  0.10566000000E+00 0. -1.
        994   -1    0    0    0    0 -0.00000000000E+00 -0.00000000000E+00  0.11368683772E-12  0.17120000000E+03  0.17120000000E+03 0.  0.
         13    1    1    2    0    0 -0.25204991530E+01  0.10251459364E+02  0.29788822742E+02  0.31604279132E+02  0.10566000000E+00 0. -1.
        994    1    1    2    0    0 -0.29842215260E+01 -0.84168325620E+01  0.21066720163E+01  0.17144569611E+03  0.17120000000E+03 0.  0.
        998    1    1    2    0    0  0.55047206791E+01 -0.18346268018E+01  0.14681045015E+04  0.14681500248E+04  0.10000000000E+02 0. -1.
</event>
<event>
 5    1  0.1488417E-008  0.3813007E+03  0.7957747E-01  0.3445514E+00
         13   -1    0    0    0    0  0.00000000000E+00  0.00000000000E+00  0.14999999963E+04  0.15000000000E+04  0.10566000000E+00 0.  1.
        994   -1    0    0    0    0 -0.00000000000E+00 -0.00000000000E+00  0.11368683772E-12  0.17120000000E+03  0.17120000000E+03 0.  0.
         13    1    1    2    0    0  0.26552218047E+02 -0.33613405734E+02  0.25781501824E+03  0.26134933733E+03  0.10566000000E+00 0.  1.
        994    1    1    2    0    0 -0.31670979941E+02  0.96695920549E+01  0.71365925132E+01  0.17451911911E+03  0.17120000000E+03 0.  0.
        998    1    1    2    0    0  0.51187618937E+01  0.23943813680E+02  0.12350483855E+04  0.12353315436E+04  0.10000000000E+02 0.  1.
</event>
<event>
 5    1  0.1488417E-008  0.3757424E+03  0.7957747E-01  0.3469909E+00
         13   -1    0    0    0    0  0.00000000000E+00  0.00000000000E+00  0.14999999963E+04  0.15000000000E+04  0.10566000000E+00 0. -1.
        994   -1    0    0    0    0 -0.00000000000E+00 -0.00000000000E+00  0.11368683772E-12  0.17120000000E+03  0.17120000000E+03 0.  0.
         13    1    1    2    0    0  0.38897768894E+02  0.11771145114E+00  0.11843246158E+03  0.12465676637E+03  0.10566000000E+00 0. -1.
        994    1    1    2    0    0 -0.22517879265E+02  0.13191802904E+01  0.80250661095E+01  0.17286595040E+03  0.17120000000E+03 0.  0.
        998    1    1    2    0    0 -0.16379889629E+02 -0.14368917415E+01  0.13735424686E+04  0.13736772832E+04  0.10000000000E+02 0.  0.
</event>
<event>
 5    1  0.1488417E-008  0.3856156E+03  0.7957747E-01  0.3427066E+00
         13   -1    0    0    0    0  0.00000000000E+00  0.00000000000E+00  0.14999999963E+04  0.15000000000E+04  0.10566000000E+00 0. -1.
        994   -1    0    0    0    0 -0.00000000000E+00 -0.00000000000E+00  0.11368683772E-12  0.17120000000E+03  0.17120000000E+03 0.  0.
         13    1    1    2    0    0 -0.40719962329E+01  0.13738109398E+02  0.80018231962E+02  0.81291115219E+02  0.10566000000E+00 0. -1.
        994    1    1    2    0    0 -0.26496946901E-02 -0.63470169906E+01  0.14570427762E+01  0.17132380922E+03  0.17120000000E+03 0.  0.
        998    1    1    2    0    0  0.40746459275E+01 -0.73910924071E+01  0.14185247215E+04  0.14185850756E+04  0.10000000000E+02 0. -1.
</event>
<event>
 5    1  0.1488417E-008  0.3731690E+03  0.7957747E-01  0.3481452E+00
         13   -1    0    0    0    0  0.00000000000E+00  0.00000000000E+00  0.14999999963E+04  0.15000000000E+04  0.10566000000E+00 0.  1.
        994   -1    0    0    0    0 -0.00000000000E+00 -0.00000000000E+00  0.11368683772E-12  0.17120000000E+03  0.17120000000E+03 0.  0.
         13    1    1    2    0    0  0.16740691990E+02 -0.23646029691E+02  0.50454482663E+02  0.58181195186E+02  0.10566000000E+00 0.  1.
        994    1    1    2    0    0 -0.14380897039E+02  0.26176996494E+02  0.10679174119E+02  0.17411355520E+03  0.17120000000E+03 0.  0.
        998    1    1    2    0    0 -0.23597949507E+01 -0.25309668031E+01  0.14388663395E+04  0.14389052496E+04  0.10000000000E+02 0.  1.
</event>
<event>
 5    1  0.1488417E-008  0.3824528E+03  0.7957747E-01  0.3440548E+00
         13   -1    0    0    0    0  0.00000000000E+00  0.00000000000E+00  0.14999999963E+04  0.15000000000E+04  0.10566000000E+00 0. -1.
        994   -1    0    0    0    0 -0.00000000000E+00 -0.00000000000E+00  0.11368683772E-12  0.17120000000E+03  0.17120000000E+03 0.  0.
         13    1    1    2    0    0  0.12145812245E+02 -0.23550224876E+02  0.15018877762E+03  0.15250840611E+03  0.10566000000E+00 0. -1.
        994    1    1    2    0    0  0.81327577144E+01 -0.10254406931E+02  0.34683050066E+01  0.17173457354E+03  0.17120000000E+03 0.  0.
        998    1    1    2    0    0 -0.20278569959E+02  0.33804631807E+02  0.13463429136E+04  0.13469570203E+04  0.10000000000E+02 0. -1.
</event>
<event>
 5    1  0.1488417E-008  0.3854997E+03  0.7957747E-01  0.3427556E+00
         13   -1    0    0    0    0  0.00000000000E+00  0.00000000000E+00  0.14999999963E+04  0.15000000000E+04  0.10566000000E+00 0. -1.
        994   -1    0    0    0    0 -0.00000000000E+00 -0.00000000000E+00  0.11368683772E-12  0.17120000000E+03  0.17120000000E+03 0.  0.
         13    1    1    2    0    0 -0.16477111357E+01 -0.17111513958E+02  0.10109397743E+03  0.10254522075E+03  0.10566000000E+00 0. -1.
        994    1    1    2    0    0  0.28998957570E+01  0.17942244592E+02  0.24675920784E+01  0.17217973907E+03  0.17120000000E+03 0.  0.
        998    1    1    2    0    0 -0.12521846213E+01 -0.83073063427E+00  0.13964384268E+04  0.13964750402E+04  0.10000000000E+02 0. -1.
</event>
<event>
 5    1  0.1488417E-008  0.3839384E+03  0.7957747E-01  0.3434187E+00
         13   -1    0    0    0    0  0.00000000000E+00  0.00000000000E+00  0.14999999963E+04  0.15000000000E+04  0.10566000000E+00 0. -1.
        994   -1    0    0    0    0 -0.00000000000E+00 -0.00000000000E+00  0.11368683772E-12  0.17120000000E+03  0.17120000000E+03 0.  0.
         13    1    1    2    0    0  0.42270655530E+01 -0.11387148862E+02  0.32641945228E+02  0.34828766770E+02  0.10566000000E+00 0. -1.
        994    1    1    2    0    0  0.13088695310E+01  0.16909632598E+02  0.31079588900E+01  0.17206611585E+03  0.17120000000E+03 0.  0.
        998    1    1    2    0    0 -0.55359350840E+01 -0.55224837363E+01  0.14642500922E+04  0.14643051174E+04  0.10000000000E+02 0. -1.
</event>
<event>
 5    1  0.1488417E-008  0.3843804E+03  0.7957747E-01  0.3432304E+00
         13   -1    0    0    0    0  0.00000000000E+00  0.00000000000E+00  0.14999999963E+04  0.15000000000E+04  0.10566000000E+00 0. -1.
        994   -1    0    0    0    0 -0.00000000000E+00 -0.00000000000E+00  0.11368683772E-12  0.17120000000E+03  0.17120000000E+03 0.  0.
         13    1    1    2    0    0  0.14486764278E+02  0.50714839666E+01  0.59604372610E+02  0.61548994201E+02  0.10566000000E+00 0. -1.
        994    1    1    2    0    0 -0.13643356757E+02  0.39103618427E+00  0.25521990485E+01  0.17176218388E+03  0.17120000000E+03 0.  0.
        998    1    1    2    0    0 -0.84340752126E+00 -0.54625201509E+01  0.14378434246E+04  0.14378888219E+04  0.10000000000E+02 0. -1.
</event>
<event>
 5    1  0.1488417E-008  0.3843313E+03  0.7957747E-01  0.3432513E+00
         13   -1    0    0    0    0  0.00000000000E+00  0.00000000000E+00  0.14999999963E+04  0.15000000000E+04  0.10566000000E+00 0.  1.
        994   -1    0    0    0    0 -0.00000000000E+00 -0.00000000000E+00  0.11368683772E-12  0.17120000000E+03  0.17120000000E+03 0.  0.
         13    1    1    2    0    0 -0.13289689596E+02 -0.13780772737E+02  0.92529208141E+02  0.94489105562E+02  0.10566000000E+00 0.  1.
        994    1    1    2    0    0  0.67573715723E+01  0.11625249879E+02  0.25586324522E+01  0.17174631031E+03  0.17120000000E+03 0.  0.
        998    1    1    2    0    0  0.65323180238E+01  0.21555228578E+01  0.14049121557E+04  0.14049645841E+04  0.10000000000E+02 0.  1.
</event>
<event>
 5    1  0.1488417E-008  0.3414938E+03  0.7957747E-01  0.3638118E+00
         13   -1    0    0    0    0  0.00000000000E+00  0.00000000000E+00  0.14999999963E+04  0.15000000000E+04  0.10566000000E+00 0.  1.
        994   -1    0    0    0    0 -0.00000000000E+00 -0.00000000000E+00  0.11368683772E-12  0.17120000000E+03  0.17120000000E+03 0.  0.
         13    1    1    2    0    0 -0.23680582904E+03  0.13013180268E+03  0.71897892173E+03  0.76807681113E+03  0.10566000000E+00 0.  1.
        994    1    1    2    0    0  0.23382260974E+03 -0.15950731873E+03  0.39228826691E+03  0.51314239925E+03  0.17120000000E+03 0.  0.
        998    1    1    2    0    0  0.29832193001E+01  0.29375516055E+02  0.38873280764E+03  0.38998078962E+03  0.10000000000E+02 0. -1.
</event>
<event>
 5    1  0.1488417E-008  0.3851093E+03  0.7957747E-01  0.3429209E+00
         13   -1    0    0    0    0  0.00000000000E+00  0.00000000000E+00  0.14999999963E+04  0.15000000000E+04  0.10566000000E+00 0.  1.
        994   -1    0    0    0    0 -0.00000000000E+00 -0.00000000000E+00  0.11368683772E-12  0.17120000000E+03  0.17120000000E+03 0.  0.
         13    1    1    2    0    0 -0.88789104946E+01  0.14008384565E+02  0.96513105579E+02  0.97927833644E+02  0.10566000000E+00 0.  1.
        994    1    1    2    0    0 -0.77516995273E+01 -0.30377396162E+01  0.18037909684E+01  0.17141181514E+03  0.17120000000E+03 0.  0.
        998    1    1    2    0    0  0.16630610022E+02 -0.10970644949E+02  0.14016830997E+04  0.14018603512E+04  0.10000000000E+02 0.  1.
</event>
<event>
 5    1  0.1488417E-008  0.3701608E+03  0.7957747E-01  0.3495152E+00
         13   -1    0    0    0    0  0.00000000000E+00  0.00000000000E+00  0.14999999963E+04  0.15000000000E+04  0.10566000000E+00 0.  1.
        994   -1    0    0    0    0 -0.00000000000E+00 -0.00000000000E+00  0.11368683772E-12  0.17120000000E+03  0.17120000000E+03 0.  0.
         13    1    1    2    0    0  0.41666018889E+02  0.12708745771E+02  0.73213094360E+02  0.85192357045E+02  0.10566000000E+00 0.  1.
        994    1    1    2    0    0 -0.62165095520E+02 -0.16884469518E+02  0.25683501004E+02  0.18471238896E+03  0.17120000000E+03 0.  0.
        998    1    1    2    0    0  0.20499076631E+02  0.41757237475E+01  0.14011034009E+04  0.14012952540E+04  0.10000000000E+02 0.  1.
</event>
<event>
 5    1  0.1488417E-008  0.3855250E+03  0.7957747E-01  0.3427449E+00
         13   -1    0    0    0    0  0.00000000000E+00  0.00000000000E+00  0.14999999963E+04  0.15000000000E+04  0.10566000000E+00 0.  1.
        994   -1    0    0    0    0 -0.00000000000E+00 -0.00000000000E+00  0.11368683772E-12  0.17120000000E+03  0.17120000000E+03 0.  0.
         13    1    1    2    0    0  0.64758904849E+01 -0.10218804255E+02  0.54122748515E+02  0.55458490683E+02  0.10566000000E+00 0.  1.
        994    1    1    2    0    0 -0.64680779813E+01  0.40068429115E+01  0.15598036127E+01  0.17137608879E+03  0.17120000000E+03 0.  0.
        998    1    1    2    0    0 -0.78125035571E-02  0.62119613440E+01  0.14443174442E+04  0.14443654205E+04  0.10000000000E+02 0.  1.
</event>
<event>
 5    1  0.1488417E-008  0.3863046E+03  0.7957747E-01  0.3424158E+00
         13   -1    0    0    0    0  0.00000000000E+00  0.00000000000E+00  0.14999999963E+04  0.15000000000E+04  0.10566000000E+00 0. -1.
        994   -1    0    0    0    0 -0.00000000000E+00 -0.00000000000E+00  0.11368683772E-12  0.17120000000E+03  0.17120000000E+03 0.  0.
         13    1    1    2    0    0 -0.81251410419E+01  0.63168814776E+01  0.54134555120E+02  0.55104284141E+02  0.10566000000E+00 0. -1.
        994    1    1    2    0    0  0.12213025765E+02  0.16186380627E+01  0.14810184021E+01  0.17164909380E+03  0.17120000000E+03 0.  0.
        998    1    1    2    0    0 -0.40878847230E+01 -0.79355195402E+01  0.14443844228E+04  0.14444466221E+04  0.10000000000E+02 0. -1.
</event>
<event>
 5    1  0.1513019E-008  0.3860334E+03  0.7957747E-01  0.3425301E+00
         13   -1    0    0    0    0  0.00000000000E+00  0.00000000000E+00  0.14999999963E+04  0.15000000000E+04  0.10566000000E+00 0.  1.
        994   -1    0    0    0    0 -0.00000000000E+00 -0.00000000000E+00  0.11368683772E-12  0.17120000000E+03  0.17120000000E+03 0.  0.
         13    1    1    2    0    0 -0.86113273303E+01  0.51869732831E+01  0.41020685770E+02  0.42234671484E+02  0.10566000000E+00 0.  1.
        994    1    1    2    0    0  0.12880263928E+02 -0.27872043119E+02  0.42140858480E+01  0.17398261553E+03  0.17120000000E+03 0.  0.
        998    1    1    2    0    0 -0.42689365978E+01  0.22685069836E+02  0.14547652247E+04  0.14549827130E+04  0.10000000000E+02 0.  1.
</event>
<event>
 5    1  0.1488417E-008  0.3854441E+03  0.7957747E-01  0.3427791E+00
         13   -1    0    0    0    0  0.00000000000E+00  0.00000000000E+00  0.14999999963E+04  0.15000000000E+04  0.10566000000E+00 0.  1.
        994   -1    0    0    0    0 -0.00000000000E+00 -0.00000000000E+00  0.11368683772E-12  0.17120000000E+03  0.17120000000E+03 0.  0.
         13    1    1    2    0    0  0.20216022129E+01 -0.11516079239E+02  0.50206982861E+02  0.51550550420E+02  0.10566000000E+00 0.  1.
        994    1    1    2    0    0 -0.40509232786E+01  0.19847634264E+01  0.14766563841E+01  0.17126578695E+03  0.17120000000E+03 0.  0.
        998    1    1    2    0    0  0.20293210656E+01  0.95313158128E+01  0.14483163570E+04  0.14483836626E+04  0.10000000000E+02 0.  1.
</event>
<event>
 5    1  0.1488417E-008  0.3802015E+03  0.7957747E-01  0.3450282E+00
         13   -1    0    0    0    0  0.00000000000E+00  0.00000000000E+00  0.14999999963E+04  0.15000000000E+04  0.10566000000E+00 0. -1.
        994   -1    0    0    0    0 -0.00000000000E+00 -0.00000000000E+00  0.11368683772E-12  0.17120000000E+03  0.17120000000E+03 0.  0.
         13    1    1    2    0    0 -0.27094715009E+01  0.42896882231E+02  0.24959949349E+03  0.25327337415E+03  0.10566000000E+00 0. -1.
        994    1    1    2    0    0 -0.29448091181E+01 -0.14240096559E+02  0.47381882641E+01  0.17188176948E+03  0.17120000000E+03 0.  0.
        998    1    1    2    0    0  0.56542806190E+01 -0.28656785672E+02  0.12456623145E+04  0.12460448564E+04  0.10000000000E+02 0. -1.
</event>
<event>
 5    1  0.1488417E-008  0.3810724E+03  0.7957747E-01  0.3446502E+00
         13   -1    0    0    0    0  0.00000000000E+00  0.00000000000E+00  0.14999999963E+04  0.15000000000E+04  0.10566000000E+00 0. -1.
        994   -1    0    0    0    0 -0.00000000000E+00 -0.00000000000E+00  0.11368683772E-12  0.17120000000E+03  0.17120000000E+03 0.  0.
         13    1    1    2    0    0  0.60576876743E+01 -0.10357487686E+02  0.18407014044E+02  0.21972766352E+02  0.10566000000E+00 0. -1.
        994    1    1    2    0    0 -0.20828180950E+00  0.13102394098E+02  0.41650031514E+01  0.17175128344E+03  0.17120000000E+03 0.  0.
        998    1    1    2    0    0 -0.58494058648E+01 -0.27449064112E+01  0.14774279791E+04  0.14774759502E+04  0.10000000000E+02 0. -1.
</event>
<event>
 5    1  0.1488417E-008  0.3815169E+03  0.7957747E-01  0.3444580E+00
         13   -1    0    0    0    0  0.00000000000E+00  0.00000000000E+00  0.14999999963E+04  0.15000000000E+04  0.10566000000E+00 0. -1.
        994   -1    0    0    0    0 -0.00000000000E+00 -0.00000000000E+00  0.11368683772E-12  0.17120000000E+03  0.17120000000E+03 0.  0.
         13    1    1    2    0    0 -0.96947859622E+01  0.54064472133E+01  0.16951956369E+02  0.20263231112E+02  0.10566000000E+00 0. -1.
        994    1    1    2    0    0  0.52918925346E+01 -0.42816847001E+01  0.35235477564E+01  0.17137150387E+03  0.17120000000E+03 0.  0.
        998    1    1    2    0    0  0.44028934276E+01 -0.11247625132E+01  0.14795244922E+04  0.14795652650E+04  0.10000000000E+02 0. -1.
</event>
<event>
 5    1  0.1488417E-008  0.3849146E+03  0.7957747E-01  0.3430035E+00
         13   -1    0    0    0    0  0.00000000000E+00  0.00000000000E+00  0.14999999963E+04  0.15000000000E+04  0.10566000000E+00 0.  1.
        994   -1    0    0    0    0 -0.00000000000E+00 -0.00000000000E+00  0.11368683772E-12  0.17120000000E+03  0.17120000000E+03 0.  0.
         13    1    1    2    0    0  0.14742220470E+02  0.28064536742E+01  0.69401002391E+02  0.71005067027E+02  0.10566000000E+00 0.  1.
        994    1    1    2    0    0 -0.50861854212E+01 -0.67488419823E+00  0.17591698262E+01  0.17128589968E+03  0.17120000000E+03 0.  0.
        998    1    1    2    0    0 -0.96560350488E+01 -0.21315694759E+01  0.14288398241E+04  0.14289090333E+04  0.10000000000E+02 0.  1.
</event>
<event>
 5    1  0.1488417E-008  0.3748573E+03  0.7957747E-01  0.3473861E+00
         13   -1    0    0    0    0  0.00000000000E+00  0.00000000000E+00  0.14999999963E+04  0.15000000000E+04  0.10566000000E+00 0.  1.
        994   -1    0    0    0    0 -0.00000000000E+00 -0.00000000000E+00  0.11368683772E-12  0.17120000000E+03  0.17120000000E+03 0.  0.
         13    1    1    2    0    0  0.11142836056E+02 -0.18051090840E+02  0.31885580755E+02  0.38297599142E+02  0.10566000000E+00 0.  1.
        994    1    1    2    0    0 -0.70143793486E+01 -0.58867077596E+01  0.70372392536E+01  0.17158909517E+03  0.17120000000E+03 0.  0.
        998    1    1    2    0    0 -0.41284567076E+01  0.23937798600E+02  0.14610771763E+04  0.14613133057E+04  0.10000000000E+02 0.  1.
</event>
<event>
 5    1  0.1488417E-008  0.3788974E+03  0.7957747E-01  0.3455974E+00
         13   -1    0    0    0    0  0.00000000000E+00  0.00000000000E+00  0.14999999963E+04  0.15000000000E+04  0.10566000000E+00 0.  1.
        994   -1    0    0    0    0 -0.00000000000E+00 -0.00000000000E+00  0.11368683772E-12  0.17120000000E+03  0.17120000000E+03 0.  0.
         13    1    1    2    0    0  0.80398337028E+00 -0.18750917569E+02  0.36658406032E+02  0.41183652045E+02  0.10566000000E+00 0.  1.
        994    1    1    2    0    0  0.20855629367E+02  0.50482260188E+01  0.62371525949E+01  0.17265220513E+03  0.17120000000E+03 0.  0.
        998    1    1    2    0    0 -0.21659612737E+02  0.13702691550E+02  0.14571044377E+04  0.14573641428E+04  0.10000000000E+02 0.  1.
</event>
<event>
 5    1  0.1488417E-008  0.3700039E+03  0.7957747E-01  0.3495873E+00
         13   -1    0    0    0    0  0.00000000000E+00  0.00000000000E+00  0.14999999963E+04  0.15000000000E+04  0.10566000000E+00 0.  1.
        994   -1    0    0    0    0 -0.00000000000E+00 -0.00000000000E+00  0.11368683772E-12  0.17120000000E+03  0.17120000000E+03 0.  0.
         13    1    1    2    0    0  0.33315101192E+02 -0.27644822972E+02  0.95439204315E+02  0.10479878381E+03  0.10566000000E+00 0.  1.
        994    1    1    2    0    0 -0.45568244482E+02 -0.15324817250E+01  0.16489267416E+02  0.17793299117E+03  0.17120000000E+03 0.  0.
        998    1    1    2    0    0  0.12253143290E+02  0.29177304697E+02  0.13880715245E+04  0.13884682250E+04  0.10000000000E+02 0.  1.
</event>
<event>
 5    1  0.1488417E-008  0.3850688E+03  0.7957747E-01  0.3429381E+00
         13   -1    0    0    0    0  0.00000000000E+00  0.00000000000E+00  0.14999999963E+04  0.15000000000E+04  0.10566000000E+00 0.  1.
        994   -1    0    0    0    0 -0.00000000000E+00 -0.00000000000E+00  0.11368683772E-12  0.17120000000E+03  0.17120000000E+03 0.  0.
         13    1    1    2    0    0  0.40138252021E+01 -0.12356163712E+02  0.56081664676E+02  0.57566916291E+02  0.10566000000E+00 0.  1.
        994    1    1    2    0    0 -0.46676202271E+01 -0.26659937203E+01  0.16910087586E+01  0.17129271354E+03  0.17120000000E+03 0.  0.
        998    1    1    2    0    0  0.65379502503E+00  0.15022157432E+02  0.14422273228E+04  0.14423403702E+04  0.10000000000E+02 0.  1.
</event>
<event>
 5    1  0.1488417E-008  0.4044712E+03  0.7957747E-01  0.3351069E+00
         13   -1    0    0    0    0  0.00000000000E+00  0.00000000000E+00  0.14999999963E+04  0.15000000000E+04  0.10566000000E+00 0.  1.
        994   -1    0    0    0    0 -0.00000000000E+00 -0.00000000000E+00  0.11368683772E-12  0.17120000000E+03  0.17120000000E+03 0.  0.
         13    1    1    2    0    0  0.13955919878E+03  0.20888129737E+02  0.27115093616E+03  0.30567290568E+03  0.10566000000E+00 0.  1.
        994    1    1    2    0    0 -0.12396923913E+03 -0.25578702214E+02  0.97772965726E+02  0.23428963930E+03  0.17120000000E+03 0.  0.
        998    1    1    2    0    0 -0.15589959650E+02  0.46905724776E+01  0.11310760944E+04  0.11312374550E+04  0.10000000000E+02 0.  1.
</event>
<event>
 5    1  0.1488417E-008  0.3711186E+03  0.7957747E-01  0.3490766E+00
         13   -1    0    0    0    0  0.00000000000E+00  0.00000000000E+00  0.14999999963E+04  0.15000000000E+04  0.10566000000E+00 0.  1.
        994   -1    0    0    0    0 -0.00000000000E+00 -0.00000000000E+00  0.11368683772E-12  0.17120000000E+03  0.17120000000E+03 0.  0.
         13    1    1    2    0    0 -0.38645552217E+02 -0.37297159591E+02  0.11954337024E+03  0.13105413138E+03  0.10566000000E+00 0.  1.
        994    1    1    2    0    0  0.26429666336E+02  0.26349695194E+02  0.16435842624E+02  0.17598980261E+03  0.17120000000E+03 0.  0.
        998    1    1    2    0    0  0.12215885881E+02  0.10947464397E+02  0.13640207834E+04  0.13641560660E+04  0.10000000000E+02 0.  1.
</event>
<event>
 5    1  0.1488417E-008  0.3699138E+03  0.7957747E-01  0.3496287E+00
         13   -1    0    0    0    0  0.00000000000E+00  0.00000000000E+00  0.14999999963E+04  0.15000000000E+04  0.10566000000E+00 0. -1.
        994   -1    0    0    0    0 -0.00000000000E+00 -0.00000000000E+00  0.11368683772E-12  0.17120000000E+03  0.17120000000E+03 0.  0.
         13    1    1    2    0    0  0.60155611506E+01 -0.13403184900E+02  0.73744029779E+01  0.16438531709E+02  0.10566000000E+00 0. -1.
        994    1    1    2    0    0 -0.34373495750E+01  0.10359048795E+02  0.97262729996E+01  0.17182306495E+03  0.17120000000E+03 0.  0.
        998    1    1    2    0    0 -0.25782115756E+01  0.30441361050E+01  0.14828993203E+04  0.14829384033E+04  0.10000000000E+02 0. -1.
</event>
<event>
 5    1  0.1488417E-008  0.3760267E+03  0.7957747E-01  0.3468644E+00
         13   -1    0    0    0    0  0.00000000000E+00  0.00000000000E+00  0.14999999963E+04  0.15000000000E+04  0.10566000000E+00 0.  1.
        994   -1    0    0    0    0 -0.00000000000E+00 -0.00000000000E+00  0.11368683772E-12  0.17120000000E+03  0.17120000000E+03 0.  0.
         13    1    1    2    0    0 -0.11848740493E+02  0.28555554652E+02  0.74988428253E+02  0.81111576786E+02  0.10566000000E+00 0.  1.
        994    1    1    2    0    0  0.16457928582E+02 -0.15828123048E+02  0.79206450588E+01  0.17289756942E+03  0.17120000000E+03 0.  0.
        998    1    1    2    0    0 -0.46091880891E+01 -0.12727431604E+02  0.14170909230E+04  0.14171908538E+04  0.10000000000E+02 0.  1.
</event>
<event>
 5    1  0.1488417E-008  0.3790454E+03  0.7957747E-01  0.3455326E+00
         13   -1    0    0    0    0  0.00000000000E+00  0.00000000000E+00  0.14999999963E+04  0.15000000000E+04  0.10566000000E+00 0.  1.
        994   -1    0    0    0    0 -0.00000000000E+00 -0.00000000000E+00  0.11368683772E-12  0.17120000000E+03  0.17120000000E+03 0.  0.
         13    1    1    2    0    0  0.40526696497E+02  0.56151928664E+01  0.21215703323E+03  0.21606610431E+03  0.10566000000E+00 0.  1.
        994    1    1    2    0    0 -0.25465569784E+01  0.71291618535E+01  0.48080316172E+01  0.17143473122E+03  0.17120000000E+03 0.  0.
        998    1    1    2    0    0 -0.37980139519E+02 -0.12744354720E+02  0.12830349314E+04  0.12836991645E+04  0.10000000000E+02 0.  1.
</event>
<event>
 5    1  0.1488417E-008  0.3687741E+03  0.7957747E-01  0.3501544E+00
         13   -1    0    0    0    0  0.00000000000E+00  0.00000000000E+00  0.14999999963E+04  0.15000000000E+04  0.10566000000E+00 0.  1.
        994   -1    0    0    0    0 -0.00000000000E+00 -0.00000000000E+00  0.11368683772E-12  0.17120000000E+03  0.17120000000E+03 0.  0.
         13    1    1    2    0    0 -0.37173613892E+02 -0.72957907255E+02  0.31197949721E+03  0.32254604577E+03  0.10566000000E+00 0.  1.
        994    1    1    2    0    0  0.20666550113E+02  0.55034884474E+02  0.22009234450E+02  0.18234525276E+03  0.17120000000E+03 0.  0.
        998    1    1    2    0    0  0.16507063779E+02  0.17923022781E+02  0.11660112646E+04  0.11663087015E+04  0.10000000000E+02 0.  1.
</event>
<event>
 5    1  0.1488417E-008  0.3853368E+03  0.7957747E-01  0.3428245E+00
         13   -1    0    0    0    0  0.00000000000E+00  0.00000000000E+00  0.14999999963E+04  0.15000000000E+04  0.10566000000E+00 0. -1.
        994   -1    0    0    0    0 -0.00000000000E+00 -0.00000000000E+00  0.11368683772E-12  0.17120000000E+03  0.17120000000E+03 0.  0.
         13    1    1    2    0    0 -0.10372213364E+02  0.53607215081E+01  0.44470710066E+02  0.45977987809E+02  0.10566000000E+00 0. -1.
        994    1    1    2    0    0  0.15301006743E+02 -0.66799608029E+01  0.23792514648E+01  0.17202861251E+03  0.17120000000E+03 0.  0.
        998    1    1    2    0    0 -0.49287933788E+01  0.13192392948E+01  0.14531500347E+04  0.14531933997E+04  0.10000000000E+02 0. -1.
</event>
<event>
 5    1  0.1488417E-008  0.3852631E+03  0.7957747E-01  0.3428557E+00
         13   -1    0    0    0    0  0.00000000000E+00  0.00000000000E+00  0.14999999963E+04  0.15000000000E+04  0.10566000000E+00 0. -1.
        994   -1    0    0    0    0 -0.00000000000E+00 -0.00000000000E+00  0.11368683772E-12  0.17120000000E+03  0.17120000000E+03 0.  0.
         13    1    1    2    0    0  0.41094799672E+01 -0.15925762332E+02  0.88100020785E+02  0.89622221339E+02  0.10566000000E+00 0. -1.
        994    1    1    2    0    0 -0.46010090060E+01  0.13344023182E+02  0.21545084194E+01  0.17179439498E+03  0.17120000000E+03 0.  0.
        998    1    1    2    0    0  0.49152903884E+00  0.25817391498E+01  0.14097454671E+04  0.14097833837E+04  0.10000000000E+02 0. -1.
</event>
<event>
 5    1  0.1488417E-008  0.3723508E+03  0.7957747E-01  0.3485156E+00
         13   -1    0    0    0    0  0.00000000000E+00  0.00000000000E+00  0.14999999963E+04  0.15000000000E+04  0.10566000000E+00 0. -1.
        994   -1    0    0    0    0 -0.00000000000E+00 -0.00000000000E+00  0.11368683772E-12  0.17120000000E+03  0.17120000000E+03 0.  0.
         13    1    1    2    0    0  0.85828495403E+02 -0.40820044551E+02  0.41352100856E+03  0.42430230066E+03  0.10566000000E+00 0. -1.
        994    1    1    2    0    0 -0.24071643303E+01  0.13583076252E+03  0.80425202541E+02  0.23288074994E+03  0.17120000000E+03 0.  0.
        998    1    1    2    0    0 -0.83421331073E+02 -0.95010717972E+02  0.10060537852E+04  0.10140169494E+04  0.10000000000E+02 0. -1.
</event>
<event>
 5    1  0.1488417E-008  0.3851493E+03  0.7957747E-01  0.3429039E+00
         13   -1    0    0    0    0  0.00000000000E+00  0.00000000000E+00  0.14999999963E+04  0.15000000000E+04  0.10566000000E+00 0. -1.
        994   -1    0    0    0    0 -0.00000000000E+00 -0.00000000000E+00  0.11368683772E-12  0.17120000000E+03  0.17120000000E+03 0.  0.
         13    1    1    2    0    0  0.12103015169E+02  0.81435993395E+01  0.66630414974E+02  0.68208683832E+02  0.10566000000E+00 0. -1.
        994    1    1    2    0    0 -0.13691671768E+02 -0.44604197703E+01  0.22379303129E+01  0.17181910706E+03  0.17120000000E+03 0.  0.
        998    1    1    2    0    0  0.15886565994E+01 -0.36831795692E+01  0.14311316510E+04  0.14311722091E+04  0.10000000000E+02 0. -1.
</event>
<event>
 5    1  0.1488417E-008  0.3842753E+03  0.7957747E-01  0.3432752E+00
         13   -1    0    0    0    0  0.00000000000E+00  0.00000000000E+00  0.14999999963E+04  0.15000000000E+04  0.10566000000E+00 0.  1.
        994   -1    0    0    0    0 -0.00000000000E+00 -0.00000000000E+00  0.11368683772E-12  0.17120000000E+03  0.17120000000E+03 0.  0.
         13    1    1    2    0    0  0.18657646103E+02  0.84472548934E+01  0.11308974226E+03  0.11492939068E+03  0.10566000000E+00 0.  1.
        994    1    1    2    0    0 -0.10487234473E+02  0.14040856579E+02  0.30034383820E+01  0.17212085400E+03  0.17120000000E+03 0.  0.
        998    1    1    2    0    0 -0.81704116305E+01 -0.22488111472E+02  0.13839068156E+04  0.13841497553E+04  0.10000000000E+02 0.  1.
</event>
<event>
 5    1  0.1488417E-008  0.3819666E+03  0.7957747E-01  0.3442640E+00
         13   -1    0    0    0    0  0.00000000000E+00  0.00000000000E+00  0.14999999963E+04  0.15000000000E+04  0.10566000000E+00 0.  1.
        994   -1    0    0    0    0 -0.00000000000E+00 -0.00000000000E+00  0.11368683772E-12  0.17120000000E+03  0.17120000000E+03 0.  0.
         13    1    1    2    0    0 -0.12655731465E+01 -0.10691952542E+02  0.17036798859E+02  0.20153987296E+02  0.10566000000E+00 0.  1.
        994    1    1    2    0    0 -0.14156953528E+00  0.10399577439E+02  0.35030784066E+01  0.17155139991E+03  0.17120000000E+03 0.  0.
        998    1    1    2    0    0  0.14071426818E+01  0.29237510330E+00  0.14794601190E+04  0.14794946128E+04  0.10000000000E+02 0.  1.
</event>
<event>
 5    1  0.1488417E-008  0.3840038E+03  0.7957747E-01  0.3433908E+00
         13   -1    0    0    0    0  0.00000000000E+00  0.00000000000E+00  0.14999999963E+04  0.15000000000E+04  0.10566000000E+00 0.  1.
        994   -1    0    0    0    0 -0.00000000000E+00 -0.00000000000E+00  0.11368683772E-12  0.17120000000E+03  0.17120000000E+03 0.  0.
         13    1    1    2    0    0  0.11556313228E+02 -0.18371037674E+02  0.90572031564E+02  0.93136177001E+02  0.10566000000E+00 0.  1.
        994    1    1    2    0    0 -0.27125628286E+02  0.35601401984E+02  0.87631312179E+01  0.17717079895E+03  0.17120000000E+03 0.  0.
        998    1    1    2    0    0  0.15569315059E+02 -0.17230364310E+02  0.14006648335E+04  0.14008930240E+04  0.10000000000E+02 0.  1.
</event>
<event>
 5    1  0.1488417E-008  0.3830633E+03  0.7957747E-01  0.3437928E+00
         13   -1    0    0    0    0  0.00000000000E+00  0.00000000000E+00  0.14999999963E+04  0.15000000000E+04  0.10566000000E+00 0.  1.
        994   -1    0    0    0    0 -0.00000000000E+00 -0.00000000000E+00  0.11368683772E-12  0.17120000000E+03  0.17120000000E+03 0.  0.
         13    1    1    2    0    0 -0.11874717489E+02 -0.17509224750E+02  0.90913074468E+02  0.93342274131E+02  0.10566000000E+00 0.  1.
        994    1    1    2    0    0  0.12024503300E+02 -0.40190910013E+01  0.31268642771E+01  0.17169728901E+03  0.17120000000E+03 0.  0.
        998    1    1    2    0    0 -0.14978581118E+00  0.21528315751E+02  0.14059600575E+04  0.14061604369E+04  0.10000000000E+02 0.  1.
</event>
<event>
 5    1  0.1488417E-008  0.3822957E+03  0.7957747E-01  0.3441223E+00
         13   -1    0    0    0    0  0.00000000000E+00  0.00000000000E+00  0.14999999963E+04  0.15000000000E+04  0.10566000000E+00 0. -1.
        994   -1    0    0    0    0 -0.00000000000E+00 -0.00000000000E+00  0.11368683772E-12  0.17120000000E+03  0.17120000000E+03 0.  0.
         13    1    1    2    0    0 -0.33366014304E+01 -0.16917015382E+02  0.45922296019E+02  0.49052897511E+02  0.10566000000E+00 0. -1.
        994    1    1    2    0    0  0.78078488775E+01  0.25718953053E+02  0.53792657638E+01  0.17338051664E+03  0.17120000000E+03 0.  0.
        998    1    1    2    0    0 -0.44712474471E+01 -0.88019376709E+01  0.14486984345E+04  0.14487665858E+04  0.10000000000E+02 0. -1.
</event>
<event>
 5    1  0.1488417E-008  0.3813703E+03  0.7957747E-01  0.3445214E+00
         13   -1    0    0    0    0  0.00000000000E+00  0.00000000000E+00  0.14999999963E+04  0.15000000000E+04  0.10566000000E+00 0.  1.
        994   -1    0    0    0    0 -0.00000000000E+00 -0.00000000000E+00  0.11368683772E-12  0.17120000000E+03  0.17120000000E+03 0.  0.
         13    1    1    2    0    0 -0.26958071163E+02 -0.23980141788E+02  0.17385061632E+03  0.17755515413E+03  0.10566000000E+00 0.  1.
        994    1    1    2    0    0  0.23989504650E+02  0.20605994860E+02  0.67783524148E+01  0.17422826814E+03  0.17120000000E+03 0.  0.
        998    1    1    2    0    0  0.29685665132E+01  0.33741469283E+01  0.13193710275E+04  0.13194165777E+04  0.10000000000E+02 0.  0.
</event>
<event>
 5    1  0.1488417E-008  0.3742062E+03  0.7957747E-01  0.3476781E+00
         13   -1    0    0    0    0  0.00000000000E+00  0.00000000000E+00  0.14999999963E+04  0.15000000000E+04  0.10566000000E+00 0. -1.
        994   -1    0    0    0    0 -0.00000000000E+00 -0.00000000000E+00  0.11368683772E-12  0.17120000000E+03  0.17120000000E+03 0.  0.
         13    1    1    2    0    0 -0.34378986329E+02 -0.12585956456E+02  0.96698205817E+02  0.10339668841E+03  0.10566000000E+00 0. -1.
        994    1    1    2    0    0  0.16755122931E+02 -0.14850392136E+02  0.87972906130E+01  0.17288175327E+03  0.17120000000E+03 0.  0.
        998    1    1    2    0    0  0.17623863398E+02  0.27436348592E+02  0.13945044998E+04  0.13949215583E+04  0.10000000000E+02 0. -1.
</event>
<event>
 5    1  0.1488417E-008  0.3857001E+03  0.7957747E-01  0.3426708E+00
         13   -1    0    0    0    0  0.00000000000E+00  0.00000000000E+00  0.14999999963E+04  0.15000000000E+04  0.10566000000E+00 0. -1.
        994   -1    0    0    0    0 -0.00000000000E+00 -0.00000000000E+00  0.11368683772E-12  0.17120000000E+03  0.17120000000E+03 0.  0.
         13    1    1    2    0    0 -0.31256951054E+01 -0.12652915147E+02  0.67938495922E+02  0.69177428572E+02  0.10566000000E+00 0. -1.
        994    1    1    2    0    0  0.68163151955E+01  0.46517719382E+01  0.15064128656E+01  0.17140539786E+03  0.17120000000E+03 0.  0.
        998    1    1    2    0    0 -0.36906200901E+01  0.80011432083E+01  0.14305550875E+04  0.14306171736E+04  0.10000000000E+02 0. -1.
</event>
<event>
 5    1  0.1488417E-008  0.3847005E+03  0.7957747E-01  0.3430943E+00
         13   -1    0    0    0    0  0.00000000000E+00  0.00000000000E+00  0.14999999963E+04  0.15000000000E+04  0.10566000000E+00 0. -1.
        994   -1    0    0    0    0 -0.00000000000E+00 -0.00000000000E+00  0.11368683772E-12  0.17120000000E+03  0.17120000000E+03 0.  0.
         13    1    1    2    0    0 -0.15534802761E+02  0.36571905828E+01  0.85293992742E+02  0.86774313605E+02  0.10566000000E+00 0. -1.
        994    1    1    2    0    0 -0.18279532385E+02 -0.18981837916E+02  0.40682689615E+01  0.17326408251E+03  0.17120000000E+03 0.  0.
        998    1    1    2    0    0  0.33814335146E+02  0.15324647333E+02  0.14106377346E+04  0.14111616039E+04  0.10000000000E+02 0. -1.
</event>
<event>
 5    1  0.1488417E-008  0.3834393E+03  0.7957747E-01  0.3436318E+00
         13   -1    0    0    0    0  0.00000000000E+00  0.00000000000E+00  0.14999999963E+04  0.15000000000E+04  0.10566000000E+00 0.  1.
        994   -1    0    0    0    0 -0.00000000000E+00 -0.00000000000E+00  0.11368683772E-12  0.17120000000E+03  0.17120000000E+03 0.  0.
         13    1    1    2    0    0 -0.12710632720E+02 -0.19526137972E+02  0.12654109977E+03  0.12866814425E+03  0.10566000000E+00 0.  1.
        994    1    1    2    0    0 -0.52398006543E+01  0.14563331760E+01  0.25047553987E+01  0.17130467074E+03  0.17120000000E+03 0.  0.
        998    1    1    2    0    0  0.17950433374E+02  0.18069804796E+02  0.13709541411E+04  0.13712271850E+04  0.10000000000E+02 0.  1.
</event>
<event>
 5    1  0.1488417E-008  0.3824979E+03  0.7957747E-01  0.3440354E+00
         13   -1    0    0    0    0  0.00000000000E+00  0.00000000000E+00  0.14999999963E+04  0.15000000000E+04  0.10566000000E+00 0. -1.
        994   -1    0    0    0    0 -0.00000000000E+00 -0.00000000000E+00  0.11368683772E-12  0.17120000000E+03  0.17120000000E+03 0.  0.
         13    1    1    2    0    0  0.74796769924E+01 -0.18644974820E+02  0.69044502092E+02  0.71907823546E+02  0.10566000000E+00 0. -1.
        994    1    1    2    0    0  0.37939520780E+01  0.16007583900E+02  0.37753393791E+01  0.17203002646E+03  0.17120000000E+03 0.  0.
        998    1    1    2    0    0 -0.11273629070E+02  0.26373909198E+01  0.14271801548E+04  0.14272621500E+04  0.10000000000E+02 0. -1.
</event>
<event>
 5    1  0.1488417E-008  0.3821457E+03  0.7957747E-01  0.3441869E+00
         13   -1    0    0    0    0  0.00000000000E+00  0.00000000000E+00  0.14999999963E+04  0.15000000000E+04  0.10566000000E+00 0. -1.
        994   -1    0    0    0    0 -0.00000000000E+00 -0.00000000000E+00  0.11368683772E-12  0.17120000000E+03  0.17120000000E+03 0.  0.
         13    1    1    2    0    0  0.23415305939E+02 -0.98889163879E+01  0.11706810376E+03  0.11979573991E+03  0.10566000000E+00 0. -1.
        994    1    1    2    0    0  0.38076113323E+01  0.51329780818E+01  0.31895301505E+01  0.17134893776E+03  0.17120000000E+03 0.  0.
        998    1    1    2    0    0 -0.27222917271E+02  0.47559383061E+01  0.13797423624E+04  0.13800553223E+04  0.10000000000E+02 0. -1.
</event>
<event>
 5    1  0.1488417E-008  0.3747685E+03  0.7957747E-01  0.3474259E+00
         13   -1    0    0    0    0  0.00000000000E+00  0.00000000000E+00  0.14999999963E+04  0.15000000000E+04  0.10566000000E+00 0. -1.
        994   -1    0    0    0    0 -0.00000000000E+00 -0.00000000000E+00  0.11368683772E-12  0.17120000000E+03  0.17120000000E+03 0.  0.
         13    1    1    2    0    0 -0.86115964798E+02 -0.11719515356E+03  0.56893365547E+03  0.58722753588E+03  0.10566000000E+00 0. -1.
        994    1    1    2    0    0  0.68319258005E+02  0.10208712057E+03  0.69273105273E+02  0.22180510435E+03  0.17120000000E+03 0.  0.
        998    1    1    2    0    0  0.17796706793E+02  0.15108032998E+02  0.86179323554E+03  0.86216735977E+03  0.10000000000E+02 0. -1.
</event>
<event>
 5    1  0.1488417E-008  0.2468511E+03  0.7957747E-01  0.4367911E+00
         13   -1    0    0    0    0  0.00000000000E+00  0.00000000000E+00  0.14999999963E+04  0.15000000000E+04  0.10566000000E+00 0.  1.
        994   -1    0    0    0    0 -0.00000000000E+00 -0.00000000000E+00  0.11368683772E-12  0.17120000000E+03  0.17120000000E+03 0.  0.
         13    1    1    2    0    0  0.16721170545E+03 -0.19155971835E+02  0.21846589023E+03  0.27577900945E+03  0.10566000000E+00 0.  1.
        994    1    1    2    0    0 -0.18000889357E+03  0.55334489075E+02  0.22968965588E+03  0.34282923659E+03  0.17120000000E+03 0.  0.
        998    1    1    2    0    0  0.12797188114E+02 -0.36178517240E+02  0.10518444502E+04  0.10525917540E+04  0.10000000000E+02 0.  1.
</event>
<event>
 5    1  0.1488417E-008  0.3827176E+03  0.7957747E-01  0.3439410E+00
         13   -1    0    0    0    0  0.00000000000E+00  0.00000000000E+00  0.14999999963E+04  0.15000000000E+04  0.10566000000E+00 0.  1.
        994   -1    0    0    0    0 -0.00000000000E+00 -0.00000000000E+00  0.11368683772E-12  0.17120000000E+03  0.17120000000E+03 0.  0.
         13    1    1    2    0    0  0.92729715406E+01  0.27838484262E+02  0.16177074622E+03  0.16441032420E+03  0.10566000000E+00 0.  1.
        994    1    1    2    0    0 -0.87054088298E+00 -0.12153428531E+02  0.32596062490E+01  0.17166399943E+03  0.17120000000E+03 0.  0.
        998    1    1    2    0    0 -0.84024306576E+01 -0.15685055731E+02  0.13349696438E+04  0.13351256764E+04  0.10000000000E+02 0.  1.
</event>
<event>
 5    1  0.1488417E-008  0.3790576E+03  0.7957747E-01  0.3455272E+00
         13   -1    0    0    0    0  0.00000000000E+00  0.00000000000E+00  0.14999999963E+04  0.15000000000E+04  0.10566000000E+00 0. -1.
        994   -1    0    0    0    0 -0.00000000000E+00 -0.00000000000E+00  0.11368683772E-12  0.17120000000E+03  0.17120000000E+03 0.  0.
         13    1    1    2    0    0 -0.47513970450E+02  0.11460595313E+02  0.21227979372E+03  0.21783398407E+03  0.10566000000E+00 0. -1.
        994    1    1    2    0    0  0.53397403313E+02 -0.15058802651E+02  0.15001573118E+02  0.18058941667E+03  0.17120000000E+03 0.  0.
        998    1    1    2    0    0 -0.58834328631E+01  0.35982073375E+01  0.12727186294E+04  0.12727765993E+04  0.10000000000E+02 0. -1.
</event>
<event>
 5    1  0.1488417E-008  0.3687491E+03  0.7957747E-01  0.3501660E+00
         13   -1    0    0    0    0  0.00000000000E+00  0.00000000000E+00  0.14999999963E+04  0.15000000000E+04  0.10566000000E+00 0.  1.
        994   -1    0    0    0    0 -0.00000000000E+00 -0.00000000000E+00  0.11368683772E-12  0.17120000000E+03  0.17120000000E+03 0.  0.
         13    1    1    2    0    0  0.32459763109E+02 -0.48025659141E+02  0.14751118476E+03  0.15849183244E+03  0.10566000000E+00 0.  1.
        994    1    1    2    0    0 -0.23685782737E+02  0.49383456253E+02  0.20794123778E+02  0.18094633911E+03  0.17120000000E+03 0.  0.
        998    1    1    2    0    0 -0.87739803724E+01 -0.13577971121E+01  0.13316946877E+04  0.13317618284E+04  0.10000000000E+02 0.  1.
</event>
<event>
 5    1  0.1488417E-008  0.3812505E+03  0.7957747E-01  0.3445731E+00
         13   -1    0    0    0    0  0.00000000000E+00  0.00000000000E+00  0.14999999963E+04  0.15000000000E+04  0.10566000000E+00 0.  1.
        994   -1    0    0    0    0 -0.00000000000E+00 -0.00000000000E+00  0.11368683772E-12  0.17120000000E+03  0.17120000000E+03 0.  0.
         13    1    1    2    0    0 -0.83246531379E+01  0.81718331515E+01  0.17879131628E+02  0.21348377426E+02  0.10566000000E+00 0.  1.
        994    1    1    2    0    0  0.86223992550E+01 -0.59401332381E+01  0.38682799669E+01  0.17156350003E+03  0.17120000000E+03 0.  0.
        998    1    1    2    0    0 -0.29774611712E+00 -0.22316999135E+01  0.14782525847E+04  0.14782881225E+04  0.10000000000E+02 0.  1.
</event>
<event>
 5    1  0.1488417E-008  0.3791792E+03  0.7957747E-01  0.3454740E+00
         13   -1    0    0    0    0  0.00000000000E+00  0.00000000000E+00  0.14999999963E+04  0.15000000000E+04  0.10566000000E+00 0.  1.
        994   -1    0    0    0    0 -0.00000000000E+00 -0.00000000000E+00  0.11368683772E-12  0.17120000000E+03  0.17120000000E+03 0.  0.
         13    1    1    2    0    0 -0.36622181189E+02 -0.21131887150E+01  0.13252747719E+03  0.13751070175E+03  0.10566000000E+00 0.  1.
        994    1    1    2    0    0  0.40428013228E+02 -0.12907413025E+02  0.10608893271E+02  0.17670035139E+03  0.17120000000E+03 0.  0.
        998    1    1    2    0    0 -0.38058320388E+01  0.15020601740E+02  0.13568636258E+04  0.13569889469E+04  0.10000000000E+02 0.  1.
</event>
<event>
 5    1  0.1488417E-008  0.3829791E+03  0.7957747E-01  0.3438288E+00
         13   -1    0    0    0    0  0.00000000000E+00  0.00000000000E+00  0.14999999963E+04  0.15000000000E+04  0.10566000000E+00 0. -1.
        994   -1    0    0    0    0 -0.00000000000E+00 -0.00000000000E+00  0.11368683772E-12  0.17120000000E+03  0.17120000000E+03 0.  0.
         13    1    1    2    0    0 -0.90527420837E+01  0.14279164568E+02  0.55594905915E+02  0.58108961509E+02  0.10566000000E+00 0. -1.
        994    1    1    2    0    0  0.90341955067E+01  0.24897338428E+01  0.29275399408E+01  0.17148126998E+03  0.17120000000E+03 0.  0.
        998    1    1    2    0    0  0.18546576965E-01 -0.16768898411E+02  0.14414775504E+04  0.14416097685E+04  0.10000000000E+02 0. -1.
</event>
<event>
 5    1  0.1488417E-008  0.3849599E+03  0.7957747E-01  0.3429842E+00
         13   -1    0    0    0    0  0.00000000000E+00  0.00000000000E+00  0.14999999963E+04  0.15000000000E+04  0.10566000000E+00 0. -1.
        994   -1    0    0    0    0 -0.00000000000E+00 -0.00000000000E+00  0.11368683772E-12  0.17120000000E+03  0.17120000000E+03 0.  0.
         13    1    1    2    0    0 -0.17448915968E+02 -0.58025399152E+01  0.93311162526E+02  0.95105827129E+02  0.10566000000E+00 0. -1.
        994    1    1    2    0    0  0.27608737573E+02 -0.47852851792E+01  0.42367008433E+01  0.17352962565E+03  0.17120000000E+03 0.  0.
        998    1    1    2    0    0 -0.10159821605E+02  0.10587825094E+02  0.14024521329E+04  0.14025645472E+04  0.10000000000E+02 0. -1.
</event>
<event>
 5    1  0.1488417E-008  0.3857121E+03  0.7957747E-01  0.3426658E+00
         13   -1    0    0    0    0  0.00000000000E+00  0.00000000000E+00  0.14999999963E+04  0.15000000000E+04  0.10566000000E+00 0.  1.
        994   -1    0    0    0    0 -0.00000000000E+00 -0.00000000000E+00  0.11368683772E-12  0.17120000000E+03  0.17120000000E+03 0.  0.
         13    1    1    2    0    0  0.11466843450E+02 -0.10484109602E+02  0.89016580441E+02  0.90362424770E+02  0.10566000000E+00 0.  1.
        994    1    1    2    0    0 -0.16433829367E+02  0.90787809038E+01  0.24344065094E+01  0.17224361046E+03  0.17120000000E+03 0.  0.
        998    1    1    2    0    0  0.49669859170E+01  0.14053286979E+01  0.14085490093E+04  0.14085939648E+04  0.10000000000E+02 0.  1.
</event>
<event>
 5    1  0.1488417E-008  0.3829061E+03  0.7957747E-01  0.3438602E+00
         13   -1    0    0    0    0  0.00000000000E+00  0.00000000000E+00  0.14999999963E+04  0.15000000000E+04  0.10566000000E+00 0. -1.
        994   -1    0    0    0    0 -0.00000000000E+00 -0.00000000000E+00  0.11368683772E-12  0.17120000000E+03  0.17120000000E+03 0.  0.
         13    1    1    2    0    0  0.73226989706E+02 -0.12262553216E+03  0.80309089600E+03  0.81569247365E+03  0.10566000000E+00 0. -1.
        994    1    1    2    0    0 -0.74059058720E+02  0.15799055934E+03  0.11104069066E+03  0.26848693823E+03  0.17120000000E+03 0.  0.
        998    1    1    2    0    0  0.83206901455E+00 -0.35365027182E+02  0.58586840962E+03  0.58702058812E+03  0.10000000000E+02 0. -1.
</event>
<event>
 5    1  0.1488417E-008  0.3696740E+03  0.7957747E-01  0.3497390E+00
         13   -1    0    0    0    0  0.00000000000E+00  0.00000000000E+00  0.14999999963E+04  0.15000000000E+04  0.10566000000E+00 0. -1.
        994   -1    0    0    0    0 -0.00000000000E+00 -0.00000000000E+00  0.11368683772E-12  0.17120000000E+03  0.17120000000E+03 0.  0.
         13    1    1    2    0    0 -0.10681890576E+03  0.23372403599E+03  0.10975008260E+04  0.11271846689E+04  0.10566000000E+00 0. -1.
        994    1    1    2    0    0  0.12368901703E+03 -0.21677939534E+03  0.25946643460E+03  0.39865342073E+03  0.17120000000E+03 0.  0.
        998    1    1    2    0    0 -0.16870111271E+02 -0.16944640649E+02  0.14303273566E+03  0.14536191032E+03  0.10000000000E+02 0. -1.
</event>
<event>
 5    1  0.1488417E-008  0.3838656E+03  0.7957747E-01  0.3434498E+00
         13   -1    0    0    0    0  0.00000000000E+00  0.00000000000E+00  0.14999999963E+04  0.15000000000E+04  0.10566000000E+00 0.  1.
        994   -1    0    0    0    0 -0.00000000000E+00 -0.00000000000E+00  0.11368683772E-12  0.17120000000E+03  0.17120000000E+03 0.  0.
         13    1    1    2    0    0  0.17425107881E+02  0.16377574192E+02  0.14180904760E+03  0.14381125292E+03  0.10566000000E+00 0.  1.
        994    1    1    2    0    0  0.34079006895E+01 -0.96558386028E+01  0.25405682699E+01  0.17152476058E+03  0.17120000000E+03 0.  0.
        998    1    1    2    0    0 -0.20833008571E+02 -0.67217355895E+01  0.13556503804E+04  0.13558639865E+04  0.10000000000E+02 0.  1.
</event>
<event>
 5    1  0.1488417E-008  0.3774457E+03  0.7957747E-01  0.3462356E+00
         13   -1    0    0    0    0  0.00000000000E+00  0.00000000000E+00  0.14999999963E+04  0.15000000000E+04  0.10566000000E+00 0.  1.
        994   -1    0    0    0    0 -0.00000000000E+00 -0.00000000000E+00  0.11368683772E-12  0.17120000000E+03  0.17120000000E+03 0.  0.
         13    1    1    2    0    0  0.21719970193E+01 -0.49202463925E+02  0.27276389343E+03  0.27717458893E+03  0.10566000000E+00 0.  1.
        994    1    1    2    0    0 -0.26839179044E+02  0.25391663185E+01  0.78822920137E+01  0.17348878761E+03  0.17120000000E+03 0.  0.
        998    1    1    2    0    0  0.24667182024E+02  0.46663297606E+02  0.12193538108E+04  0.12205366235E+04  0.10000000000E+02 0.  1.
</event>
<event>
 5    1  0.1488417E-008  0.3852196E+03  0.7957747E-01  0.3428741E+00
         13   -1    0    0    0    0  0.00000000000E+00  0.00000000000E+00  0.14999999963E+04  0.15000000000E+04  0.10566000000E+00 0. -1.
        994   -1    0    0    0    0 -0.00000000000E+00 -0.00000000000E+00  0.11368683772E-12  0.17120000000E+03  0.17120000000E+03 0.  0.
         13    1    1    2    0    0 -0.13924075986E+02  0.10959967965E+02  0.10191502752E+03  0.10344411432E+03  0.10566000000E+00 0. -1.
        994    1    1    2    0    0  0.10303344078E+02 -0.81388767306E+01  0.20879061119E+01  0.17171546106E+03  0.17120000000E+03 0.  0.
        998    1    1    2    0    0  0.36207319079E+01 -0.28210912344E+01  0.13959970627E+04  0.13960404246E+04  0.10000000000E+02 0. -1.
</event>
<event>
 5    1  0.1488417E-008  0.3837167E+03  0.7957747E-01  0.3435133E+00
         13   -1    0    0    0    0  0.00000000000E+00  0.00000000000E+00  0.14999999963E+04  0.15000000000E+04  0.10566000000E+00 0. -1.
        994   -1    0    0    0    0 -0.00000000000E+00 -0.00000000000E+00  0.11368683772E-12  0.17120000000E+03  0.17120000000E+03 0.  0.
         13    1    1    2    0    0 -0.56247639401E+01 -0.10520669312E+02  0.30308864588E+02  0.32572394582E+02  0.10566000000E+00 0. -1.
        994    1    1    2    0    0  0.44534515177E+01  0.10565380123E+02  0.27028736073E+01  0.17160479601E+03  0.17120000000E+03 0.  0.
        998    1    1    2    0    0  0.11713124225E+01 -0.44710811425E-01  0.14669882581E+04  0.14670228094E+04  0.10000000000E+02 0. -1.
</event>
<event>
 5    1  0.1488417E-008  0.3795738E+03  0.7957747E-01  0.3453016E+00
         13   -1    0    0    0    0  0.00000000000E+00  0.00000000000E+00  0.14999999963E+04  0.15000000000E+04  0.10566000000E+00 0.  1.
        994   -1    0    0    0    0 -0.00000000000E+00 -0.00000000000E+00  0.11368683772E-12  0.17120000000E+03  0.17120000000E+03 0.  0.
         13    1    1    2    0    0  0.14019910895E+02  0.18024221620E+02  0.55780406808E+02  0.60273505077E+02  0.10566000000E+00 0.  1.
        994    1    1    2    0    0 -0.13503166155E+02 -0.22921752967E+02  0.67213125371E+01  0.17338500021E+03  0.17120000000E+03 0.  0.
        998    1    1    2    0    0 -0.51674473965E+00  0.48975313474E+01  0.14374982769E+04  0.14375414947E+04  0.10000000000E+02 0.  1.
</event>
<event>
 5    1  0.1488417E-008  0.3810900E+03  0.7957747E-01  0.3446426E+00
         13   -1    0    0    0    0  0.00000000000E+00  0.00000000000E+00  0.14999999963E+04  0.15000000000E+04  0.10566000000E+00 0.  1.
        994   -1    0    0    0    0 -0.00000000000E+00 -0.00000000000E+00  0.11368683772E-12  0.17120000000E+03  0.17120000000E+03 0.  0.
         13    1    1    2    0    0  0.26621351490E+02 -0.25820528874E+01  0.13806181683E+02  0.30099587521E+02  0.10566000000E+00 0.  1.
        994    1    1    2    0    0 -0.24527277048E+02  0.70488379081E+01  0.19300093099E+02  0.17416431043E+03  0.17120000000E+03 0.  0.
        998    1    1    2    0    0 -0.20940744418E+01 -0.44667850207E+01  0.14668937215E+04  0.14669361020E+04  0.10000000000E+02 0.  1.
</event>
<event>
 5    1  0.1488417E-008  0.3808383E+03  0.7957747E-01  0.3447516E+00
         13   -1    0    0    0    0  0.00000000000E+00  0.00000000000E+00  0.14999999963E+04  0.15000000000E+04  0.10566000000E+00 0. -1.
        994   -1    0    0    0    0 -0.00000000000E+00 -0.00000000000E+00  0.11368683772E-12  0.17120000000E+03  0.17120000000E+03 0.  0.
         13    1    1    2    0    0 -0.15380722060E+02  0.31284521851E+02  0.16458737699E+03  0.16823882949E+03  0.10566000000E+00 0. -1.
        994    1    1    2    0    0  0.59167091331E+01 -0.17818394206E+02  0.48865613149E+01  0.17229573733E+03  0.17120000000E+03 0.  0.
        998    1    1    2    0    0  0.94640129265E+01 -0.13466127644E+02  0.13305260580E+04  0.13306654332E+04  0.10000000000E+02 0. -1.
</event>
<event>
 5    1  0.1488417E-008  0.3826995E+03  0.7957747E-01  0.3439488E+00
         13   -1    0    0    0    0  0.00000000000E+00  0.00000000000E+00  0.14999999963E+04  0.15000000000E+04  0.10566000000E+00 0.  1.
        994   -1    0    0    0    0 -0.00000000000E+00 -0.00000000000E+00  0.11368683772E-12  0.17120000000E+03  0.17120000000E+03 0.  0.
         13    1    1    2    0    0 -0.42778214912E+01  0.13793412032E+02  0.38911650201E+02  0.41505248555E+02  0.10566000000E+00 0.  1.
        994    1    1    2    0    0 -0.22549470333E+02 -0.14088222436E+01  0.44698206005E+01  0.17274224350E+03  0.17120000000E+03 0.  0.
        998    1    1    2    0    0  0.26827291825E+02 -0.12384589789E+02  0.14566185255E+04  0.14569525079E+04  0.10000000000E+02 0.  1.
</event>
<event>
 5    1  0.1488417E-008  0.3823038E+03  0.7957747E-01  0.3441188E+00
         13   -1    0    0    0    0  0.00000000000E+00  0.00000000000E+00  0.14999999963E+04  0.15000000000E+04  0.10566000000E+00 0. -1.
        994   -1    0    0    0    0 -0.00000000000E+00 -0.00000000000E+00  0.11368683772E-12  0.17120000000E+03  0.17120000000E+03 0.  0.
         13    1    1    2    0    0  0.42117081592E+01  0.11110533836E+03  0.62780056947E+03  0.63757015370E+03  0.10566000000E+00 0. -1.
        994    1    1    2    0    0 -0.26042266409E+02 -0.14736258906E+03  0.81217264965E+02  0.24145313504E+03  0.17120000000E+03 0.  0.
        998    1    1    2    0    0  0.21830558250E+02  0.36257250698E+02  0.79098216184E+03  0.79217671125E+03  0.10000000000E+02 0. -1.
</event>
<event>
 5    1  0.1488417E-008  0.3776101E+03  0.7957747E-01  0.3461631E+00
         13   -1    0    0    0    0  0.00000000000E+00  0.00000000000E+00  0.14999999963E+04  0.15000000000E+04  0.10566000000E+00 0.  1.
        994   -1    0    0    0    0 -0.00000000000E+00 -0.00000000000E+00  0.11368683772E-12  0.17120000000E+03  0.17120000000E+03 0.  0.
         13    1    1    2    0    0 -0.30407041999E+01 -0.13267561857E+02  0.15264033282E+02  0.20451795905E+02  0.10566000000E+00 0.  1.
        994    1    1    2    0    0  0.42927212466E+01  0.15785056063E+01  0.54149352251E+01  0.17134666807E+03  0.17120000000E+03 0.  0.
        998    1    1    2    0    0 -0.12520170468E+01  0.11689056251E+02  0.14793210278E+04  0.14794015360E+04  0.10000000000E+02 0.  1.
</event>
<event>
 5    1  0.1488417E-008  0.3754208E+03  0.7957747E-01  0.3471343E+00
         13   -1    0    0    0    0  0.00000000000E+00  0.00000000000E+00  0.14999999963E+04  0.15000000000E+04  0.10566000000E+00 0. -1.
        994   -1    0    0    0    0 -0.00000000000E+00 -0.00000000000E+00  0.11368683772E-12  0.17120000000E+03  0.17120000000E+03 0.  0.
         13    1    1    2    0    0  0.25604727912E+02  0.23692728722E+02  0.87239282565E+02  0.93955580314E+02  0.10566000000E+00 0. -1.
        994    1    1    2    0    0 -0.20855466592E+02 -0.28046159620E+02  0.10620374597E+02  0.17505362011E+03  0.17120000000E+03 0.  0.
        998    1    1    2    0    0 -0.47492613200E+01  0.43534308974E+01  0.14021403391E+04  0.14021907996E+04  0.10000000000E+02 0. -1.
</event>
<event>
 5    1  0.1488417E-008  0.3768106E+03  0.7957747E-01  0.3465164E+00
         13   -1    0    0    0    0  0.00000000000E+00  0.00000000000E+00  0.14999999963E+04  0.15000000000E+04  0.10566000000E+00 0. -1.
        994   -1    0    0    0    0 -0.00000000000E+00 -0.00000000000E+00  0.11368683772E-12  0.17120000000E+03  0.17120000000E+03 0.  0.
         13    1    1    2    0    0 -0.21712455319E+02 -0.28756435910E+02  0.12343168365E+03  0.12858364987E+03  0.10566000000E+00 0. -1.
        994    1    1    2    0    0 -0.51797672020E+01  0.42706356458E+01  0.59041361978E+01  0.17143327315E+03  0.17120000000E+03 0.  0.
        998    1    1    2    0    0  0.26892222521E+02  0.24485800264E+02  0.13706641764E+04  0.13711830770E+04  0.10000000000E+02 0. -1.
</event>
<event>
 5    1  0.1488417E-008  0.3790310E+03  0.7957747E-01  0.3455389E+00
         13   -1    0    0    0    0  0.00000000000E+00  0.00000000000E+00  0.14999999963E+04  0.15000000000E+04  0.10566000000E+00 0. -1.
        994   -1    0    0    0    0 -0.00000000000E+00 -0.00000000000E+00  0.11368683772E-12  0.17120000000E+03  0.17120000000E+03 0.  0.
         13    1    1    2    0    0  0.15568065520E+02 -0.52629478569E+00  0.23976444608E+02  0.28592354053E+02  0.10566000000E+00 0. -1.
        994    1    1    2    0    0 -0.16172113288E+02 -0.13043865204E+01  0.55063913766E+01  0.17205522084E+03  0.17120000000E+03 0.  0.
        998    1    1    2    0    0  0.60404776882E+00  0.18306813061E+01  0.14705171603E+04  0.14705524251E+04  0.10000000000E+02 0. -1.
</event>
<event>
 5    1  0.1488417E-008  0.3727262E+03  0.7957747E-01  0.3483455E+00
         13   -1    0    0    0    0  0.00000000000E+00  0.00000000000E+00  0.14999999963E+04  0.15000000000E+04  0.10566000000E+00 0.  1.
        994   -1    0    0    0    0 -0.00000000000E+00 -0.00000000000E+00  0.11368683772E-12  0.17120000000E+03  0.17120000000E+03 0.  0.
         13    1    1    2    0    0 -0.38036141351E+02  0.14797305280E+02  0.10613780626E+03  0.11371434990E+03  0.10566000000E+00 0.  1.
        994    1    1    2    0    0  0.26323515811E+02  0.15965777604E+02  0.11104724465E+02  0.17430028240E+03  0.17120000000E+03 0.  0.
        998    1    1    2    0    0  0.11712625541E+02 -0.30763082883E+02  0.13827574656E+04  0.13831853677E+04  0.10000000000E+02 0.  1.
</event>
<event>
 5    1  0.1488417E-008  0.3848606E+03  0.7957747E-01  0.3430264E+00
         13   -1    0    0    0    0  0.00000000000E+00  0.00000000000E+00  0.14999999963E+04  0.15000000000E+04  0.10566000000E+00 0. -1.
        994   -1    0    0    0    0 -0.00000000000E+00 -0.00000000000E+00  0.11368683772E-12  0.17120000000E+03  0.17120000000E+03 0.  0.
         13    1    1    2    0    0  0.97565846786E+01  0.14078298154E+02  0.74575671800E+02  0.76517523561E+02  0.10566000000E+00 0. -1.
        994    1    1    2    0    0 -0.11688750816E+02 -0.32930732393E+02  0.57271719097E+01  0.17482362692E+03  0.17120000000E+03 0.  0.
        998    1    1    2    0    0  0.19321661377E+01  0.18852434239E+02  0.14196971526E+04  0.14198588495E+04  0.10000000000E+02 0. -1.
</event>
<event>
 5    1  0.1488417E-008  0.3829146E+03  0.7957747E-01  0.3438565E+00
         13   -1    0    0    0    0  0.00000000000E+00  0.00000000000E+00  0.14999999963E+04  0.15000000000E+04  0.10566000000E+00 0. -1.
        994   -1    0    0    0    0 -0.00000000000E+00 -0.00000000000E+00  0.11368683772E-12  0.17120000000E+03  0.17120000000E+03 0.  0.
         13    1    1    2    0    0 -0.12355543456E+02 -0.81831067787E+01  0.40928684235E+02  0.43529197648E+02  0.10566000000E+00 0. -1.
        994    1    1    2    0    0 -0.68168584868E+01  0.21718271696E+02  0.43865419138E+01  0.17276236464E+03  0.17120000000E+03 0.  0.
        998    1    1    2    0    0  0.19172401943E+02 -0.13535164918E+02  0.14546847701E+04  0.14549084377E+04  0.10000000000E+02 0. -1.
</event>
<event>
 5    1  0.1488417E-008  0.3830343E+03  0.7957747E-01  0.3438052E+00
         13   -1    0    0    0    0  0.00000000000E+00  0.00000000000E+00  0.14999999963E+04  0.15000000000E+04  0.10566000000E+00 0. -1.
        994   -1    0    0    0    0 -0.00000000000E+00 -0.00000000000E+00  0.11368683772E-12  0.17120000000E+03  0.17120000000E+03 0.  0.
         13    1    1    2    0    0 -0.94595782074E+01  0.85597236759E+01  0.30563215298E+02  0.33119084870E+02  0.10566000000E+00 0. -1.
        994    1    1    2    0    0  0.83553557037E+01 -0.39887596945E+00  0.28408518806E+01  0.17142777345E+03  0.17120000000E+03 0.  0.
        998    1    1    2    0    0  0.11042225037E+01 -0.81608477065E+01  0.14665959291E+04  0.14666531417E+04  0.10000000000E+02 0. -1.
</event>
<event>
 5    1  0.1488417E-008  0.3827142E+03  0.7957747E-01  0.3439425E+00
         13   -1    0    0    0    0  0.00000000000E+00  0.00000000000E+00  0.14999999963E+04  0.15000000000E+04  0.10566000000E+00 0. -1.
        994   -1    0    0    0    0 -0.00000000000E+00 -0.00000000000E+00  0.11368683772E-12  0.17120000000E+03  0.17120000000E+03 0.  0.
         13    1    1    2    0    0 -0.11051970913E+02 -0.11348442964E+02  0.43446562775E+02  0.46244439663E+02  0.10566000000E+00 0. -1.
        994    1    1    2    0    0  0.95937365074E+01  0.12796351435E+02  0.36171990376E+01  0.17198346002E+03  0.17120000000E+03 0.  0.
        998    1    1    2    0    0  0.14582344055E+01 -0.14479084710E+01  0.14529362345E+04  0.14529721003E+04  0.10000000000E+02 0. -1.
</event>
<event>
 5    1  0.1488417E-008  0.3796431E+03  0.7957747E-01  0.3452714E+00
         13   -1    0    0    0    0  0.00000000000E+00  0.00000000000E+00  0.14999999963E+04  0.15000000000E+04  0.10566000000E+00 0. -1.
        994   -1    0    0    0    0 -0.00000000000E+00 -0.00000000000E+00  0.11368683772E-12  0.17120000000E+03  0.17120000000E+03 0.  0.
         13    1    1    2    0    0  0.32710933399E+02 -0.16541792876E+02  0.17991121420E+03  0.18360744057E+03  0.10566000000E+00 0. -1.
        994    1    1    2    0    0  0.29432367032E+01  0.47703091283E+01  0.44185846526E+01  0.17134871573E+03  0.17120000000E+03 0.  0.
        998    1    1    2    0    0 -0.35654170102E+02  0.11771483747E+02  0.13156701974E+04  0.13162438437E+04  0.10000000000E+02 0. -1.
</event>
<event>
 5    1  0.1488417E-008  0.3807874E+03  0.7957747E-01  0.3447737E+00
         13   -1    0    0    0    0  0.00000000000E+00  0.00000000000E+00  0.14999999963E+04  0.15000000000E+04  0.10566000000E+00 0. -1.
        994   -1    0    0    0    0 -0.00000000000E+00 -0.00000000000E+00  0.11368683772E-12  0.17120000000E+03  0.17120000000E+03 0.  0.
         13    1    1    2    0    0 -0.73006643448E+01  0.78192947757E+01  0.13800141905E+02  0.17461275763E+02  0.10566000000E+00 0. -1.
        994    1    1    2    0    0  0.98603689379E+01  0.20845091132E+01  0.40749606186E+01  0.17154479694E+03  0.17120000000E+03 0.  0.
        998    1    1    2    0    0 -0.25597045931E+01 -0.99038038889E+01  0.14821248938E+04  0.14821939273E+04  0.10000000000E+02 0. -1.
</event>
<event>
 5    1  0.1488417E-008  0.3773915E+03  0.7957747E-01  0.3462596E+00
         13   -1    0    0    0    0  0.00000000000E+00  0.00000000000E+00  0.14999999963E+04  0.15000000000E+04  0.10566000000E+00 0.  1.
        994   -1    0    0    0    0 -0.00000000000E+00 -0.00000000000E+00  0.11368683772E-12  0.17120000000E+03  0.17120000000E+03 0.  0.
         13    1    1    2    0    0 -0.45774844537E+02 -0.19884558442E+02  0.16631670148E+03  0.17364327920E+03  0.10566000000E+00 0.  1.
        994    1    1    2    0    0  0.84427080053E+02  0.14715153953E+02  0.30636122669E+02  0.19388780161E+03  0.17120000000E+03 0.  0.
        998    1    1    2    0    0 -0.38652235517E+02  0.51694044887E+01  0.13030471721E+04  0.13036689192E+04  0.10000000000E+02 0.  1.
</event>
<event>
 5    1  0.1488417E-008  0.3719395E+03  0.7957747E-01  0.3487024E+00
         13   -1    0    0    0    0  0.00000000000E+00  0.00000000000E+00  0.14999999963E+04  0.15000000000E+04  0.10566000000E+00 0.  1.
        994   -1    0    0    0    0 -0.00000000000E+00 -0.00000000000E+00  0.11368683772E-12  0.17120000000E+03  0.17120000000E+03 0.  0.
         13    1    1    2    0    0 -0.89867848687E+01  0.70521825085E+01  0.45305464798E+01  0.12289531962E+02  0.10566000000E+00 0.  1.
        994    1    1    2    0    0 -0.86022963651E+02 -0.34728519287E+02  0.38423626329E+02  0.19847376499E+03  0.17120000000E+03 0.  0.
        998    1    1    2    0    0  0.95009748520E+02  0.27676336779E+02  0.14570458235E+04  0.14604367031E+04  0.10000000000E+02 0.  1.
</event>
<event>
 5    1  0.1488417E-008  0.3825595E+03  0.7957747E-01  0.3440089E+00
         13   -1    0    0    0    0  0.00000000000E+00  0.00000000000E+00  0.14999999963E+04  0.15000000000E+04  0.10566000000E+00 0. -1.
        994   -1    0    0    0    0 -0.00000000000E+00 -0.00000000000E+00  0.11368683772E-12  0.17120000000E+03  0.17120000000E+03 0.  0.
         13    1    1    2    0    0 -0.13859614384E+02 -0.22303726671E+02  0.11384854294E+03  0.11683769524E+03  0.10566000000E+00 0. -1.
        994    1    1    2    0    0  0.13989011246E+02  0.20111371553E+02  0.48386880979E+01  0.17301159673E+03  0.17120000000E+03 0.  0.
        998    1    1    2    0    0 -0.12939686157E+00  0.21923551175E+01  0.13813127652E+04  0.13813507080E+04  0.10000000000E+02 0. -1.
</event>
<event>
 5    1  0.1488417E-008  0.3958045E+03  0.7957747E-01  0.3385103E+00
         13   -1    0    0    0    0  0.00000000000E+00  0.00000000000E+00  0.14999999963E+04  0.15000000000E+04  0.10566000000E+00 0.  1.
        994   -1    0    0    0    0 -0.00000000000E+00 -0.00000000000E+00  0.11368683772E-12  0.17120000000E+03  0.17120000000E+03 0.  0.
         13    1    1    2    0    0  0.72730301657E+02 -0.24442269380E+02  0.10365414127E+03  0.12896244987E+03  0.10566000000E+00 0.  1.
        994    1    1    2    0    0 -0.67473917082E+02  0.17200725304E+02  0.44207310394E+02  0.19003242021E+03  0.17120000000E+03 0.  0.
        998    1    1    2    0    0 -0.52563845748E+01  0.72415440762E+01  0.13521385446E+04  0.13522051299E+04  0.10000000000E+02 0.  1.
</event>
<event>
 5    1  0.1488417E-008  0.3825117E+03  0.7957747E-01  0.3440294E+00
         13   -1    0    0    0    0  0.00000000000E+00  0.00000000000E+00  0.14999999963E+04  0.15000000000E+04  0.10566000000E+00 0. -1.
        994   -1    0    0    0    0 -0.00000000000E+00 -0.00000000000E+00  0.11368683772E-12  0.17120000000E+03  0.17120000000E+03 0.  0.
         13    1    1    2    0    0 -0.26934799098E+02 -0.13644937122E+02  0.16624269811E+03  0.16896246195E+03  0.10566000000E+00 0. -1.
        994    1    1    2    0    0  0.19615058485E+02 -0.12127486668E+02  0.46358107545E+01  0.17280844075E+03  0.17120000000E+03 0.  0.
        998    1    1    2    0    0  0.73197406128E+01  0.25772423790E+02  0.13291214874E+04  0.13294290973E+04  0.10000000000E+02 0. -1.
</event>
<event>
 5    1  0.1488417E-008  0.3837269E+03  0.7957747E-01  0.3435089E+00
         13   -1    0    0    0    0  0.00000000000E+00  0.00000000000E+00  0.14999999963E+04  0.15000000000E+04  0.10566000000E+00 0. -1.
        994   -1    0    0    0    0 -0.00000000000E+00 -0.00000000000E+00  0.11368683772E-12  0.17120000000E+03  0.17120000000E+03 0.  0.
         13    1    1    2    0    0 -0.83271112996E+01 -0.21928723698E+02  0.13108336857E+03  0.13316557507E+03  0.10566000000E+00 0. -1.
        994    1    1    2    0    0  0.55172004670E+00  0.42807881659E+01  0.23250322420E+01  0.17127018222E+03  0.17120000000E+03 0.  0.
        998    1    1    2    0    0  0.77753912529E+01  0.17647935532E+02  0.13665915955E+04  0.13667642427E+04  0.10000000000E+02 0. -1.
</event>
<event>
 5    1  0.1488417E-008  0.3840949E+03  0.7957747E-01  0.3433520E+00
         13   -1    0    0    0    0  0.00000000000E+00  0.00000000000E+00  0.14999999963E+04  0.15000000000E+04  0.10566000000E+00 0. -1.
        994   -1    0    0    0    0 -0.00000000000E+00 -0.00000000000E+00  0.11368683772E-12  0.17120000000E+03  0.17120000000E+03 0.  0.
         13    1    1    2    0    0  0.10312197467E+02 -0.50740918216E+01  0.34111193645E+02  0.35995451384E+02  0.10566000000E+00 0. -1.
        994    1    1    2    0    0  0.42565590588E+01 -0.20828860391E+02  0.35723066907E+01  0.17255190841E+03  0.17120000000E+03 0.  0.
        998    1    1    2    0    0 -0.14568756526E+02  0.25902952213E+02  0.14623164959E+04  0.14626526402E+04  0.10000000000E+02 0. -1.
</event>
<event>
 5    1  0.1488417E-008  0.3828683E+03  0.7957747E-01  0.3438763E+00
         13   -1    0    0    0    0  0.00000000000E+00  0.00000000000E+00  0.14999999963E+04  0.15000000000E+04  0.10566000000E+00 0. -1.
        994   -1    0    0    0    0 -0.00000000000E+00 -0.00000000000E+00  0.11368683772E-12  0.17120000000E+03  0.17120000000E+03 0.  0.
         13    1    1    2    0    0  0.79184095738E+01 -0.25928391125E+02  0.13294527213E+03  0.13568138864E+03  0.10566000000E+00 0. -1.
        994    1    1    2    0    0 -0.74012842410E+01  0.17796842757E+02  0.39234030004E+01  0.17232625950E+03  0.17120000000E+03 0.  0.
        998    1    1    2    0    0 -0.51712533286E+00  0.81315483674E+01  0.13631313211E+04  0.13631923519E+04  0.10000000000E+02 0. -1.
</event>
<event>
 5    1  0.1488417E-008  0.3858842E+03  0.7957747E-01  0.3425931E+00
         13   -1    0    0    0    0  0.00000000000E+00  0.00000000000E+00  0.14999999963E+04  0.15000000000E+04  0.10566000000E+00 0. -1.
        994   -1    0    0    0    0 -0.00000000000E+00 -0.00000000000E+00  0.11368683772E-12  0.17120000000E+03  0.17120000000E+03 0.  0.
         13    1    1    2    0    0 -0.21948135484E+01 -0.11050589001E+02  0.56956963853E+02  0.58060654657E+02  0.10566000000E+00 0. -1.
        994    1    1    2    0    0 -0.41322598887E+01  0.15788292929E+00  0.12478751618E+01  0.17125448225E+03  0.17120000000E+03 0.  0.
        998    1    1    2    0    0  0.63270734371E+01  0.10892706071E+02  0.14417951573E+04  0.14418848631E+04  0.10000000000E+02 0. -1.
</event>
<event>
 5    1  0.1488417E-008  0.3889039E+03  0.7957747E-01  0.3413282E+00
         13   -1    0    0    0    0  0.00000000000E+00  0.00000000000E+00  0.14999999963E+04  0.15000000000E+04  0.10566000000E+00 0.  1.
        994   -1    0    0    0    0 -0.00000000000E+00 -0.00000000000E+00  0.11368683772E-12  0.17120000000E+03  0.17120000000E+03 0.  0.
         13    1    1    2    0    0 -0.22251569291E+02 -0.13047995256E+03  0.44557399178E+03  0.46481861373E+03  0.10566000000E+00 0.  1.
        994    1    1    2    0    0 -0.19545200734E+00  0.65176862912E+02  0.37401474750E+02  0.18696623218E+03  0.17120000000E+03 0.  0.
        998    1    1    2    0    0  0.22447021299E+02  0.65303089649E+02  0.10170245297E+04  0.10194151541E+04  0.10000000000E+02 0.  1.
</event>
<event>
 5    1  0.1488417E-008  0.3786071E+03  0.7957747E-01  0.3457246E+00
         13   -1    0    0    0    0  0.00000000000E+00  0.00000000000E+00  0.14999999963E+04  0.15000000000E+04  0.10566000000E+00 0.  1.
        994   -1    0    0    0    0 -0.00000000000E+00 -0.00000000000E+00  0.11368683772E-12  0.17120000000E+03  0.17120000000E+03 0.  0.
         13    1    1    2    0    0 -0.13012631994E+02 -0.33199513729E+01  0.16703098283E+02  0.21432576252E+02  0.10566000000E+00 0.  1.
        994    1    1    2    0    0  0.47184545610E+01  0.57333416997E+01  0.50230888648E+01  0.17143455440E+03  0.17120000000E+03 0.  0.
        998    1    1    2    0    0  0.82941774328E+01 -0.24133903267E+01  0.14782738091E+04  0.14783328693E+04  0.10000000000E+02 0.  1.
</event>
<event>
 5    1  0.1488417E-008  0.3737568E+03  0.7957747E-01  0.3478801E+00
         13   -1    0    0    0    0  0.00000000000E+00  0.00000000000E+00  0.14999999963E+04  0.15000000000E+04  0.10566000000E+00 0. -1.
        994   -1    0    0    0    0 -0.00000000000E+00 -0.00000000000E+00  0.11368683772E-12  0.17120000000E+03  0.17120000000E+03 0.  0.
         13    1    1    2    0    0 -0.31856772683E+02 -0.10487022381E+02  0.36957525474E+02  0.49906927950E+02  0.10566000000E+00 0. -1.
        994    1    1    2    0    0  0.32783251088E+02  0.23400745530E+02  0.18708627288E+02  0.17686658582E+03  0.17120000000E+03 0.  0.
        998    1    1    2    0    0 -0.92647840475E+00 -0.12913723149E+02  0.14443338435E+04  0.14444264862E+04  0.10000000000E+02 0. -1.
</event>
<event>
 5    1  0.1488417E-008  0.3685963E+03  0.7957747E-01  0.3502367E+00
         13   -1    0    0    0    0  0.00000000000E+00  0.00000000000E+00  0.14999999963E+04  0.15000000000E+04  0.10566000000E+00 0. -1.
        994   -1    0    0    0    0 -0.00000000000E+00 -0.00000000000E+00  0.11368683772E-12  0.17120000000E+03  0.17120000000E+03 0.  0.
         13    1    1    2    0    0 -0.16717782465E+02  0.19722760452E+02  0.30053966453E+02  0.39644969340E+02  0.10566000000E+00 0. -1.
        994    1    1    2    0    0  0.38406654311E+00 -0.10055500720E+02  0.10356566860E+02  0.17180791332E+03  0.17120000000E+03 0.  0.
        998    1    1    2    0    0  0.16333715922E+02 -0.96672597320E+01  0.14595894630E+04  0.14597471173E+04  0.10000000000E+02 0. -1.
</event>
<event>
 5    1  0.1488417E-008  0.3855952E+03  0.7957747E-01  0.3427152E+00
         13   -1    0    0    0    0  0.00000000000E+00  0.00000000000E+00  0.14999999963E+04  0.15000000000E+04  0.10566000000E+00 0.  1.
        994   -1    0    0    0    0 -0.00000000000E+00 -0.00000000000E+00  0.11368683772E-12  0.17120000000E+03  0.17120000000E+03 0.  0.
         13    1    1    2    0    0 -0.90806405068E+01  0.50707635201E+01  0.40681281961E+02  0.41989862357E+02  0.10566000000E+00 0.  1.
        994    1    1    2    0    0  0.76583116538E+01 -0.85254903836E+00  0.15298246163E+01  0.17138015329E+03  0.17120000000E+03 0.  0.
        998    1    1    2    0    0  0.14223288530E+01 -0.42182144817E+01  0.14577888897E+04  0.14578299844E+04  0.10000000000E+02 0.  1.
</event>
<event>
 5    1  0.1488417E-008  0.3845994E+03  0.7957747E-01  0.3431373E+00
         13   -1    0    0    0    0  0.00000000000E+00  0.00000000000E+00  0.14999999963E+04  0.15000000000E+04  0.10566000000E+00 0. -1.
        994   -1    0    0    0    0 -0.00000000000E+00 -0.00000000000E+00  0.11368683772E-12  0.17120000000E+03  0.17120000000E+03 0.  0.
         13    1    1    2    0    0 -0.13516455434E+02  0.14546354317E+02  0.97535245007E+02  0.99536054644E+02  0.10566000000E+00 0. -1.
        994    1    1    2    0    0  0.14276439809E+02 -0.22511812135E+02  0.41726102506E+01  0.17331315327E+03  0.17120000000E+03 0.  0.
        998    1    1    2    0    0 -0.75998437560E+00  0.79654578184E+01  0.13982921410E+04  0.13983507921E+04  0.10000000000E+02 0. -1.
</event>
<event>
 5    1  0.1488417E-008  0.3840638E+03  0.7957747E-01  0.3433652E+00
         13   -1    0    0    0    0  0.00000000000E+00  0.00000000000E+00  0.14999999963E+04  0.15000000000E+04  0.10566000000E+00 0.  1.
        994   -1    0    0    0    0 -0.00000000000E+00 -0.00000000000E+00  0.11368683772E-12  0.17120000000E+03  0.17120000000E+03 0.  0.
         13    1    1    2    0    0  0.14376381873E+02 -0.27147550495E+01  0.52110756775E+02  0.54125709108E+02  0.10566000000E+00 0.  1.
        994    1    1    2    0    0 -0.14137398930E+01  0.15213164616E+02  0.28660490631E+01  0.17190431430E+03  0.17120000000E+03 0.  0.
        998    1    1    2    0    0 -0.12962641980E+02 -0.12498409567E+02  0.14450231904E+04  0.14451699766E+04  0.10000000000E+02 0.  1.
</event>
<event>
 5    1  0.1488417E-008  0.3838960E+03  0.7957747E-01  0.3434368E+00
         13   -1    0    0    0    0  0.00000000000E+00  0.00000000000E+00  0.14999999963E+04  0.15000000000E+04  0.10566000000E+00 0. -1.
        994   -1    0    0    0    0 -0.00000000000E+00 -0.00000000000E+00  0.11368683772E-12  0.17120000000E+03  0.17120000000E+03 0.  0.
         13    1    1    2    0    0 -0.19670675397E+01  0.10963932965E+02  0.27374037411E+02  0.29553786034E+02  0.10566000000E+00 0. -1.
        994    1    1    2    0    0 -0.21045260015E+01 -0.12566977245E+02  0.27152661971E+01  0.17169499299E+03  0.17120000000E+03 0.  0.
        998    1    1    2    0    0  0.40715935412E+01  0.16030442805E+01  0.14699106927E+04  0.14699512210E+04  0.10000000000E+02 0. -1.
</event>
<event>
 5    1  0.1488417E-008  0.3717989E+03  0.7957747E-01  0.3487664E+00
         13   -1    0    0    0    0  0.00000000000E+00  0.00000000000E+00  0.14999999963E+04  0.15000000000E+04  0.10566000000E+00 0. -1.
        994   -1    0    0    0    0 -0.00000000000E+00 -0.00000000000E+00  0.11368683772E-12  0.17120000000E+03  0.17120000000E+03 0.  0.
         13    1    1    2    0    0 -0.18003600341E+02  0.33558523068E+02  0.89000947920E+02  0.96806425357E+02  0.10566000000E+00 0. -1.
        994    1    1    2    0    0  0.10840317634E+02 -0.37793234892E+01  0.87848161880E+01  0.17180922201E+03  0.17120000000E+03 0.  0.
        998    1    1    2    0    0  0.71632827077E+01 -0.29779199579E+02  0.14022142322E+04  0.14025843526E+04  0.10000000000E+02 0. -1.
</event>
<event>
 5    1  0.1488417E-008  0.3844327E+03  0.7957747E-01  0.3432082E+00
         13   -1    0    0    0    0  0.00000000000E+00  0.00000000000E+00  0.14999999963E+04  0.15000000000E+04  0.10566000000E+00 0. -1.
        994   -1    0    0    0    0 -0.00000000000E+00 -0.00000000000E+00  0.11368683772E-12  0.17120000000E+03  0.17120000000E+03 0.  0.
         13    1    1    2    0    0  0.94518744466E+01 -0.11150730583E+02  0.58784938303E+02  0.60575216537E+02  0.10566000000E+00 0. -1.
        994    1    1    2    0    0  0.34905984782E+01  0.27110606816E+01  0.19763934762E+01  0.17126844502E+03  0.17120000000E+03 0.  0.
        998    1    1    2    0    0 -0.12942472925E+02  0.84396699014E+01  0.14392386645E+04  0.14393563384E+04  0.10000000000E+02 0. -1.
</event>
<event>
 5    1  0.1488417E-008  0.3820151E+03  0.7957747E-01  0.3442431E+00
         13   -1    0    0    0    0  0.00000000000E+00  0.00000000000E+00  0.14999999963E+04  0.15000000000E+04  0.10566000000E+00 0. -1.
        994   -1    0    0    0    0 -0.00000000000E+00 -0.00000000000E+00  0.11368683772E-12  0.17120000000E+03  0.17120000000E+03 0.  0.
         13    1    1    2    0    0 -0.23940774099E+00 -0.16893394010E+02  0.41784300859E+02  0.45070866861E+02  0.10566000000E+00 0. -1.
        994    1    1    2    0    0 -0.73279549407E+01  0.28588044469E+02  0.60170802510E+01  0.17382928541E+03  0.17120000000E+03 0.  0.
        998    1    1    2    0    0  0.75673626817E+01 -0.11694650458E+02  0.14521986152E+04  0.14522998477E+04  0.10000000000E+02 0. -1.
</event>
<event>
 5    1  0.1488417E-008  0.3816081E+03  0.7957747E-01  0.3444186E+00
         13   -1    0    0    0    0  0.00000000000E+00  0.00000000000E+00  0.14999999963E+04  0.15000000000E+04  0.10566000000E+00 0.  1.
        994   -1    0    0    0    0 -0.00000000000E+00 -0.00000000000E+00  0.11368683772E-12  0.17120000000E+03  0.17120000000E+03 0.  0.
         13    1    1    2    0    0  0.28158542165E+02  0.23856230487E+02  0.16190064957E+03  0.16605377059E+03  0.10566000000E+00 0.  1.
        994    1    1    2    0    0 -0.22990244701E+02 -0.58945096739E+02  0.16751111611E+02  0.18328424788E+03  0.17120000000E+03 0.  0.
        998    1    1    2    0    0 -0.51682974642E+01  0.35088866252E+02  0.13213482351E+04  0.13218619815E+04  0.10000000000E+02 0.  1.
</event>
<event>
 5    1  0.1488417E-008  0.3735888E+03  0.7957747E-01  0.3479558E+00
         13   -1    0    0    0    0  0.00000000000E+00  0.00000000000E+00  0.14999999963E+04  0.15000000000E+04  0.10566000000E+00 0. -1.
        994   -1    0    0    0    0 -0.00000000000E+00 -0.00000000000E+00  0.11368683772E-12  0.17120000000E+03  0.17120000000E+03 0.  0.
         13    1    1    2    0    0  0.36213845285E+02  0.20784170347E+02  0.10634013959E+03  0.11424386539E+03  0.10566000000E+00 0. -1.
        994    1    1    2    0    0 -0.40691183028E+02 -0.18620126146E+02  0.14275590440E+02  0.17752665703E+03  0.17120000000E+03 0.  0.
        998    1    1    2    0    0  0.44773377429E+01 -0.21640442017E+01  0.13793842662E+04  0.13794294776E+04  0.10000000000E+02 0. -1.
</event>
<event>
 5    1  0.1488417E-008  0.3749690E+03  0.7957747E-01  0.3473361E+00
         13   -1    0    0    0    0  0.00000000000E+00  0.00000000000E+00  0.14999999963E+04  0.15000000000E+04  0.10566000000E+00 0.  1.
        994   -1    0    0    0    0 -0.00000000000E+00 -0.00000000000E+00  0.11368683772E-12  0.17120000000E+03  0.17120000000E+03 0.  0.
         13    1    1    2    0    0 -0.35286541427E+01  0.25713961113E+02  0.48261458335E+02  0.54798163481E+02  0.10566000000E+00 0.  1.
        994    1    1    2    0    0  0.12886943767E+02 -0.11714375400E+02  0.77264008942E+01  0.17225689299E+03  0.17120000000E+03 0.  0.
        998    1    1    2    0    0 -0.93582896244E+01 -0.13999585714E+02  0.14440121370E+04  0.14441449435E+04  0.10000000000E+02 0.  1.
</event>
<event>
 5    1  0.1488417E-008  0.3775302E+03  0.7957747E-01  0.3461984E+00
         13   -1    0    0    0    0  0.00000000000E+00  0.00000000000E+00  0.14999999963E+04  0.15000000000E+04  0.10566000000E+00 0. -1.
        994   -1    0    0    0    0 -0.00000000000E+00 -0.00000000000E+00  0.11368683772E-12  0.17120000000E+03  0.17120000000E+03 0.  0.
         13    1    1    2    0    0  0.56154355451E+02  0.59752307073E+01  0.33658324024E+03  0.34128771409E+03  0.10566000000E+00 0. -1.
        994    1    1    2    0    0 -0.18973439815E+02  0.10565677914E+02  0.69763228544E+01  0.17271286590E+03  0.17120000000E+03 0.  0.
        998    1    1    2    0    0 -0.37180915637E+02 -0.16540908622E+02  0.11564404332E+04  0.11571994200E+04  0.10000000000E+02 0. -1.
</event>
<event>
 5    1  0.1488417E-008  0.3804780E+03  0.7957747E-01  0.3449080E+00
         13   -1    0    0    0    0  0.00000000000E+00  0.00000000000E+00  0.14999999963E+04  0.15000000000E+04  0.10566000000E+00 0.  1.
        994   -1    0    0    0    0 -0.00000000000E+00 -0.00000000000E+00  0.11368683772E-12  0.17120000000E+03  0.17120000000E+03 0.  0.
         13    1    1    2    0    0 -0.27619670372E+02  0.80936912845E-01  0.92698041462E+02  0.96725336894E+02  0.10566000000E+00 0.  1.
        994    1    1    2    0    0  0.25303003949E+02  0.10406663521E+02  0.63944094609E+01  0.17349025658E+03  0.17120000000E+03 0.  0.
        998    1    1    2    0    0  0.23166664228E+01 -0.10487600433E+02  0.14009075454E+04  0.14009844065E+04  0.10000000000E+02 0.  1.
</event>
<event>
 5    1  0.1488417E-008  0.3843545E+03  0.7957747E-01  0.3432415E+00
         13   -1    0    0    0    0  0.00000000000E+00  0.00000000000E+00  0.14999999963E+04  0.15000000000E+04  0.10566000000E+00 0.  1.
        994   -1    0    0    0    0 -0.00000000000E+00 -0.00000000000E+00  0.11368683772E-12  0.17120000000E+03  0.17120000000E+03 0.  0.
         13    1    1    2    0    0 -0.22468810697E-02 -0.14501197415E+02  0.51509238471E+02  0.53511658015E+02  0.10566000000E+00 0.  1.
        994    1    1    2    0    0  0.21711170697E+01  0.17175883737E+02  0.29393465197E+01  0.17209824081E+03  0.17120000000E+03 0.  0.
        998    1    1    2    0    0 -0.21688701886E+01 -0.26746863213E+01  0.14455514113E+04  0.14455901012E+04  0.10000000000E+02 0.  1.
</event>
<event>
 5    1  0.1488417E-008  0.3689590E+03  0.7957747E-01  0.3500689E+00
         13   -1    0    0    0    0  0.00000000000E+00  0.00000000000E+00  0.14999999963E+04  0.15000000000E+04  0.10566000000E+00 0.  1.
        994   -1    0    0    0    0 -0.00000000000E+00 -0.00000000000E+00  0.11368683772E-12  0.17120000000E+03  0.17120000000E+03 0.  0.
         13    1    1    2    0    0 -0.76901714915E+01 -0.69284221829E+02  0.19149607520E+03  0.20378959766E+03  0.10566000000E+00 0.  1.
        994    1    1    2    0    0 -0.12529732973E+02  0.81720516997E+02  0.34593025242E+02  0.19323911225E+03  0.17120000000E+03 0.  0.
        998    1    1    2    0    0  0.20219904464E+02 -0.12436295168E+02  0.12739108958E+04  0.12741712901E+04  0.10000000000E+02 0.  1.
</event>
<event>
 5    1  0.1488417E-008  0.3718900E+03  0.7957747E-01  0.3487250E+00
         13   -1    0    0    0    0  0.00000000000E+00  0.00000000000E+00  0.14999999963E+04  0.15000000000E+04  0.10566000000E+00 0. -1.
        994   -1    0    0    0    0 -0.00000000000E+00 -0.00000000000E+00  0.11368683772E-12  0.17120000000E+03  0.17120000000E+03 0.  0.
         13    1    1    2    0    0 -0.97442080246E+02 -0.31471104657E+01  0.42234337321E+03  0.43344988103E+03  0.10566000000E+00 0. -1.
        994    1    1    2    0    0  0.92659001272E+02  0.10245771194E+01  0.38385618983E+02  0.19841783191E+03  0.17120000000E+03 0.  0.
        998    1    1    2    0    0  0.47830789738E+01  0.21225333463E+01  0.10392710041E+04  0.10393322871E+04  0.10000000000E+02 0. -1.
</event>
<event>
 5    1  0.1488417E-008  0.3798808E+03  0.7957747E-01  0.3451678E+00
         13   -1    0    0    0    0  0.00000000000E+00  0.00000000000E+00  0.14999999963E+04  0.15000000000E+04  0.10566000000E+00 0.  1.
        994   -1    0    0    0    0 -0.00000000000E+00 -0.00000000000E+00  0.11368683772E-12  0.17120000000E+03  0.17120000000E+03 0.  0.
         13    1    1    2    0    0  0.20216379470E+02 -0.23891831014E+02  0.10514532662E+03  0.10970447786E+03  0.10566000000E+00 0.  1.
        994    1    1    2    0    0 -0.31118058337E+02  0.21895785582E+02  0.90502065600E+01  0.17561066374E+03  0.17120000000E+03 0.  0.
        998    1    1    2    0    0  0.10901678867E+02  0.19960454322E+01  0.13858044631E+04  0.13858848584E+04  0.10000000000E+02 0.  1.
</event>
<event>
 5    1  0.1488417E-008  0.3850017E+03  0.7957747E-01  0.3429665E+00
         13   -1    0    0    0    0  0.00000000000E+00  0.00000000000E+00  0.14999999963E+04  0.15000000000E+04  0.10566000000E+00 0.  1.
        994   -1    0    0    0    0 -0.00000000000E+00 -0.00000000000E+00  0.11368683772E-12  0.17120000000E+03  0.17120000000E+03 0.  0.
         13    1    1    2    0    0  0.12546775185E+02 -0.10549735936E+02  0.82878785162E+02  0.84484452355E+02  0.10566000000E+00 0.  1.
        994    1    1    2    0    0 -0.41903788391E+01  0.10650773356E+02  0.20602034786E+01  0.17159452988E+03  0.17120000000E+03 0.  0.
        998    1    1    2    0    0 -0.83563963455E+01 -0.10103741964E+00  0.14150610076E+04  0.14151210178E+04  0.10000000000E+02 0.  1.
</event>
<event>
 5    1  0.1488417E-008  0.3737297E+03  0.7957747E-01  0.3478923E+00
         13   -1    0    0    0    0  0.00000000000E+00  0.00000000000E+00  0.14999999963E+04  0.15000000000E+04  0.10566000000E+00 0.  1.
        994   -1    0    0    0    0 -0.00000000000E+00 -0.00000000000E+00  0.11368683772E-12  0.17120000000E+03  0.17120000000E+03 0.  0.
         13    1    1    2    0    0  0.39072569971E+02  0.24721299159E+02  0.16227678806E+03  0.16873522295E+03  0.10566000000E+00 0.  1.
        994    1    1    2    0    0  0.45856535728E+01 -0.14241611946E+02  0.80970282335E+01  0.17204317364E+03  0.17120000000E+03 0.  0.
        998    1    1    2    0    0 -0.43658223543E+02 -0.10479687213E+02  0.13296261800E+04  0.13304216034E+04  0.10000000000E+02 0.  1.
</event>
<event>
 5    1  0.1488417E-008  0.3842318E+03  0.7957747E-01  0.3432937E+00
         13   -1    0    0    0    0  0.00000000000E+00  0.00000000000E+00  0.14999999963E+04  0.15000000000E+04  0.10566000000E+00 0. -1.
        994   -1    0    0    0    0 -0.00000000000E+00 -0.00000000000E+00  0.11368683772E-12  0.17120000000E+03  0.17120000000E+03 0.  0.
         13    1    1    2    0    0 -0.20660239607E+02 -0.16436394646E+01  0.11881676543E+03  0.12061087000E+03  0.10566000000E+00 0. -1.
        994    1    1    2    0    0 -0.12289554338E+01  0.39314584061E+01  0.20679799530E+01  0.17126203093E+03  0.17120000000E+03 0.  0.
        998    1    1    2    0    0  0.21889195041E+02 -0.22878189415E+01  0.13791152509E+04  0.13793270991E+04  0.10000000000E+02 0. -1.
</event>
<event>
 5    1  0.1488417E-008  0.3845135E+03  0.7957747E-01  0.3431738E+00
         13   -1    0    0    0    0  0.00000000000E+00  0.00000000000E+00  0.14999999963E+04  0.15000000000E+04  0.10566000000E+00 0.  1.
        994   -1    0    0    0    0 -0.00000000000E+00 -0.00000000000E+00  0.11368683772E-12  0.17120000000E+03  0.17120000000E+03 0.  0.
         13    1    1    2    0    0 -0.14487032114E+02 -0.12162160413E+02  0.92727303098E+02  0.94636970309E+02  0.10566000000E+00 0.  1.
        994    1    1    2    0    0  0.13453906942E+02  0.88919385816E+01  0.27289868750E+01  0.17197953818E+03  0.17120000000E+03 0.  0.
        998    1    1    2    0    0  0.10331251726E+01  0.32702218312E+01  0.14045437063E+04  0.14045834915E+04  0.10000000000E+02 0.  1.
</event>
<event>
 5    1  0.1488417E-008  0.3795556E+03  0.7957747E-01  0.3453096E+00
         13   -1    0    0    0    0  0.00000000000E+00  0.00000000000E+00  0.14999999963E+04  0.15000000000E+04  0.10566000000E+00 0.  1.
        994   -1    0    0    0    0 -0.00000000000E+00 -0.00000000000E+00  0.11368683772E-12  0.17120000000E+03  0.17120000000E+03 0.  0.
         13    1    1    2    0    0 -0.20274711762E+02  0.29171544008E+02  0.15935631266E+03  0.16326814896E+03  0.10566000000E+00 0.  1.
        994    1    1    2    0    0 -0.88329852753E+01 -0.11924354653E+02  0.50952083395E+01  0.17191745988E+03  0.17120000000E+03 0.  0.
        998    1    1    2    0    0  0.29107697037E+02 -0.17247189355E+02  0.13355484753E+04  0.13360143912E+04  0.10000000000E+02 0.  1.
</event>
<event>
 5    1  0.1488417E-008  0.3829671E+03  0.7957747E-01  0.3438340E+00
         13   -1    0    0    0    0  0.00000000000E+00  0.00000000000E+00  0.14999999963E+04  0.15000000000E+04  0.10566000000E+00 0. -1.
        994   -1    0    0    0    0 -0.00000000000E+00 -0.00000000000E+00  0.11368683772E-12  0.17120000000E+03  0.17120000000E+03 0.  0.
         13    1    1    2    0    0 -0.27107904633E+02 -0.12007383235E+02  0.16183091390E+03  0.16452437996E+03  0.10566000000E+00 0. -1.
        994    1    1    2    0    0  0.29116302529E+02 -0.13075356434E+02  0.60225593856E+01  0.17425393895E+03  0.17120000000E+03 0.  0.
        998    1    1    2    0    0 -0.20083978956E+01  0.25082739669E+02  0.13321465230E+04  0.13324216811E+04  0.10000000000E+02 0. -1.
</event>
<event>
 5    1  0.1488417E-008  0.2668526E+03  0.7957747E-01  0.4165344E+00
         13   -1    0    0    0    0  0.00000000000E+00  0.00000000000E+00  0.14999999963E+04  0.15000000000E+04  0.10566000000E+00 0. -1.
        994   -1    0    0    0    0 -0.00000000000E+00 -0.00000000000E+00  0.11368683772E-12  0.17120000000E+03  0.17120000000E+03 0.  0.
         13    1    1    2    0    0  0.19463634970E+03  0.59140357528E+02  0.38628364855E+03  0.43657297078E+03  0.10566000000E+00 0. -1.
        994    1    1    2    0    0 -0.15981894373E+03 -0.62226612308E+02  0.18417497655E+03  0.30437494647E+03  0.17120000000E+03 0.  0.
        998    1    1    2    0    0 -0.34817405976E+02  0.30862547803E+01  0.92954137118E+03  0.93025208275E+03  0.10000000000E+02 0. -1.
</event>
<event>
 5    1  0.1488417E-008  0.3838294E+03  0.7957747E-01  0.3434652E+00
         13   -1    0    0    0    0  0.00000000000E+00  0.00000000000E+00  0.14999999963E+04  0.15000000000E+04  0.10566000000E+00 0. -1.
        994   -1    0    0    0    0 -0.00000000000E+00 -0.00000000000E+00  0.11368683772E-12  0.17120000000E+03  0.17120000000E+03 0.  0.
         13    1    1    2    0    0  0.40663925949E+00 -0.17676656703E+02  0.72825946964E+02  0.74941705765E+02  0.10566000000E+00 0. -1.
        994    1    1    2    0    0  0.27909954395E+01  0.51288427760E+01  0.23250064060E+01  0.17131532430E+03  0.17120000000E+03 0.  0.
        998    1    1    2    0    0 -0.31976346990E+01  0.12547813927E+02  0.14248490429E+04  0.14249429699E+04  0.10000000000E+02 0. -1.
</event>
<event>
 5    1  0.1488417E-008  0.4143432E+03  0.7957747E-01  0.3314023E+00
         13   -1    0    0    0    0  0.00000000000E+00  0.00000000000E+00  0.14999999963E+04  0.15000000000E+04  0.10566000000E+00 0.  1.
        994   -1    0    0    0    0 -0.00000000000E+00 -0.00000000000E+00  0.11368683772E-12  0.17120000000E+03  0.17120000000E+03 0.  0.
         13    1    1    2    0    0 -0.42079303971E+02 -0.19889573916E+02  0.17802504386E+02  0.49831749916E+02  0.10566000000E+00 0.  1.
        994    1    1    2    0    0  0.89601534043E+01 -0.18578288315E+02  0.38422793321E+02  0.17666688482E+03  0.17120000000E+03 0.  0.
        998    1    1    2    0    0  0.33119150566E+02  0.38467862231E+02  0.14437746986E+04  0.14447013653E+04  0.10000000000E+02 0.  1.
</event>
<event>
 5    1  0.1488417E-008  0.3863233E+03  0.7957747E-01  0.3424079E+00
         13   -1    0    0    0    0  0.00000000000E+00  0.00000000000E+00  0.14999999963E+04  0.15000000000E+04  0.10566000000E+00 0.  1.
        994   -1    0    0    0    0 -0.00000000000E+00 -0.00000000000E+00  0.11368683772E-12  0.17120000000E+03  0.17120000000E+03 0.  0.
         13    1    1    2    0    0  0.85153750705E+01 -0.64275414614E+01  0.58974941433E+02  0.59932293322E+02  0.10566000000E+00 0.  1.
        994    1    1    2    0    0 -0.14824241343E+01  0.11811518596E+02  0.14387293346E+01  0.17161940303E+03  0.17120000000E+03 0.  0.
        998    1    1    2    0    0 -0.70329509362E+01 -0.53839771343E+01  0.14395863255E+04  0.14396483037E+04  0.10000000000E+02 0.  1.
</event>
<event>
 5    1  0.1488417E-008  0.3811077E+03  0.7957747E-01  0.3446349E+00
         13   -1    0    0    0    0  0.00000000000E+00  0.00000000000E+00  0.14999999963E+04  0.15000000000E+04  0.10566000000E+00 0. -1.
        994   -1    0    0    0    0 -0.00000000000E+00 -0.00000000000E+00  0.11368683772E-12  0.17120000000E+03  0.17120000000E+03 0.  0.
         13    1    1    2    0    0  0.16669730940E+02 -0.12623591820E+02  0.61365646891E+02  0.64830461841E+02  0.10566000000E+00 0. -1.
        994    1    1    2    0    0 -0.62662627034E+01  0.47702658323E+01  0.37816205262E+01  0.17142275852E+03  0.17120000000E+03 0.  0.
        998    1    1    2    0    0 -0.10403468237E+02  0.78533259874E+01  0.14348527289E+04  0.14349467796E+04  0.10000000000E+02 0. -1.
</event>
<event>
 5    1  0.1488417E-008  0.3838565E+03  0.7957747E-01  0.3434537E+00
         13   -1    0    0    0    0  0.00000000000E+00  0.00000000000E+00  0.14999999963E+04  0.15000000000E+04  0.10566000000E+00 0.  1.
        994   -1    0    0    0    0 -0.00000000000E+00 -0.00000000000E+00  0.11368683772E-12  0.17120000000E+03  0.17120000000E+03 0.  0.
         13    1    1    2    0    0  0.13400626313E+02 -0.21602110296E+01  0.41675102708E+02  0.43829997114E+02  0.10566000000E+00 0.  1.
        994    1    1    2    0    0 -0.79993456030E+01 -0.37313120889E+01  0.24561645494E+01  0.17144499107E+03  0.17120000000E+03 0.  0.
        998    1    1    2    0    0 -0.54012807100E+01  0.58915231185E+01  0.14558687290E+04  0.14559250118E+04  0.10000000000E+02 0.  1.
</event>
<event>
 5    1  0.1488417E-008  0.3821777E+03  0.7957747E-01  0.3441731E+00
         13   -1    0    0    0    0  0.00000000000E+00  0.00000000000E+00  0.14999999963E+04  0.15000000000E+04  0.10566000000E+00 0. -1.
        994   -1    0    0    0    0 -0.00000000000E+00 -0.00000000000E+00  0.11368683772E-12  0.17120000000E+03  0.17120000000E+03 0.  0.
         13    1    1    2    0    0  0.23347204051E+02 -0.19616064181E+03  0.10957825560E+04  0.11134466806E+04  0.10566000000E+00 0. -1.
        994    1    1    2    0    0 -0.16662104399E+02  0.19888485771E+03  0.14898500340E+03  0.30222306925E+03  0.17120000000E+03 0.  0.
        998    1    1    2    0    0 -0.66850996517E+01 -0.27242159029E+01  0.25523243691E+03  0.25553025019E+03  0.10000000000E+02 0.  0.
</event>
<event>
 5    1  0.1488417E-008  0.3807933E+03  0.7957747E-01  0.3447712E+00
         13   -1    0    0    0    0  0.00000000000E+00  0.00000000000E+00  0.14999999963E+04  0.15000000000E+04  0.10566000000E+00 0.  1.
        994   -1    0    0    0    0 -0.00000000000E+00 -0.00000000000E+00  0.11368683772E-12  0.17120000000E+03  0.17120000000E+03 0.  0.
         13    1    1    2    0    0 -0.12982617689E+02  0.26736172080E+02  0.14635522603E+03  0.14934267511E+03  0.10566000000E+00 0.  1.
        994    1    1    2    0    0 -0.26751710132E+01  0.15538380794E+02  0.45625351964E+01  0.17198504163E+03  0.17120000000E+03 0.  0.
        998    1    1    2    0    0  0.15657788702E+02 -0.42274552874E+02  0.13490822351E+04  0.13498722833E+04  0.10000000000E+02 0.  1.
</event>
<event>
 5    1  0.1488417E-008  0.3842740E+03  0.7957747E-01  0.3432757E+00
         13   -1    0    0    0    0  0.00000000000E+00  0.00000000000E+00  0.14999999963E+04  0.15000000000E+04  0.10566000000E+00 0. -1.
        994   -1    0    0    0    0 -0.00000000000E+00 -0.00000000000E+00  0.11368683772E-12  0.17120000000E+03  0.17120000000E+03 0.  0.
         13    1    1    2    0    0  0.39185264243E+01 -0.24563030234E+02  0.14949612496E+03  0.15155131093E+03  0.10566000000E+00 0. -1.
        994    1    1    2    0    0  0.46377245472E+01  0.20313020071E+02  0.34233835794E+01  0.17249720818E+03  0.17120000000E+03 0.  0.
        998    1    1    2    0    0 -0.85562509715E+01  0.42500101633E+01  0.13470804877E+04  0.13471514809E+04  0.10000000000E+02 0. -1.
</event>
<event>
 5    1  0.1488417E-008  0.3827845E+03  0.7957747E-01  0.3439123E+00
         13   -1    0    0    0    0  0.00000000000E+00  0.00000000000E+00  0.14999999963E+04  0.15000000000E+04  0.10566000000E+00 0.  1.
        994   -1    0    0    0    0 -0.00000000000E+00 -0.00000000000E+00  0.11368683772E-12  0.17120000000E+03  0.17120000000E+03 0.  0.
         13    1    1    2    0    0  0.53721483488E+00 -0.23849194062E+02  0.10963695102E+03  0.11220224975E+03  0.10566000000E+00 0.  1.
        994    1    1    2    0    0  0.51469319460E+01  0.56646184463E+01  0.29281472354E+01  0.17139601179E+03  0.17120000000E+03 0.  0.
        998    1    1    2    0    0 -0.56841467809E+01  0.18184575615E+02  0.13874348980E+04  0.13876017385E+04  0.10000000000E+02 0.  1.
</event>
<event>
 5    1  0.1488417E-008  0.4237631E+03  0.7957747E-01  0.3280258E+00
         13   -1    0    0    0    0  0.00000000000E+00  0.00000000000E+00  0.14999999963E+04  0.15000000000E+04  0.10566000000E+00 0.  1.
        994   -1    0    0    0    0 -0.00000000000E+00 -0.00000000000E+00  0.11368683772E-12  0.17120000000E+03  0.17120000000E+03 0.  0.
         13    1    1    2    0    0 -0.20105297213E+02 -0.15635821992E+02 -0.10324404494E+02  0.27482838238E+02  0.10566000000E+00 0.  1.
        994    1    1    2    0    0  0.16800748856E+02  0.19104931573E+02  0.45647539866E+02  0.17899832812E+03  0.17120000000E+03 0.  0.
        998    1    1    2    0    0  0.33045483573E+01 -0.34691095804E+01  0.14646768609E+04  0.14647188336E+04  0.10000000000E+02 0.  1.
</event>
<event>
 5    1  0.1488417E-008  0.3782095E+03  0.7957747E-01  0.3458992E+00
         13   -1    0    0    0    0  0.00000000000E+00  0.00000000000E+00  0.14999999963E+04  0.15000000000E+04  0.10566000000E+00 0. -1.
        994   -1    0    0    0    0 -0.00000000000E+00 -0.00000000000E+00  0.11368683772E-12  0.17120000000E+03  0.17120000000E+03 0.  0.
         13    1    1    2    0    0 -0.63853578599E+00  0.13508300149E+02  0.15884099156E+02  0.20861391873E+02  0.10566000000E+00 0. -1.
        994    1    1    2    0    0  0.13844707185E+01 -0.11590553272E+02  0.54980813855E+01  0.17168554564E+03  0.17120000000E+03 0.  0.
        998    1    1    2    0    0 -0.74593493248E+00 -0.19177468768E+01  0.14786178157E+04  0.14786530625E+04  0.10000000000E+02 0. -1.
</event>
<event>
 5    1  0.1488417E-008  0.3856556E+03  0.7957747E-01  0.3426896E+00
         13   -1    0    0    0    0  0.00000000000E+00  0.00000000000E+00  0.14999999963E+04  0.15000000000E+04  0.10566000000E+00 0.  1.
        994   -1    0    0    0    0 -0.00000000000E+00 -0.00000000000E+00  0.11368683772E-12  0.17120000000E+03  0.17120000000E+03 0.  0.
         13    1    1    2    0    0 -0.81821127175E+01  0.14305814674E+02  0.99443908980E+02  0.10080032490E+03  0.10566000000E+00 0.  1.
        994    1    1    2    0    0 -0.27707932065E+01 -0.21014532520E+02  0.27807863633E+01  0.17252959353E+03  0.17120000000E+03 0.  0.
        998    1    1    2    0    0  0.10952905924E+02  0.67087178464E+01  0.13977753009E+04  0.13978700816E+04  0.10000000000E+02 0.  1.
</event>
<event>
 5    1  0.1488417E-008  0.3816829E+03  0.7957747E-01  0.3443863E+00
         13   -1    0    0    0    0  0.00000000000E+00  0.00000000000E+00  0.14999999963E+04  0.15000000000E+04  0.10566000000E+00 0. -1.
        994   -1    0    0    0    0 -0.00000000000E+00 -0.00000000000E+00  0.11368683772E-12  0.17120000000E+03  0.17120000000E+03 0.  0.
         13    1    1    2    0    0 -0.28113869704E+02  0.23800419798E+02  0.20825347453E+03  0.21148609995E+03  0.10566000000E+00 0. -1.
        994    1    1    2    0    0  0.22984844933E+02 -0.36664033644E+01  0.50891106690E+01  0.17284989053E+03  0.17120000000E+03 0.  0.
        998    1    1    2    0    0  0.51290247703E+01 -0.20134016434E+02  0.12866574111E+04  0.12868640095E+04  0.10000000000E+02 0. -1.
</event>
<event>
 5    1  0.1488417E-008  0.3848868E+03  0.7957747E-01  0.3430153E+00
         13   -1    0    0    0    0  0.00000000000E+00  0.00000000000E+00  0.14999999963E+04  0.15000000000E+04  0.10566000000E+00 0. -1.
        994   -1    0    0    0    0 -0.00000000000E+00 -0.00000000000E+00  0.11368683772E-12  0.17120000000E+03  0.17120000000E+03 0.  0.
         13    1    1    2    0    0  0.57736925472E+01  0.12397360539E+02  0.53872285133E+02  0.55581150973E+02  0.10566000000E+00 0. -1.
        994    1    1    2    0    0  0.10466362098E+02 -0.20604842049E+02  0.34454613430E+01  0.17278719702E+03  0.17120000000E+03 0.  0.
        998    1    1    2    0    0 -0.16240054646E+02  0.82074815099E+01  0.14426822498E+04  0.14428316520E+04  0.10000000000E+02 0. -1.
</event>
<event>
 5    1  0.1488417E-008  0.3816703E+03  0.7957747E-01  0.3443918E+00
         13   -1    0    0    0    0  0.00000000000E+00  0.00000000000E+00  0.14999999963E+04  0.15000000000E+04  0.10566000000E+00 0. -1.
        994   -1    0    0    0    0 -0.00000000000E+00 -0.00000000000E+00  0.11368683772E-12  0.17120000000E+03  0.17120000000E+03 0.  0.
         13    1    1    2    0    0 -0.92399542094E+01  0.86379891944E+01  0.24000781160E+02  0.27130062135E+02  0.10566000000E+00 0. -1.
        994    1    1    2    0    0 -0.28548703426E+01  0.43098332129E+01  0.33812183632E+01  0.17131140530E+03  0.17120000000E+03 0.  0.
        998    1    1    2    0    0  0.12094824552E+02 -0.12947822407E+02  0.14726179968E+04  0.14727585326E+04  0.10000000000E+02 0. -1.
</event>
<event>
 5    1  0.1488417E-008  0.3804473E+03  0.7957747E-01  0.3449213E+00
         13   -1    0    0    0    0  0.00000000000E+00  0.00000000000E+00  0.14999999963E+04  0.15000000000E+04  0.10566000000E+00 0. -1.
        994   -1    0    0    0    0 -0.00000000000E+00 -0.00000000000E+00  0.11368683772E-12  0.17120000000E+03  0.17120000000E+03 0.  0.
         13    1    1    2    0    0 -0.37254589640E+02 -0.14438381322E+02  0.19172555785E+03  0.19584450976E+03  0.10566000000E+00 0. -1.
        994    1    1    2    0    0  0.24952411943E+02  0.21494707156E+02  0.75365162852E+01  0.17450181768E+03  0.17120000000E+03 0.  0.
        998    1    1    2    0    0  0.12302177697E+02 -0.70563258338E+01  0.13007379221E+04  0.13008536726E+04  0.10000000000E+02 0. -1.
</event>
<event>
 5    1  0.1488417E-008  0.3844215E+03  0.7957747E-01  0.3432130E+00
         13   -1    0    0    0    0  0.00000000000E+00  0.00000000000E+00  0.14999999963E+04  0.15000000000E+04  0.10566000000E+00 0.  1.
        994   -1    0    0    0    0 -0.00000000000E+00 -0.00000000000E+00  0.11368683772E-12  0.17120000000E+03  0.17120000000E+03 0.  0.
         13    1    1    2    0    0  0.19506203787E+02  0.24906689034E+00  0.10631241344E+03  0.10808743884E+03  0.10566000000E+00 0.  1.
        994    1    1    2    0    0 -0.34501055980E+01  0.14641060976E+02  0.26634962896E+01  0.17188018533E+03  0.17120000000E+03 0.  0.
        998    1    1    2    0    0 -0.16056098189E+02 -0.14890127866E+02  0.13910240866E+04  0.13912323758E+04  0.10000000000E+02 0.  1.
</event>
<event>
 5    1  0.1488417E-008  0.3789031E+03  0.7957747E-01  0.3455949E+00
         13   -1    0    0    0    0  0.00000000000E+00  0.00000000000E+00  0.14999999963E+04  0.15000000000E+04  0.10566000000E+00 0.  1.
        994   -1    0    0    0    0 -0.00000000000E+00 -0.00000000000E+00  0.11368683772E-12  0.17120000000E+03  0.17120000000E+03 0.  0.
         13    1    1    2    0    0 -0.35752399729E+02  0.11715585406E+02  0.14744633367E+03  0.15217069858E+03  0.10566000000E+00 0.  1.
        994    1    1    2    0    0  0.22479187830E+02 -0.95121694372E+01  0.66893981010E+01  0.17306063475E+03  0.17120000000E+03 0.  0.
        998    1    1    2    0    0  0.13273211899E+02 -0.22034159692E+01  0.13458642645E+04  0.13459686667E+04  0.10000000000E+02 0.  1.
</event>
<event>
 5    1  0.1488417E-008  0.3756529E+03  0.7957747E-01  0.3470308E+00
         13   -1    0    0    0    0  0.00000000000E+00  0.00000000000E+00  0.14999999963E+04  0.15000000000E+04  0.10566000000E+00 0.  1.
        994   -1    0    0    0    0 -0.00000000000E+00 -0.00000000000E+00  0.11368683772E-12  0.17120000000E+03  0.17120000000E+03 0.  0.
         13    1    1    2    0    0 -0.33894417949E+01 -0.10415989324E+02  0.61354907770E+01  0.12555339915E+02  0.10566000000E+00 0.  1.
        994    1    1    2    0    0 -0.13374760873E+02  0.39611905266E+02  0.12295636127E+02  0.17665958772E+03  0.17120000000E+03 0.  0.
        998    1    1    2    0    0  0.16764202668E+02 -0.29195915941E+02  0.14815688694E+04  0.14819850724E+04  0.10000000000E+02 0.  1.
</event>
<event>
 5    1  0.1488417E-008  0.3782158E+03  0.7957747E-01  0.3458964E+00
         13   -1    0    0    0    0  0.00000000000E+00  0.00000000000E+00  0.14999999963E+04  0.15000000000E+04  0.10566000000E+00 0.  1.
        994   -1    0    0    0    0 -0.00000000000E+00 -0.00000000000E+00  0.11368683772E-12  0.17120000000E+03  0.17120000000E+03 0.  0.
         13    1    1    2    0    0 -0.99549851791E+02  0.74512480228E+02  0.47416630440E+03  0.49019993685E+03  0.10566000000E+00 0.  1.
        994    1    1    2    0    0  0.29542093263E+02 -0.10309216789E+03  0.58015425133E+02  0.21018077911E+03  0.17120000000E+03 0.  0.
        998    1    1    2    0    0  0.70007758528E+02  0.28579687662E+02  0.96781826675E+03  0.97081928404E+03  0.10000000000E+02 0.  1.
</event>
<event>
 5    1  0.1488417E-008  0.3837451E+03  0.7957747E-01  0.3435012E+00
         13   -1    0    0    0    0  0.00000000000E+00  0.00000000000E+00  0.14999999963E+04  0.15000000000E+04  0.10566000000E+00 0.  1.
        994   -1    0    0    0    0 -0.00000000000E+00 -0.00000000000E+00  0.11368683772E-12  0.17120000000E+03  0.17120000000E+03 0.  0.
         13    1    1    2    0    0  0.10387728057E+02 -0.11034562439E+02  0.49095931377E+02  0.51381787671E+02  0.10566000000E+00 0.  1.
        994    1    1    2    0    0 -0.14324916375E+02  0.77617870708E+01  0.31314596240E+01  0.17200201919E+03  0.17120000000E+03 0.  0.
        998    1    1    2    0    0  0.39371883182E+01  0.32727753685E+01  0.14477726053E+04  0.14478161931E+04  0.10000000000E+02 0.  1.
</event>
<event>
 5    1  0.1488417E-008  0.3836302E+03  0.7957747E-01  0.3435503E+00
         13   -1    0    0    0    0  0.00000000000E+00  0.00000000000E+00  0.14999999963E+04  0.15000000000E+04  0.10566000000E+00 0. -1.
        994   -1    0    0    0    0 -0.00000000000E+00 -0.00000000000E+00  0.11368683772E-12  0.17120000000E+03  0.17120000000E+03 0.  0.
         13    1    1    2    0    0  0.60165960474E+01 -0.21764757839E+02  0.12003467303E+03  0.12214023909E+03  0.10566000000E+00 0. -1.
        994    1    1    2    0    0 -0.60323149744E+01  0.33621418079E+00  0.24323528209E+01  0.17132384015E+03  0.17120000000E+03 0.  0.
        998    1    1    2    0    0  0.15718926989E-01  0.21428543658E+02  0.13775329704E+04  0.13777359208E+04  0.10000000000E+02 0. -1.
</event>
<event>
 5    1  0.1488417E-008  0.3825493E+03  0.7957747E-01  0.3440133E+00
         13   -1    0    0    0    0  0.00000000000E+00  0.00000000000E+00  0.14999999963E+04  0.15000000000E+04  0.10566000000E+00 0.  1.
        994   -1    0    0    0    0 -0.00000000000E+00 -0.00000000000E+00  0.11368683772E-12  0.17120000000E+03  0.17120000000E+03 0.  0.
         13    1    1    2    0    0 -0.22550613726E+02  0.27416638700E+02  0.19259129765E+03  0.19583569989E+03  0.10566000000E+00 0.  1.
        994    1    1    2    0    0  0.20756378282E+02 -0.30291976320E+02  0.73347264981E+01  0.17524745157E+03  0.17120000000E+03 0.  0.
        998    1    1    2    0    0  0.17942354435E+01  0.28753376200E+01  0.13000739721E+04  0.13001168485E+04  0.10000000000E+02 0.  0.
</event>
<event>
 5    1  0.1488417E-008  0.3710984E+03  0.7957747E-01  0.3490858E+00
         13   -1    0    0    0    0  0.00000000000E+00  0.00000000000E+00  0.14999999963E+04  0.15000000000E+04  0.10566000000E+00 0. -1.
        994   -1    0    0    0    0 -0.00000000000E+00 -0.00000000000E+00  0.11368683772E-12  0.17120000000E+03  0.17120000000E+03 0.  0.
         13    1    1    2    0    0 -0.31723587161E+01 -0.14555392239E+02  0.88651473595E+01  0.17335665686E+02  0.10566000000E+00 0. -1.
        994    1    1    2    0    0  0.96647747808E+01  0.82038004741E+01  0.92498289910E+01  0.17191774065E+03  0.17120000000E+03 0.  0.
        998    1    1    2    0    0 -0.64924160647E+01  0.63515917646E+01  0.14818850199E+04  0.14819465937E+04  0.10000000000E+02 0. -1.
</event>
<event>
 5    1  0.1488417E-008  0.3704767E+03  0.7957747E-01  0.3493703E+00
         13   -1    0    0    0    0  0.00000000000E+00  0.00000000000E+00  0.14999999963E+04  0.15000000000E+04  0.10566000000E+00 0. -1.
        994   -1    0    0    0    0 -0.00000000000E+00 -0.00000000000E+00  0.11368683772E-12  0.17120000000E+03  0.17120000000E+03 0.  0.
         13    1    1    2    0    0  0.53771958964E+02 -0.27523664373E+03  0.10129447214E+04  0.10510488349E+04  0.10566000000E+00 0. -1.
        994    1    1    2    0    0 -0.60531583287E+02  0.27026355778E+03  0.33366445690E+03  0.46620582691E+03  0.17120000000E+03 0.  0.
        998    1    1    2    0    0  0.67596243225E+01  0.49730859410E+01  0.15339081796E+03  0.15394533815E+03  0.10000000000E+02 0. -1.
</event>
<event>
 5    1  0.1488417E-008  0.3830631E+03  0.7957747E-01  0.3437928E+00
         13   -1    0    0    0    0  0.00000000000E+00  0.00000000000E+00  0.14999999963E+04  0.15000000000E+04  0.10566000000E+00 0.  1.
        994   -1    0    0    0    0 -0.00000000000E+00 -0.00000000000E+00  0.11368683772E-12  0.17120000000E+03  0.17120000000E+03 0.  0.
         13    1    1    2    0    0 -0.32441026445E+00 -0.13574300577E+02  0.33913429174E+02  0.36530791404E+02  0.10566000000E+00 0.  1.
        994    1    1    2    0    0 -0.13728748473E+01  0.15121043594E+02  0.33581065171E+01  0.17190476324E+03  0.17120000000E+03 0.  0.
        998    1    1    2    0    0  0.16972851117E+01 -0.15467430165E+01  0.14627284606E+04  0.14627644454E+04  0.10000000000E+02 0.  1.
</event>
<event>
 5    1  0.1488417E-008  0.3797102E+03  0.7957747E-01  0.3452421E+00
         13   -1    0    0    0    0  0.00000000000E+00  0.00000000000E+00  0.14999999963E+04  0.15000000000E+04  0.10566000000E+00 0.  1.
        994   -1    0    0    0    0 -0.00000000000E+00 -0.00000000000E+00  0.11368683772E-12  0.17120000000E+03  0.17120000000E+03 0.  0.
         13    1    1    2    0    0 -0.11321506301E+01 -0.31720431097E+02  0.13205810296E+03  0.13581907538E+03  0.10566000000E+00 0.  1.
        994    1    1    2    0    0 -0.41761050655E+01 -0.23653619170E+01  0.43565733185E+01  0.17132266202E+03  0.17120000000E+03 0.  0.
        998    1    1    2    0    0  0.53082556955E+01  0.34085793014E+02  0.13635853200E+04  0.13640582626E+04  0.10000000000E+02 0.  1.
</event>
<event>
 5    1  0.2495145E-008  0.3862134E+03  0.7957747E-01  0.3424542E+00
         13   -1    0    0    0    0  0.00000000000E+00  0.00000000000E+00  0.14999999963E+04  0.15000000000E+04  0.10566000000E+00 0.  1.
        994   -1    0    0    0    0 -0.00000000000E+00 -0.00000000000E+00  0.11368683772E-12  0.17120000000E+03  0.17120000000E+03 0.  0.
         13    1    1    2    0    0  0.47205417553E+01 -0.93777679883E+01  0.54314059739E+02  0.55319565222E+02  0.10566000000E+00 0.  1.
        994    1    1    2    0    0 -0.31430309385E+01  0.65838998313E+01  0.12032841604E+01  0.17135960514E+03  0.17120000000E+03 0.  0.
        998    1    1    2    0    0 -0.15775108168E+01  0.27938681571E+01  0.14444826524E+04  0.14445208296E+04  0.10000000000E+02 0.  1.
</event>
<event>
 5    1  0.1488417E-008  0.3835121E+03  0.7957747E-01  0.3436007E+00
         13   -1    0    0    0    0  0.00000000000E+00  0.00000000000E+00  0.14999999963E+04  0.15000000000E+04  0.10566000000E+00 0. -1.
        994   -1    0    0    0    0 -0.00000000000E+00 -0.00000000000E+00  0.11368683772E-12  0.17120000000E+03  0.17120000000E+03 0.  0.
         13    1    1    2    0    0 -0.12856859879E+02  0.58668010491E+01  0.43816966549E+02  0.46039721134E+02  0.10566000000E+00 0. -1.
        994    1    1    2    0    0  0.19583697319E+01  0.11157846858E+02  0.27948725662E+01  0.17159715636E+03  0.17120000000E+03 0.  0.
        998    1    1    2    0    0  0.10898490147E+02 -0.17024647907E+02  0.14533881572E+04  0.14535631225E+04  0.10000000000E+02 0. -1.
</event>
<event>
 5    1  0.1488417E-008  0.3713815E+03  0.7957747E-01  0.3489566E+00
         13   -1    0    0    0    0  0.00000000000E+00  0.00000000000E+00  0.14999999963E+04  0.15000000000E+04  0.10566000000E+00 0. -1.
        994   -1    0    0    0    0 -0.00000000000E+00 -0.00000000000E+00  0.11368683772E-12  0.17120000000E+03  0.17120000000E+03 0.  0.
         13    1    1    2    0    0  0.49730992732E+02  0.15949373177E+02  0.10292441937E+03  0.11541664269E+03  0.10566000000E+00 0. -1.
        994    1    1    2    0    0 -0.59377997174E+02 -0.87470929734E+01  0.24435507056E+02  0.18305406903E+03  0.17120000000E+03 0.  0.
        998    1    1    2    0    0  0.96470044420E+01 -0.72022802041E+01  0.13726400699E+04  0.13727292883E+04  0.10000000000E+02 0. -1.
</event>
<event>
 5    1  0.1488417E-008  0.3813799E+03  0.7957747E-01  0.3445172E+00
         13   -1    0    0    0    0  0.00000000000E+00  0.00000000000E+00  0.14999999963E+04  0.15000000000E+04  0.10566000000E+00 0. -1.
        994   -1    0    0    0    0 -0.00000000000E+00 -0.00000000000E+00  0.11368683772E-12  0.17120000000E+03  0.17120000000E+03 0.  0.
         13    1    1    2    0    0  0.14200424946E+01 -0.17361352743E+02  0.47083688586E+02  0.50202768695E+02  0.10566000000E+00 0. -1.
        994    1    1    2    0    0  0.10820305036E+02 -0.11166535655E+02  0.42431621995E+01  0.17195701482E+03  0.17120000000E+03 0.  0.
        998    1    1    2    0    0 -0.12240347531E+02  0.28527888397E+02  0.14486731455E+04  0.14490402165E+04  0.10000000000E+02 0. -1.
</event>
<event>
 5    1  0.1488417E-008  0.3798694E+03  0.7957747E-01  0.3451727E+00
         13   -1    0    0    0    0  0.00000000000E+00  0.00000000000E+00  0.14999999963E+04  0.15000000000E+04  0.10566000000E+00 0. -1.
        994   -1    0    0    0    0 -0.00000000000E+00 -0.00000000000E+00  0.11368683772E-12  0.17120000000E+03  0.17120000000E+03 0.  0.
         13    1    1    2    0    0  0.12453632424E+02 -0.19976944208E+01  0.18354870983E+02  0.22270972057E+02  0.10566000000E+00 0. -1.
        994    1    1    2    0    0  0.15586928255E+02 -0.10162424016E+02  0.53578434687E+01  0.17229153688E+03  0.17120000000E+03 0.  0.
        998    1    1    2    0    0 -0.28040560678E+02  0.12160118436E+02  0.14762872818E+04  0.14766374911E+04  0.10000000000E+02 0. -1.
</event>
<event>
 5    1  0.1488417E-008  0.3846109E+03  0.7957747E-01  0.3431324E+00
         13   -1    0    0    0    0  0.00000000000E+00  0.00000000000E+00  0.14999999963E+04  0.15000000000E+04  0.10566000000E+00 0. -1.
        994   -1    0    0    0    0 -0.00000000000E+00 -0.00000000000E+00  0.11368683772E-12  0.17120000000E+03  0.17120000000E+03 0.  0.
         13    1    1    2    0    0 -0.61005390670E+02 -0.85260860110E+02  0.58453167079E+03  0.59385886983E+03  0.10566000000E+00 0. -1.
        994    1    1    2    0    0  0.10307819002E+03  0.12959550444E+03  0.98037160188E+02  0.25756714233E+03  0.17120000000E+03 0.  0.
        998    1    1    2    0    0 -0.42072799354E+02 -0.44334644331E+02  0.81743116530E+03  0.81977398784E+03  0.10000000000E+02 0. -1.
</event>
<event>
 5    1  0.1488417E-008  0.3845908E+03  0.7957747E-01  0.3431410E+00
         13   -1    0    0    0    0  0.00000000000E+00  0.00000000000E+00  0.14999999963E+04  0.15000000000E+04  0.10566000000E+00 0. -1.
        994   -1    0    0    0    0 -0.00000000000E+00 -0.00000000000E+00  0.11368683772E-12  0.17120000000E+03  0.17120000000E+03 0.  0.
         13    1    1    2    0    0 -0.19902223382E+02 -0.73114709789E+01  0.12127716484E+03  0.12311668441E+03  0.10566000000E+00 0. -1.
        994    1    1    2    0    0  0.11756946326E+02  0.96958736749E+01  0.25985830608E+01  0.17189656305E+03  0.17120000000E+03 0.  0.
        998    1    1    2    0    0  0.81452770567E+01 -0.23844026960E+01  0.13761242484E+04  0.13761867525E+04  0.10000000000E+02 0. -1.
</event>
<event>
 5    1  0.1488417E-008  0.3722444E+03  0.7957747E-01  0.3485639E+00
         13   -1    0    0    0    0  0.00000000000E+00  0.00000000000E+00  0.14999999963E+04  0.15000000000E+04  0.10566000000E+00 0. -1.
        994   -1    0    0    0    0 -0.00000000000E+00 -0.00000000000E+00  0.11368683772E-12  0.17120000000E+03  0.17120000000E+03 0.  0.
         13    1    1    2    0    0  0.27839327456E+02 -0.74534426037E+02  0.23149282932E+03  0.24478429281E+03  0.10566000000E+00 0. -1.
        994    1    1    2    0    0 -0.79817634066E+02  0.11535098031E+03  0.78958506913E+02  0.23499061509E+03  0.17120000000E+03 0.  0.
        998    1    1    2    0    0  0.51978306610E+02 -0.40816554273E+02  0.11895486600E+04  0.11914250921E+04  0.10000000000E+02 0. -1.
</event>
<event>
 5    1  0.1488417E-008  0.3765932E+03  0.7957747E-01  0.3466128E+00
         13   -1    0    0    0    0  0.00000000000E+00  0.00000000000E+00  0.14999999963E+04  0.15000000000E+04  0.10566000000E+00 0.  1.
        994   -1    0    0    0    0 -0.00000000000E+00 -0.00000000000E+00  0.11368683772E-12  0.17120000000E+03  0.17120000000E+03 0.  0.
         13    1    1    2    0    0  0.62218249673E+02 -0.77606548692E+02  0.43409408720E+03  0.44534433274E+03  0.10566000000E+00 0.  1.
        994    1    1    2    0    0 -0.10944977191E+03  0.80206307720E+02  0.70892374960E+02  0.22966818064E+03  0.17120000000E+03 0.  0.
        998    1    1    2    0    0  0.47231522236E+02 -0.25997590273E+01  0.99501353412E+03  0.99618748663E+03  0.10000000000E+02 0.  1.
</event>
<event>
 5    1  0.1488417E-008  0.3846207E+03  0.7957747E-01  0.3431282E+00
         13   -1    0    0    0    0  0.00000000000E+00  0.00000000000E+00  0.14999999963E+04  0.15000000000E+04  0.10566000000E+00 0.  1.
        994   -1    0    0    0    0 -0.00000000000E+00 -0.00000000000E+00  0.11368683772E-12  0.17120000000E+03  0.17120000000E+03 0.  0.
         13    1    1    2    0    0  0.12827424566E+02 -0.15312100467E+02  0.11428157187E+03  0.11601418911E+03  0.10566000000E+00 0.  1.
        994    1    1    2    0    0 -0.95147152205E+01  0.16331159024E+01  0.21254757292E+01  0.17148514373E+03  0.17120000000E+03 0.  0.
        998    1    1    2    0    0 -0.33127093451E+01  0.13678984565E+02  0.13835929487E+04  0.13837006672E+04  0.10000000000E+02 0.  1.
</event>
<event>
 5    1  0.1488417E-008  0.3782672E+03  0.7957747E-01  0.3458738E+00
         13   -1    0    0    0    0  0.00000000000E+00  0.00000000000E+00  0.14999999963E+04  0.15000000000E+04  0.10566000000E+00 0. -1.
        994   -1    0    0    0    0 -0.00000000000E+00 -0.00000000000E+00  0.11368683772E-12  0.17120000000E+03  0.17120000000E+03 0.  0.
         13    1    1    2    0    0 -0.34051685618E+02  0.71640746346E+02  0.43464203839E+03  0.44182080817E+03  0.10566000000E+00 0. -1.
        994    1    1    2    0    0  0.25169545050E+02 -0.77970715046E+02  0.27922944856E+02  0.19183865422E+03  0.17120000000E+03 0.  0.
        998    1    1    2    0    0  0.88821405687E+01  0.63299687003E+01  0.10374350130E+04  0.10375405376E+04  0.10000000000E+02 0. -1.
</event>
<event>
 5    1  0.1488417E-008  0.3832157E+03  0.7957747E-01  0.3437275E+00
         13   -1    0    0    0    0  0.00000000000E+00  0.00000000000E+00  0.14999999963E+04  0.15000000000E+04  0.10566000000E+00 0.  1.
        994   -1    0    0    0    0 -0.00000000000E+00 -0.00000000000E+00  0.11368683772E-12  0.17120000000E+03  0.17120000000E+03 0.  0.
         13    1    1    2    0    0 -0.15555406692E+02 -0.23161904887E+02  0.13800770806E+03  0.14079979816E+03  0.10566000000E+00 0.  1.
        994    1    1    2    0    0  0.23680373949E+02  0.21930883843E+02  0.59720412077E+01  0.17431818337E+03  0.17120000000E+03 0.  0.
        998    1    1    2    0    0 -0.81249672569E+01  0.12310210447E+01  0.13560202470E+04  0.13560820185E+04  0.10000000000E+02 0.  1.
</event>
<event>
 5    1  0.1488417E-008  0.3806693E+03  0.7957747E-01  0.3448250E+00
         13   -1    0    0    0    0  0.00000000000E+00  0.00000000000E+00  0.14999999963E+04  0.15000000000E+04  0.10566000000E+00 0. -1.
        994   -1    0    0    0    0 -0.00000000000E+00 -0.00000000000E+00  0.11368683772E-12  0.17120000000E+03  0.17120000000E+03 0.  0.
         13    1    1    2    0    0  0.18929056166E+02 -0.13369643445E+02  0.76927146319E+02  0.80342103146E+02  0.10566000000E+00 0. -1.
        994    1    1    2    0    0  0.98122501716E+01  0.18809572969E+01  0.41287053043E+01  0.17154097021E+03  0.17120000000E+03 0.  0.
        998    1    1    2    0    0 -0.28741306337E+02  0.11488686149E+02  0.14189441447E+04  0.14193169266E+04  0.10000000000E+02 0. -1.
</event>
<event>
 5    1  0.1488417E-008  0.3827892E+03  0.7957747E-01  0.3439103E+00
         13   -1    0    0    0    0  0.00000000000E+00  0.00000000000E+00  0.14999999963E+04  0.15000000000E+04  0.10566000000E+00 0. -1.
        994   -1    0    0    0    0 -0.00000000000E+00 -0.00000000000E+00  0.11368683772E-12  0.17120000000E+03  0.17120000000E+03 0.  0.
         13    1    1    2    0    0  0.16962315566E+02 -0.15678859730E+02  0.90980121713E+02  0.93866610159E+02  0.10566000000E+00 0. -1.
        994    1    1    2    0    0 -0.10640317648E+02  0.25621534242E+02  0.52853957615E+01  0.17351384609E+03  0.17120000000E+03 0.  0.
        998    1    1    2    0    0 -0.63219979185E+01 -0.99426745115E+01  0.14037344788E+04  0.14038195438E+04  0.10000000000E+02 0. -1.
</event>
<event>
 5    1  0.1488417E-008  0.3853948E+03  0.7957747E-01  0.3427999E+00
         13   -1    0    0    0    0  0.00000000000E+00  0.00000000000E+00  0.14999999963E+04  0.15000000000E+04  0.10566000000E+00 0. -1.
        994   -1    0    0    0    0 -0.00000000000E+00 -0.00000000000E+00  0.11368683772E-12  0.17120000000E+03  0.17120000000E+03 0.  0.
         13    1    1    2    0    0 -0.10535016847E+02 -0.74798256752E+01  0.57283142041E+02  0.58722260670E+02  0.10566000000E+00 0. -1.
        994    1    1    2    0    0  0.13940266367E+02  0.69772973889E+00  0.20743692973E+01  0.17178056020E+03  0.17120000000E+03 0.  0.
        998    1    1    2    0    0 -0.34052495204E+01  0.67820959363E+01  0.14406424849E+04  0.14406971791E+04  0.10000000000E+02 0. -1.
</event>
<event>
 5    1  0.1488417E-008  0.3856745E+03  0.7957747E-01  0.3426817E+00
         13   -1    0    0    0    0  0.00000000000E+00  0.00000000000E+00  0.14999999963E+04  0.15000000000E+04  0.10566000000E+00 0. -1.
        994   -1    0    0    0    0 -0.00000000000E+00 -0.00000000000E+00  0.11368683772E-12  0.17120000000E+03  0.17120000000E+03 0.  0.
         13    1    1    2    0    0  0.90754086070E+01 -0.73645885668E+01  0.53341302346E+02  0.54606830215E+02  0.10566000000E+00 0. -1.
        994    1    1    2    0    0 -0.56341919241E+01  0.42697148242E+01  0.14596402994E+01  0.17135210863E+03  0.17120000000E+03 0.  0.
        998    1    1    2    0    0 -0.34412166829E+01  0.30948737426E+01  0.14451990536E+04  0.14452410612E+04  0.10000000000E+02 0. -1.
</event>
<event>
 5    1  0.1488417E-008  0.3827594E+03  0.7957747E-01  0.3439231E+00
         13   -1    0    0    0    0  0.00000000000E+00  0.00000000000E+00  0.14999999963E+04  0.15000000000E+04  0.10566000000E+00 0. -1.
        994   -1    0    0    0    0 -0.00000000000E+00 -0.00000000000E+00  0.11368683772E-12  0.17120000000E+03  0.17120000000E+03 0.  0.
         13    1    1    2    0    0 -0.14578848868E+02 -0.34264389098E+02  0.21849354195E+03  0.22164392668E+03  0.10566000000E+00 0. -1.
        994    1    1    2    0    0  0.18516967938E+02  0.32333238281E+02  0.73594178046E+01  0.17536224631E+03  0.17120000000E+03 0.  0.
        998    1    1    2    0    0 -0.39381190703E+01  0.19311508164E+01  0.12741470365E+04  0.12741938270E+04  0.10000000000E+02 0. -1.
</event>
<event>
 5    1  0.1488417E-008  0.3715301E+03  0.7957747E-01  0.3488888E+00
         13   -1    0    0    0    0  0.00000000000E+00  0.00000000000E+00  0.14999999963E+04  0.15000000000E+04  0.10566000000E+00 0. -1.
        994   -1    0    0    0    0 -0.00000000000E+00 -0.00000000000E+00  0.11368683772E-12  0.17120000000E+03  0.17120000000E+03 0.  0.
         13    1    1    2    0    0 -0.67718888612E+00 -0.43004603766E+02  0.67706242420E+02  0.80212224483E+02  0.10566000000E+00 0. -1.
        994    1    1    2    0    0 -0.16214647591E+01  0.59688564209E+02  0.24389288425E+02  0.18294707222E+03  0.17120000000E+03 0.  0.
        998    1    1    2    0    0  0.22986536452E+01 -0.16683960443E+02  0.14079044654E+04  0.14080407033E+04  0.10000000000E+02 0. -1.
</event>
<event>
 5    1  0.1488417E-008  0.3835352E+03  0.7957747E-01  0.3435908E+00
         13   -1    0    0    0    0  0.00000000000E+00  0.00000000000E+00  0.14999999963E+04  0.15000000000E+04  0.10566000000E+00 0. -1.
        994   -1    0    0    0    0 -0.00000000000E+00 -0.00000000000E+00  0.11368683772E-12  0.17120000000E+03  0.17120000000E+03 0.  0.
         13    1    1    2    0    0 -0.12227209015E+02  0.34379705343E+01  0.33092870320E+02  0.35446770117E+02  0.10566000000E+00 0. -1.
        994    1    1    2    0    0  0.11400871669E+02 -0.23266562852E+01  0.28066208742E+01  0.17161791959E+03  0.17120000000E+03 0.  0.
        998    1    1    2    0    0  0.82633734599E+00 -0.11113142491E+01  0.14641005051E+04  0.14641353103E+04  0.10000000000E+02 0. -1.
</event>
<event>
 5    1  0.1488417E-008  0.3776173E+03  0.7957747E-01  0.3461599E+00
         13   -1    0    0    0    0  0.00000000000E+00  0.00000000000E+00  0.14999999963E+04  0.15000000000E+04  0.10566000000E+00 0.  1.
        994   -1    0    0    0    0 -0.00000000000E+00 -0.00000000000E+00  0.11368683772E-12  0.17120000000E+03  0.17120000000E+03 0.  0.
         13    1    1    2    0    0 -0.15535952302E+02  0.16237776516E+02  0.48133946669E+02  0.53121739298E+02  0.10566000000E+00 0.  1.
        994    1    1    2    0    0 -0.39807878602E+01  0.15864585702E+01  0.54026397640E+01  0.17133882234E+03  0.17120000000E+03 0.  0.
        998    1    1    2    0    0  0.19516740162E+02 -0.17824235086E+02  0.14464634098E+04  0.14467394384E+04  0.10000000000E+02 0.  1.
</event>
<event>
 5    1  0.1488417E-008  0.3834571E+03  0.7957747E-01  0.3436242E+00
         13   -1    0    0    0    0  0.00000000000E+00  0.00000000000E+00  0.14999999963E+04  0.15000000000E+04  0.10566000000E+00 0. -1.
        994   -1    0    0    0    0 -0.00000000000E+00 -0.00000000000E+00  0.11368683772E-12  0.17120000000E+03  0.17120000000E+03 0.  0.
         13    1    1    2    0    0 -0.12917446561E+02  0.90223937994E+01  0.51512588343E+02  0.53868561679E+02  0.10566000000E+00 0. -1.
        994    1    1    2    0    0  0.55597448655E+01 -0.73744479283E+01  0.26800814785E+01  0.17146986931E+03  0.17120000000E+03 0.  0.
        998    1    1    2    0    0  0.73577016950E+01 -0.16479458711E+01  0.14458073265E+04  0.14458615690E+04  0.10000000000E+02 0. -1.
</event>
<event>
 5    1  0.1488417E-008  0.3846294E+03  0.7957747E-01  0.3431245E+00
         13   -1    0    0    0    0  0.00000000000E+00  0.00000000000E+00  0.14999999963E+04  0.15000000000E+04  0.10566000000E+00 0.  1.
        994   -1    0    0    0    0 -0.00000000000E+00 -0.00000000000E+00  0.11368683772E-12  0.17120000000E+03  0.17120000000E+03 0.  0.
         13    1    1    2    0    0 -0.34139473822E+01  0.11023242985E+02  0.35391454219E+02  0.37225436444E+02  0.10566000000E+00 0.  1.
        994    1    1    2    0    0 -0.26706784879E+01 -0.15445561194E+02  0.26236243870E+01  0.17193609653E+03  0.17120000000E+03 0.  0.
        998    1    1    2    0    0  0.60846258700E+01  0.44223182089E+01  0.14619849177E+04  0.14620384670E+04  0.10000000000E+02 0.  1.
</event>
<event>
 5    1  0.1488417E-008  0.3854387E+03  0.7957747E-01  0.3427814E+00
         13   -1    0    0    0    0  0.00000000000E+00  0.00000000000E+00  0.14999999963E+04  0.15000000000E+04  0.10566000000E+00 0. -1.
        994   -1    0    0    0    0 -0.00000000000E+00 -0.00000000000E+00  0.11368683772E-12  0.17120000000E+03  0.17120000000E+03 0.  0.
         13    1    1    2    0    0 -0.12719050411E+02 -0.91346170369E+01  0.93242742889E+02  0.94548589293E+02  0.10566000000E+00 0. -1.
        994    1    1    2    0    0 -0.15343191410E+01  0.56215920121E+01  0.15240195573E+01  0.17130592245E+03  0.17120000000E+03 0.  0.
        998    1    1    2    0    0  0.14253369552E+02  0.35130250248E+01  0.14052332338E+04  0.14053454883E+04  0.10000000000E+02 0. -1.
</event>
<event>
 5    1  0.1488417E-008  0.3761594E+03  0.7957747E-01  0.3468054E+00
         13   -1    0    0    0    0  0.00000000000E+00  0.00000000000E+00  0.14999999963E+04  0.15000000000E+04  0.10566000000E+00 0.  1.
        994   -1    0    0    0    0 -0.00000000000E+00 -0.00000000000E+00  0.11368683772E-12  0.17120000000E+03  0.17120000000E+03 0.  0.
         13    1    1    2    0    0 -0.63537288168E+01  0.91441500749E+01  0.73181227122E+01  0.13324842758E+02  0.10566000000E+00 0.  1.
        994    1    1    2    0    0  0.53511376939E+01 -0.13102523074E+02  0.67630777946E+01  0.17191710214E+03  0.17120000000E+03 0.  0.
        998    1    1    2    0    0  0.10025911228E+01  0.39583729989E+01  0.14859187958E+04  0.14859580551E+04  0.10000000000E+02 0.  1.
</event>
<event>
 5    1  0.1488417E-008  0.3859079E+03  0.7957747E-01  0.3425831E+00
         13   -1    0    0    0    0  0.00000000000E+00  0.00000000000E+00  0.14999999963E+04  0.15000000000E+04  0.10566000000E+00 0. -1.
        994   -1    0    0    0    0 -0.00000000000E+00 -0.00000000000E+00  0.11368683772E-12  0.17120000000E+03  0.17120000000E+03 0.  0.
         13    1    1    2    0    0 -0.11469100182E+02  0.14475459468E+01  0.65248835654E+02  0.66265053886E+02  0.10566000000E+00 0. -1.
        994    1    1    2    0    0 -0.98070304446E+01 -0.14468239843E+01  0.15023535047E+01  0.17149334743E+03  0.17120000000E+03 0.  0.
        998    1    1    2    0    0  0.21276130627E+02 -0.72196248008E-03  0.14332488071E+04  0.14334415987E+04  0.10000000000E+02 0. -1.
</event>
<event>
 5    1  0.1488417E-008  0.3832632E+03  0.7957747E-01  0.3437072E+00
         13   -1    0    0    0    0  0.00000000000E+00  0.00000000000E+00  0.14999999963E+04  0.15000000000E+04  0.10566000000E+00 0. -1.
        994   -1    0    0    0    0 -0.00000000000E+00 -0.00000000000E+00  0.11368683772E-12  0.17120000000E+03  0.17120000000E+03 0.  0.
         13    1    1    2    0    0 -0.70984680365E+01 -0.23865849846E+02  0.12086779220E+03  0.12340584019E+03  0.10566000000E+00 0. -1.
        994    1    1    2    0    0  0.64657513059E+01  0.17169724628E+02  0.36089248086E+01  0.17221808767E+03  0.17120000000E+03 0.  0.
        998    1    1    2    0    0  0.63271673064E+00  0.66961252176E+01  0.13755232793E+04  0.13755760721E+04  0.10000000000E+02 0. -1.
</event>
<event>
 5    1  0.1488417E-008  0.3804030E+03  0.7957747E-01  0.3449406E+00
         13   -1    0    0    0    0  0.00000000000E+00  0.00000000000E+00  0.14999999963E+04  0.15000000000E+04  0.10566000000E+00 0.  1.
        994   -1    0    0    0    0 -0.00000000000E+00 -0.00000000000E+00  0.11368683772E-12  0.17120000000E+03  0.17120000000E+03 0.  0.
         13    1    1    2    0    0 -0.47289321315E+01 -0.20617314097E+02  0.56235471921E+02  0.60082242850E+02  0.10566000000E+00 0.  1.
        994    1    1    2    0    0 -0.31342989137E+01  0.11393324980E+02  0.43961540575E+01  0.17166361832E+03  0.17120000000E+03 0.  0.
        998    1    1    2    0    0  0.78632310453E+01  0.92239891167E+01  0.14393683703E+04  0.14394541388E+04  0.10000000000E+02 0.  1.
</event>
<event>
 5    1  0.1488417E-008  0.3686075E+03  0.7957747E-01  0.3502315E+00
         13   -1    0    0    0    0  0.00000000000E+00  0.00000000000E+00  0.14999999963E+04  0.15000000000E+04  0.10566000000E+00 0. -1.
        994   -1    0    0    0    0 -0.00000000000E+00 -0.00000000000E+00  0.11368683772E-12  0.17120000000E+03  0.17120000000E+03 0.  0.
         13    1    1    2    0    0 -0.13784579944E+02 -0.22559544003E+01  0.52449736347E+01  0.14920619523E+02  0.10566000000E+00 0. -1.
        994    1    1    2    0    0  0.78473897862E+01 -0.42112414759E+01  0.10274384718E+02  0.17173910173E+03  0.17120000000E+03 0.  0.
        998    1    1    2    0    0  0.59371901578E+01  0.64671958762E+01  0.14844806379E+04  0.14845402787E+04  0.10000000000E+02 0. -1.
</event>
<event>
 5    1  0.1488417E-008  0.3839688E+03  0.7957747E-01  0.3434058E+00
         13   -1    0    0    0    0  0.00000000000E+00  0.00000000000E+00  0.14999999963E+04  0.15000000000E+04  0.10566000000E+00 0.  1.
        994   -1    0    0    0    0 -0.00000000000E+00 -0.00000000000E+00  0.11368683772E-12  0.17120000000E+03  0.17120000000E+03 0.  0.
         13    1    1    2    0    0 -0.16243629490E+02  0.35637992981E+01  0.61255030115E+02  0.63472403790E+02  0.10566000000E+00 0.  1.
        994    1    1    2    0    0  0.18600303393E+02 -0.49051467638E+01  0.33649343953E+01  0.17231016956E+03  0.17120000000E+03 0.  0.
        998    1    1    2    0    0 -0.23566739023E+01  0.13413474657E+01  0.14353800318E+04  0.14354174266E+04  0.10000000000E+02 0.  1.
</event>
<event>
 5    1  0.1488417E-008  0.3790466E+03  0.7957747E-01  0.3455320E+00
         13   -1    0    0    0    0  0.00000000000E+00  0.00000000000E+00  0.14999999963E+04  0.15000000000E+04  0.10566000000E+00 0.  1.
        994   -1    0    0    0    0 -0.00000000000E+00 -0.00000000000E+00  0.11368683772E-12  0.17120000000E+03  0.17120000000E+03 0.  0.
         13    1    1    2    0    0  0.31712611318E+01 -0.33756971966E+02  0.11904774230E+03  0.12378192988E+03  0.10566000000E+00 0.  1.
        994    1    1    2    0    0 -0.86043624851E+01  0.25665942824E+02  0.70764424670E+01  0.17347129939E+03  0.17120000000E+03 0.  0.
        998    1    1    2    0    0  0.54331013533E+01  0.80910291415E+01  0.13738758115E+04  0.13739467707E+04  0.10000000000E+02 0.  1.
</event>
<event>
 5    1  0.1488417E-008  0.3711807E+03  0.7957747E-01  0.3490482E+00
         13   -1    0    0    0    0  0.00000000000E+00  0.00000000000E+00  0.14999999963E+04  0.15000000000E+04  0.10566000000E+00 0.  1.
        994   -1    0    0    0    0 -0.00000000000E+00 -0.00000000000E+00  0.11368683772E-12  0.17120000000E+03  0.17120000000E+03 0.  0.
         13    1    1    2    0    0  0.93313913535E+02  0.82732568479E+02  0.47791646896E+03  0.49391935254E+03  0.10566000000E+00 0.  1.
        994    1    1    2    0    0 -0.13605437551E+03 -0.69036587632E+02  0.93639515106E+02  0.24769869260E+03  0.17120000000E+03 0.  0.
        998    1    1    2    0    0  0.42740461978E+02 -0.13695980847E+02  0.92844401221E+03  0.92958195485E+03  0.10000000000E+02 0. -1.
</event>
<event>
 5    1  0.1488417E-008  0.3848649E+03  0.7957747E-01  0.3430245E+00
         13   -1    0    0    0    0  0.00000000000E+00  0.00000000000E+00  0.14999999963E+04  0.15000000000E+04  0.10566000000E+00 0. -1.
        994   -1    0    0    0    0 -0.00000000000E+00 -0.00000000000E+00  0.11368683772E-12  0.17120000000E+03  0.17120000000E+03 0.  0.
         13    1    1    2    0    0 -0.36046629584E+02 -0.27555311523E+02  0.46078172421E+02  0.64667332056E+02  0.10566000000E+00 0. -1.
        994    1    1    2    0    0  0.37807444082E+02  0.18960180151E+02  0.25654618942E+02  0.17820350932E+03  0.17120000000E+03 0.  0.
        998    1    1    2    0    0 -0.17608144984E+01  0.85951313723E+01  0.14282672049E+04  0.14283291586E+04  0.10000000000E+02 0. -1.
</event>
<event>
 5    1  0.1488417E-008  0.3794624E+03  0.7957747E-01  0.3453503E+00
         13   -1    0    0    0    0  0.00000000000E+00  0.00000000000E+00  0.14999999963E+04  0.15000000000E+04  0.10566000000E+00 0. -1.
        994   -1    0    0    0    0 -0.00000000000E+00 -0.00000000000E+00  0.11368683772E-12  0.17120000000E+03  0.17120000000E+03 0.  0.
         13    1    1    2    0    0 -0.49472536419E+02 -0.44988981475E+02  0.34180042413E+03  0.34828017660E+03  0.10566000000E+00 0. -1.
        994    1    1    2    0    0  0.62393030836E+02  0.51172502525E+02  0.26529059439E+02  0.19111448482E+03  0.17120000000E+03 0.  0.
        998    1    1    2    0    0 -0.12920494417E+02 -0.61835210503E+01  0.11316705127E+04  0.11318053386E+04  0.10000000000E+02 0. -1.
</event>
<event>
 5    1  0.1488417E-008  0.3709300E+03  0.7957747E-01  0.3491628E+00
         13   -1    0    0    0    0  0.00000000000E+00  0.00000000000E+00  0.14999999963E+04  0.15000000000E+04  0.10566000000E+00 0. -1.
        994   -1    0    0    0    0 -0.00000000000E+00 -0.00000000000E+00  0.11368683772E-12  0.17120000000E+03  0.17120000000E+03 0.  0.
         13    1    1    2    0    0  0.25979372293E+02  0.98360271016E+01  0.28536402129E+02  0.39824774003E+02  0.10566000000E+00 0. -1.
        994    1    1    2    0    0 -0.27830783526E+02 -0.41123786978E+01  0.14212363686E+02  0.17407726862E+03  0.17120000000E+03 0.  0.
        998    1    1    2    0    0  0.18514112326E+01 -0.57236484038E+01  0.14572512305E+04  0.14572979574E+04  0.10000000000E+02 0. -1.
</event>
<event>
 5    1  0.1488417E-008  0.4141283E+03  0.7957747E-01  0.3314810E+00
         13   -1    0    0    0    0  0.00000000000E+00  0.00000000000E+00  0.14999999963E+04  0.15000000000E+04  0.10566000000E+00 0.  1.
        994   -1    0    0    0    0 -0.00000000000E+00 -0.00000000000E+00  0.11368683772E-12  0.17120000000E+03  0.17120000000E+03 0.  0.
         13    1    1    2    0    0  0.52534601316E+01  0.64120930402E+02  0.43087922764E+02  0.77431730002E+02  0.10566000000E+00 0.  1.
        994    1    1    2    0    0 -0.80104951057E+02 -0.48241054249E+02  0.73894830202E+02  0.20859982845E+03  0.17120000000E+03 0.  0.
        998    1    1    2    0    0  0.74851490925E+02 -0.15879876153E+02  0.13830172433E+04  0.13851684415E+04  0.10000000000E+02 0.  1.
</event>
<event>
 5    1  0.1488417E-008  0.2904474E+03  0.7957747E-01  0.3966668E+00
         13   -1    0    0    0    0  0.00000000000E+00  0.00000000000E+00  0.14999999963E+04  0.15000000000E+04  0.10566000000E+00 0. -1.
        994   -1    0    0    0    0 -0.00000000000E+00 -0.00000000000E+00  0.11368683772E-12  0.17120000000E+03  0.17120000000E+03 0.  0.
         13    1    1    2    0    0  0.89703322428E+01 -0.14336088675E+03  0.79515972474E+03  0.80802958468E+03  0.10566000000E+00 0. -1.
        994    1    1    2    0    0 -0.22405480787E+02  0.23519442230E+02  0.29083287744E+02  0.17666478811E+03  0.17120000000E+03 0.  0.
        998    1    1    2    0    0  0.13435148544E+02  0.11984144452E+03  0.67575698379E+03  0.68650562721E+03  0.10000000000E+02 0. -1.
</event>
<event>
 5    1  0.1488417E-008  0.3825212E+03  0.7957747E-01  0.3440253E+00
         13   -1    0    0    0    0  0.00000000000E+00  0.00000000000E+00  0.14999999963E+04  0.15000000000E+04  0.10566000000E+00 0. -1.
        994   -1    0    0    0    0 -0.00000000000E+00 -0.00000000000E+00  0.11368683772E-12  0.17120000000E+03  0.17120000000E+03 0.  0.
         13    1    1    2    0    0 -0.14574020509E+01  0.31519722724E+02  0.15828354073E+03  0.16139797821E+03  0.10566000000E+00 0. -1.
        994    1    1    2    0    0 -0.80455063847E+01 -0.30759272472E+02  0.62243714587E+01  0.17423847398E+03  0.17120000000E+03 0.  0.
        998    1    1    2    0    0  0.95029084357E+01 -0.76045025270E+00  0.13354920841E+04  0.13355635478E+04  0.10000000000E+02 0. -1.
</event>
<event>
 5    1  0.1488417E-008  0.3828917E+03  0.7957747E-01  0.3438663E+00
         13   -1    0    0    0    0  0.00000000000E+00  0.00000000000E+00  0.14999999963E+04  0.15000000000E+04  0.10566000000E+00 0. -1.
        994   -1    0    0    0    0 -0.00000000000E+00 -0.00000000000E+00  0.11368683772E-12  0.17120000000E+03  0.17120000000E+03 0.  0.
         13    1    1    2    0    0 -0.15676837611E+02 -0.43461249065E+01  0.47569424687E+02  0.50274380834E+02  0.10566000000E+00 0. -1.
        994    1    1    2    0    0  0.13993422868E+02  0.70878944431E+01  0.34956822740E+01  0.17195265024E+03  0.17120000000E+03 0.  0.
        998    1    1    2    0    0  0.16834147423E+01 -0.27417695365E+01  0.14489348893E+04  0.14489729689E+04  0.10000000000E+02 0. -1.
</event>
<event>
 5    1  0.1488417E-008  0.3916719E+03  0.7957747E-01  0.3401859E+00
         13   -1    0    0    0    0  0.00000000000E+00  0.00000000000E+00  0.14999999963E+04  0.15000000000E+04  0.10566000000E+00 0. -1.
        994   -1    0    0    0    0 -0.00000000000E+00 -0.00000000000E+00  0.11368683772E-12  0.17120000000E+03  0.17120000000E+03 0.  0.
         13    1    1    2    0    0 -0.56403929077E+02  0.36207192810E+02  0.85340443105E+02  0.10851436043E+03  0.10566000000E+00 0. -1.
        994    1    1    2    0    0  0.57590430959E+02 -0.37034217389E+02  0.40870988244E+02  0.18885991813E+03  0.17120000000E+03 0.  0.
        998    1    1    2    0    0 -0.11865018816E+01  0.82702457964E+00  0.13737885649E+04  0.13738257214E+04  0.10000000000E+02 0.  0.
</event>
<event>
 5    1  0.1488417E-008  0.3755150E+03  0.7957747E-01  0.3470923E+00
         13   -1    0    0    0    0  0.00000000000E+00  0.00000000000E+00  0.14999999963E+04  0.15000000000E+04  0.10566000000E+00 0. -1.
        994   -1    0    0    0    0 -0.00000000000E+00 -0.00000000000E+00  0.11368683772E-12  0.17120000000E+03  0.17120000000E+03 0.  0.
         13    1    1    2    0    0  0.22710275251E+02 -0.11305313789E+02  0.46273177418E+02  0.52771060575E+02  0.10566000000E+00 0. -1.
        994    1    1    2    0    0 -0.20484661114E+02  0.17548987124E+02  0.88873482459E+01  0.17353965901E+03  0.17120000000E+03 0.  0.
        998    1    1    2    0    0 -0.22256141372E+01 -0.62436733352E+01  0.14448394706E+04  0.14448892804E+04  0.10000000000E+02 0. -1.
</event>
<event>
 5    1  0.1488417E-008  0.3718864E+03  0.7957747E-01  0.3487266E+00
         13   -1    0    0    0    0  0.00000000000E+00  0.00000000000E+00  0.14999999963E+04  0.15000000000E+04  0.10566000000E+00 0.  1.
        994   -1    0    0    0    0 -0.00000000000E+00 -0.00000000000E+00  0.11368683772E-12  0.17120000000E+03  0.17120000000E+03 0.  0.
         13    1    1    2    0    0  0.12854114739E+02 -0.23352198192E+01  0.66961914858E+01  0.14680996621E+02  0.10566000000E+00 0.  1.
        994    1    1    2    0    0  0.13329461433E+01  0.92670469873E+00  0.82954510812E+01  0.17140854715E+03  0.17120000000E+03 0.  0.
        998    1    1    2    0    0 -0.14187060882E+02  0.14085151204E+01  0.14850083537E+04  0.14851104562E+04  0.10000000000E+02 0.  1.
</event>
<event>
 5    1  0.1488417E-008  0.3854767E+03  0.7957747E-01  0.3427653E+00
         13   -1    0    0    0    0  0.00000000000E+00  0.00000000000E+00  0.14999999963E+04  0.15000000000E+04  0.10566000000E+00 0.  1.
        994   -1    0    0    0    0 -0.00000000000E+00 -0.00000000000E+00  0.11368683772E-12  0.17120000000E+03  0.17120000000E+03 0.  0.
         13    1    1    2    0    0 -0.10140638592E+01  0.12667573406E+02  0.53555686833E+02  0.55042878719E+02  0.10566000000E+00 0.  1.
        994    1    1    2    0    0  0.74823458564E+01 -0.21602714960E+02  0.31117305700E+01  0.17274775153E+03  0.17120000000E+03 0.  0.
        998    1    1    2    0    0 -0.64682819972E+01  0.89351415539E+01  0.14433325789E+04  0.14434093697E+04  0.10000000000E+02 0.  1.
</event>
<event>
 5    1  0.1488417E-008  0.3803804E+03  0.7957747E-01  0.3449504E+00
         13   -1    0    0    0    0  0.00000000000E+00  0.00000000000E+00  0.14999999963E+04  0.15000000000E+04  0.10566000000E+00 0. -1.
        994   -1    0    0    0    0 -0.00000000000E+00 -0.00000000000E+00  0.11368683772E-12  0.17120000000E+03  0.17120000000E+03 0.  0.
         13    1    1    2    0    0  0.36114698518E+02  0.85336510764E+02  0.22047300335E+03  0.23915465266E+03  0.10566000000E+00 0. -1.
        994    1    1    2    0    0 -0.37190151469E+02 -0.80636036102E+02  0.45740959659E+02  0.19820936677E+03  0.17120000000E+03 0.  0.
        998    1    1    2    0    0  0.10754529511E+01 -0.47004746616E+01  0.12337860333E+04  0.12338359806E+04  0.10000000000E+02 0. -1.
</event>
<event>
 5    1  0.1488417E-008  0.3776724E+03  0.7957747E-01  0.3461356E+00
         13   -1    0    0    0    0  0.00000000000E+00  0.00000000000E+00  0.14999999963E+04  0.15000000000E+04  0.10566000000E+00 0. -1.
        994   -1    0    0    0    0 -0.00000000000E+00 -0.00000000000E+00  0.11368683772E-12  0.17120000000E+03  0.17120000000E+03 0.  0.
         13    1    1    2    0    0 -0.40009708789E+02  0.53981859002E+02  0.38034059559E+03  0.38623023926E+03  0.10566000000E+00 0. -1.
        994    1    1    2    0    0  0.31196144957E+02 -0.38400991248E+02  0.13603892554E+02  0.17872420508E+03  0.17120000000E+03 0.  0.
        998    1    1    2    0    0  0.88135638328E+01 -0.15580867754E+02  0.11060555081E+04  0.11062455557E+04  0.10000000000E+02 0.  0.
</event>
<event>
 5    1  0.1488417E-008  0.3843740E+03  0.7957747E-01  0.3432331E+00
         13   -1    0    0    0    0  0.00000000000E+00  0.00000000000E+00  0.14999999963E+04  0.15000000000E+04  0.10566000000E+00 0.  1.
        994   -1    0    0    0    0 -0.00000000000E+00 -0.00000000000E+00  0.11368683772E-12  0.17120000000E+03  0.17120000000E+03 0.  0.
         13    1    1    2    0    0  0.14393481288E+02 -0.15480543509E+02  0.10944067877E+03  0.11146341491E+03  0.10566000000E+00 0.  1.
        994    1    1    2    0    0 -0.13351628705E+02  0.14311685279E+02  0.32046586242E+01  0.17234500330E+03  0.17120000000E+03 0.  0.
        998    1    1    2    0    0 -0.10418525829E+01  0.11688582300E+01  0.13873546589E+04  0.13873915818E+04  0.10000000000E+02 0.  0.
</event>
<event>
 5    1  0.1488417E-008  0.3820579E+03  0.7957747E-01  0.3442246E+00
         13   -1    0    0    0    0  0.00000000000E+00  0.00000000000E+00  0.14999999963E+04  0.15000000000E+04  0.10566000000E+00 0.  1.
        994   -1    0    0    0    0 -0.00000000000E+00 -0.00000000000E+00  0.11368683772E-12  0.17120000000E+03  0.17120000000E+03 0.  0.
         13    1    1    2    0    0 -0.13859593870E+02 -0.21604604852E+01  0.31202009657E+02  0.34210122807E+02  0.10566000000E+00 0.  1.
        994    1    1    2    0    0  0.31803782459E+01  0.64061869957E+01  0.32677741354E+01  0.17138049010E+03  0.17120000000E+03 0.  0.
        998    1    1    2    0    0  0.10679215624E+02 -0.42457265105E+01  0.14655302125E+04  0.14656093871E+04  0.10000000000E+02 0.  1.
</event>
<event>
 5    1  0.1488417E-008  0.3854044E+03  0.7957747E-01  0.3427959E+00
         13   -1    0    0    0    0  0.00000000000E+00  0.00000000000E+00  0.14999999963E+04  0.15000000000E+04  0.10566000000E+00 0. -1.
        994   -1    0    0    0    0 -0.00000000000E+00 -0.00000000000E+00  0.11368683772E-12  0.17120000000E+03  0.17120000000E+03 0.  0.
         13    1    1    2    0    0 -0.46316746314E+01  0.11328458509E+02  0.51439763017E+02  0.52875767279E+02  0.10566000000E+00 0. -1.
        994    1    1    2    0    0 -0.40216737565E+02 -0.32139014921E+02  0.10182869564E+02  0.17906265131E+03  0.17120000000E+03 0.  0.
        998    1    1    2    0    0  0.44848412197E+02  0.20810556412E+02  0.14383773637E+04  0.14392615814E+04  0.10000000000E+02 0. -1.
</event>
<event>
 5    1  0.1488417E-008  0.3691398E+03  0.7957747E-01  0.3499854E+00
         13   -1    0    0    0    0  0.00000000000E+00  0.00000000000E+00  0.14999999963E+04  0.15000000000E+04  0.10566000000E+00 0.  1.
        994   -1    0    0    0    0 -0.00000000000E+00 -0.00000000000E+00  0.11368683772E-12  0.17120000000E+03  0.17120000000E+03 0.  0.
         13    1    1    2    0    0  0.70865696900E+01  0.80730276254E+01  0.64475563395E+00  0.10761975603E+02  0.10566000000E+00 0.  1.
        994    1    1    2    0    0 -0.17667692117E+02  0.12625926355E+02  0.12130013603E+02  0.17299751036E+03  0.17120000000E+03 0.  0.
        998    1    1    2    0    0  0.10581122427E+02 -0.20698953981E+02  0.14872252270E+04  0.14874405140E+04  0.10000000000E+02 0.  1.
</event>
<event>
 5    1  0.1488417E-008  0.3836860E+03  0.7957747E-01  0.3435264E+00
         13   -1    0    0    0    0  0.00000000000E+00  0.00000000000E+00  0.14999999963E+04  0.15000000000E+04  0.10566000000E+00 0.  1.
        994   -1    0    0    0    0 -0.00000000000E+00 -0.00000000000E+00  0.11368683772E-12  0.17120000000E+03  0.17120000000E+03 0.  0.
         13    1    1    2    0    0 -0.21238917633E+02  0.12254366982E+02  0.12196531509E+03  0.12440582937E+03  0.10566000000E+00 0.  1.
        994    1    1    2    0    0  0.17324030183E+02 -0.19802853666E+02  0.45736409962E+01  0.17327040494E+03  0.17120000000E+03 0.  0.
        998    1    1    2    0    0  0.39148874499E+01  0.75484866844E+01  0.13734610402E+04  0.13735237657E+04  0.10000000000E+02 0.  1.
</event>
<event>
 5    1  0.1488417E-008  0.3828238E+03  0.7957747E-01  0.3438954E+00
         13   -1    0    0    0    0  0.00000000000E+00  0.00000000000E+00  0.14999999963E+04  0.15000000000E+04  0.10566000000E+00 0.  1.
        994   -1    0    0    0    0 -0.00000000000E+00 -0.00000000000E+00  0.11368683772E-12  0.17120000000E+03  0.17120000000E+03 0.  0.
         13    1    1    2    0    0 -0.92393509053E+00 -0.20149850737E+02  0.70319204483E+02  0.73155121652E+02  0.10566000000E+00 0.  1.
        994    1    1    2    0    0 -0.23416734612E+01  0.23227308320E+02  0.45215616346E+01  0.17284350091E+03  0.17120000000E+03 0.  0.
        998    1    1    2    0    0  0.32656085517E+01 -0.30774575836E+01  0.14251592302E+04  0.14252013774E+04  0.10000000000E+02 0.  1.
</event>
<event>
 5    1  0.1488417E-008  0.3851285E+03  0.7957747E-01  0.3429128E+00
         13   -1    0    0    0    0  0.00000000000E+00  0.00000000000E+00  0.14999999963E+04  0.15000000000E+04  0.10566000000E+00 0.  1.
        994   -1    0    0    0    0 -0.00000000000E+00 -0.00000000000E+00  0.11368683772E-12  0.17120000000E+03  0.17120000000E+03 0.  0.
         13    1    1    2    0    0 -0.12510643274E+02 -0.17781265314E+01  0.51702026470E+02  0.53223947939E+02  0.10566000000E+00 0.  1.
        994    1    1    2    0    0  0.62776282399E+01 -0.11945275510E+01  0.17006248619E+01  0.17132766162E+03  0.17120000000E+03 0.  0.
        998    1    1    2    0    0  0.62330150340E+01  0.29726540823E+01  0.14465973449E+04  0.14466483904E+04  0.10000000000E+02 0.  1.
</event>
<event>
 5    1  0.1488417E-008  0.3834867E+03  0.7957747E-01  0.3436116E+00
         13   -1    0    0    0    0  0.00000000000E+00  0.00000000000E+00  0.14999999963E+04  0.15000000000E+04  0.10566000000E+00 0.  1.
        994   -1    0    0    0    0 -0.00000000000E+00 -0.00000000000E+00  0.11368683772E-12  0.17120000000E+03  0.17120000000E+03 0.  0.
         13    1    1    2    0    0  0.11877710048E+02  0.52024832809E+01  0.36476107999E+02  0.38712574792E+02  0.10566000000E+00 0.  1.
        994    1    1    2    0    0  0.39625342805E+01  0.17497391936E+01  0.24453320262E+01  0.17127224794E+03  0.17120000000E+03 0.  0.
        998    1    1    2    0    0 -0.15840244329E+02 -0.69522224745E+01  0.14610785563E+04  0.14612151773E+04  0.10000000000E+02 0.  1.
</event>
<event>
 5    1  0.1488417E-008  0.3687570E+03  0.7957747E-01  0.3501623E+00
         13   -1    0    0    0    0  0.00000000000E+00  0.00000000000E+00  0.14999999963E+04  0.15000000000E+04  0.10566000000E+00 0. -1.
        994   -1    0    0    0    0 -0.00000000000E+00 -0.00000000000E+00  0.11368683772E-12  0.17120000000E+03  0.17120000000E+03 0.  0.
         13    1    1    2    0    0  0.82989679837E+01  0.74405442063E+01  0.12235089663E+01  0.11213505514E+02  0.10566000000E+00 0. -1.
        994    1    1    2    0    0 -0.76066733085E+01 -0.90933376131E+01  0.10772444055E+02  0.17194777061E+03  0.17120000000E+03 0.  0.
        998    1    1    2    0    0 -0.69229467524E+00  0.16527934068E+01  0.14880040433E+04  0.14880387239E+04  0.10000000000E+02 0. -1.
</event>
<event>
 5    1  0.1488417E-008  0.3859872E+03  0.7957747E-01  0.3425496E+00
         13   -1    0    0    0    0  0.00000000000E+00  0.00000000000E+00  0.14999999963E+04  0.15000000000E+04  0.10566000000E+00 0.  1.
        994   -1    0    0    0    0 -0.00000000000E+00 -0.00000000000E+00  0.11368683772E-12  0.17120000000E+03  0.17120000000E+03 0.  0.
         13    1    1    2    0    0 -0.40792197331E+01 -0.98119291169E+01  0.48874072330E+02  0.50015998408E+02  0.10566000000E+00 0.  1.
        994    1    1    2    0    0 -0.73611412322E+00  0.12080072769E+02  0.16210864013E+01  0.17163489722E+03  0.17120000000E+03 0.  0.
        998    1    1    2    0    0  0.48153338563E+01 -0.22681436522E+01  0.14495048375E+04  0.14495491044E+04  0.10000000000E+02 0.  1.
</event>
<event>
 5    1  0.1488417E-008  0.3730901E+03  0.7957747E-01  0.3481809E+00
         13   -1    0    0    0    0  0.00000000000E+00  0.00000000000E+00  0.14999999963E+04  0.15000000000E+04  0.10566000000E+00 0.  1.
        994   -1    0    0    0    0 -0.00000000000E+00 -0.00000000000E+00  0.11368683772E-12  0.17120000000E+03  0.17120000000E+03 0.  0.
         13    1    1    2    0    0  0.49531916267E+02 -0.44886400702E+02  0.15388804339E+03  0.16777884479E+03  0.10566000000E+00 0.  1.
        994    1    1    2    0    0 -0.54880451319E+02  0.44188859796E+02  0.30342097503E+02  0.18760224452E+03  0.17120000000E+03 0.  0.
        998    1    1    2    0    0  0.53485350518E+01  0.69754090595E+00  0.13157698554E+04  0.13158189107E+04  0.10000000000E+02 0.  0.
</event>
<event>
 5    1  0.1488417E-008  0.3901691E+03  0.7957747E-01  0.3408041E+00
         13   -1    0    0    0    0  0.00000000000E+00  0.00000000000E+00  0.14999999963E+04  0.15000000000E+04  0.10566000000E+00 0. -1.
        994   -1    0    0    0    0 -0.00000000000E+00 -0.00000000000E+00  0.11368683772E-12  0.17120000000E+03  0.17120000000E+03 0.  0.
         13    1    1    2    0    0 -0.21150490882E+02  0.71306715357E+01  0.16980295800E+01  0.22384910310E+02  0.10566000000E+00 0. -1.
        994    1    1    2    0    0  0.15534515022E+02 -0.72048231923E+01  0.23134038630E+02  0.17360257595E+03  0.17120000000E+03 0.  0.
        998    1    1    2    0    0  0.56159758598E+01  0.74151656688E-01  0.14751679281E+04  0.14752125137E+04  0.10000000000E+02 0. -1.
</event>
<event>
 5    1  0.1488417E-008  0.3819610E+03  0.7957747E-01  0.3442664E+00
         13   -1    0    0    0    0  0.00000000000E+00  0.00000000000E+00  0.14999999963E+04  0.15000000000E+04  0.10566000000E+00 0.  1.
        994   -1    0    0    0    0 -0.00000000000E+00 -0.00000000000E+00  0.11368683772E-12  0.17120000000E+03  0.17120000000E+03 0.  0.
         13    1    1    2    0    0 -0.92575986371E+01  0.20323171485E+02  0.74699960128E+02  0.77966849615E+02  0.10566000000E+00 0.  1.
        994    1    1    2    0    0  0.13933751747E+02 -0.19264598435E+02  0.50262822212E+01  0.17291610019E+03  0.17120000000E+03 0.  0.
        998    1    1    2    0    0 -0.46761531095E+01 -0.10585730504E+01  0.14202737539E+04  0.14203170502E+04  0.10000000000E+02 0.  1.
</event>
<event>
 5    1  0.1488417E-008  0.3805546E+03  0.7957747E-01  0.3448747E+00
         13   -1    0    0    0    0  0.00000000000E+00  0.00000000000E+00  0.14999999963E+04  0.15000000000E+04  0.10566000000E+00 0.  1.
        994   -1    0    0    0    0 -0.00000000000E+00 -0.00000000000E+00  0.11368683772E-12  0.17120000000E+03  0.17120000000E+03 0.  0.
         13    1    1    2    0    0 -0.56796497140E+01 -0.10881653881E+02  0.17905940539E+02  0.21709506735E+02  0.10566000000E+00 0.  1.
        994    1    1    2    0    0  0.41128743574E+01  0.84441494965E+01  0.41478543401E+01  0.17150762109E+03  0.17120000000E+03 0.  0.
        998    1    1    2    0    0  0.15667753567E+01  0.24375043841E+01  0.14779462014E+04  0.14779828722E+04  0.10000000000E+02 0.  1.
</event>
<event>
 5    1  0.1488417E-008  0.3770851E+03  0.7957747E-01  0.3463949E+00
         13   -1    0    0    0    0  0.00000000000E+00  0.00000000000E+00  0.14999999963E+04  0.15000000000E+04  0.10566000000E+00 0.  1.
        994   -1    0    0    0    0 -0.00000000000E+00 -0.00000000000E+00  0.11368683772E-12  0.17120000000E+03  0.17120000000E+03 0.  0.
         13    1    1    2    0    0 -0.26479328058E+02  0.28999937201E+02  0.21930053208E+03  0.22278888147E+03  0.10566000000E+00 0.  1.
        994    1    1    2    0    0 -0.22107169124E+02  0.36742168469E+02  0.11843633629E+02  0.17688534571E+03  0.17120000000E+03 0.  0.
        998    1    1    2    0    0  0.48586497183E+02 -0.65742105670E+02  0.12688558306E+04  0.12715257728E+04  0.10000000000E+02 0.  1.
</event>
<event>
 5    1  0.1488417E-008  0.3684407E+03  0.7957747E-01  0.3503088E+00
         13   -1    0    0    0    0  0.00000000000E+00  0.00000000000E+00  0.14999999963E+04  0.15000000000E+04  0.10566000000E+00 0.  1.
        994   -1    0    0    0    0 -0.00000000000E+00 -0.00000000000E+00  0.11368683772E-12  0.17120000000E+03  0.17120000000E+03 0.  0.
         13    1    1    2    0    0 -0.12462982740E+02 -0.18436457962E+02  0.21613166963E+02  0.31022073934E+02  0.10566000000E+00 0.  1.
        994    1    1    2    0    0  0.61509086990E+01 -0.21172790183E+02  0.11808704127E+02  0.17301735813E+03  0.17120000000E+03 0.  0.
        998    1    1    2    0    0  0.63120740412E+01  0.39609248145E+02  0.14665781252E+04  0.14671605679E+04  0.10000000000E+02 0.  1.
</event>
<event>
 5    1  0.1488417E-008  0.3754622E+03  0.7957747E-01  0.3471158E+00
         13   -1    0    0    0    0  0.00000000000E+00  0.00000000000E+00  0.14999999963E+04  0.15000000000E+04  0.10566000000E+00 0. -1.
        994   -1    0    0    0    0 -0.00000000000E+00 -0.00000000000E+00  0.11368683772E-12  0.17120000000E+03  0.17120000000E+03 0.  0.
         13    1    1    2    0    0  0.21074878903E+01 -0.13900699083E+02  0.12296487459E+02  0.18678482489E+02  0.10566000000E+00 0. -1.
        994    1    1    2    0    0 -0.93354270657E+01  0.15492936330E+02  0.75527757715E+01  0.17231850074E+03  0.17120000000E+03 0.  0.
        998    1    1    2    0    0  0.72279391754E+01 -0.15922372465E+01  0.14801507330E+04  0.14802030168E+04  0.10000000000E+02 0. -1.
</event>
<event>
 5    1  0.1488417E-008  0.3831929E+03  0.7957747E-01  0.3437373E+00
         13   -1    0    0    0    0  0.00000000000E+00  0.00000000000E+00  0.14999999963E+04  0.15000000000E+04  0.10566000000E+00 0. -1.
        994   -1    0    0    0    0 -0.00000000000E+00 -0.00000000000E+00  0.11368683772E-12  0.17120000000E+03  0.17120000000E+03 0.  0.
         13    1    1    2    0    0 -0.65051354930E+01 -0.10996982308E+02  0.32926603881E+02  0.35318873352E+02  0.10566000000E+00 0. -1.
        994    1    1    2    0    0  0.33548265115E+00 -0.40769159221E+01  0.25853549664E+01  0.17126837960E+03  0.17120000000E+03 0.  0.
        998    1    1    2    0    0  0.61696528418E+01  0.15073898230E+02  0.14644880374E+04  0.14646127470E+04  0.10000000000E+02 0. -1.
</event>
<event>
 5    1  0.1488417E-008  0.3801111E+03  0.7957747E-01  0.3450675E+00
         13   -1    0    0    0    0  0.00000000000E+00  0.00000000000E+00  0.14999999963E+04  0.15000000000E+04  0.10566000000E+00 0.  1.
        994   -1    0    0    0    0 -0.00000000000E+00 -0.00000000000E+00  0.11368683772E-12  0.17120000000E+03  0.17120000000E+03 0.  0.
         13    1    1    2    0    0 -0.11403130434E+02 -0.87862892763E+01  0.23534680475E+02  0.27588450700E+02  0.10566000000E+00 0.  1.
        994    1    1    2    0    0  0.90673026702E+01  0.98629372903E+01  0.46770884266E+01  0.17178710273E+03  0.17120000000E+03 0.  0.
        998    1    1    2    0    0  0.23358277635E+01 -0.10766480140E+01  0.14717882274E+04  0.14718244466E+04  0.10000000000E+02 0.  1.
</event>
<event>
 5    1  0.1488417E-008  0.3826391E+03  0.7957747E-01  0.3439747E+00
         13   -1    0    0    0    0  0.00000000000E+00  0.00000000000E+00  0.14999999963E+04  0.15000000000E+04  0.10566000000E+00 0.  1.
        994   -1    0    0    0    0 -0.00000000000E+00 -0.00000000000E+00  0.11368683772E-12  0.17120000000E+03  0.17120000000E+03 0.  0.
         13    1    1    2    0    0  0.91934961460E+01  0.25604232690E+02  0.12828615010E+03  0.13113902766E+03  0.10566000000E+00 0.  1.
        994    1    1    2    0    0 -0.67278184121E+01 -0.18197802270E+02  0.40552864993E+01  0.17234357805E+03  0.17120000000E+03 0.  0.
        998    1    1    2    0    0 -0.24656777339E+01 -0.74064304199E+01  0.13676585597E+04  0.13677173943E+04  0.10000000000E+02 0.  1.
</event>
<event>
 5    1  0.1488417E-008  0.3788297E+03  0.7957747E-01  0.3456270E+00
         13   -1    0    0    0    0  0.00000000000E+00  0.00000000000E+00  0.14999999963E+04  0.15000000000E+04  0.10566000000E+00 0. -1.
        994   -1    0    0    0    0 -0.00000000000E+00 -0.00000000000E+00  0.11368683772E-12  0.17120000000E+03  0.17120000000E+03 0.  0.
         13    1    1    2    0    0  0.48299878741E+01 -0.22476930462E+02  0.54458497000E+02  0.59112437316E+02  0.10566000000E+00 0. -1.
        994    1    1    2    0    0  0.42732813137E+01  0.14568187018E+02  0.54989418333E+01  0.17195979579E+03  0.17120000000E+03 0.  0.
        998    1    1    2    0    0 -0.91032691879E+01  0.79087434440E+01  0.14400425574E+04  0.14401277669E+04  0.10000000000E+02 0. -1.
</event>
<event>
 5    1  0.1488417E-008  0.3827607E+03  0.7957747E-01  0.3439225E+00
         13   -1    0    0    0    0  0.00000000000E+00  0.00000000000E+00  0.14999999963E+04  0.15000000000E+04  0.10566000000E+00 0. -1.
        994   -1    0    0    0    0 -0.00000000000E+00 -0.00000000000E+00  0.11368683772E-12  0.17120000000E+03  0.17120000000E+03 0.  0.
         13    1    1    2    0    0  0.12855199408E+02  0.58605449427E+01  0.36098842991E+02  0.38765187581E+02  0.10566000000E+00 0. -1.
        994    1    1    2    0    0 -0.16739850722E+01 -0.75652436842E+01  0.29448914242E+01  0.17140054703E+03  0.17120000000E+03 0.  0.
        998    1    1    2    0    0 -0.11181214336E+02  0.17046987416E+01  0.14609562619E+04  0.14610342654E+04  0.10000000000E+02 0. -1.
</event>
<event>
 5    1  0.1488417E-008  0.3817557E+03  0.7957747E-01  0.3443549E+00
         13   -1    0    0    0    0  0.00000000000E+00  0.00000000000E+00  0.14999999963E+04  0.15000000000E+04  0.10566000000E+00 0.  1.
        994   -1    0    0    0    0 -0.00000000000E+00 -0.00000000000E+00  0.11368683772E-12  0.17120000000E+03  0.17120000000E+03 0.  0.
         13    1    1    2    0    0 -0.25356691051E+01  0.10307422371E+02  0.16091733259E+02  0.19277645527E+02  0.10566000000E+00 0.  1.
        994    1    1    2    0    0  0.65797228887E+01 -0.39673490633E+01  0.34457392980E+01  0.17140695940E+03  0.17120000000E+03 0.  0.
        998    1    1    2    0    0 -0.40440537836E+01 -0.63400733076E+01  0.14804625237E+04  0.14805153951E+04  0.10000000000E+02 0.  1.
</event>
<event>
 5    1  0.1488417E-008  0.3727697E+03  0.7957747E-01  0.3483258E+00
         13   -1    0    0    0    0  0.00000000000E+00  0.00000000000E+00  0.14999999963E+04  0.15000000000E+04  0.10566000000E+00 0.  1.
        994   -1    0    0    0    0 -0.00000000000E+00 -0.00000000000E+00  0.11368683772E-12  0.17120000000E+03  0.17120000000E+03 0.  0.
         13    1    1    2    0    0 -0.82976617701E+01 -0.20037343344E+02  0.26407135334E+02  0.34171541957E+02  0.10566000000E+00 0.  1.
        994    1    1    2    0    0  0.11148389056E+02  0.17693606374E+02  0.93278326389E+01  0.17272463272E+03  0.17120000000E+03 0.  0.
        998    1    1    2    0    0 -0.28507272860E+01  0.23437369702E+01  0.14642650283E+04  0.14643038253E+04  0.10000000000E+02 0.  1.
</event>
<event>
 5    1  0.1488417E-008  0.3707339E+03  0.7957747E-01  0.3492525E+00
         13   -1    0    0    0    0  0.00000000000E+00  0.00000000000E+00  0.14999999963E+04  0.15000000000E+04  0.10566000000E+00 0. -1.
        994   -1    0    0    0    0 -0.00000000000E+00 -0.00000000000E+00  0.11368683772E-12  0.17120000000E+03  0.17120000000E+03 0.  0.
         13    1    1    2    0    0 -0.15021967274E+00 -0.51342697805E+02  0.13918265974E+03  0.14835066269E+03  0.10566000000E+00 0. -1.
        994    1    1    2    0    0 -0.21671079648E+02  0.41078643552E+02  0.16362566965E+02  0.17814113575E+03  0.17120000000E+03 0.  0.
        998    1    1    2    0    0  0.21821299321E+02  0.10264054253E+02  0.13444547696E+04  0.13447082016E+04  0.10000000000E+02 0. -1.
</event>
<event>
 5    1  0.1488417E-008  0.3751814E+03  0.7957747E-01  0.3472412E+00
         13   -1    0    0    0    0  0.00000000000E+00  0.00000000000E+00  0.14999999963E+04  0.15000000000E+04  0.10566000000E+00 0. -1.
        994   -1    0    0    0    0 -0.00000000000E+00 -0.00000000000E+00  0.11368683772E-12  0.17120000000E+03  0.17120000000E+03 0.  0.
         13    1    1    2    0    0  0.61117381450E+02  0.20005197065E+02  0.27997099261E+03  0.28726174491E+03  0.10566000000E+00 0. -1.
        994    1    1    2    0    0 -0.50744038338E+02 -0.11508143401E+02  0.15839078474E+02  0.17963215525E+03  0.17120000000E+03 0.  0.
        998    1    1    2    0    0 -0.10373343111E+02 -0.84970536642E+01  0.12041899252E+04  0.12043060998E+04  0.10000000000E+02 0. -1.
</event>
<event>
 5    1  0.1488417E-008  0.3829376E+03  0.7957747E-01  0.3438467E+00
         13   -1    0    0    0    0  0.00000000000E+00  0.00000000000E+00  0.14999999963E+04  0.15000000000E+04  0.10566000000E+00 0. -1.
        994   -1    0    0    0    0 -0.00000000000E+00 -0.00000000000E+00  0.11368683772E-12  0.17120000000E+03  0.17120000000E+03 0.  0.
         13    1    1    2    0    0 -0.10991474831E+02  0.12609157080E+01  0.21007382905E+02  0.23742866885E+02  0.10566000000E+00 0. -1.
        994    1    1    2    0    0  0.21110596301E+02 -0.18882087425E+02  0.53179923278E+01  0.17360850078E+03  0.17120000000E+03 0.  0.
        998    1    1    2    0    0 -0.10119121471E+02  0.17621171717E+02  0.14736746210E+04  0.14738486323E+04  0.10000000000E+02 0. -1.
</event>
<event>
 5    1  0.1488417E-008  0.3705414E+03  0.7957747E-01  0.3493406E+00
         13   -1    0    0    0    0  0.00000000000E+00  0.00000000000E+00  0.14999999963E+04  0.15000000000E+04  0.10566000000E+00 0. -1.
        994   -1    0    0    0    0 -0.00000000000E+00 -0.00000000000E+00  0.11368683772E-12  0.17120000000E+03  0.17120000000E+03 0.  0.
         13    1    1    2    0    0 -0.12924484373E+02 -0.23698419129E+02  0.36676757583E+02  0.45539577033E+02  0.10566000000E+00 0. -1.
        994    1    1    2    0    0  0.38951138473E+01  0.21936227977E+02  0.10701300772E+02  0.17297493416E+03  0.17120000000E+03 0.  0.
        998    1    1    2    0    0  0.90293705260E+01  0.17621911517E+01  0.14526219379E+04  0.14526854888E+04  0.10000000000E+02 0. -1.
</event>
<event>
 5    1  0.1488417E-008  0.3830907E+03  0.7957747E-01  0.3437810E+00
         13   -1    0    0    0    0  0.00000000000E+00  0.00000000000E+00  0.14999999963E+04  0.15000000000E+04  0.10566000000E+00 0. -1.
        994   -1    0    0    0    0 -0.00000000000E+00 -0.00000000000E+00  0.11368683772E-12  0.17120000000E+03  0.17120000000E+03 0.  0.
         13    1    1    2    0    0  0.58907422470E+00 -0.29538553173E+02  0.14823642043E+03  0.15115197861E+03  0.10566000000E+00 0. -1.
        994    1    1    2    0    0 -0.50863511653E+01  0.34220835800E+02  0.65519836465E+01  0.17478359494E+03  0.17120000000E+03 0.  0.
        998    1    1    2    0    0  0.44972769406E+01 -0.46822826266E+01  0.13452115922E+04  0.13452644264E+04  0.10000000000E+02 0. -1.
</event>
<event>
 5    1  0.1488417E-008  0.3841963E+03  0.7957747E-01  0.3433088E+00
         13   -1    0    0    0    0  0.00000000000E+00  0.00000000000E+00  0.14999999963E+04  0.15000000000E+04  0.10566000000E+00 0. -1.
        994   -1    0    0    0    0 -0.00000000000E+00 -0.00000000000E+00  0.11368683772E-12  0.17120000000E+03  0.17120000000E+03 0.  0.
         13    1    1    2    0    0  0.11502059150E+02  0.76293591807E+01  0.45354761189E+02  0.47408543668E+02  0.10566000000E+00 0. -1.
        994    1    1    2    0    0 -0.13190061527E+02 -0.62871951368E+01  0.27339945761E+01  0.17184417730E+03  0.17120000000E+03 0.  0.
        998    1    1    2    0    0  0.16880023773E+01 -0.13421640438E+01  0.14519112405E+04  0.14519472790E+04  0.10000000000E+02 0. -1.
</event>
<event>
 5    1  0.1488417E-008  0.3785661E+03  0.7957747E-01  0.3457426E+00
         13   -1    0    0    0    0  0.00000000000E+00  0.00000000000E+00  0.14999999963E+04  0.15000000000E+04  0.10566000000E+00 0. -1.
        994   -1    0    0    0    0 -0.00000000000E+00 -0.00000000000E+00  0.11368683772E-12  0.17120000000E+03  0.17120000000E+03 0.  0.
         13    1    1    2    0    0  0.14290012864E+02  0.12565716994E+02  0.35952224025E+02  0.40677700127E+02  0.10566000000E+00 0. -1.
        994    1    1    2    0    0 -0.53495191384E+01 -0.48276128790E+01  0.50331337712E+01  0.17142548129E+03  0.17120000000E+03 0.  0.
        998    1    1    2    0    0 -0.89404937255E+01 -0.77381041155E+01  0.14590146385E+04  0.14590968186E+04  0.10000000000E+02 0. -1.
</event>
<event>
 5    1  0.1488417E-008  0.3794842E+03  0.7957747E-01  0.3453407E+00
         13   -1    0    0    0    0  0.00000000000E+00  0.00000000000E+00  0.14999999963E+04  0.15000000000E+04  0.10566000000E+00 0. -1.
        994   -1    0    0    0    0 -0.00000000000E+00 -0.00000000000E+00  0.11368683772E-12  0.17120000000E+03  0.17120000000E+03 0.  0.
         13    1    1    2    0    0 -0.18264447742E+02  0.52244491864E+00  0.35633094837E+02  0.40044869980E+02  0.10566000000E+00 0. -1.
        994    1    1    2    0    0  0.18183039161E+02  0.13528120508E+02  0.61155802791E+01  0.17280183240E+03  0.17120000000E+03 0.  0.
        998    1    1    2    0    0  0.81408580413E-01 -0.14050565426E+02  0.14582513212E+04  0.14583532976E+04  0.10000000000E+02 0. -1.
</event>
<event>
 5    1  0.1488417E-008  0.3844789E+03  0.7957747E-01  0.3431885E+00
         13   -1    0    0    0    0  0.00000000000E+00  0.00000000000E+00  0.14999999963E+04  0.15000000000E+04  0.10566000000E+00 0. -1.
        994   -1    0    0    0    0 -0.00000000000E+00 -0.00000000000E+00  0.11368683772E-12  0.17120000000E+03  0.17120000000E+03 0.  0.
         13    1    1    2    0    0  0.19024640674E+02  0.11300785225E+01  0.96646958385E+02  0.98508171028E+02  0.10566000000E+00 0. -1.
        994    1    1    2    0    0 -0.11259679351E+02  0.29645498530E+01  0.23357746950E+01  0.17161137718E+03  0.17120000000E+03 0.  0.
        998    1    1    2    0    0 -0.77649613231E+01 -0.40946283754E+01  0.14010172632E+04  0.14010804518E+04  0.10000000000E+02 0. -1.
</event>
<event>
 5    1  0.1488417E-008  0.3761728E+03  0.7957747E-01  0.3467994E+00
         13   -1    0    0    0    0  0.00000000000E+00  0.00000000000E+00  0.14999999963E+04  0.15000000000E+04  0.10566000000E+00 0. -1.
        994   -1    0    0    0    0 -0.00000000000E+00 -0.00000000000E+00  0.11368683772E-12  0.17120000000E+03  0.17120000000E+03 0.  0.
         13    1    1    2    0    0 -0.20356249043E+02 -0.11042521658E+02  0.40794865524E+02  0.46909981633E+02  0.10566000000E+00 0. -1.
        994    1    1    2    0    0  0.14090624090E+02  0.21683870721E+02  0.83451907761E+01  0.17334306489E+03  0.17120000000E+03 0.  0.
        998    1    1    2    0    0  0.62656249528E+01 -0.10641349063E+02  0.14508599400E+04  0.14509469535E+04  0.10000000000E+02 0. -1.
</event>
<event>
 5    1  0.1488417E-008  0.3766650E+03  0.7957747E-01  0.3465810E+00
         13   -1    0    0    0    0  0.00000000000E+00  0.00000000000E+00  0.14999999963E+04  0.15000000000E+04  0.10566000000E+00 0. -1.
        994   -1    0    0    0    0 -0.00000000000E+00 -0.00000000000E+00  0.11368683772E-12  0.17120000000E+03  0.17120000000E+03 0.  0.
         13    1    1    2    0    0 -0.25771630405E+02 -0.35842956781E+02  0.15468715500E+03  0.16086336304E+03  0.10566000000E+00 0. -1.
        994    1    1    2    0    0  0.32534864906E+02  0.23541606579E+02  0.11297041716E+02  0.17620949982E+03  0.17120000000E+03 0.  0.
        998    1    1    2    0    0 -0.67632345012E+01  0.12301350202E+02  0.13340157996E+04  0.13341271371E+04  0.10000000000E+02 0. -1.
</event>
<event>
 5    1  0.1488417E-008  0.3800929E+03  0.7957747E-01  0.3450754E+00
         13   -1    0    0    0    0  0.00000000000E+00  0.00000000000E+00  0.14999999963E+04  0.15000000000E+04  0.10566000000E+00 0.  1.
        994   -1    0    0    0    0 -0.00000000000E+00 -0.00000000000E+00  0.11368683772E-12  0.17120000000E+03  0.17120000000E+03 0.  0.
         13    1    1    2    0    0  0.41394262428E+02 -0.37333270187E+02  0.31906671752E+03  0.32389942794E+03  0.10566000000E+00 0.  1.
        994    1    1    2    0    0 -0.50366635243E+01  0.78241252491E+02  0.24910240784E+02  0.18993952108E+03  0.17120000000E+03 0.  0.
        998    1    1    2    0    0 -0.36357598904E+02 -0.40907982304E+02  0.11560230380E+04  0.11573610510E+04  0.10000000000E+02 0.  1.
</event>
<event>
 5    1  0.1488417E-008  0.3822181E+03  0.7957747E-01  0.3441557E+00
         13   -1    0    0    0    0  0.00000000000E+00  0.00000000000E+00  0.14999999963E+04  0.15000000000E+04  0.10566000000E+00 0. -1.
        994   -1    0    0    0    0 -0.00000000000E+00 -0.00000000000E+00  0.11368683772E-12  0.17120000000E+03  0.17120000000E+03 0.  0.
         13    1    1    2    0    0 -0.22093610948E+02  0.16470754769E+02  0.11628039871E+03  0.11950127905E+03  0.10566000000E+00 0. -1.
        994    1    1    2    0    0  0.23452846875E+02 -0.15325657507E+02  0.56267700814E+01  0.17356846587E+03  0.17120000000E+03 0.  0.
        998    1    1    2    0    0 -0.13592359271E+01 -0.11450972622E+01  0.13780928275E+04  0.13781302551E+04  0.10000000000E+02 0.  0.
</event>
<event>
 5    1  0.1488417E-008  0.3826947E+03  0.7957747E-01  0.3439509E+00
         13   -1    0    0    0    0  0.00000000000E+00  0.00000000000E+00  0.14999999963E+04  0.15000000000E+04  0.10566000000E+00 0. -1.
        994   -1    0    0    0    0 -0.00000000000E+00 -0.00000000000E+00  0.11368683772E-12  0.17120000000E+03  0.17120000000E+03 0.  0.
         13    1    1    2    0    0 -0.41281800517E+00 -0.17117823544E+02  0.57506901670E+02  0.60002043343E+02  0.10566000000E+00 0. -1.
        994    1    1    2    0    0 -0.20817058029E+01 -0.10368456190E+02  0.31496867768E+01  0.17155523574E+03  0.17120000000E+03 0.  0.
        998    1    1    2    0    0  0.24945238081E+01  0.27486279734E+02  0.14393434078E+04  0.14396427209E+04  0.10000000000E+02 0. -1.
</event>
<event>
 5    1  0.1488417E-008  0.3851712E+03  0.7957747E-01  0.3428946E+00
         13   -1    0    0    0    0  0.00000000000E+00  0.00000000000E+00  0.14999999963E+04  0.15000000000E+04  0.10566000000E+00 0.  1.
        994   -1    0    0    0    0 -0.00000000000E+00 -0.00000000000E+00  0.11368683772E-12  0.17120000000E+03  0.17120000000E+03 0.  0.
         13    1    1    2    0    0  0.94147175842E+01  0.36769446104E+01  0.33371607614E+02  0.34868785290E+02  0.10566000000E+00 0.  1.
        994    1    1    2    0    0 -0.12439576588E+01 -0.80908234575E+01  0.17654265815E+01  0.17140468368E+03  0.17120000000E+03 0.  0.
        998    1    1    2    0    0 -0.81707599254E+01  0.44138788471E+01  0.14648629621E+04  0.14649265310E+04  0.10000000000E+02 0.  1.
</event>
<event>
 5    1  0.1488417E-008  0.3796428E+03  0.7957747E-01  0.3452715E+00
         13   -1    0    0    0    0  0.00000000000E+00  0.00000000000E+00  0.14999999963E+04  0.15000000000E+04  0.10566000000E+00 0. -1.
        994   -1    0    0    0    0 -0.00000000000E+00 -0.00000000000E+00  0.11368683772E-12  0.17120000000E+03  0.17120000000E+03 0.  0.
         13    1    1    2    0    0 -0.32628639679E+00  0.19720743803E+02  0.44605610384E+02  0.48771772991E+02  0.10566000000E+00 0. -1.
        994    1    1    2    0    0  0.13597964796E+02 -0.53540793061E+01  0.50286851776E+01  0.17189618520E+03  0.17120000000E+03 0.  0.
        998    1    1    2    0    0 -0.13271678399E+02 -0.14366664497E+02  0.14503657007E+04  0.14505320418E+04  0.10000000000E+02 0. -1.
</event>
<event>
 5    1  0.1488417E-008  0.3804924E+03  0.7957747E-01  0.3449017E+00
         13   -1    0    0    0    0  0.00000000000E+00  0.00000000000E+00  0.14999999963E+04  0.15000000000E+04  0.10566000000E+00 0. -1.
        994   -1    0    0    0    0 -0.00000000000E+00 -0.00000000000E+00  0.11368683772E-12  0.17120000000E+03  0.17120000000E+03 0.  0.
         13    1    1    2    0    0 -0.61590371336E+01 -0.12275801583E+02  0.22733909427E+02  0.26560701135E+02  0.10566000000E+00 0. -1.
        994    1    1    2    0    0  0.44809711009E+01  0.78114768668E+01  0.41554940315E+01  0.17148704442E+03  0.17120000000E+03 0.  0.
        998    1    1    2    0    0  0.16780660327E+01  0.44643247162E+01  0.14731105928E+04  0.14731522544E+04  0.10000000000E+02 0. -1.
</event>
<event>
 5    1  0.1488417E-008  0.3833228E+03  0.7957747E-01  0.3436817E+00
         13   -1    0    0    0    0  0.00000000000E+00  0.00000000000E+00  0.14999999963E+04  0.15000000000E+04  0.10566000000E+00 0. -1.
        994   -1    0    0    0    0 -0.00000000000E+00 -0.00000000000E+00  0.11368683772E-12  0.17120000000E+03  0.17120000000E+03 0.  0.
         13    1    1    2    0    0  0.20950547345E+02 -0.48555895164E+01  0.87669164342E+02  0.90268464727E+02  0.10566000000E+00 0. -1.
        994    1    1    2    0    0 -0.24080585434E+02  0.76389939041E+00  0.43868321476E+01  0.17294259867E+03  0.17120000000E+03 0.  0.
        998    1    1    2    0    0  0.31300380887E+01  0.40916901260E+01  0.14079439998E+04  0.14079889366E+04  0.10000000000E+02 0. -1.
</event>
<event>
 5    1  0.1488417E-008  0.3783569E+03  0.7957747E-01  0.3458344E+00
         13   -1    0    0    0    0  0.00000000000E+00  0.00000000000E+00  0.14999999963E+04  0.15000000000E+04  0.10566000000E+00 0.  1.
        994   -1    0    0    0    0 -0.00000000000E+00 -0.00000000000E+00  0.11368683772E-12  0.17120000000E+03  0.17120000000E+03 0.  0.
         13    1    1    2    0    0 -0.46410508332E+02 -0.29557020302E+02  0.25108460227E+03  0.25704287851E+03  0.10566000000E+00 0.  1.
        994    1    1    2    0    0  0.40857495905E+02  0.41485027772E+02  0.16446214198E+02  0.18157714741E+03  0.17120000000E+03 0.  0.
        998    1    1    2    0    0  0.55530124272E+01 -0.11928007470E+02  0.12324691798E+04  0.12325799741E+04  0.10000000000E+02 0.  1.
</event>
<event>
 5    1  0.1488417E-008  0.3828607E+03  0.7957747E-01  0.3438796E+00
         13   -1    0    0    0    0  0.00000000000E+00  0.00000000000E+00  0.14999999963E+04  0.15000000000E+04  0.10566000000E+00 0.  1.
        994   -1    0    0    0    0 -0.00000000000E+00 -0.00000000000E+00  0.11368683772E-12  0.17120000000E+03  0.17120000000E+03 0.  0.
         13    1    1    2    0    0  0.20489511523E+02 -0.14509244676E+02  0.11246868465E+03  0.11523694918E+03  0.10566000000E+00 0.  1.
        994    1    1    2    0    0 -0.23877990811E+02  0.15515528802E+01  0.45944386777E+01  0.17292517060E+03  0.17120000000E+03 0.  0.
        998    1    1    2    0    0  0.33884792880E+01  0.12957691796E+02  0.13829368729E+04  0.13830378802E+04  0.10000000000E+02 0.  1.
</event>
<event>
 5    1  0.1488417E-008  0.3849498E+03  0.7957747E-01  0.3429885E+00
         13   -1    0    0    0    0  0.00000000000E+00  0.00000000000E+00  0.14999999963E+04  0.15000000000E+04  0.10566000000E+00 0. -1.
        994   -1    0    0    0    0 -0.00000000000E+00 -0.00000000000E+00  0.11368683772E-12  0.17120000000E+03  0.17120000000E+03 0.  0.
         13    1    1    2    0    0 -0.10575526387E+02  0.14724017988E+02  0.99341131428E+02  0.10098173113E+03  0.10566000000E+00 0. -1.
        994    1    1    2    0    0  0.87262611049E+01 -0.79422598220E+01  0.21131616791E+01  0.17161914979E+03  0.17120000000E+03 0.  0.
        998    1    1    2    0    0  0.18492652823E+01 -0.67817581657E+01  0.13985457032E+04  0.13985991191E+04  0.10000000000E+02 0. -1.
</event>
<event>
 5    1  0.1488417E-008  0.3783138E+03  0.7957747E-01  0.3458533E+00
         13   -1    0    0    0    0  0.00000000000E+00  0.00000000000E+00  0.14999999963E+04  0.15000000000E+04  0.10566000000E+00 0.  1.
        994   -1    0    0    0    0 -0.00000000000E+00 -0.00000000000E+00  0.11368683772E-12  0.17120000000E+03  0.17120000000E+03 0.  0.
         13    1    1    2    0    0 -0.15008699750E+02  0.36723015550E+02  0.16379709517E+03  0.16853290625E+03  0.10566000000E+00 0.  1.
        994    1    1    2    0    0  0.23207051907E+02 -0.75243690893E+01  0.69901039906E+01  0.17307075126E+03  0.17120000000E+03 0.  0.
        998    1    1    2    0    0 -0.81983521566E+01 -0.29198646461E+02  0.13292127971E+04  0.13295963425E+04  0.10000000000E+02 0.  1.
</event>
<event>
 5    1  0.1488417E-008  0.3852423E+03  0.7957747E-01  0.3428645E+00
         13   -1    0    0    0    0  0.00000000000E+00  0.00000000000E+00  0.14999999963E+04  0.15000000000E+04  0.10566000000E+00 0. -1.
        994   -1    0    0    0    0 -0.00000000000E+00 -0.00000000000E+00  0.11368683772E-12  0.17120000000E+03  0.17120000000E+03 0.  0.
         13    1    1    2    0    0  0.73646484181E+01  0.18158319941E+02  0.11264221579E+03  0.11433390824E+03  0.10566000000E+00 0. -1.
        994    1    1    2    0    0 -0.29779989623E+02 -0.17818629608E+02  0.54775249922E+01  0.17476783063E+03  0.17120000000E+03 0.  0.
        998    1    1    2    0    0  0.22415341205E+02 -0.33969033355E+00  0.13818802555E+04  0.13820982611E+04  0.10000000000E+02 0. -1.
</event>
<event>
 5    1  0.1488417E-008  0.3689450E+03  0.7957747E-01  0.3500753E+00
         13   -1    0    0    0    0  0.00000000000E+00  0.00000000000E+00  0.14999999963E+04  0.15000000000E+04  0.10566000000E+00 0. -1.
        994   -1    0    0    0    0 -0.00000000000E+00 -0.00000000000E+00  0.11368683772E-12  0.17120000000E+03  0.17120000000E+03 0.  0.
         13    1    1    2    0    0  0.15666025616E+02  0.28243320133E+02  0.47966797305E+02  0.57826761093E+02  0.10566000000E+00 0. -1.
        994    1    1    2    0    0 -0.17324119486E+02 -0.26475030647E+02  0.13303375808E+02  0.17460662121E+03  0.17120000000E+03 0.  0.
        998    1    1    2    0    0  0.16580938702E+01 -0.17682894864E+01  0.14387298232E+04  0.14387666177E+04  0.10000000000E+02 0. -1.
</event>
<event>
 5    1  0.1488417E-008  0.3851760E+03  0.7957747E-01  0.3428926E+00
         13   -1    0    0    0    0  0.00000000000E+00  0.00000000000E+00  0.14999999963E+04  0.15000000000E+04  0.10566000000E+00 0. -1.
        994   -1    0    0    0    0 -0.00000000000E+00 -0.00000000000E+00  0.11368683772E-12  0.17120000000E+03  0.17120000000E+03 0.  0.
         13    1    1    2    0    0 -0.65853197224E+01  0.14548604483E+02  0.79056285596E+02  0.80653182111E+02  0.10566000000E+00 0. -1.
        994    1    1    2    0    0  0.90873220536E+01 -0.14487476135E+02  0.25046252762E+01  0.17207027499E+03  0.17120000000E+03 0.  0.
        998    1    1    2    0    0 -0.25020023312E+01 -0.61128347902E-01  0.14184390854E+04  0.14184765429E+04  0.10000000000E+02 0. -1.
</event>
<event>
 5    1  0.1488417E-008  0.3838418E+03  0.7957747E-01  0.3434599E+00
         13   -1    0    0    0    0  0.00000000000E+00  0.00000000000E+00  0.14999999963E+04  0.15000000000E+04  0.10566000000E+00 0.  1.
        994   -1    0    0    0    0 -0.00000000000E+00 -0.00000000000E+00  0.11368683772E-12  0.17120000000E+03  0.17120000000E+03 0.  0.
         13    1    1    2    0    0 -0.45794518341E+01 -0.95123255406E+01  0.24222983114E+02  0.26423848911E+02  0.10566000000E+00 0.  1.
        994    1    1    2    0    0  0.24184033966E+01  0.11343910820E+02  0.26504572671E+01  0.17161293049E+03  0.17120000000E+03 0.  0.
        998    1    1    2    0    0  0.21610484374E+01 -0.18315852792E+01  0.14731265559E+04  0.14731632206E+04  0.10000000000E+02 0.  1.
</event>
<event>
 5    1  0.1488417E-008  0.3859573E+03  0.7957747E-01  0.3425622E+00
         13   -1    0    0    0    0  0.00000000000E+00  0.00000000000E+00  0.14999999963E+04  0.15000000000E+04  0.10566000000E+00 0. -1.
        994   -1    0    0    0    0 -0.00000000000E+00 -0.00000000000E+00  0.11368683772E-12  0.17120000000E+03  0.17120000000E+03 0.  0.
         13    1    1    2    0    0 -0.11347614296E+02 -0.16452873218E+01  0.58670719603E+02  0.59780764660E+02  0.10566000000E+00 0. -1.
        994    1    1    2    0    0  0.52961004218E+01 -0.23022923694E+01  0.12649277493E+01  0.17130204106E+03  0.17120000000E+03 0.  0.
        998    1    1    2    0    0  0.60515138745E+01  0.39475796912E+01  0.14400643489E+04  0.14401171943E+04  0.10000000000E+02 0. -1.
</event>
<event>
 5    1  0.1488417E-008  0.3837993E+03  0.7957747E-01  0.3434780E+00
         13   -1    0    0    0    0  0.00000000000E+00  0.00000000000E+00  0.14999999963E+04  0.15000000000E+04  0.10566000000E+00 0. -1.
        994   -1    0    0    0    0 -0.00000000000E+00 -0.00000000000E+00  0.11368683772E-12  0.17120000000E+03  0.17120000000E+03 0.  0.
         13    1    1    2    0    0  0.36450001812E+01  0.11785519638E+02  0.35521277264E+02  0.37602616956E+02  0.10566000000E+00 0. -1.
        994    1    1    2    0    0  0.14358895353E+01  0.51723970205E+01  0.23225737667E+01  0.17129988272E+03  0.17120000000E+03 0.  0.
        998    1    1    2    0    0 -0.50808897166E+01 -0.16957916659E+02  0.14621561452E+04  0.14622975003E+04  0.10000000000E+02 0. -1.
</event>
<event>
 5    1  0.1488417E-008  0.3836628E+03  0.7957747E-01  0.3435363E+00
         13   -1    0    0    0    0  0.00000000000E+00  0.00000000000E+00  0.14999999963E+04  0.15000000000E+04  0.10566000000E+00 0.  1.
        994   -1    0    0    0    0 -0.00000000000E+00 -0.00000000000E+00  0.11368683772E-12  0.17120000000E+03  0.17120000000E+03 0.  0.
         13    1    1    2    0    0  0.17004891843E+02 -0.26891876034E+02  0.18233922582E+03  0.18509441855E+03  0.10566000000E+00 0.  1.
        994    1    1    2    0    0 -0.70603507465E+01  0.43298608829E+02  0.86785232292E+01  0.17694455302E+03  0.17120000000E+03 0.  0.
        998    1    1    2    0    0 -0.99445410965E+01 -0.16406732794E+02  0.13089822472E+04  0.13091610284E+04  0.10000000000E+02 0.  1.
</event>
<event>
 5    1  0.1488417E-008  0.3850763E+03  0.7957747E-01  0.3429349E+00
         13   -1    0    0    0    0  0.00000000000E+00  0.00000000000E+00  0.14999999963E+04  0.15000000000E+04  0.10566000000E+00 0. -1.
        994   -1    0    0    0    0 -0.00000000000E+00 -0.00000000000E+00  0.11368683772E-12  0.17120000000E+03  0.17120000000E+03 0.  0.
         13    1    1    2    0    0  0.10976133081E+03  0.91896249090E+02  0.36912441966E+03  0.39591074587E+03  0.10566000000E+00 0. -1.
        994    1    1    2    0    0 -0.17848872278E+03 -0.23605613165E+02  0.15131292575E+03  0.29089601343E+03  0.17120000000E+03 0.  0.
        998    1    1    2    0    0  0.68727391965E+02 -0.68290635925E+02  0.97956265086E+03  0.98439324070E+03  0.10000000000E+02 0. -1.
</event>
<event>
 5    1  0.1488417E-008  0.3801998E+03  0.7957747E-01  0.3450289E+00
         13   -1    0    0    0    0  0.00000000000E+00  0.00000000000E+00  0.14999999963E+04  0.15000000000E+04  0.10566000000E+00 0. -1.
        994   -1    0    0    0    0 -0.00000000000E+00 -0.00000000000E+00  0.11368683772E-12  0.17120000000E+03  0.17120000000E+03 0.  0.
         13    1    1    2    0    0  0.45496899227E+02  0.25860902529E+01  0.22211910420E+03  0.22674559162E+03  0.10566000000E+00 0. -1.
        994    1    1    2    0    0 -0.44287392227E+02 -0.58376715110E+01  0.10727482820E+02  0.17725679227E+03  0.17120000000E+03 0.  0.
        998    1    1    2    0    0 -0.12095070000E+01  0.32515812581E+01  0.12671534093E+04  0.12671976161E+04  0.10000000000E+02 0. -1.
</event>
<event>
 5    1  0.1488417E-008  0.3800489E+03  0.7957747E-01  0.3450946E+00
         13   -1    0    0    0    0  0.00000000000E+00  0.00000000000E+00  0.14999999963E+04  0.15000000000E+04  0.10566000000E+00 0.  1.
        994   -1    0    0    0    0 -0.00000000000E+00 -0.00000000000E+00  0.11368683772E-12  0.17120000000E+03  0.17120000000E+03 0.  0.
         13    1    1    2    0    0 -0.19447890673E+01  0.53979647457E+02  0.30135179691E+03  0.30615437480E+03  0.10566000000E+00 0.  1.
        994    1    1    2    0    0  0.97539046674E+01 -0.48014023125E+02  0.12173862990E+02  0.17848845344E+03  0.17120000000E+03 0.  0.
        998    1    1    2    0    0 -0.78091156002E+01 -0.59656243321E+01  0.11864743364E+04  0.11865571718E+04  0.10000000000E+02 0.  1.
</event>
<event>
 5    1  0.1488417E-008  0.3786346E+03  0.7957747E-01  0.3457125E+00
         13   -1    0    0    0    0  0.00000000000E+00  0.00000000000E+00  0.14999999963E+04  0.15000000000E+04  0.10566000000E+00 0.  1.
        994   -1    0    0    0    0 -0.00000000000E+00 -0.00000000000E+00  0.11368683772E-12  0.17120000000E+03  0.17120000000E+03 0.  0.
         13    1    1    2    0    0  0.60537193359E+02  0.61031643386E+01  0.32657650315E+03  0.33219606254E+03  0.10566000000E+00 0.  1.
        994    1    1    2    0    0 -0.52268212157E+02 -0.13059132252E+01  0.14059254465E+02  0.17955716095E+03  0.17120000000E+03 0.  0.
        998    1    1    2    0    0 -0.82689812017E+01 -0.47972511134E+01  0.11593642387E+04  0.11594467765E+04  0.10000000000E+02 0.  1.
</event>
<event>
 5    1  0.1488417E-008  0.3837084E+03  0.7957747E-01  0.3435169E+00
         13   -1    0    0    0    0  0.00000000000E+00  0.00000000000E+00  0.14999999963E+04  0.15000000000E+04  0.10566000000E+00 0.  1.
        994   -1    0    0    0    0 -0.00000000000E+00 -0.00000000000E+00  0.11368683772E-12  0.17120000000E+03  0.17120000000E+03 0.  0.
         13    1    1    2    0    0 -0.46161365186E+01  0.23904716533E+02  0.13451895828E+03  0.13670444576E+03  0.10566000000E+00 0.  1.
        994    1    1    2    0    0  0.39052817390E+01 -0.97994177207E+01  0.26403596803E+01  0.17154501250E+03  0.17120000000E+03 0.  0.
        998    1    1    2    0    0  0.71085477959E+00 -0.14105298812E+02  0.13628406783E+04  0.13629505417E+04  0.10000000000E+02 0.  1.
</event>
<event>
 5    1  0.1488417E-008  0.3838400E+03  0.7957747E-01  0.3434607E+00
         13   -1    0    0    0    0  0.00000000000E+00  0.00000000000E+00  0.14999999963E+04  0.15000000000E+04  0.10566000000E+00 0.  1.
        994   -1    0    0    0    0 -0.00000000000E+00 -0.00000000000E+00  0.11368683772E-12  0.17120000000E+03  0.17120000000E+03 0.  0.
         13    1    1    2    0    0 -0.22872364390E+02  0.10142875799E+01  0.13447981346E+03  0.13641482773E+03  0.10566000000E+00 0.  1.
        994    1    1    2    0    0 -0.14975599827E+01  0.43865081743E+01  0.22780686460E+01  0.17127788455E+03  0.17120000000E+03 0.  0.
        998    1    1    2    0    0  0.24369924373E+02 -0.54007957542E+01  0.13632421142E+04  0.13635072877E+04  0.10000000000E+02 0.  1.
</event>
<event>
 5    1  0.1488417E-008  0.3841823E+03  0.7957747E-01  0.3433148E+00
         13   -1    0    0    0    0  0.00000000000E+00  0.00000000000E+00  0.14999999963E+04  0.15000000000E+04  0.10566000000E+00 0.  1.
        994   -1    0    0    0    0 -0.00000000000E+00 -0.00000000000E+00  0.11368683772E-12  0.17120000000E+03  0.17120000000E+03 0.  0.
         13    1    1    2    0    0 -0.16522972161E+02 -0.16653487054E+02  0.13184493123E+03  0.13391581047E+03  0.10566000000E+00 0.  1.
        994    1    1    2    0    0  0.33209037086E+01  0.21081970721E+02  0.35399963314E+01  0.17256143678E+03  0.17120000000E+03 0.  0.
        998    1    1    2    0    0  0.13202068452E+02 -0.44284836670E+01  0.13646150687E+04  0.13647227527E+04  0.10000000000E+02 0.  1.
</event>
<event>
 5    1  0.1488417E-008  0.3826121E+03  0.7957747E-01  0.3439863E+00
         13   -1    0    0    0    0  0.00000000000E+00  0.00000000000E+00  0.14999999963E+04  0.15000000000E+04  0.10566000000E+00 0. -1.
        994   -1    0    0    0    0 -0.00000000000E+00 -0.00000000000E+00  0.11368683772E-12  0.17120000000E+03  0.17120000000E+03 0.  0.
         13    1    1    2    0    0  0.35815504833E+02 -0.50104367149E+01  0.20008798630E+03  0.20332994931E+03  0.10566000000E+00 0. -1.
        994    1    1    2    0    0 -0.40057545915E+02 -0.10651881053E+02  0.85355740902E+01  0.17635295739E+03  0.17120000000E+03 0.  0.
        998    1    1    2    0    0  0.42420410821E+01  0.15662317768E+02  0.12913764359E+04  0.12915170933E+04  0.10000000000E+02 0. -1.
</event>
<event>
 5    1  0.1488417E-008  0.3719670E+03  0.7957747E-01  0.3486899E+00
         13   -1    0    0    0    0  0.00000000000E+00  0.00000000000E+00  0.14999999963E+04  0.15000000000E+04  0.10566000000E+00 0. -1.
        994   -1    0    0    0    0 -0.00000000000E+00 -0.00000000000E+00  0.11368683772E-12  0.17120000000E+03  0.17120000000E+03 0.  0.
         13    1    1    2    0    0  0.48612228023E+02  0.27438720082E+02  0.16107950895E+03  0.17047771538E+03  0.10566000000E+00 0. -1.
        994    1    1    2    0    0 -0.12541122093E+03  0.75271426938E+02  0.85721540655E+02  0.24093854939E+03  0.17120000000E+03 0.  0.
        998    1    1    2    0    0  0.76798992911E+02 -0.10271014702E+03  0.12531989467E+04  0.12597837352E+04  0.10000000000E+02 0. -1.
</event>
<event>
 5    1  0.1488417E-008  0.3726261E+03  0.7957747E-01  0.3483908E+00
         13   -1    0    0    0    0  0.00000000000E+00  0.00000000000E+00  0.14999999963E+04  0.15000000000E+04  0.10566000000E+00 0.  1.
        994   -1    0    0    0    0 -0.00000000000E+00 -0.00000000000E+00  0.11368683772E-12  0.17120000000E+03  0.17120000000E+03 0.  0.
         13    1    1    2    0    0  0.64951200042E+02 -0.98880849448E+02  0.53931302376E+03  0.55213642294E+03  0.10566000000E+00 0.  1.
        994    1    1    2    0    0 -0.68302022996E+02  0.97753520631E+02  0.58323702034E+02  0.21663797303E+03  0.17120000000E+03 0.  0.
        998    1    1    2    0    0  0.33508229535E+01  0.11273288164E+01  0.90236327048E+03  0.90242560403E+03  0.10000000000E+02 0. -1.
</event>
<event>
 5    1  0.1488417E-008  0.3811111E+03  0.7957747E-01  0.3446335E+00
         13   -1    0    0    0    0  0.00000000000E+00  0.00000000000E+00  0.14999999963E+04  0.15000000000E+04  0.10566000000E+00 0.  1.
        994   -1    0    0    0    0 -0.00000000000E+00 -0.00000000000E+00  0.11368683772E-12  0.17120000000E+03  0.17120000000E+03 0.  0.
         13    1    1    2    0    0  0.13926037789E+02  0.44860289426E+00  0.25527062504E+02  0.29082260180E+02  0.10566000000E+00 0.  1.
        994    1    1    2    0    0 -0.12657661265E+02  0.30170193623E+01  0.41374693956E+01  0.17174363874E+03  0.17120000000E+03 0.  0.
        998    1    1    2    0    0 -0.12683765246E+01 -0.34656222566E+01  0.14703354644E+04  0.14703741011E+04  0.10000000000E+02 0.  1.
</event>
<event>
 5    1  0.1488417E-008  0.3854597E+03  0.7957747E-01  0.3427725E+00
         13   -1    0    0    0    0  0.00000000000E+00  0.00000000000E+00  0.14999999963E+04  0.15000000000E+04  0.10566000000E+00 0. -1.
        994   -1    0    0    0    0 -0.00000000000E+00 -0.00000000000E+00  0.11368683772E-12  0.17120000000E+03  0.17120000000E+03 0.  0.
         13    1    1    2    0    0 -0.91503138252E+01  0.86089730886E+01  0.58935787237E+02  0.60260109874E+02  0.10566000000E+00 0. -1.
        994    1    1    2    0    0  0.45042211130E+01  0.18096153533E+01  0.14794392726E+01  0.17127519218E+03  0.17120000000E+03 0.  0.
        998    1    1    2    0    0  0.46460927122E+01 -0.10418588442E+02  0.14395847698E+04  0.14396646979E+04  0.10000000000E+02 0. -1.
</event>
<event>
 5    1  0.1488417E-008  0.3826051E+03  0.7957747E-01  0.3439893E+00
         13   -1    0    0    0    0  0.00000000000E+00  0.00000000000E+00  0.14999999963E+04  0.15000000000E+04  0.10566000000E+00 0. -1.
        994   -1    0    0    0    0 -0.00000000000E+00 -0.00000000000E+00  0.11368683772E-12  0.17120000000E+03  0.17120000000E+03 0.  0.
         13    1    1    2    0    0 -0.22671790392E+02  0.45744747420E+01  0.92959375659E+02  0.95793489265E+02  0.10566000000E+00 0. -1.
        994    1    1    2    0    0  0.15193225339E+02 -0.57343817717E+01  0.36983863222E+01  0.17200824193E+03  0.17120000000E+03 0.  0.
        998    1    1    2    0    0  0.74785650532E+01  0.11599070297E+01  0.14033422343E+04  0.14033982688E+04  0.10000000000E+02 0. -1.
</event>
<event>
 5    1  0.1488417E-008  0.3782996E+03  0.7957747E-01  0.3458596E+00
         13   -1    0    0    0    0  0.00000000000E+00  0.00000000000E+00  0.14999999963E+04  0.15000000000E+04  0.10566000000E+00 0. -1.
        994   -1    0    0    0    0 -0.00000000000E+00 -0.00000000000E+00  0.11368683772E-12  0.17120000000E+03  0.17120000000E+03 0.  0.
         13    1    1    2    0    0  0.16386854476E+02  0.28955554440E+02  0.10169172757E+03  0.10699612962E+03  0.10566000000E+00 0. -1.
        994    1    1    2    0    0 -0.19169038165E+02 -0.29238031778E+02  0.91141214027E+01  0.17497091683E+03  0.17120000000E+03 0.  0.
        998    1    1    2    0    0  0.27821836884E+01  0.28247733815E+00  0.13891941473E+04  0.13892329536E+04  0.10000000000E+02 0. -1.
</event>
<event>
 5    1  0.1488417E-008  0.3822938E+03  0.7957747E-01  0.3441231E+00
         13   -1    0    0    0    0  0.00000000000E+00  0.00000000000E+00  0.14999999963E+04  0.15000000000E+04  0.10566000000E+00 0. -1.
        994   -1    0    0    0    0 -0.00000000000E+00 -0.00000000000E+00  0.11368683772E-12  0.17120000000E+03  0.17120000000E+03 0.  0.
         13    1    1    2    0    0 -0.10279653184E+02  0.26681055499E+02  0.12392203208E+03  0.12717795088E+03  0.10566000000E+00 0. -1.
        994    1    1    2    0    0  0.18842491808E+02 -0.26788990718E+02  0.65468029998E+01  0.17442760719E+03  0.17120000000E+03 0.  0.
        998    1    1    2    0    0 -0.85628386237E+01  0.10793521939E+00  0.13695311612E+04  0.13695944419E+04  0.10000000000E+02 0. -1.
</event>
<event>
 5    1  0.1488417E-008  0.3857504E+03  0.7957747E-01  0.3426496E+00
         13   -1    0    0    0    0  0.00000000000E+00  0.00000000000E+00  0.14999999963E+04  0.15000000000E+04  0.10566000000E+00 0. -1.
        994   -1    0    0    0    0 -0.00000000000E+00 -0.00000000000E+00  0.11368683772E-12  0.17120000000E+03  0.17120000000E+03 0.  0.
         13    1    1    2    0    0  0.61637066080E+01  0.11383518878E+02  0.63626831811E+02  0.64930429473E+02  0.10566000000E+00 0. -1.
        994    1    1    2    0    0 -0.65589654715E+01 -0.14935824690E+02  0.21315194921E+01  0.17198861085E+03  0.17120000000E+03 0.  0.
        998    1    1    2    0    0  0.39525886344E+00  0.35523058116E+01  0.14342416450E+04  0.14342809597E+04  0.10000000000E+02 0.  0.
</event>
<event>
 5    1  0.1488417E-008  0.3795882E+03  0.7957747E-01  0.3452953E+00
         13   -1    0    0    0    0  0.00000000000E+00  0.00000000000E+00  0.14999999963E+04  0.15000000000E+04  0.10566000000E+00 0.  1.
        994   -1    0    0    0    0 -0.00000000000E+00 -0.00000000000E+00  0.11368683772E-12  0.17120000000E+03  0.17120000000E+03 0.  0.
         13    1    1    2    0    0 -0.14952915988E+02  0.29154621433E+02  0.14690930080E+03  0.15051888743E+03  0.10566000000E+00 0.  1.
        994    1    1    2    0    0  0.20114806560E+01  0.12009778681E+02  0.48376718323E+01  0.17170068115E+03  0.17120000000E+03 0.  0.
        998    1    1    2    0    0  0.12941435332E+02 -0.41164400114E+02  0.13482530236E+04  0.13489804314E+04  0.10000000000E+02 0.  1.
</event>
<event>
 5    1  0.1488417E-008  0.3755680E+03  0.7957747E-01  0.3470686E+00
         13   -1    0    0    0    0  0.00000000000E+00  0.00000000000E+00  0.14999999963E+04  0.15000000000E+04  0.10566000000E+00 0.  1.
        994   -1    0    0    0    0 -0.00000000000E+00 -0.00000000000E+00  0.11368683772E-12  0.17120000000E+03  0.17120000000E+03 0.  0.
         13    1    1    2    0    0  0.20021542846E+02  0.43062326114E+01  0.31941362082E+02  0.37942951821E+02  0.10566000000E+00 0.  1.
        994    1    1    2    0    0  0.49580997421E+01  0.72866213499E+01  0.66509209637E+01  0.17155568295E+03  0.17120000000E+03 0.  0.
        998    1    1    2    0    0 -0.24979642588E+02 -0.11592853961E+02  0.14614077132E+04  0.14617013652E+04  0.10000000000E+02 0.  1.
</event>
<event>
 5    1  0.1488417E-008  0.3795891E+03  0.7957747E-01  0.3452950E+00
         13   -1    0    0    0    0  0.00000000000E+00  0.00000000000E+00  0.14999999963E+04  0.15000000000E+04  0.10566000000E+00 0. -1.
        994   -1    0    0    0    0 -0.00000000000E+00 -0.00000000000E+00  0.11368683772E-12  0.17120000000E+03  0.17120000000E+03 0.  0.
         13    1    1    2    0    0 -0.10048362084E+02 -0.64105866165E+02  0.27508531272E+03  0.28263487417E+03  0.10566000000E+00 0. -1.
        994    1    1    2    0    0 -0.37142383821E+02  0.11970604051E+03  0.58858965108E+02  0.22018835252E+03  0.17120000000E+03 0.  0.
        998    1    1    2    0    0  0.47190745905E+02 -0.55600174350E+02  0.11660557184E+04  0.11683767733E+04  0.10000000000E+02 0. -1.
</event>
<event>
 5    1  0.1488417E-008  0.3851605E+03  0.7957747E-01  0.3428992E+00
         13   -1    0    0    0    0  0.00000000000E+00  0.00000000000E+00  0.14999999963E+04  0.15000000000E+04  0.10566000000E+00 0.  1.
        994   -1    0    0    0    0 -0.00000000000E+00 -0.00000000000E+00  0.11368683772E-12  0.17120000000E+03  0.17120000000E+03 0.  0.
         13    1    1    2    0    0 -0.75759234246E+02 -0.20353973768E+03  0.11938615169E+04  0.12134550750E+04  0.10566000000E+00 0.  1.
        994    1    1    2    0    0  0.93737002159E+02  0.20830696459E+03  0.19761994138E+03  0.34719086725E+03  0.17120000000E+03 0.  0.
        998    1    1    2    0    0 -0.17977767912E+02 -0.47672269117E+01  0.10851853799E+03  0.11055405773E+03  0.10000000000E+02 0. -1.
</event>
<event>
 5    1  0.1488417E-008  0.3841095E+03  0.7957747E-01  0.3433458E+00
         13   -1    0    0    0    0  0.00000000000E+00  0.00000000000E+00  0.14999999963E+04  0.15000000000E+04  0.10566000000E+00 0. -1.
        994   -1    0    0    0    0 -0.00000000000E+00 -0.00000000000E+00  0.11368683772E-12  0.17120000000E+03  0.17120000000E+03 0.  0.
         13    1    1    2    0    0  0.14761511306E+02  0.61221882681E+01  0.59081964428E+02  0.61205172085E+02  0.10566000000E+00 0. -1.
        994    1    1    2    0    0 -0.13716479280E+02 -0.11431442036E+02  0.31251423501E+01  0.17215698123E+03  0.17120000000E+03 0.  0.
        998    1    1    2    0    0 -0.10450320255E+01  0.53092537676E+01  0.14377928895E+04  0.14378378467E+04  0.10000000000E+02 0. -1.
</event>
<event>
 5    1  0.1488417E-008  0.3835563E+03  0.7957747E-01  0.3435818E+00
         13   -1    0    0    0    0  0.00000000000E+00  0.00000000000E+00  0.14999999963E+04  0.15000000000E+04  0.10566000000E+00 0.  1.
        994   -1    0    0    0    0 -0.00000000000E+00 -0.00000000000E+00  0.11368683772E-12  0.17120000000E+03  0.17120000000E+03 0.  0.
         13    1    1    2    0    0  0.20684698579E+02 -0.10640455142E+02  0.12141148356E+03  0.12361972151E+03  0.10566000000E+00 0.  1.
        994    1    1    2    0    0 -0.91654631898E+01 -0.34564938319E+01  0.26657253026E+01  0.17150072640E+03  0.17120000000E+03 0.  0.
        998    1    1    2    0    0 -0.11519235389E+02  0.14096948974E+02  0.13759227874E+04  0.13760795521E+04  0.10000000000E+02 0.  1.
</event>
<event>
 5    1  0.1488417E-008  0.3805495E+03  0.7957747E-01  0.3448770E+00
         13   -1    0    0    0    0  0.00000000000E+00  0.00000000000E+00  0.14999999963E+04  0.15000000000E+04  0.10566000000E+00 0.  1.
        994   -1    0    0    0    0 -0.00000000000E+00 -0.00000000000E+00  0.11368683772E-12  0.17120000000E+03  0.17120000000E+03 0.  0.
         13    1    1    2    0    0 -0.17175122959E+02  0.31054004497E+02  0.18047668392E+03  0.18393254374E+03  0.10566000000E+00 0.  1.
        994    1    1    2    0    0  0.26601267332E+02  0.66971071311E+01  0.63710082606E+01  0.17350074471E+03  0.17120000000E+03 0.  0.
        998    1    1    2    0    0 -0.94261443728E+01 -0.37751111628E+02  0.13131523041E+04  0.13137667116E+04  0.10000000000E+02 0.  1.
</event>
<event>
 5    1  0.1488417E-008  0.3533080E+03  0.7957747E-01  0.3576307E+00
         13   -1    0    0    0    0  0.00000000000E+00  0.00000000000E+00  0.14999999963E+04  0.15000000000E+04  0.10566000000E+00 0.  1.
        994   -1    0    0    0    0 -0.00000000000E+00 -0.00000000000E+00  0.11368683772E-12  0.17120000000E+03  0.17120000000E+03 0.  0.
         13    1    1    2    0    0  0.23706518985E+03  0.34515835207E+02  0.11210409016E+04  0.11463524595E+04  0.10566000000E+00 0.  1.
        994    1    1    2    0    0 -0.17871197950E+03 -0.61076694695E+02  0.17087626404E+03  0.30688185327E+03  0.17120000000E+03 0.  0.
        998    1    1    2    0    0 -0.58353210353E+02  0.26560859488E+02  0.20808283062E+03  0.21796568724E+03  0.10000000000E+02 0. -1.
</event>
<event>
 5    1  0.1488417E-008  0.3825352E+03  0.7957747E-01  0.3440194E+00
         13   -1    0    0    0    0  0.00000000000E+00  0.00000000000E+00  0.14999999963E+04  0.15000000000E+04  0.10566000000E+00 0.  1.
        994   -1    0    0    0    0 -0.00000000000E+00 -0.00000000000E+00  0.11368683772E-12  0.17120000000E+03  0.17120000000E+03 0.  0.
         13    1    1    2    0    0  0.17076408859E+02  0.36601641776E+01  0.51000944017E+02  0.53908329560E+02  0.10566000000E+00 0.  1.
        994    1    1    2    0    0 -0.18101759344E+02 -0.25434299076E+00  0.39460983294E+01  0.17219973889E+03  0.17120000000E+03 0.  0.
        998    1    1    2    0    0  0.10253504846E+01 -0.34058211869E+01  0.14450529539E+04  0.14450919316E+04  0.10000000000E+02 0.  1.
</event>
<event>
 5    1  0.1488417E-008  0.3831542E+03  0.7957747E-01  0.3437539E+00
         13   -1    0    0    0    0  0.00000000000E+00  0.00000000000E+00  0.14999999963E+04  0.15000000000E+04  0.10566000000E+00 0. -1.
        994   -1    0    0    0    0 -0.00000000000E+00 -0.00000000000E+00  0.11368683772E-12  0.17120000000E+03  0.17120000000E+03 0.  0.
         13    1    1    2    0    0  0.71857092972E+01  0.19995225055E+02  0.10516068772E+03  0.10728571596E+03  0.10566000000E+00 0. -1.
        994    1    1    2    0    0  0.18644054868E+02  0.71536593948E+01  0.38697851311E+01  0.17240414978E+03  0.17120000000E+03 0.  0.
        998    1    1    2    0    0 -0.25829764165E+02 -0.27148884450E+02  0.13909695234E+04  0.13915101343E+04  0.10000000000E+02 0. -1.
</event>
<event>
 5    1  0.1488417E-008  0.3833910E+03  0.7957747E-01  0.3436525E+00
         13   -1    0    0    0    0  0.00000000000E+00  0.00000000000E+00  0.14999999963E+04  0.15000000000E+04  0.10566000000E+00 0.  1.
        994   -1    0    0    0    0 -0.00000000000E+00 -0.00000000000E+00  0.11368683772E-12  0.17120000000E+03  0.17120000000E+03 0.  0.
         13    1    1    2    0    0 -0.15154596646E+02  0.60375256924E+00  0.47366306178E+02  0.49735343989E+02  0.10566000000E+00 0.  1.
        994    1    1    2    0    0  0.64505190993E+01 -0.47331341784E+01  0.26427423989E+01  0.17140722226E+03  0.17120000000E+03 0.  0.
        998    1    1    2    0    0  0.87040775469E+01  0.41293816092E+01  0.14499909477E+04  0.14500574338E+04  0.10000000000E+02 0.  1.
</event>
<event>
 5    1  0.1488417E-008  0.3826651E+03  0.7957747E-01  0.3439636E+00
         13   -1    0    0    0    0  0.00000000000E+00  0.00000000000E+00  0.14999999963E+04  0.15000000000E+04  0.10566000000E+00 0.  1.
        994   -1    0    0    0    0 -0.00000000000E+00 -0.00000000000E+00  0.11368683772E-12  0.17120000000E+03  0.17120000000E+03 0.  0.
         13    1    1    2    0    0  0.73825272604E+01  0.21129435294E+02  0.10089763709E+03  0.10335037049E+03  0.10566000000E+00 0.  1.
        994    1    1    2    0    0 -0.10584802492E+02  0.10238585519E+02  0.35128057538E+01  0.17186810781E+03  0.17120000000E+03 0.  0.
        998    1    1    2    0    0  0.32022752318E+01 -0.31368020814E+02  0.13955895534E+04  0.13959815217E+04  0.10000000000E+02 0.  1.
</event>
<event>
 5    1  0.1488417E-008  0.3847546E+03  0.7957747E-01  0.3430713E+00
         13   -1    0    0    0    0  0.00000000000E+00  0.00000000000E+00  0.14999999963E+04  0.15000000000E+04  0.10566000000E+00 0.  1.
        994   -1    0    0    0    0 -0.00000000000E+00 -0.00000000000E+00  0.11368683772E-12  0.17120000000E+03  0.17120000000E+03 0.  0.
         13    1    1    2    0    0  0.11889355610E+02 -0.74022460855E+01  0.60407688853E+02  0.62010080314E+02  0.10566000000E+00 0.  1.
        994    1    1    2    0    0  0.34732725155E+01 -0.17082834347E+01  0.18013178158E+01  0.17125322362E+03  0.17120000000E+03 0.  0.
        998    1    1    2    0    0 -0.15362628126E+02  0.91105295202E+01  0.14377909896E+04  0.14379366961E+04  0.10000000000E+02 0.  1.
</event>
<event>
 5    1  0.1488417E-008  0.3838293E+03  0.7957747E-01  0.3434653E+00
         13   -1    0    0    0    0  0.00000000000E+00  0.00000000000E+00  0.14999999963E+04  0.15000000000E+04  0.10566000000E+00 0.  1.
        994   -1    0    0    0    0 -0.00000000000E+00 -0.00000000000E+00  0.11368683772E-12  0.17120000000E+03  0.17120000000E+03 0.  0.
         13    1    1    2    0    0  0.21811393916E+02 -0.72031420171E+01  0.11058409231E+03  0.11294456514E+03  0.10566000000E+00 0.  1.
        994    1    1    2    0    0 -0.22003501421E+02  0.10719310131E+02  0.41925871163E+01  0.17299154740E+03  0.17120000000E+03 0.  0.
        998    1    1    2    0    0  0.19210750463E+00 -0.35161681138E+01  0.13852233169E+04  0.13852638875E+04  0.10000000000E+02 0.  1.
</event>
<event>
 5    1  0.1488417E-008  0.3804545E+03  0.7957747E-01  0.3449182E+00
         13   -1    0    0    0    0  0.00000000000E+00  0.00000000000E+00  0.14999999963E+04  0.15000000000E+04  0.10566000000E+00 0. -1.
        994   -1    0    0    0    0 -0.00000000000E+00 -0.00000000000E+00  0.11368683772E-12  0.17120000000E+03  0.17120000000E+03 0.  0.
         13    1    1    2    0    0 -0.28076367403E+02  0.14922463302E+02  0.13582999715E+03  0.13950183370E+03  0.10566000000E+00 0. -1.
        994    1    1    2    0    0  0.10690331021E+02 -0.28434138187E+00  0.42857178540E+01  0.17158721224E+03  0.17120000000E+03 0.  0.
        998    1    1    2    0    0  0.17386036382E+02 -0.14638121920E+02  0.13598842813E+04  0.13601109541E+04  0.10000000000E+02 0. -1.
</event>
<event>
 5    1  0.2225315E-008  0.3860623E+03  0.7957747E-01  0.3425179E+00
         13   -1    0    0    0    0  0.00000000000E+00  0.00000000000E+00  0.14999999963E+04  0.15000000000E+04  0.10566000000E+00 0.  1.
        994   -1    0    0    0    0 -0.00000000000E+00 -0.00000000000E+00  0.11368683772E-12  0.17120000000E+03  0.17120000000E+03 0.  0.
         13    1    1    2    0    0  0.93709225551E+01  0.36688987697E+01  0.46538998250E+02  0.47614751179E+02  0.10566000000E+00 0.  1.
        994    1    1    2    0    0 -0.49509637465E+01 -0.53373175141E+01  0.12773420801E+01  0.17135947772E+03  0.17120000000E+03 0.  0.
        998    1    1    2    0    0 -0.44199588086E+01  0.16684187443E+01  0.14521836559E+04  0.14522257711E+04  0.10000000000E+02 0.  1.
</event>
<event>
 5    1  0.1488417E-008  0.3836435E+03  0.7957747E-01  0.3435446E+00
         13   -1    0    0    0    0  0.00000000000E+00  0.00000000000E+00  0.14999999963E+04  0.15000000000E+04  0.10566000000E+00 0. -1.
        994   -1    0    0    0    0 -0.00000000000E+00 -0.00000000000E+00  0.11368683772E-12  0.17120000000E+03  0.17120000000E+03 0.  0.
         13    1    1    2    0    0  0.45584285493E+01  0.14998827517E+02  0.52441533841E+02  0.54734538760E+02  0.10566000000E+00 0. -1.
        994    1    1    2    0    0  0.58091290119E+00 -0.12139613098E+02  0.27931519325E+01  0.17165357370E+03  0.17120000000E+03 0.  0.
        998    1    1    2    0    0 -0.51393414505E+01 -0.28592144195E+01  0.14447653105E+04  0.14448118875E+04  0.10000000000E+02 0. -1.
</event>
<event>
 5    1  0.1488417E-008  0.3899389E+03  0.7957747E-01  0.3408992E+00
         13   -1    0    0    0    0  0.00000000000E+00  0.00000000000E+00  0.14999999963E+04  0.15000000000E+04  0.10566000000E+00 0.  1.
        994   -1    0    0    0    0 -0.00000000000E+00 -0.00000000000E+00  0.11368683772E-12  0.17120000000E+03  0.17120000000E+03 0.  0.
         13    1    1    2    0    0  0.73948276940E+02  0.15217018725E+03  0.39211066794E+03  0.42705374443E+03  0.10566000000E+00 0.  1.
        994    1    1    2    0    0 -0.65721234495E+02 -0.17314833008E+03  0.16600262346E+03  0.30193697334E+03  0.17120000000E+03 0.  0.
        998    1    1    2    0    0 -0.82270424452E+01  0.20978142831E+02  0.94188670488E+03  0.94220928224E+03  0.10000000000E+02 0.  1.
</event>
<event>
 5    1  0.1488417E-008  0.3787284E+03  0.7957747E-01  0.3456714E+00
         13   -1    0    0    0    0  0.00000000000E+00  0.00000000000E+00  0.14999999963E+04  0.15000000000E+04  0.10566000000E+00 0.  1.
        994   -1    0    0    0    0 -0.00000000000E+00 -0.00000000000E+00  0.11368683772E-12  0.17120000000E+03  0.17120000000E+03 0.  0.
         13    1    1    2    0    0  0.18814802716E+02 -0.35860519652E+02  0.15362610852E+03  0.15887405721E+03  0.10566000000E+00 0.  1.
        994    1    1    2    0    0 -0.21405861086E+02  0.34894160120E+02  0.10422825789E+02  0.17633459274E+03  0.17120000000E+03 0.  0.
        998    1    1    2    0    0  0.25910583703E+01  0.96635953188E+00  0.13359510620E+04  0.13359913500E+04  0.10000000000E+02 0.  1.
</event>
<event>
 5    1  0.1488417E-008  0.3697695E+03  0.7957747E-01  0.3496951E+00
         13   -1    0    0    0    0  0.00000000000E+00  0.00000000000E+00  0.14999999963E+04  0.15000000000E+04  0.10566000000E+00 0.  1.
        994   -1    0    0    0    0 -0.00000000000E+00 -0.00000000000E+00  0.11368683772E-12  0.17120000000E+03  0.17120000000E+03 0.  0.
         13    1    1    2    0    0  0.99532010043E+00 -0.18774447964E+02  0.14414777588E+02  0.23691085568E+02  0.10566000000E+00 0.  1.
        994    1    1    2    0    0  0.29824594602E+01  0.22883898185E+02  0.11234639845E+02  0.17311332991E+03  0.17120000000E+03 0.  0.
        998    1    1    2    0    0 -0.39777795606E+01 -0.41094502211E+01  0.14743505788E+04  0.14743955845E+04  0.10000000000E+02 0.  1.
</event>
<event>
 5    1  0.1488417E-008  0.3781456E+03  0.7957747E-01  0.3459273E+00
         13   -1    0    0    0    0  0.00000000000E+00  0.00000000000E+00  0.14999999963E+04  0.15000000000E+04  0.10566000000E+00 0.  1.
        994   -1    0    0    0    0 -0.00000000000E+00 -0.00000000000E+00  0.11368683772E-12  0.17120000000E+03  0.17120000000E+03 0.  0.
         13    1    1    2    0    0  0.52821199792E+02 -0.39122045608E+01  0.27575120982E+03  0.28079196102E+03  0.10566000000E+00 0.  1.
        994    1    1    2    0    0 -0.34238958315E+02 -0.32138712123E+02  0.12525544566E+02  0.17796497507E+03  0.17120000000E+03 0.  0.
        998    1    1    2    0    0 -0.18582241477E+02  0.36050916684E+02  0.12117232419E+04  0.12124430639E+04  0.10000000000E+02 0.  1.
</event>
<event>
 5    1  0.1488417E-008  0.3832546E+03  0.7957747E-01  0.3437109E+00
         13   -1    0    0    0    0  0.00000000000E+00  0.00000000000E+00  0.14999999963E+04  0.15000000000E+04  0.10566000000E+00 0. -1.
        994   -1    0    0    0    0 -0.00000000000E+00 -0.00000000000E+00  0.11368683772E-12  0.17120000000E+03  0.17120000000E+03 0.  0.
         13    1    1    2    0    0 -0.39659487801E+01  0.12187953910E+02  0.31214469014E+02  0.33743580280E+02  0.10566000000E+00 0. -1.
        994    1    1    2    0    0  0.89719260562E+01 -0.13783068793E+02  0.33942416928E+01  0.17202159550E+03  0.17120000000E+03 0.  0.
        998    1    1    2    0    0 -0.50059772761E+01  0.15951148826E+01  0.14653912856E+04  0.14654348242E+04  0.10000000000E+02 0. -1.
</event>
<event>
 5    1  0.1488417E-008  0.3860081E+03  0.7957747E-01  0.3425408E+00
         13   -1    0    0    0    0  0.00000000000E+00  0.00000000000E+00  0.14999999963E+04  0.15000000000E+04  0.10566000000E+00 0.  1.
        994   -1    0    0    0    0 -0.00000000000E+00 -0.00000000000E+00  0.11368683772E-12  0.17120000000E+03  0.17120000000E+03 0.  0.
         13    1    1    2    0    0  0.11844741507E+02  0.15358930849E+00  0.57628554147E+02  0.58833518577E+02  0.10566000000E+00 0.  1.
        994    1    1    2    0    0 -0.20197774700E+02 -0.11451203508E+01  0.24731219706E+01  0.17240886791E+03  0.17120000000E+03 0.  0.
        998    1    1    2    0    0  0.83530331929E+01  0.99153104231E+00  0.14398983202E+04  0.14399576135E+04  0.10000000000E+02 0.  1.
</event>
<event>
 5    1  0.1488417E-008  0.3800525E+03  0.7957747E-01  0.3450930E+00
         13   -1    0    0    0    0  0.00000000000E+00  0.00000000000E+00  0.14999999963E+04  0.15000000000E+04  0.10566000000E+00 0.  1.
        994   -1    0    0    0    0 -0.00000000000E+00 -0.00000000000E+00  0.11368683772E-12  0.17120000000E+03  0.17120000000E+03 0.  0.
         13    1    1    2    0    0 -0.20978325745E+02 -0.35657849642E+02  0.17764575040E+03  0.18239955097E+03  0.10566000000E+00 0.  1.
        994    1    1    2    0    0  0.28618889112E+02  0.37192865200E+02  0.11503017182E+02  0.17788791257E+03  0.17120000000E+03 0.  0.
        998    1    1    2    0    0 -0.76405633669E+01 -0.15350155585E+01  0.13108512287E+04  0.13109125365E+04  0.10000000000E+02 0.  1.
</event>
<event>
 5    1  0.1488417E-008  0.3858811E+03  0.7957747E-01  0.3425944E+00
         13   -1    0    0    0    0  0.00000000000E+00  0.00000000000E+00  0.14999999963E+04  0.15000000000E+04  0.10566000000E+00 0.  1.
        994   -1    0    0    0    0 -0.00000000000E+00 -0.00000000000E+00  0.11368683772E-12  0.17120000000E+03  0.17120000000E+03 0.  0.
         13    1    1    2    0    0 -0.32808194062E+00 -0.13926267801E+02  0.83460206815E+02  0.84614808741E+02  0.10566000000E+00 0.  1.
        994    1    1    2    0    0 -0.37504739314E+01  0.72496895606E+01  0.14118410170E+01  0.17140028398E+03  0.17120000000E+03 0.  0.
        998    1    1    2    0    0  0.40785558721E+01  0.66765782405E+01  0.14151279484E+04  0.14151849073E+04  0.10000000000E+02 0.  1.
</event>
<event>
 5    1  0.1488417E-008  0.3853787E+03  0.7957747E-01  0.3428068E+00
         13   -1    0    0    0    0  0.00000000000E+00  0.00000000000E+00  0.14999999963E+04  0.15000000000E+04  0.10566000000E+00 0. -1.
        994   -1    0    0    0    0 -0.00000000000E+00 -0.00000000000E+00  0.11368683772E-12  0.17120000000E+03  0.17120000000E+03 0.  0.
         13    1    1    2    0    0 -0.43659752185E+01 -0.11438226723E+02  0.59781108609E+02  0.61022019638E+02  0.10566000000E+00 0. -1.
        994    1    1    2    0    0 -0.15222168068E+02 -0.74175981878E+01  0.23846340749E+01  0.17205191555E+03  0.17120000000E+03 0.  0.
        998    1    1    2    0    0  0.19588143287E+02  0.18855824910E+02  0.14378342536E+04  0.14381260648E+04  0.10000000000E+02 0. -1.
</event>
<event>
 5    1  0.1488417E-008  0.3770818E+03  0.7957747E-01  0.3463964E+00
         13   -1    0    0    0    0  0.00000000000E+00  0.00000000000E+00  0.14999999963E+04  0.15000000000E+04  0.10566000000E+00 0.  1.
        994   -1    0    0    0    0 -0.00000000000E+00 -0.00000000000E+00  0.11368683772E-12  0.17120000000E+03  0.17120000000E+03 0.  0.
         13    1    1    2    0    0  0.89887869052E+01  0.85232517394E+01  0.11123059318E+02  0.16648655287E+02  0.10566000000E+00 0.  1.
        994    1    1    2    0    0 -0.64327319397E+01 -0.86162242831E+01  0.60038945545E+01  0.17164237854E+03  0.17120000000E+03 0.  0.
        998    1    1    2    0    0 -0.25560549655E+01  0.92972543756E-01  0.14828730424E+04  0.14829089662E+04  0.10000000000E+02 0.  1.
</event>
<event>
 5    1  0.1488417E-008  0.3858845E+03  0.7957747E-01  0.3425929E+00
         13   -1    0    0    0    0  0.00000000000E+00  0.00000000000E+00  0.14999999963E+04  0.15000000000E+04  0.10566000000E+00 0.  1.
        994   -1    0    0    0    0 -0.00000000000E+00 -0.00000000000E+00  0.11368683772E-12  0.17120000000E+03  0.17120000000E+03 0.  0.
         13    1    1    2    0    0 -0.69549745150E+01 -0.77244758109E+01  0.46607272906E+02  0.47752363803E+02  0.10566000000E+00 0.  1.
        994    1    1    2    0    0  0.59589112671E+01  0.18876268268E+00  0.13081873625E+01  0.17130877271E+03  0.17120000000E+03 0.  0.
        998    1    1    2    0    0  0.99606324788E+00  0.75357131282E+01  0.14520845360E+04  0.14521388635E+04  0.10000000000E+02 0.  1.
</event>
<event>
 5    1  0.1488417E-008  0.3748926E+03  0.7957747E-01  0.3473703E+00
         13   -1    0    0    0    0  0.00000000000E+00  0.00000000000E+00  0.14999999963E+04  0.15000000000E+04  0.10566000000E+00 0. -1.
        994   -1    0    0    0    0 -0.00000000000E+00 -0.00000000000E+00  0.11368683772E-12  0.17120000000E+03  0.17120000000E+03 0.  0.
         13    1    1    2    0    0  0.52131123709E+02  0.17174279890E+02  0.21829043596E+03  0.22508517398E+03  0.10566000000E+00 0. -1.
        994    1    1    2    0    0 -0.24595961042E+02 -0.36586172959E+02  0.13371508143E+02  0.17729000700E+03  0.17120000000E+03 0.  0.
        998    1    1    2    0    0 -0.27535162667E+02  0.19411893069E+02  0.12683380522E+04  0.12688248190E+04  0.10000000000E+02 0. -1.
</event>
<event>
 5    1  0.1488417E-008  0.4082946E+03  0.7957747E-01  0.3336511E+00
         13   -1    0    0    0    0  0.00000000000E+00  0.00000000000E+00  0.14999999963E+04  0.15000000000E+04  0.10566000000E+00 0. -1.
        994   -1    0    0    0    0 -0.00000000000E+00 -0.00000000000E+00  0.11368683772E-12  0.17120000000E+03  0.17120000000E+03 0.  0.
         13    1    1    2    0    0  0.76182452979E+02 -0.52924401576E+02  0.11248576306E+03  0.14580060521E+03  0.10566000000E+00 0. -1.
        994    1    1    2    0    0 -0.77429256731E+02  0.50416734047E+02  0.68358036569E+02  0.20620232306E+03  0.17120000000E+03 0.  0.
        998    1    1    2    0    0  0.12468037521E+01  0.25076675292E+01  0.13191561966E+04  0.13191970717E+04  0.10000000000E+02 0. -1.
</event>
<event>
 5    1  0.1488417E-008  0.3834989E+03  0.7957747E-01  0.3436064E+00
         13   -1    0    0    0    0  0.00000000000E+00  0.00000000000E+00  0.14999999963E+04  0.15000000000E+04  0.10566000000E+00 0.  1.
        994   -1    0    0    0    0 -0.00000000000E+00 -0.00000000000E+00  0.11368683772E-12  0.17120000000E+03  0.17120000000E+03 0.  0.
         13    1    1    2    0    0 -0.14913845833E+02 -0.91908563536E+01  0.75202196853E+02  0.77215776974E+02  0.10566000000E+00 0.  1.
        994    1    1    2    0    0 -0.11374181529E+02 -0.12537009816E+02  0.33247929683E+01  0.17206697205E+03  0.17120000000E+03 0.  0.
        998    1    1    2    0    0  0.26288027363E+02  0.21727866170E+02  0.14214730065E+04  0.14219172510E+04  0.10000000000E+02 0.  1.
</event>
<event>
 5    1  0.1488417E-008  0.3746364E+03  0.7957747E-01  0.3474851E+00
         13   -1    0    0    0    0  0.00000000000E+00  0.00000000000E+00  0.14999999963E+04  0.15000000000E+04  0.10566000000E+00 0. -1.
        994   -1    0    0    0    0 -0.00000000000E+00 -0.00000000000E+00  0.11368683772E-12  0.17120000000E+03  0.17120000000E+03 0.  0.
         13    1    1    2    0    0 -0.17184008334E+02 -0.44842371653E+02  0.15114208804E+03  0.15858773717E+03  0.10566000000E+00 0. -1.
        994    1    1    2    0    0  0.13973016424E+01  0.49406023256E+02  0.15225546878E+02  0.17884117217E+03  0.17120000000E+03 0.  0.
        998    1    1    2    0    0  0.15786706692E+02 -0.45636516030E+01  0.13336323614E+04  0.13337710907E+04  0.10000000000E+02 0. -1.
</event>
<event>
 5    1  0.1488417E-008  0.3817846E+03  0.7957747E-01  0.3443424E+00
         13   -1    0    0    0    0  0.00000000000E+00  0.00000000000E+00  0.14999999963E+04  0.15000000000E+04  0.10566000000E+00 0. -1.
        994   -1    0    0    0    0 -0.00000000000E+00 -0.00000000000E+00  0.11368683772E-12  0.17120000000E+03  0.17120000000E+03 0.  0.
         13    1    1    2    0    0  0.15731695542E+02 -0.81371425941E+01  0.48281366156E+02  0.51427626974E+02  0.10566000000E+00 0. -1.
        994    1    1    2    0    0 -0.25545274922E+01  0.10224662133E+02  0.36041797783E+01  0.17156194053E+03  0.17120000000E+03 0.  0.
        998    1    1    2    0    0 -0.13177168050E+02 -0.20875195388E+01  0.14481144503E+04  0.14482104325E+04  0.10000000000E+02 0. -1.
</event>
<event>
 5    1  0.1488417E-008  0.3854488E+03  0.7957747E-01  0.3427771E+00
         13   -1    0    0    0    0  0.00000000000E+00  0.00000000000E+00  0.14999999963E+04  0.15000000000E+04  0.10566000000E+00 0. -1.
        994   -1    0    0    0    0 -0.00000000000E+00 -0.00000000000E+00  0.11368683772E-12  0.17120000000E+03  0.17120000000E+03 0.  0.
         13    1    1    2    0    0  0.11408812999E+02  0.99537524067E+01  0.88210612987E+02  0.89500623509E+02  0.10566000000E+00 0. -1.
        994    1    1    2    0    0 -0.13849392650E+02  0.14144142604E+02  0.26953749376E+01  0.17236173442E+03  0.17120000000E+03 0.  0.
        998    1    1    2    0    0  0.24405796509E+01 -0.24097895011E+02  0.14090940084E+04  0.14093376421E+04  0.10000000000E+02 0. -1.
</event>
<event>
 5    1  0.1488417E-008  0.3841000E+03  0.7957747E-01  0.3433498E+00
         13   -1    0    0    0    0  0.00000000000E+00  0.00000000000E+00  0.14999999963E+04  0.15000000000E+04  0.10566000000E+00 0.  1.
        994   -1    0    0    0    0 -0.00000000000E+00 -0.00000000000E+00  0.11368683772E-12  0.17120000000E+03  0.17120000000E+03 0.  0.
         13    1    1    2    0    0 -0.32974705896E+01  0.12290987407E+02  0.37588322720E+02  0.39684188950E+02  0.10566000000E+00 0.  1.
        994    1    1    2    0    0  0.19493686488E+02 -0.93347783388E+01  0.36199244017E+01  0.17259688801E+03  0.17120000000E+03 0.  0.
        998    1    1    2    0    0 -0.16196215899E+02 -0.29562090681E+01  0.14587917492E+04  0.14589189230E+04  0.10000000000E+02 0.  1.
</event>
<event>
 5    1  0.1488417E-008  0.3837606E+03  0.7957747E-01  0.3434946E+00
         13   -1    0    0    0    0  0.00000000000E+00  0.00000000000E+00  0.14999999963E+04  0.15000000000E+04  0.10566000000E+00 0. -1.
        994   -1    0    0    0    0 -0.00000000000E+00 -0.00000000000E+00  0.11368683772E-12  0.17120000000E+03  0.17120000000E+03 0.  0.
         13    1    1    2    0    0  0.13927637136E+02 -0.79204894049E+01  0.49861978431E+02  0.52373096965E+02  0.10566000000E+00 0. -1.
        994    1    1    2    0    0 -0.25313639003E+02  0.30936675572E+02  0.75406510925E+01  0.17596635938E+03  0.17120000000E+03 0.  0.
        998    1    1    2    0    0  0.11386001867E+02 -0.23016186167E+02  0.14425973668E+04  0.14428605437E+04  0.10000000000E+02 0. -1.
</event>
<event>
 5    1  0.1488417E-008  0.3780762E+03  0.7957747E-01  0.3459578E+00
         13   -1    0    0    0    0  0.00000000000E+00  0.00000000000E+00  0.14999999963E+04  0.15000000000E+04  0.10566000000E+00 0. -1.
        994   -1    0    0    0    0 -0.00000000000E+00 -0.00000000000E+00  0.11368683772E-12  0.17120000000E+03  0.17120000000E+03 0.  0.
         13    1    1    2    0    0 -0.11545763904E+02  0.26172667572E+02  0.88376651981E+02  0.92891102757E+02  0.10566000000E+00 0. -1.
        994    1    1    2    0    0 -0.40192142560E+02 -0.85856609259E+01  0.10811265571E+02  0.17639570675E+03  0.17120000000E+03 0.  0.
        998    1    1    2    0    0  0.51737906465E+02 -0.17587006646E+02  0.14008120787E+04  0.14019131905E+04  0.10000000000E+02 0. -1.
</event>
<event>
 5    1  0.1488417E-008  0.3823260E+03  0.7957747E-01  0.3441093E+00
         13   -1    0    0    0    0  0.00000000000E+00  0.00000000000E+00  0.14999999963E+04  0.15000000000E+04  0.10566000000E+00 0. -1.
        994   -1    0    0    0    0 -0.00000000000E+00 -0.00000000000E+00  0.11368683772E-12  0.17120000000E+03  0.17120000000E+03 0.  0.
         13    1    1    2    0    0 -0.10970414475E+02  0.85611286097E+01  0.31834169029E+02  0.34742889900E+02  0.10566000000E+00 0. -1.
        994    1    1    2    0    0  0.35477051216E+01 -0.76245562724E+01  0.31982029426E+01  0.17143625221E+03  0.17120000000E+03 0.  0.
        998    1    1    2    0    0  0.74227093534E+01 -0.93657233730E+00  0.14649676243E+04  0.14650208579E+04  0.10000000000E+02 0. -1.
</event>
<event>
 5    1  0.1488417E-008  0.3821309E+03  0.7957747E-01  0.3441932E+00
         13   -1    0    0    0    0  0.00000000000E+00  0.00000000000E+00  0.14999999963E+04  0.15000000000E+04  0.10566000000E+00 0.  1.
        994   -1    0    0    0    0 -0.00000000000E+00 -0.00000000000E+00  0.11368683772E-12  0.17120000000E+03  0.17120000000E+03 0.  0.
         13    1    1    2    0    0 -0.11504292883E+02  0.49587038024E+01  0.24414039648E+02  0.27440736035E+02  0.10566000000E+00 0.  1.
        994    1    1    2    0    0  0.84253233792E+01 -0.41943535204E+01  0.33554056773E+01  0.17149133338E+03  0.17120000000E+03 0.  0.
        998    1    1    2    0    0  0.30789695043E+01 -0.76435028202E+00  0.14722305510E+04  0.14722679306E+04  0.10000000000E+02 0.  1.
</event>
<event>
 5    1  0.1488417E-008  0.3837318E+03  0.7957747E-01  0.3435069E+00
         13   -1    0    0    0    0  0.00000000000E+00  0.00000000000E+00  0.14999999963E+04  0.15000000000E+04  0.10566000000E+00 0. -1.
        994   -1    0    0    0    0 -0.00000000000E+00 -0.00000000000E+00  0.11368683772E-12  0.17120000000E+03  0.17120000000E+03 0.  0.
         13    1    1    2    0    0 -0.11382912628E+02  0.31807239846E+01  0.30000774897E+02  0.32245082779E+02  0.10566000000E+00 0. -1.
        994    1    1    2    0    0  0.10758168452E+02  0.15562878555E+01  0.26513935694E+01  0.17156523572E+03  0.17120000000E+03 0.  0.
        998    1    1    2    0    0  0.62474417579E+00 -0.47370118401E+01  0.14673478278E+04  0.14673896815E+04  0.10000000000E+02 0. -1.
</event>
<event>
 5    1  0.1488417E-008  0.3795946E+03  0.7957747E-01  0.3452925E+00
         13   -1    0    0    0    0  0.00000000000E+00  0.00000000000E+00  0.14999999963E+04  0.15000000000E+04  0.10566000000E+00 0.  1.
        994   -1    0    0    0    0 -0.00000000000E+00 -0.00000000000E+00  0.11368683772E-12  0.17120000000E+03  0.17120000000E+03 0.  0.
         13    1    1    2    0    0 -0.83626362648E+02  0.79083248699E+02  0.58104440995E+03  0.59233448849E+03  0.10566000000E+00 0.  1.
        994    1    1    2    0    0  0.13636170570E+02 -0.25406776393E+02  0.19118794308E+02  0.17466086491E+03  0.17120000000E+03 0.  0.
        998    1    1    2    0    0  0.69990192078E+02 -0.53676472306E+02  0.89983679202E+03  0.90420464660E+03  0.10000000000E+02 0.  1.
</event>
<event>
 5    1  0.1488417E-008  0.3855469E+03  0.7957747E-01  0.3427356E+00
         13   -1    0    0    0    0  0.00000000000E+00  0.00000000000E+00  0.14999999963E+04  0.15000000000E+04  0.10566000000E+00 0.  1.
        994   -1    0    0    0    0 -0.00000000000E+00 -0.00000000000E+00  0.11368683772E-12  0.17120000000E+03  0.17120000000E+03 0.  0.
         13    1    1    2    0    0  0.16122121465E+02 -0.45769915192E+01  0.88577243016E+02  0.90148825817E+02  0.10566000000E+00 0.  1.
        994    1    1    2    0    0 -0.29177729016E+02  0.11436707999E+02  0.45896834451E+01  0.17410526515E+03  0.17120000000E+03 0.  0.
        998    1    1    2    0    0  0.13055607552E+02 -0.68597164801E+01  0.14068330698E+04  0.14069459090E+04  0.10000000000E+02 0.  1.
</event>
<event>
 5    1  0.1488417E-008  0.3699899E+03  0.7957747E-01  0.3495937E+00
         13   -1    0    0    0    0  0.00000000000E+00  0.00000000000E+00  0.14999999963E+04  0.15000000000E+04  0.10566000000E+00 0.  1.
        994   -1    0    0    0    0 -0.00000000000E+00 -0.00000000000E+00  0.11368683772E-12  0.17120000000E+03  0.17120000000E+03 0.  0.
         13    1    1    2    0    0  0.14824504304E+02 -0.16281620802E+02  0.21131669946E+02  0.30519104550E+02  0.10566000000E+00 0.  1.
        994    1    1    2    0    0 -0.34958501222E+02  0.16972819946E+02  0.14514273976E+02  0.17615413016E+03  0.17120000000E+03 0.  0.
        998    1    1    2    0    0  0.20133996919E+02 -0.69119914404E+00  0.14643540524E+04  0.14645267653E+04  0.10000000000E+02 0.  1.
</event>
<event>
 5    1  0.1488417E-008  0.3771642E+03  0.7957747E-01  0.3463600E+00
         13   -1    0    0    0    0  0.00000000000E+00  0.00000000000E+00  0.14999999963E+04  0.15000000000E+04  0.10566000000E+00 0.  1.
        994   -1    0    0    0    0 -0.00000000000E+00 -0.00000000000E+00  0.11368683772E-12  0.17120000000E+03  0.17120000000E+03 0.  0.
         13    1    1    2    0    0  0.20807179643E+02  0.51807699598E+02  0.11252284012E+03  0.12561201047E+03  0.10566000000E+00 0.  1.
        994    1    1    2    0    0  0.10520199652E+02 -0.73708964796E+01  0.15370231089E+02  0.17236788773E+03  0.17120000000E+03 0.  0.
        998    1    1    2    0    0 -0.31327379295E+02 -0.44436803118E+02  0.13721069251E+04  0.13732201018E+04  0.10000000000E+02 0.  1.
</event>
<event>
 5    1  0.1488417E-008  0.3854514E+03  0.7957747E-01  0.3427760E+00
         13   -1    0    0    0    0  0.00000000000E+00  0.00000000000E+00  0.14999999963E+04  0.15000000000E+04  0.10566000000E+00 0. -1.
        994   -1    0    0    0    0 -0.00000000000E+00 -0.00000000000E+00  0.11368683772E-12  0.17120000000E+03  0.17120000000E+03 0.  0.
         13    1    1    2    0    0 -0.10265536416E+02  0.11583183647E+02  0.84415466063E+02  0.85822686138E+02  0.10566000000E+00 0. -1.
        994    1    1    2    0    0  0.31561521653E+01 -0.13070489953E+02  0.20001165611E+01  0.17173887000E+03  0.17120000000E+03 0.  0.
        998    1    1    2    0    0  0.71093842507E+01  0.14873063060E+01  0.14135844137E+04  0.14136384439E+04  0.10000000000E+02 0. -1.
</event>
<event>
 5    1  0.1488417E-008  0.3843908E+03  0.7957747E-01  0.3432260E+00
         13   -1    0    0    0    0  0.00000000000E+00  0.00000000000E+00  0.14999999963E+04  0.15000000000E+04  0.10566000000E+00 0. -1.
        994   -1    0    0    0    0 -0.00000000000E+00 -0.00000000000E+00  0.11368683772E-12  0.17120000000E+03  0.17120000000E+03 0.  0.
         13    1    1    2    0    0 -0.11142576757E+02 -0.14070032589E+02  0.82582948902E+02  0.84510812606E+02  0.10566000000E+00 0. -1.
        994    1    1    2    0    0  0.94740818640E+01  0.83375850759E+01  0.24579250450E+01  0.17168213345E+03  0.17120000000E+03 0.  0.
        998    1    1    2    0    0  0.16684948931E+01  0.57324475135E+01  0.14149591223E+04  0.14150070539E+04  0.10000000000E+02 0. -1.
</event>
<event>
 5    1  0.1488417E-008  0.3720341E+03  0.7957747E-01  0.3486594E+00
         13   -1    0    0    0    0  0.00000000000E+00  0.00000000000E+00  0.14999999963E+04  0.15000000000E+04  0.10566000000E+00 0.  1.
        994   -1    0    0    0    0 -0.00000000000E+00 -0.00000000000E+00  0.11368683772E-12  0.17120000000E+03  0.17120000000E+03 0.  0.
         13    1    1    2    0    0 -0.18904965564E+01  0.28614953743E+02  0.27888134864E+02  0.40001859771E+02  0.10566000000E+00 0.  1.
        994    1    1    2    0    0  0.36769686709E+01 -0.40583462567E+02  0.17888142144E+02  0.17688969207E+03  0.17120000000E+03 0.  0.
        998    1    1    2    0    0 -0.17864721144E+01  0.11968508825E+02  0.14542237193E+04  0.14543084482E+04  0.10000000000E+02 0.  1.
</event>
<event>
 5    1  0.1488417E-008  0.3836917E+03  0.7957747E-01  0.3435240E+00
         13   -1    0    0    0    0  0.00000000000E+00  0.00000000000E+00  0.14999999963E+04  0.15000000000E+04  0.10566000000E+00 0.  1.
        994   -1    0    0    0    0 -0.00000000000E+00 -0.00000000000E+00  0.11368683772E-12  0.17120000000E+03  0.17120000000E+03 0.  0.
         13    1    1    2    0    0  0.75870868600E+01  0.76852906874E+01  0.24675038328E+02  0.26935037785E+02  0.10566000000E+00 0.  1.
        994    1    1    2    0    0 -0.97197766903E+01 -0.33930812381E+01  0.26311898282E+01  0.17152944418E+03  0.17120000000E+03 0.  0.
        998    1    1    2    0    0  0.21326898304E+01 -0.42922094493E+01  0.14726937681E+04  0.14727355180E+04  0.10000000000E+02 0.  1.
</event>
<event>
 5    1  0.1488417E-008  0.3788609E+03  0.7957747E-01  0.3456133E+00
         13   -1    0    0    0    0  0.00000000000E+00  0.00000000000E+00  0.14999999963E+04  0.15000000000E+04  0.10566000000E+00 0. -1.
        994   -1    0    0    0    0 -0.00000000000E+00 -0.00000000000E+00  0.11368683772E-12  0.17120000000E+03  0.17120000000E+03 0.  0.
         13    1    1    2    0    0  0.28477990511E+02 -0.13310814750E+02  0.96764825645E+02  0.10174289351E+03  0.10566000000E+00 0. -1.
        994    1    1    2    0    0 -0.28268406827E+02  0.16931716107E+02  0.83612747438E+01  0.17454265023E+03  0.17120000000E+03 0.  0.
        998    1    1    2    0    0 -0.20958368318E+00 -0.36209013566E+01  0.13948738959E+04  0.13949144563E+04  0.10000000000E+02 0. -1.
</event>
<event>
 5    1  0.1488417E-008  0.3732558E+03  0.7957747E-01  0.3481060E+00
         13   -1    0    0    0    0  0.00000000000E+00  0.00000000000E+00  0.14999999963E+04  0.15000000000E+04  0.10566000000E+00 0.  1.
        994   -1    0    0    0    0 -0.00000000000E+00 -0.00000000000E+00  0.11368683772E-12  0.17120000000E+03  0.17120000000E+03 0.  0.
         13    1    1    2    0    0 -0.58325063683E+02 -0.67486477359E+01  0.21740666790E+03  0.22519553217E+03  0.10566000000E+00 0.  1.
        994    1    1    2    0    0  0.40594063868E+02 -0.34647501914E+01  0.13274113852E+02  0.17648094689E+03  0.17120000000E+03 0.  0.
        998    1    1    2    0    0  0.17730999815E+02  0.10213397927E+02  0.12693192145E+04  0.12695235209E+04  0.10000000000E+02 0.  1.
</event>
<event>
 5    1  0.1488417E-008  0.3807911E+03  0.7957747E-01  0.3447721E+00
         13   -1    0    0    0    0  0.00000000000E+00  0.00000000000E+00  0.14999999963E+04  0.15000000000E+04  0.10566000000E+00 0. -1.
        994   -1    0    0    0    0 -0.00000000000E+00 -0.00000000000E+00  0.11368683772E-12  0.17120000000E+03  0.17120000000E+03 0.  0.
         13    1    1    2    0    0 -0.32248603284E+02  0.24279600140E+02  0.19941087777E+03  0.20345559893E+03  0.10566000000E+00 0. -1.
        994    1    1    2    0    0  0.27421309349E+02 -0.20670947805E+02  0.76760927859E+01  0.17477865628E+03  0.17120000000E+03 0.  0.
        998    1    1    2    0    0  0.48272939352E+01 -0.36086523349E+01  0.12929130257E+04  0.12929657448E+04  0.10000000000E+02 0. -1.
</event>
<event>
 5    1  0.1488417E-008  0.3841028E+03  0.7957747E-01  0.3433486E+00
         13   -1    0    0    0    0  0.00000000000E+00  0.00000000000E+00  0.14999999963E+04  0.15000000000E+04  0.10566000000E+00 0.  1.
        994   -1    0    0    0    0 -0.00000000000E+00 -0.00000000000E+00  0.11368683772E-12  0.17120000000E+03  0.17120000000E+03 0.  0.
         13    1    1    2    0    0 -0.25070632590E+01 -0.16919488687E+02  0.73951135785E+02  0.75903465741E+02  0.10566000000E+00 0.  1.
        994    1    1    2    0    0  0.47998655329E+01  0.15490606795E+01  0.21601412020E+01  0.17128789948E+03  0.17120000000E+03 0.  0.
        998    1    1    2    0    0 -0.22928022739E+01  0.15370428007E+02  0.14238887193E+04  0.14240086348E+04  0.10000000000E+02 0.  1.
</event>
<event>
 5    1  0.1488417E-008  0.2682221E+03  0.7957747E-01  0.4152736E+00
         13   -1    0    0    0    0  0.00000000000E+00  0.00000000000E+00  0.14999999963E+04  0.15000000000E+04  0.10566000000E+00 0. -1.
        994   -1    0    0    0    0 -0.00000000000E+00 -0.00000000000E+00  0.11368683772E-12  0.17120000000E+03  0.17120000000E+03 0.  0.
         13    1    1    2    0    0  0.17772315693E+03  0.45669035647E+02  0.42683548696E+03  0.46460706562E+03  0.10566000000E+00 0. -1.
        994    1    1    2    0    0 -0.16391135180E+03 -0.31254116734E+02  0.14802553065E+03  0.28118454578E+03  0.17120000000E+03 0.  0.
        998    1    1    2    0    0 -0.13811805135E+02 -0.14414918914E+02  0.92513897867E+03  0.92540838860E+03  0.10000000000E+02 0. -1.
</event>
<event>
 5    1  0.1488417E-008  0.3828509E+03  0.7957747E-01  0.3438838E+00
         13   -1    0    0    0    0  0.00000000000E+00  0.00000000000E+00  0.14999999963E+04  0.15000000000E+04  0.10566000000E+00 0. -1.
        994   -1    0    0    0    0 -0.00000000000E+00 -0.00000000000E+00  0.11368683772E-12  0.17120000000E+03  0.17120000000E+03 0.  0.
         13    1    1    2    0    0 -0.13389343116E+02  0.10596913293E+02  0.50973476787E+02  0.53757563005E+02  0.10566000000E+00 0. -1.
        994    1    1    2    0    0  0.15749229107E+02 -0.13199098505E+02  0.41005159291E+01  0.17247755984E+03  0.17120000000E+03 0.  0.
        998    1    1    2    0    0 -0.23598859904E+01  0.26021852113E+01  0.14449260036E+04  0.14449648772E+04  0.10000000000E+02 0. -1.
</event>
<event>
 5    1  0.1488417E-008  0.3779887E+03  0.7957747E-01  0.3459963E+00
         13   -1    0    0    0    0  0.00000000000E+00  0.00000000000E+00  0.14999999963E+04  0.15000000000E+04  0.10566000000E+00 0.  1.
        994   -1    0    0    0    0 -0.00000000000E+00 -0.00000000000E+00  0.11368683772E-12  0.17120000000E+03  0.17120000000E+03 0.  0.
         13    1    1    2    0    0 -0.11052336497E+02  0.13733320377E+02  0.22864228297E+02  0.28871133165E+02  0.10566000000E+00 0.  1.
        994    1    1    2    0    0  0.44860291375E+02 -0.73170494891E+02  0.30356777152E+02  0.19390033776E+03  0.17120000000E+03 0.  0.
        998    1    1    2    0    0 -0.33807954878E+02  0.59437174515E+02  0.14467789908E+04  0.14484285291E+04  0.10000000000E+02 0.  1.
</event>
<event>
 5    1  0.1488417E-008  0.3806711E+03  0.7957747E-01  0.3448242E+00
         13   -1    0    0    0    0  0.00000000000E+00  0.00000000000E+00  0.14999999963E+04  0.15000000000E+04  0.10566000000E+00 0.  1.
        994   -1    0    0    0    0 -0.00000000000E+00 -0.00000000000E+00  0.11368683772E-12  0.17120000000E+03  0.17120000000E+03 0.  0.
         13    1    1    2    0    0  0.44816774073E+01 -0.21828278817E+02  0.65388441571E+02  0.69081246686E+02  0.10566000000E+00 0.  1.
        994    1    1    2    0    0 -0.46598858018E+01  0.88326356151E+01  0.41274773202E+01  0.17154068339E+03  0.17120000000E+03 0.  0.
        998    1    1    2    0    0  0.17820839449E+00  0.12995643202E+02  0.14304840774E+04  0.14305780699E+04  0.10000000000E+02 0.  1.
</event>
<event>
 5    1  0.1488417E-008  0.3854739E+03  0.7957747E-01  0.3427665E+00
         13   -1    0    0    0    0  0.00000000000E+00  0.00000000000E+00  0.14999999963E+04  0.15000000000E+04  0.10566000000E+00 0.  1.
        994   -1    0    0    0    0 -0.00000000000E+00 -0.00000000000E+00  0.11368683772E-12  0.17120000000E+03  0.17120000000E+03 0.  0.
         13    1    1    2    0    0 -0.25945939852E+01  0.11254384526E+02  0.48551933188E+02  0.49906857939E+02  0.10566000000E+00 0.  1.
        994    1    1    2    0    0 -0.41262880940E+01 -0.69545158653E+01  0.16097938328E+01  0.17139843342E+03  0.17120000000E+03 0.  0.
        998    1    1    2    0    0  0.67208820792E+01 -0.42998686607E+01  0.14498382693E+04  0.14498947086E+04  0.10000000000E+02 0.  1.
</event>
<event>
 5    1  0.1488417E-008  0.3848115E+03  0.7957747E-01  0.3430472E+00
         13   -1    0    0    0    0  0.00000000000E+00  0.00000000000E+00  0.14999999963E+04  0.15000000000E+04  0.10566000000E+00 0. -1.
        994   -1    0    0    0    0 -0.00000000000E+00 -0.00000000000E+00  0.11368683772E-12  0.17120000000E+03  0.17120000000E+03 0.  0.
         13    1    1    2    0    0 -0.89453434859E+01  0.10901530136E+02  0.60403498795E+02  0.62027867608E+02  0.10566000000E+00 0. -1.
        994    1    1    2    0    0 -0.75364154181E+01 -0.81006953840E+01  0.21266997008E+01  0.17157034031E+03  0.17120000000E+03 0.  0.
        998    1    1    2    0    0  0.16481758904E+02 -0.28008347524E+01  0.14374697978E+04  0.14376017921E+04  0.10000000000E+02 0. -1.
</event>
<event>
 5    1  0.1488417E-008  0.3850143E+03  0.7957747E-01  0.3429611E+00
         13   -1    0    0    0    0  0.00000000000E+00  0.00000000000E+00  0.14999999963E+04  0.15000000000E+04  0.10566000000E+00 0.  1.
        994   -1    0    0    0    0 -0.00000000000E+00 -0.00000000000E+00  0.11368683772E-12  0.17120000000E+03  0.17120000000E+03 0.  0.
         13    1    1    2    0    0  0.79908733614E+01  0.76022793570E+01  0.36476009772E+02  0.38107206161E+02  0.10566000000E+00 0.  1.
        994    1    1    2    0    0 -0.91713395457E+01 -0.81354732084E+01  0.21174376173E+01  0.17165145771E+03  0.17120000000E+03 0.  0.
        998    1    1    2    0    0  0.11804661843E+01  0.53319385144E+00  0.14614065489E+04  0.14614413361E+04  0.10000000000E+02 0.  1.
</event>
<event>
 5    1  0.1488417E-008  0.3726529E+03  0.7957747E-01  0.3483787E+00
         13   -1    0    0    0    0  0.00000000000E+00  0.00000000000E+00  0.14999999963E+04  0.15000000000E+04  0.10566000000E+00 0.  1.
        994   -1    0    0    0    0 -0.00000000000E+00 -0.00000000000E+00  0.11368683772E-12  0.17120000000E+03  0.17120000000E+03 0.  0.
         13    1    1    2    0    0 -0.32828853353E+02 -0.18035380794E+02  0.94513452142E+02  0.10166519745E+03  0.10566000000E+00 0.  1.
        994    1    1    2    0    0  0.57324812660E+01 -0.11723342951E+02  0.84727007897E+01  0.17190556934E+03  0.17120000000E+03 0.  0.
        998    1    1    2    0    0  0.27096372087E+02  0.29758723744E+02  0.13970138433E+04  0.13976292332E+04  0.10000000000E+02 0.  1.
</event>
<event>
 5    1  0.1488417E-008  0.3784396E+03  0.7957747E-01  0.3457981E+00
         13   -1    0    0    0    0  0.00000000000E+00  0.00000000000E+00  0.14999999963E+04  0.15000000000E+04  0.10566000000E+00 0. -1.
        994   -1    0    0    0    0 -0.00000000000E+00 -0.00000000000E+00  0.11368683772E-12  0.17120000000E+03  0.17120000000E+03 0.  0.
         13    1    1    2    0    0  0.14071785459E+02  0.10496476182E+01  0.17799812384E+02  0.22714783536E+02  0.10566000000E+00 0. -1.
        994    1    1    2    0    0 -0.16956168971E+02 -0.11637961280E+01  0.58941781075E+01  0.17214252067E+03  0.17120000000E+03 0.  0.
        998    1    1    2    0    0  0.28843835127E+01  0.11414850982E+00  0.14763060058E+04  0.14763426958E+04  0.10000000000E+02 0. -1.
</event>
<event>
 5    1  0.1488417E-008  0.3728216E+03  0.7957747E-01  0.3483023E+00
         13   -1    0    0    0    0  0.00000000000E+00  0.00000000000E+00  0.14999999963E+04  0.15000000000E+04  0.10566000000E+00 0.  1.
        994   -1    0    0    0    0 -0.00000000000E+00 -0.00000000000E+00  0.11368683772E-12  0.17120000000E+03  0.17120000000E+03 0.  0.
         13    1    1    2    0    0 -0.10129968209E+03 -0.13097818830E+03  0.77958592290E+03  0.79697624416E+03  0.10566000000E+00 0.  1.
        994    1    1    2    0    0  0.96504985593E+02  0.13042472681E+03  0.10411382428E+03  0.25782348616E+03  0.17120000000E+03 0.  0.
        998    1    1    2    0    0  0.47946964948E+01  0.55346149566E+00  0.61630024910E+03  0.61640026969E+03  0.10000000000E+02 0.  0.
</event>
<event>
 5    1  0.1488417E-008  0.3736865E+03  0.7957747E-01  0.3479118E+00
         13   -1    0    0    0    0  0.00000000000E+00  0.00000000000E+00  0.14999999963E+04  0.15000000000E+04  0.10566000000E+00 0. -1.
        994   -1    0    0    0    0 -0.00000000000E+00 -0.00000000000E+00  0.11368683772E-12  0.17120000000E+03  0.17120000000E+03 0.  0.
         13    1    1    2    0    0 -0.73583423135E+01 -0.11606656225E+02  0.95836813276E+01  0.16754634647E+02  0.10566000000E+00 0. -1.
        994    1    1    2    0    0 -0.21860231259E+01  0.10337085958E+02  0.77360216844E+01  0.17170008758E+03  0.17120000000E+03 0.  0.
        998    1    1    2    0    0  0.95443654393E+01  0.12695702663E+01  0.14826802933E+04  0.14827452778E+04  0.10000000000E+02 0. -1.
</event>
<event>
 5    1  0.1488417E-008  0.3774791E+03  0.7957747E-01  0.3462209E+00
         13   -1    0    0    0    0  0.00000000000E+00  0.00000000000E+00  0.14999999963E+04  0.15000000000E+04  0.10566000000E+00 0.  1.
        994   -1    0    0    0    0 -0.00000000000E+00 -0.00000000000E+00  0.11368683772E-12  0.17120000000E+03  0.17120000000E+03 0.  0.
         13    1    1    2    0    0 -0.12886195930E+02  0.15873248891E+02  0.36271042044E+02  0.41636687319E+02  0.10566000000E+00 0.  1.
        994    1    1    2    0    0  0.66948089435E+01 -0.14498481686E+02  0.62712813576E+01  0.17205753517E+03  0.17120000000E+03 0.  0.
        998    1    1    2    0    0  0.61913869867E+01 -0.13747672044E+01  0.14574576729E+04  0.14575057775E+04  0.10000000000E+02 0.  1.
</event>
<event>
 5    1  0.1488417E-008  0.3789907E+03  0.7957747E-01  0.3455565E+00
         13   -1    0    0    0    0  0.00000000000E+00  0.00000000000E+00  0.14999999963E+04  0.15000000000E+04  0.10566000000E+00 0.  1.
        994   -1    0    0    0    0 -0.00000000000E+00 -0.00000000000E+00  0.11368683772E-12  0.17120000000E+03  0.17120000000E+03 0.  0.
         13    1    1    2    0    0 -0.19644861089E+02 -0.12015175476E+02  0.59067415880E+02  0.63397600836E+02  0.10566000000E+00 0.  1.
        994    1    1    2    0    0  0.24782379328E+01 -0.77147239820E+01  0.48637603082E+01  0.17146065086E+03  0.17120000000E+03 0.  0.
        998    1    1    2    0    0  0.17166623156E+02  0.19729899458E+02  0.14360688201E+04  0.14363417483E+04  0.10000000000E+02 0.  1.
</event>
<event>
 5    1  0.1488417E-008  0.3783939E+03  0.7957747E-01  0.3458182E+00
         13   -1    0    0    0    0  0.00000000000E+00  0.00000000000E+00  0.14999999963E+04  0.15000000000E+04  0.10566000000E+00 0.  1.
        994   -1    0    0    0    0 -0.00000000000E+00 -0.00000000000E+00  0.11368683772E-12  0.17120000000E+03  0.17120000000E+03 0.  0.
         13    1    1    2    0    0  0.45731980107E+01 -0.15689923182E+02  0.24814577335E+02  0.29712997860E+02  0.10566000000E+00 0.  1.
        994    1    1    2    0    0 -0.12230372207E+02  0.10257958370E+02  0.58028993022E+01  0.17204046429E+03  0.17120000000E+03 0.  0.
        998    1    1    2    0    0  0.76571741962E+01  0.54319648118E+01  0.14693825196E+04  0.14694465378E+04  0.10000000000E+02 0.  1.
</event>
<event>
 5    1  0.1488417E-008  0.3819906E+03  0.7957747E-01  0.3442537E+00
         13   -1    0    0    0    0  0.00000000000E+00  0.00000000000E+00  0.14999999963E+04  0.15000000000E+04  0.10566000000E+00 0.  1.
        994   -1    0    0    0    0 -0.00000000000E+00 -0.00000000000E+00  0.11368683772E-12  0.17120000000E+03  0.17120000000E+03 0.  0.
         13    1    1    2    0    0  0.10505997459E+02 -0.16608810334E+02  0.65186677324E+02  0.68084819364E+02  0.10566000000E+00 0.  1.
        994    1    1    2    0    0 -0.29478388639E+01 -0.48640082257E+01  0.32391125457E+01  0.17132507166E+03  0.17120000000E+03 0.  0.
        998    1    1    2    0    0 -0.75581585950E+01  0.21472818560E+02  0.14315742064E+04  0.14317901090E+04  0.10000000000E+02 0.  1.
</event>
<event>
 5    1  0.1488417E-008  0.3832701E+03  0.7957747E-01  0.3437042E+00
         13   -1    0    0    0    0  0.00000000000E+00  0.00000000000E+00  0.14999999963E+04  0.15000000000E+04  0.10566000000E+00 0.  1.
        994   -1    0    0    0    0 -0.00000000000E+00 -0.00000000000E+00  0.11368683772E-12  0.17120000000E+03  0.17120000000E+03 0.  0.
         13    1    1    2    0    0  0.15448945061E+02  0.17413661318E+02  0.11288728467E+03  0.11526255119E+03  0.10566000000E+00 0.  1.
        994    1    1    2    0    0 -0.89662148712E+01 -0.28371557839E+01  0.27840051909E+01  0.17148070780E+03  0.17120000000E+03 0.  0.
        998    1    1    2    0    0 -0.64827301894E+01 -0.14576505535E+02  0.13843287064E+04  0.13844567410E+04  0.10000000000E+02 0.  1.
</event>
<event>
 5    1  0.1488417E-008  0.3854952E+03  0.7957747E-01  0.3427575E+00
         13   -1    0    0    0    0  0.00000000000E+00  0.00000000000E+00  0.14999999963E+04  0.15000000000E+04  0.10566000000E+00 0.  1.
        994   -1    0    0    0    0 -0.00000000000E+00 -0.00000000000E+00  0.11368683772E-12  0.17120000000E+03  0.17120000000E+03 0.  0.
         13    1    1    2    0    0 -0.11765111626E+02  0.17509287114E+01  0.50886955197E+02  0.52258750236E+02  0.10566000000E+00 0.  1.
        994    1    1    2    0    0  0.94565994625E+01 -0.21668334425E+00  0.16783183176E+01  0.17146932955E+03  0.17120000000E+03 0.  0.
        998    1    1    2    0    0  0.23085121631E+01 -0.15342453672E+01  0.14474347228E+04  0.14474719202E+04  0.10000000000E+02 0.  1.
</event>
<event>
 5    1  0.1488417E-008  0.3808355E+03  0.7957747E-01  0.3447528E+00
         13   -1    0    0    0    0  0.00000000000E+00  0.00000000000E+00  0.14999999963E+04  0.15000000000E+04  0.10566000000E+00 0.  1.
        994   -1    0    0    0    0 -0.00000000000E+00 -0.00000000000E+00  0.11368683772E-12  0.17120000000E+03  0.17120000000E+03 0.  0.
         13    1    1    2    0    0 -0.13535873468E+02 -0.12991511773E+01  0.20563556232E+02  0.24653167611E+02  0.10566000000E+00 0.  1.
        994    1    1    2    0    0  0.49957425320E+02  0.45309215722E+02  0.19027601864E+02  0.18498691577E+03  0.17120000000E+03 0.  0.
        998    1    1    2    0    0 -0.36421551852E+02 -0.44010064545E+02  0.14604088382E+04  0.14615599166E+04  0.10000000000E+02 0.  1.
</event>
<event>
 5    1  0.1488417E-008  0.3845761E+03  0.7957747E-01  0.3431472E+00
         13   -1    0    0    0    0  0.00000000000E+00  0.00000000000E+00  0.14999999963E+04  0.15000000000E+04  0.10566000000E+00 0. -1.
        994   -1    0    0    0    0 -0.00000000000E+00 -0.00000000000E+00  0.11368683772E-12  0.17120000000E+03  0.17120000000E+03 0.  0.
         13    1    1    2    0    0  0.12916841497E+01 -0.10579566262E+02  0.32311880959E+02  0.34024468921E+02  0.10566000000E+00 0. -1.
        994    1    1    2    0    0 -0.22400723678E+01 -0.65367875353E+01  0.19979826485E+01  0.17135104158E+03  0.17120000000E+03 0.  0.
        998    1    1    2    0    0  0.94838821812E+00  0.17116353797E+02  0.14656901327E+04  0.14658244895E+04  0.10000000000E+02 0. -1.
</event>
<event>
 5    1  0.1488417E-008  0.3700557E+03  0.7957747E-01  0.3495635E+00
         13   -1    0    0    0    0  0.00000000000E+00  0.00000000000E+00  0.14999999963E+04  0.15000000000E+04  0.10566000000E+00 0.  1.
        994   -1    0    0    0    0 -0.00000000000E+00 -0.00000000000E+00  0.11368683772E-12  0.17120000000E+03  0.17120000000E+03 0.  0.
         13    1    1    2    0    0 -0.32132258784E+01  0.88687698584E+02  0.29756814602E+03  0.31051995973E+03  0.10566000000E+00 0.  1.
        994    1    1    2    0    0  0.19872750717E+02 -0.10628936403E+03  0.50818860079E+02  0.20876865586E+03  0.17120000000E+03 0.  0.
        998    1    1    2    0    0 -0.16659524838E+02  0.17601665451E+02  0.11516129902E+04  0.11519113844E+04  0.10000000000E+02 0.  1.
</event>
<event>
 5    1  0.1488417E-008  0.3828397E+03  0.7957747E-01  0.3438886E+00
         13   -1    0    0    0    0  0.00000000000E+00  0.00000000000E+00  0.14999999963E+04  0.15000000000E+04  0.10566000000E+00 0.  1.
        994   -1    0    0    0    0 -0.00000000000E+00 -0.00000000000E+00  0.11368683772E-12  0.17120000000E+03  0.17120000000E+03 0.  0.
         13    1    1    2    0    0  0.21064454377E+02  0.25591610157E+02  0.19113503762E+03  0.19398777157E+03  0.10566000000E+00 0.  1.
        994    1    1    2    0    0 -0.38049320338E+02 -0.38862800376E+01  0.75664171091E+01  0.17558344062E+03  0.17120000000E+03 0.  0.
        998    1    1    2    0    0  0.16984865961E+02 -0.21705330120E+02  0.13012985415E+04  0.13016287878E+04  0.10000000000E+02 0.  1.
</event>
<event>
 5    1  0.1488417E-008  0.3776893E+03  0.7957747E-01  0.3461282E+00
         13   -1    0    0    0    0  0.00000000000E+00  0.00000000000E+00  0.14999999963E+04  0.15000000000E+04  0.10566000000E+00 0.  1.
        994   -1    0    0    0    0 -0.00000000000E+00 -0.00000000000E+00  0.11368683772E-12  0.17120000000E+03  0.17120000000E+03 0.  0.
         13    1    1    2    0    0  0.77509299837E+01 -0.72591632981E+01  0.83519420756E+01  0.13510679771E+02  0.10566000000E+00 0.  1.
        994    1    1    2    0    0 -0.55254053683E+01 -0.42824463180E+01  0.54687758218E+01  0.17142991851E+03  0.17120000000E+03 0.  0.
        998    1    1    2    0    0 -0.22255246154E+01  0.11541609616E+02  0.14861792784E+04  0.14862594017E+04  0.10000000000E+02 0.  1.
</event>
<event>
 5    1  0.1488417E-008  0.3731717E+03  0.7957747E-01  0.3481440E+00
         13   -1    0    0    0    0  0.00000000000E+00  0.00000000000E+00  0.14999999963E+04  0.15000000000E+04  0.10566000000E+00 0. -1.
        994   -1    0    0    0    0 -0.00000000000E+00 -0.00000000000E+00  0.11368683772E-12  0.17120000000E+03  0.17120000000E+03 0.  0.
         13    1    1    2    0    0 -0.27234886817E+02  0.71809759958E+02  0.30174507982E+03  0.31136551679E+03  0.10566000000E+00 0. -1.
        994    1    1    2    0    0  0.25760503389E+02 -0.74643366814E+02  0.29257125181E+02  0.19078955715E+03  0.17120000000E+03 0.  0.
        998    1    1    2    0    0  0.14743834280E+01  0.28336068563E+01  0.11689977913E+04  0.11690449261E+04  0.10000000000E+02 0.  0.
</event>
<event>
 5    1  0.1488417E-008  0.3829211E+03  0.7957747E-01  0.3438537E+00
         13   -1    0    0    0    0  0.00000000000E+00  0.00000000000E+00  0.14999999963E+04  0.15000000000E+04  0.10566000000E+00 0. -1.
        994   -1    0    0    0    0 -0.00000000000E+00 -0.00000000000E+00  0.11368683772E-12  0.17120000000E+03  0.17120000000E+03 0.  0.
         13    1    1    2    0    0  0.14001465647E+02 -0.17919064221E+02  0.98707808755E+02  0.10129351695E+03  0.10566000000E+00 0. -1.
        994    1    1    2    0    0 -0.17562227284E+02 -0.69080662197E+00  0.36892682120E+01  0.17213936139E+03  0.17120000000E+03 0.  0.
        998    1    1    2    0    0  0.35607616371E+01  0.18609870843E+02  0.13976029193E+04  0.13977671217E+04  0.10000000000E+02 0. -1.
</event>
<event>
 5    1  0.1488417E-008  0.3829799E+03  0.7957747E-01  0.3438285E+00
         13   -1    0    0    0    0  0.00000000000E+00  0.00000000000E+00  0.14999999963E+04  0.15000000000E+04  0.10566000000E+00 0.  1.
        994   -1    0    0    0    0 -0.00000000000E+00 -0.00000000000E+00  0.11368683772E-12  0.17120000000E+03  0.17120000000E+03 0.  0.
         13    1    1    2    0    0  0.12162817610E+02  0.70611100173E+01  0.36979774055E+02  0.39563976798E+02  0.10566000000E+00 0.  1.
        994    1    1    2    0    0 -0.50588817177E+01 -0.58174477768E+01  0.28331635721E+01  0.17139691304E+03  0.17120000000E+03 0.  0.
        998    1    1    2    0    0 -0.71039358923E+01 -0.12436622404E+01  0.14601870587E+04  0.14602391102E+04  0.10000000000E+02 0.  1.
</event>
<event>
 5    1  0.1488417E-008  0.3828549E+03  0.7957747E-01  0.3438821E+00
         13   -1    0    0    0    0  0.00000000000E+00  0.00000000000E+00  0.14999999963E+04  0.15000000000E+04  0.10566000000E+00 0.  1.
        994   -1    0    0    0    0 -0.00000000000E+00 -0.00000000000E+00  0.11368683772E-12  0.17120000000E+03  0.17120000000E+03 0.  0.
         13    1    1    2    0    0  0.46712574291E+00  0.31002733812E+02  0.15384450115E+03  0.15693797949E+03  0.10566000000E+00 0.  1.
        994    1    1    2    0    0 -0.89952525109E+00 -0.37030391433E+02  0.72560327308E+01  0.17531157705E+03  0.17120000000E+03 0.  0.
        998    1    1    2    0    0  0.43239950818E+00  0.60276576212E+01  0.13388994624E+04  0.13389504435E+04  0.10000000000E+02 0.  1.
</event>
<event>
 5    1  0.1488417E-008  0.3829524E+03  0.7957747E-01  0.3438403E+00
         13   -1    0    0    0    0  0.00000000000E+00  0.00000000000E+00  0.14999999963E+04  0.15000000000E+04  0.10566000000E+00 0. -1.
        994   -1    0    0    0    0 -0.00000000000E+00 -0.00000000000E+00  0.11368683772E-12  0.17120000000E+03  0.17120000000E+03 0.  0.
         13    1    1    2    0    0  0.24035495007E+01  0.14206695120E+02  0.41423624509E+02  0.43858124309E+02  0.10566000000E+00 0. -1.
        994    1    1    2    0    0  0.13006710608E+01  0.89176810320E+01  0.29191010071E+01  0.17146188478E+03  0.17120000000E+03 0.  0.
        998    1    1    2    0    0 -0.37042205614E+01 -0.23124376152E+02  0.14556572708E+04  0.14558799909E+04  0.10000000000E+02 0. -1.
</event>
<event>
 5    1  0.1488417E-008  0.3831118E+03  0.7957747E-01  0.3437720E+00
         13   -1    0    0    0    0  0.00000000000E+00  0.00000000000E+00  0.14999999963E+04  0.15000000000E+04  0.10566000000E+00 0.  1.
        994   -1    0    0    0    0 -0.00000000000E+00 -0.00000000000E+00  0.11368683772E-12  0.17120000000E+03  0.17120000000E+03 0.  0.
         13    1    1    2    0    0 -0.53031986931E+01  0.17219679379E+02  0.78254539714E+02  0.80302088541E+02  0.10566000000E+00 0.  1.
        994    1    1    2    0    0  0.12772334726E+02  0.31726663256E+02  0.64506008254E+01  0.17470192886E+03  0.17120000000E+03 0.  0.
        998    1    1    2    0    0 -0.74691360332E+01 -0.48946342635E+02  0.14152948557E+04  0.14161959826E+04  0.10000000000E+02 0.  1.
</event>
<event>
 5    1  0.1488417E-008  0.3065904E+03  0.7957747E-01  0.3850064E+00
         13   -1    0    0    0    0  0.00000000000E+00  0.00000000000E+00  0.14999999963E+04  0.15000000000E+04  0.10566000000E+00 0. -1.
        994   -1    0    0    0    0 -0.00000000000E+00 -0.00000000000E+00  0.11368683772E-12  0.17120000000E+03  0.17120000000E+03 0.  0.
         13    1    1    2    0    0 -0.15534696058E+03 -0.96086155989E+02  0.72214867192E+03  0.74489190025E+03  0.10566000000E+00 0. -1.
        994    1    1    2    0    0  0.14027745392E+03  0.82900588272E+02  0.11457461791E+03  0.26265386859E+03  0.17120000000E+03 0.  0.
        998    1    1    2    0    0  0.15069506661E+02  0.13185567716E+02  0.66327670644E+03  0.66365423116E+03  0.10000000000E+02 0. -1.
</event>
<event>
 5    1  0.1488417E-008  0.3770439E+03  0.7957747E-01  0.3464132E+00
         13   -1    0    0    0    0  0.00000000000E+00  0.00000000000E+00  0.14999999963E+04  0.15000000000E+04  0.10566000000E+00 0. -1.
        994   -1    0    0    0    0 -0.00000000000E+00 -0.00000000000E+00  0.11368683772E-12  0.17120000000E+03  0.17120000000E+03 0.  0.
         13    1    1    2    0    0  0.19104862435E+02  0.36657558706E+02  0.15900914638E+03  0.16429452874E+03  0.10566000000E+00 0. -1.
        994    1    1    2    0    0 -0.28982709226E+02 -0.11785168711E+01  0.84785342571E+01  0.17384680578E+03  0.17120000000E+03 0.  0.
        998    1    1    2    0    0  0.98778467913E+01 -0.35479041834E+02  0.13325123156E+04  0.13330586655E+04  0.10000000000E+02 0. -1.
</event>
<event>
 5    1  0.1488417E-008  0.3714487E+03  0.7957747E-01  0.3489259E+00
         13   -1    0    0    0    0  0.00000000000E+00  0.00000000000E+00  0.14999999963E+04  0.15000000000E+04  0.10566000000E+00 0.  1.
        994   -1    0    0    0    0 -0.00000000000E+00 -0.00000000000E+00  0.11368683772E-12  0.17120000000E+03  0.17120000000E+03 0.  0.
         13    1    1    2    0    0  0.71611179423E+02  0.25129804058E+02  0.27984972138E+03  0.28995783450E+03  0.10566000000E+00 0.  1.
        994    1    1    2    0    0 -0.69821965497E+02 -0.18825854892E+02  0.26726528665E+02  0.18775853379E+03  0.17120000000E+03 0.  0.
        998    1    1    2    0    0 -0.17892139258E+01 -0.63039491657E+01  0.11934237462E+04  0.11934836317E+04  0.10000000000E+02 0.  1.
</event>
<event>
 5    1  0.1488417E-008  0.3844707E+03  0.7957747E-01  0.3431920E+00
         13   -1    0    0    0    0  0.00000000000E+00  0.00000000000E+00  0.14999999963E+04  0.15000000000E+04  0.10566000000E+00 0. -1.
        994   -1    0    0    0    0 -0.00000000000E+00 -0.00000000000E+00  0.11368683772E-12  0.17120000000E+03  0.17120000000E+03 0.  0.
         13    1    1    2    0    0 -0.11998152654E+02  0.64921408275E+01  0.52421537839E+02  0.54167631968E+02  0.10566000000E+00 0. -1.
        994    1    1    2    0    0 -0.49769845211E+01 -0.86422669340E+00  0.19772128521E+01  0.17128592071E+03  0.17120000000E+03 0.  0.
        998    1    1    2    0    0  0.16975137175E+02 -0.56279141341E+01  0.14456012456E+04  0.14457464473E+04  0.10000000000E+02 0. -1.
</event>
<event>
 5    1  0.1488417E-008  0.3732276E+03  0.7957747E-01  0.3481188E+00
         13   -1    0    0    0    0  0.00000000000E+00  0.00000000000E+00  0.14999999963E+04  0.15000000000E+04  0.10566000000E+00 0.  1.
        994   -1    0    0    0    0 -0.00000000000E+00 -0.00000000000E+00  0.11368683772E-12  0.17120000000E+03  0.17120000000E+03 0.  0.
         13    1    1    2    0    0 -0.24067080585E+02  0.67205562704E+02  0.20357914490E+03  0.21573198981E+03  0.10566000000E+00 0.  1.
        994    1    1    2    0    0  0.33469469695E+02 -0.26957494845E+02  0.19214967768E+02  0.17755440551E+03  0.17120000000E+03 0.  0.
        998    1    1    2    0    0 -0.94023891105E+01 -0.40248067860E+02  0.12772058836E+04  0.12779136047E+04  0.10000000000E+02 0.  1.
</event>
<event>
 5    1  0.1488417E-008  0.3825962E+03  0.7957747E-01  0.3439932E+00
         13   -1    0    0    0    0  0.00000000000E+00  0.00000000000E+00  0.14999999963E+04  0.15000000000E+04  0.10566000000E+00 0.  1.
        994   -1    0    0    0    0 -0.00000000000E+00 -0.00000000000E+00  0.11368683772E-12  0.17120000000E+03  0.17120000000E+03 0.  0.
         13    1    1    2    0    0 -0.11306048507E+02 -0.16195868731E+02  0.74071906964E+02  0.76660233904E+02  0.10566000000E+00 0.  1.
        994    1    1    2    0    0 -0.94109366619E+01  0.27676470904E+01  0.31473234297E+01  0.17150968265E+03  0.17120000000E+03 0.  0.
        998    1    1    2    0    0  0.20716985169E+02  0.13428221641E+02  0.14227807659E+04  0.14230300834E+04  0.10000000000E+02 0.  1.
</event>
<event>
 5    1  0.1488417E-008  0.3738007E+03  0.7957747E-01  0.3478604E+00
         13   -1    0    0    0    0  0.00000000000E+00  0.00000000000E+00  0.14999999963E+04  0.15000000000E+04  0.10566000000E+00 0. -1.
        994   -1    0    0    0    0 -0.00000000000E+00 -0.00000000000E+00  0.11368683772E-12  0.17120000000E+03  0.17120000000E+03 0.  0.
         13    1    1    2    0    0 -0.14376371726E+02  0.15392741237E+02  0.28175428792E+02  0.35177869441E+02  0.10566000000E+00 0. -1.
        994    1    1    2    0    0  0.86749229894E+01  0.36467622628E+01  0.75981648164E+01  0.17162670326E+03  0.17120000000E+03 0.  0.
        998    1    1    2    0    0  0.57014487368E+01 -0.19039503500E+02  0.14642264027E+04  0.14643954273E+04  0.10000000000E+02 0. -1.
</event>
<event>
 5    1  0.1488417E-008  0.3847934E+03  0.7957747E-01  0.3430549E+00
         13   -1    0    0    0    0  0.00000000000E+00  0.00000000000E+00  0.14999999963E+04  0.15000000000E+04  0.10566000000E+00 0.  1.
        994   -1    0    0    0    0 -0.00000000000E+00 -0.00000000000E+00  0.11368683772E-12  0.17120000000E+03  0.17120000000E+03 0.  0.
         13    1    1    2    0    0  0.90766967782E+01 -0.16655699002E+02  0.10059017544E+03  0.10236304652E+03  0.10566000000E+00 0.  1.
        994    1    1    2    0    0 -0.38897511023E+02 -0.67778917237E+00  0.67293107445E+01  0.17569348134E+03  0.17120000000E+03 0.  0.
        998    1    1    2    0    0  0.29820814245E+02  0.17333488174E+02  0.13926805101E+04  0.13931434721E+04  0.10000000000E+02 0.  1.
</event>
<event>
 5    1  0.1488417E-008  0.3857215E+03  0.7957747E-01  0.3426618E+00
         13   -1    0    0    0    0  0.00000000000E+00  0.00000000000E+00  0.14999999963E+04  0.15000000000E+04  0.10566000000E+00 0.  1.
        994   -1    0    0    0    0 -0.00000000000E+00 -0.00000000000E+00  0.11368683772E-12  0.17120000000E+03  0.17120000000E+03 0.  0.
         13    1    1    2    0    0 -0.11260405822E+02 -0.71989020465E+01  0.75053010684E+02  0.76233762249E+02  0.10566000000E+00 0.  1.
        994    1    1    2    0    0  0.42772800315E+01 -0.44058498757E+01  0.13960738493E+01  0.17131577761E+03  0.17120000000E+03 0.  0.
        998    1    1    2    0    0  0.69831257907E+01  0.11604751922E+02  0.14235509117E+04  0.14236504601E+04  0.10000000000E+02 0.  1.
</event>
<event>
 5    1  0.1488417E-008  0.3841506E+03  0.7957747E-01  0.3433283E+00
         13   -1    0    0    0    0  0.00000000000E+00  0.00000000000E+00  0.14999999963E+04  0.15000000000E+04  0.10566000000E+00 0.  1.
        994   -1    0    0    0    0 -0.00000000000E+00 -0.00000000000E+00  0.11368683772E-12  0.17120000000E+03  0.17120000000E+03 0.  0.
         13    1    1    2    0    0 -0.10201373331E+02 -0.64774225631E+01  0.34476450320E+02  0.36533023576E+02  0.10566000000E+00 0.  1.
        994    1    1    2    0    0  0.10855430639E+02  0.57367360015E+01  0.25497283660E+01  0.17165864857E+03  0.17120000000E+03 0.  0.
        998    1    1    2    0    0 -0.65405730802E+00  0.74068656154E+00  0.14629738176E+04  0.14630083279E+04  0.10000000000E+02 0.  1.
</event>
<event>
 5    1  0.1488417E-008  0.3852200E+03  0.7957747E-01  0.3428740E+00
         13   -1    0    0    0    0  0.00000000000E+00  0.00000000000E+00  0.14999999963E+04  0.15000000000E+04  0.10566000000E+00 0.  1.
        994   -1    0    0    0    0 -0.00000000000E+00 -0.00000000000E+00  0.11368683772E-12  0.17120000000E+03  0.17120000000E+03 0.  0.
         13    1    1    2    0    0  0.12931799191E+02 -0.48771735198E+01  0.62067901982E+02  0.63588158272E+02  0.10566000000E+00 0.  1.
        994    1    1    2    0    0 -0.11598962079E+02  0.13155397721E+01  0.19689160071E+01  0.17160880862E+03  0.17120000000E+03 0.  0.
        998    1    1    2    0    0 -0.13328371121E+01  0.35616337477E+01  0.14359631783E+04  0.14360030331E+04  0.10000000000E+02 0.  1.
</event>
<event>
 5    1  0.1488417E-008  0.3820728E+03  0.7957747E-01  0.3442182E+00
         13   -1    0    0    0    0  0.00000000000E+00  0.00000000000E+00  0.14999999963E+04  0.15000000000E+04  0.10566000000E+00 0.  1.
        994   -1    0    0    0    0 -0.00000000000E+00 -0.00000000000E+00  0.11368683772E-12  0.17120000000E+03  0.17120000000E+03 0.  0.
         13    1    1    2    0    0  0.11214028596E+02  0.15414822822E+02  0.62073292571E+02  0.64934397777E+02  0.10566000000E+00 0.  1.
        994    1    1    2    0    0 -0.81879872104E+01  0.95516464753E+01  0.36161406333E+01  0.17169971916E+03  0.17120000000E+03 0.  0.
        998    1    1    2    0    0 -0.30260413856E+01 -0.24966469298E+02  0.14343105631E+04  0.14345658831E+04  0.10000000000E+02 0.  1.
</event>
<event>
 5    1  0.1488417E-008  0.2753714E+03  0.7957747E-01  0.4089215E+00
         13   -1    0    0    0    0  0.00000000000E+00  0.00000000000E+00  0.14999999963E+04  0.15000000000E+04  0.10566000000E+00 0. -1.
        994   -1    0    0    0    0 -0.00000000000E+00 -0.00000000000E+00  0.11368683772E-12  0.17120000000E+03  0.17120000000E+03 0.  0.
         13    1    1    2    0    0  0.14690153620E+03 -0.97272381601E+02  0.51537235970E+03  0.54465645858E+03  0.10566000000E+00 0. -1.
        994    1    1    2    0    0 -0.89508919750E+02  0.13558377801E+03  0.13073161886E+03  0.26980549243E+03  0.17120000000E+03 0.  0.
        998    1    1    2    0    0 -0.57392616454E+02 -0.38311396410E+02  0.85389601772E+03  0.85673804900E+03  0.10000000000E+02 0. -1.
</event>
<event>
 5    1  0.1488417E-008  0.3822138E+03  0.7957747E-01  0.3441576E+00
         13   -1    0    0    0    0  0.00000000000E+00  0.00000000000E+00  0.14999999963E+04  0.15000000000E+04  0.10566000000E+00 0. -1.
        994   -1    0    0    0    0 -0.00000000000E+00 -0.00000000000E+00  0.11368683772E-12  0.17120000000E+03  0.17120000000E+03 0.  0.
         13    1    1    2    0    0  0.33819745671E+02 -0.14150997159E+02  0.20045704700E+03  0.20378190492E+03  0.10566000000E+00 0. -1.
        994    1    1    2    0    0 -0.36105944750E+02  0.49839270270E+00  0.73590270798E+01  0.17512133771E+03  0.17120000000E+03 0.  0.
        998    1    1    2    0    0  0.22861990786E+01  0.13652604457E+02  0.12921839222E+04  0.12922967574E+04  0.10000000000E+02 0. -1.
</event>
<event>
 5    1  0.1488417E-008  0.3854567E+03  0.7957747E-01  0.3427738E+00
         13   -1    0    0    0    0  0.00000000000E+00  0.00000000000E+00  0.14999999963E+04  0.15000000000E+04  0.10566000000E+00 0. -1.
        994   -1    0    0    0    0 -0.00000000000E+00 -0.00000000000E+00  0.11368683772E-12  0.17120000000E+03  0.17120000000E+03 0.  0.
         13    1    1    2    0    0  0.10448463235E+02 -0.34434530433E+01  0.46202130818E+02  0.47493955500E+02  0.10566000000E+00 0. -1.
        994    1    1    2    0    0  0.26274478796E+01 -0.45562167421E+01  0.14944321118E+01  0.17128729060E+03  0.17120000000E+03 0.  0.
        998    1    1    2    0    0 -0.13075911115E+02  0.79996697854E+01  0.14523034333E+04  0.14524187539E+04  0.10000000000E+02 0. -1.
</event>
<event>
 5    1  0.1488417E-008  0.3804721E+03  0.7957747E-01  0.3449106E+00
         13   -1    0    0    0    0  0.00000000000E+00  0.00000000000E+00  0.14999999963E+04  0.15000000000E+04  0.10566000000E+00 0.  1.
        994   -1    0    0    0    0 -0.00000000000E+00 -0.00000000000E+00  0.11368683772E-12  0.17120000000E+03  0.17120000000E+03 0.  0.
         13    1    1    2    0    0  0.54946404136E+02  0.21806392795E+02  0.30955888682E+03  0.31515288618E+03  0.10566000000E+00 0.  1.
        994    1    1    2    0    0 -0.57941338354E+02 -0.60147559946E+02  0.27537455706E+02  0.19246474775E+03  0.17120000000E+03 0.  0.
        998    1    1    2    0    0  0.29949342186E+01  0.38341167152E+02  0.11629036538E+04  0.11635823661E+04  0.10000000000E+02 0.  1.
</event>
<event>
 5    1  0.1488417E-008  0.3800377E+03  0.7957747E-01  0.3450994E+00
         13   -1    0    0    0    0  0.00000000000E+00  0.00000000000E+00  0.14999999963E+04  0.15000000000E+04  0.10566000000E+00 0.  1.
        994   -1    0    0    0    0 -0.00000000000E+00 -0.00000000000E+00  0.11368683772E-12  0.17120000000E+03  0.17120000000E+03 0.  0.
         13    1    1    2    0    0 -0.63042760759E+01  0.18120108239E+02  0.39812599158E+02  0.44194303198E+02  0.10566000000E+00 0.  1.
        994    1    1    2    0    0  0.53905680134E+01 -0.36549481844E+02  0.86898508007E+01  0.17535642661E+03  0.17120000000E+03 0.  0.
        998    1    1    2    0    0  0.91370806253E+00  0.18429373605E+02  0.14514975463E+04  0.14516492702E+04  0.10000000000E+02 0.  1.
</event>
<event>
 5    1  0.1488417E-008  0.3809345E+03  0.7957747E-01  0.3447100E+00
         13   -1    0    0    0    0  0.00000000000E+00  0.00000000000E+00  0.14999999963E+04  0.15000000000E+04  0.10566000000E+00 0. -1.
        994   -1    0    0    0    0 -0.00000000000E+00 -0.00000000000E+00  0.11368683772E-12  0.17120000000E+03  0.17120000000E+03 0.  0.
         13    1    1    2    0    0  0.12916570835E+01  0.17815098284E+02  0.42870041193E+02  0.46442412736E+02  0.10566000000E+00 0. -1.
        994    1    1    2    0    0 -0.72505294354E+01 -0.71264095240E+01  0.40066911219E+01  0.17154838811E+03  0.17120000000E+03 0.  0.
        998    1    1    2    0    0  0.59588723519E+01 -0.10688688760E+02  0.14531232640E+04  0.14532091992E+04  0.10000000000E+02 0. -1.
</event>
<event>
 5    1  0.1488417E-008  0.3781969E+03  0.7957747E-01  0.3459047E+00
         13   -1    0    0    0    0  0.00000000000E+00  0.00000000000E+00  0.14999999963E+04  0.15000000000E+04  0.10566000000E+00 0.  1.
        994   -1    0    0    0    0 -0.00000000000E+00 -0.00000000000E+00  0.11368683772E-12  0.17120000000E+03  0.17120000000E+03 0.  0.
         13    1    1    2    0    0 -0.13586739226E+03 -0.20140714431E+02  0.62632993336E+03  0.64121353171E+03  0.10566000000E+00 0.  1.
        994    1    1    2    0    0  0.89986080529E+02 -0.37798846911E+02  0.50487275631E+02  0.20343218162E+03  0.17120000000E+03 0.  0.
        998    1    1    2    0    0  0.45881311736E+02  0.57939561342E+02  0.82318278729E+03  0.82655428667E+03  0.10000000000E+02 0.  1.
</event>
<event>
 5    1  0.1488417E-008  0.3734946E+03  0.7957747E-01  0.3479983E+00
         13   -1    0    0    0    0  0.00000000000E+00  0.00000000000E+00  0.14999999963E+04  0.15000000000E+04  0.10566000000E+00 0. -1.
        994   -1    0    0    0    0 -0.00000000000E+00 -0.00000000000E+00  0.11368683772E-12  0.17120000000E+03  0.17120000000E+03 0.  0.
         13    1    1    2    0    0 -0.10332133126E+00  0.14856044417E+02  0.27993684042E+01  0.15118212808E+02  0.10566000000E+00 0. -1.
        994    1    1    2    0    0  0.41100419029E+00 -0.10301164729E+02  0.13174968414E+02  0.17201541417E+03  0.17120000000E+03 0.  0.
        998    1    1    2    0    0 -0.30768285903E+00 -0.45548796880E+01  0.14840256595E+04  0.14840663730E+04  0.10000000000E+02 0. -1.
</event>
<event>
 5    1  0.1488417E-008  0.3929817E+03  0.7957747E-01  0.3396511E+00
         13   -1    0    0    0    0  0.00000000000E+00  0.00000000000E+00  0.14999999963E+04  0.15000000000E+04  0.10566000000E+00 0.  1.
        994   -1    0    0    0    0 -0.00000000000E+00 -0.00000000000E+00  0.11368683772E-12  0.17120000000E+03  0.17120000000E+03 0.  0.
         13    1    1    2    0    0  0.15797303229E+02  0.12055351002E+02 -0.21692989954E+01  0.19990080021E+02  0.10566000000E+00 0.  1.
        994    1    1    2    0    0 -0.17817279248E+02 -0.10949755288E+02  0.25315632281E+02  0.17432060641E+03  0.17120000000E+03 0.  0.
        998    1    1    2    0    0  0.20199760190E+01 -0.11055957131E+01  0.14768536630E+04  0.14768893136E+04  0.10000000000E+02 0.  1.
</event>
<event>
 5    1  0.1488417E-008  0.3779410E+03  0.7957747E-01  0.3460173E+00
         13   -1    0    0    0    0  0.00000000000E+00  0.00000000000E+00  0.14999999963E+04  0.15000000000E+04  0.10566000000E+00 0. -1.
        994   -1    0    0    0    0 -0.00000000000E+00 -0.00000000000E+00  0.11368683772E-12  0.17120000000E+03  0.17120000000E+03 0.  0.
         13    1    1    2    0    0  0.27942245912E+02  0.78640101595E+01  0.73825890990E+02  0.79327707057E+02  0.10566000000E+00 0. -1.
        994    1    1    2    0    0 -0.35745063354E+02 -0.73946610131E+01  0.96738635200E+01  0.17531518531E+03  0.17120000000E+03 0.  0.
        998    1    1    2    0    0  0.78028174422E+01 -0.46934914639E+00  0.14165002418E+04  0.14165571076E+04  0.10000000000E+02 0. -1.
</event>
<event>
 5    1  0.1488417E-008  0.3812230E+03  0.7957747E-01  0.3445851E+00
         13   -1    0    0    0    0  0.00000000000E+00  0.00000000000E+00  0.14999999963E+04  0.15000000000E+04  0.10566000000E+00 0. -1.
        994   -1    0    0    0    0 -0.00000000000E+00 -0.00000000000E+00  0.11368683772E-12  0.17120000000E+03  0.17120000000E+03 0.  0.
         13    1    1    2    0    0  0.18735882455E+02 -0.86624342951E+01  0.71935199194E+02  0.74838192833E+02  0.10566000000E+00 0. -1.
        994    1    1    2    0    0  0.31249365348E+01 -0.52788793785E+02  0.12884245862E+02  0.17964371898E+03  0.17120000000E+03 0.  0.
        998    1    1    2    0    0 -0.21860818990E+02  0.61451228080E+02  0.14151805512E+04  0.14167180882E+04  0.10000000000E+02 0. -1.
</event>
<event>
 5    1  0.1488417E-008  0.3808603E+03  0.7957747E-01  0.3447421E+00
         13   -1    0    0    0    0  0.00000000000E+00  0.00000000000E+00  0.14999999963E+04  0.15000000000E+04  0.10566000000E+00 0. -1.
        994   -1    0    0    0    0 -0.00000000000E+00 -0.00000000000E+00  0.11368683772E-12  0.17120000000E+03  0.17120000000E+03 0.  0.
         13    1    1    2    0    0  0.14299888429E+02  0.10907614622E+02  0.40424901282E+02  0.44245301146E+02  0.10566000000E+00 0. -1.
        994    1    1    2    0    0 -0.11851439473E+02 -0.25518213426E+02  0.63428277078E+01  0.17361252057E+03  0.17120000000E+03 0.  0.
        998    1    1    2    0    0 -0.24484489559E+01  0.14610598805E+02  0.14532322673E+04  0.14533421783E+04  0.10000000000E+02 0. -1.
</event>
<event>
 5    1  0.1488417E-008  0.3826140E+03  0.7957747E-01  0.3439855E+00
         13   -1    0    0    0    0  0.00000000000E+00  0.00000000000E+00  0.14999999963E+04  0.15000000000E+04  0.10566000000E+00 0. -1.
        994   -1    0    0    0    0 -0.00000000000E+00 -0.00000000000E+00  0.11368683772E-12  0.17120000000E+03  0.17120000000E+03 0.  0.
         13    1    1    2    0    0 -0.92872722734E+01  0.24650633725E+02  0.11967176745E+03  0.12253673024E+03  0.10566000000E+00 0. -1.
        994    1    1    2    0    0 -0.30576053339E+02 -0.34221677222E+02  0.98309505722E+01  0.17751649450E+03  0.17120000000E+03 0.  0.
        998    1    1    2    0    0  0.39863325613E+02  0.95710434970E+01  0.13704972783E+04  0.13711467753E+04  0.10000000000E+02 0. -1.
</event>
<event>
 5    1  0.1488417E-008  0.3709717E+03  0.7957747E-01  0.3491437E+00
         13   -1    0    0    0    0  0.00000000000E+00  0.00000000000E+00  0.14999999963E+04  0.15000000000E+04  0.10566000000E+00 0.  1.
        994   -1    0    0    0    0 -0.00000000000E+00 -0.00000000000E+00  0.11368683772E-12  0.17120000000E+03  0.17120000000E+03 0.  0.
         13    1    1    2    0    0  0.93954565892E+02 -0.10081685850E+03  0.50882655006E+03  0.52715839045E+03  0.10566000000E+00 0.  1.
        994    1    1    2    0    0 -0.83022726793E+02  0.11341026691E+03  0.84367759302E+02  0.23702746806E+03  0.17120000000E+03 0.  0.
        998    1    1    2    0    0 -0.10931839099E+02 -0.12593408409E+02  0.90680568691E+03  0.90701414149E+03  0.10000000000E+02 0.  1.
</event>
<event>
 5    1  0.1488417E-008  0.3829613E+03  0.7957747E-01  0.3438365E+00
         13   -1    0    0    0    0  0.00000000000E+00  0.00000000000E+00  0.14999999963E+04  0.15000000000E+04  0.10566000000E+00 0. -1.
        994   -1    0    0    0    0 -0.00000000000E+00 -0.00000000000E+00  0.11368683772E-12  0.17120000000E+03  0.17120000000E+03 0.  0.
         13    1    1    2    0    0  0.11125041384E+03 -0.42978013755E+02  0.58856722565E+03  0.60052906217E+03  0.10566000000E+00 0. -1.
        994    1    1    2    0    0 -0.20683209334E+02  0.97800484972E+01  0.19883251575E+02  0.17386267049E+03  0.17120000000E+03 0.  0.
        998    1    1    2    0    0 -0.90567204508E+02  0.33197965257E+02  0.89154951906E+03  0.89680826734E+03  0.10000000000E+02 0. -1.
</event>
<event>
 5    1  0.1488417E-008  0.3747933E+03  0.7957747E-01  0.3474148E+00
         13   -1    0    0    0    0  0.00000000000E+00  0.00000000000E+00  0.14999999963E+04  0.15000000000E+04  0.10566000000E+00 0. -1.
        994   -1    0    0    0    0 -0.00000000000E+00 -0.00000000000E+00  0.11368683772E-12  0.17120000000E+03  0.17120000000E+03 0.  0.
         13    1    1    2    0    0 -0.30943401759E+02  0.31373517723E+02  0.13235481215E+03  0.13949766733E+03  0.10566000000E+00 0. -1.
        994    1    1    2    0    0  0.28045994451E+02 -0.27427160652E+02  0.12037330463E+02  0.17604875538E+03  0.17120000000E+03 0.  0.
        998    1    1    2    0    0  0.28974073078E+01 -0.39463570709E+01  0.13556078537E+04  0.13556535773E+04  0.10000000000E+02 0. -1.
</event>
<event>
 5    1  0.1488417E-008  0.3761686E+03  0.7957747E-01  0.3468013E+00
         13   -1    0    0    0    0  0.00000000000E+00  0.00000000000E+00  0.14999999963E+04  0.15000000000E+04  0.10566000000E+00 0.  1.
        994   -1    0    0    0    0 -0.00000000000E+00 -0.00000000000E+00  0.11368683772E-12  0.17120000000E+03  0.17120000000E+03 0.  0.
         13    1    1    2    0    0  0.93529715555E+01  0.60448446260E+02  0.24149747428E+03  0.24912353156E+03  0.10566000000E+00 0.  1.
        994    1    1    2    0    0 -0.12901175566E+02 -0.69025738155E+02  0.22962385198E+02  0.18646099858E+03  0.17120000000E+03 0.  0.
        998    1    1    2    0    0  0.35482040107E+01  0.85772918949E+01  0.12355401368E+04  0.12356154699E+04  0.10000000000E+02 0. -1.
</event>
<event>
 5    1  0.1488417E-008  0.3855712E+03  0.7957747E-01  0.3427253E+00
         13   -1    0    0    0    0  0.00000000000E+00  0.00000000000E+00  0.14999999963E+04  0.15000000000E+04  0.10566000000E+00 0. -1.
        994   -1    0    0    0    0 -0.00000000000E+00 -0.00000000000E+00  0.11368683772E-12  0.17120000000E+03  0.17120000000E+03 0.  0.
         13    1    1    2    0    0 -0.12811487159E+02  0.31022540921E+01  0.62832888546E+02  0.64200788396E+02  0.10566000000E+00 0. -1.
        994    1    1    2    0    0  0.17906033206E+02  0.14662019753E+02  0.31069388159E+01  0.17278510907E+03  0.17120000000E+03 0.  0.
        998    1    1    2    0    0 -0.50945460465E+01 -0.17764273845E+02  0.14340601689E+04  0.14342141025E+04  0.10000000000E+02 0. -1.
</event>
<event>
 5    1  0.1488417E-008  0.3831059E+03  0.7957747E-01  0.3437745E+00
         13   -1    0    0    0    0  0.00000000000E+00  0.00000000000E+00  0.14999999963E+04  0.15000000000E+04  0.10566000000E+00 0. -1.
        994   -1    0    0    0    0 -0.00000000000E+00 -0.00000000000E+00  0.11368683772E-12  0.17120000000E+03  0.17120000000E+03 0.  0.
         13    1    1    2    0    0 -0.17255415251E+02  0.45545190834E+01  0.60768052131E+02  0.63334511314E+02  0.10566000000E+00 0. -1.
        994    1    1    2    0    0  0.12178637370E+02 -0.41650838750E+01  0.31218373905E+01  0.17171154009E+03  0.17120000000E+03 0.  0.
        998    1    1    2    0    0  0.50767778815E+01 -0.38943520842E+00  0.14361101068E+04  0.14361539486E+04  0.10000000000E+02 0. -1.
</event>
<event>
 5    1  0.1765866E-008  0.3863012E+03  0.7957747E-01  0.3424172E+00
         13   -1    0    0    0    0  0.00000000000E+00  0.00000000000E+00  0.14999999963E+04  0.15000000000E+04  0.10566000000E+00 0.  1.
        994   -1    0    0    0    0 -0.00000000000E+00 -0.00000000000E+00  0.11368683772E-12  0.17120000000E+03  0.17120000000E+03 0.  0.
         13    1    1    2    0    0  0.94097904352E+01  0.42305960691E+01  0.58774284148E+02  0.59673023556E+02  0.10566000000E+00 0.  1.
        994    1    1    2    0    0  0.13350786871E+02 -0.29856746751E+02  0.44963181514E+01  0.17435402408E+03  0.17120000000E+03 0.  0.
        998    1    1    2    0    0 -0.22760577306E+02  0.25626150682E+02  0.14367293940E+04  0.14371729524E+04  0.10000000000E+02 0.  1.
</event>
<event>
 5    1  0.1754079E-008  0.3860619E+03  0.7957747E-01  0.3425181E+00
         13   -1    0    0    0    0  0.00000000000E+00  0.00000000000E+00  0.14999999963E+04  0.15000000000E+04  0.10566000000E+00 0. -1.
        994   -1    0    0    0    0 -0.00000000000E+00 -0.00000000000E+00  0.11368683772E-12  0.17120000000E+03  0.17120000000E+03 0.  0.
         13    1    1    2    0    0  0.69446870114E+01  0.82580662908E+01  0.53714996410E+02  0.54788104000E+02  0.10566000000E+00 0. -1.
        994    1    1    2    0    0 -0.43835739925E+01 -0.47357418926E+01  0.12403342287E+01  0.17132606749E+03  0.17120000000E+03 0.  0.
        998    1    1    2    0    0 -0.25611130189E+01 -0.35223243982E+01  0.14450446656E+04  0.14450858285E+04  0.10000000000E+02 0. -1.
</event>
<event>
 5    1  0.1488417E-008  0.3837108E+03  0.7957747E-01  0.3435158E+00
         13   -1    0    0    0    0  0.00000000000E+00  0.00000000000E+00  0.14999999963E+04  0.15000000000E+04  0.10566000000E+00 0. -1.
        994   -1    0    0    0    0 -0.00000000000E+00 -0.00000000000E+00  0.11368683772E-12  0.17120000000E+03  0.17120000000E+03 0.  0.
         13    1    1    2    0    0 -0.19780666634E+02 -0.42716644843E+01  0.87880484812E+02  0.90180445024E+02  0.10566000000E+00 0. -1.
        994    1    1    2    0    0  0.13990201617E+02  0.10884947369E+02  0.33099079257E+01  0.17214703980E+03  0.17120000000E+03 0.  0.
        998    1    1    2    0    0  0.57904650166E+01 -0.66132828845E+01  0.14088096035E+04  0.14088725152E+04  0.10000000000E+02 0. -1.
</event>
<event>
 5    1  0.1488417E-008  0.3744995E+03  0.7957747E-01  0.3475464E+00
         13   -1    0    0    0    0  0.00000000000E+00  0.00000000000E+00  0.14999999963E+04  0.15000000000E+04  0.10566000000E+00 0.  1.
        994   -1    0    0    0    0 -0.00000000000E+00 -0.00000000000E+00  0.11368683772E-12  0.17120000000E+03  0.17120000000E+03 0.  0.
         13    1    1    2    0    0 -0.46393517209E+02 -0.14604304249E+02  0.16225186725E+03  0.16938513433E+03  0.10566000000E+00 0.  1.
        994    1    1    2    0    0  0.29115246085E+02  0.26385662990E+02  0.12211063563E+02  0.17607512840E+03  0.17120000000E+03 0.  0.
        998    1    1    2    0    0  0.17278271124E+02 -0.11781358741E+02  0.13255370655E+04  0.13257397373E+04  0.10000000000E+02 0.  1.
</event>
<event>
 5    1  0.2690590E-008  0.3862337E+03  0.7957747E-01  0.3424457E+00
         13   -1    0    0    0    0  0.00000000000E+00  0.00000000000E+00  0.14999999963E+04  0.15000000000E+04  0.10566000000E+00 0. -1.
        994   -1    0    0    0    0 -0.00000000000E+00 -0.00000000000E+00  0.11368683772E-12  0.17120000000E+03  0.17120000000E+03 0.  0.
         13    1    1    2    0    0 -0.10570923066E+02  0.16995278838E+01  0.56988005854E+02  0.57985142794E+02  0.10566000000E+00 0. -1.
        994    1    1    2    0    0  0.72277905411E+01 -0.28970342423E+01  0.12175026683E+01  0.17138131776E+03  0.17120000000E+03 0.  0.
        998    1    1    2    0    0  0.33431325249E+01  0.11975063586E+01  0.14417944878E+04  0.14418335394E+04  0.10000000000E+02 0. -1.
</event>
<event>
 5    1  0.1488417E-008  0.3833177E+03  0.7957747E-01  0.3436839E+00
         13   -1    0    0    0    0  0.00000000000E+00  0.00000000000E+00  0.14999999963E+04  0.15000000000E+04  0.10566000000E+00 0.  1.
        994   -1    0    0    0    0 -0.00000000000E+00 -0.00000000000E+00  0.11368683772E-12  0.17120000000E+03  0.17120000000E+03 0.  0.
         13    1    1    2    0    0  0.18189820667E+02  0.11758165392E+02  0.96308840760E+02  0.98714375862E+02  0.10566000000E+00 0.  1.
        994    1    1    2    0    0 -0.35063220742E+02  0.30612660627E+02  0.96650684783E+01  0.17767784890E+03  0.17120000000E+03 0.  0.
        998    1    1    2    0    0  0.16873400075E+02 -0.42370826019E+02  0.13940260870E+04  0.13948077752E+04  0.10000000000E+02 0.  1.
</event>
<event>
 5    1  0.1488417E-008  0.3809308E+03  0.7957747E-01  0.3447115E+00
         13   -1    0    0    0    0  0.00000000000E+00  0.00000000000E+00  0.14999999963E+04  0.15000000000E+04  0.10566000000E+00 0.  1.
        994   -1    0    0    0    0 -0.00000000000E+00 -0.00000000000E+00  0.11368683772E-12  0.17120000000E+03  0.17120000000E+03 0.  0.
         13    1    1    2    0    0  0.12642694532E+02  0.66110735076E+02  0.12046889507E+03  0.13799722048E+03  0.10566000000E+00 0.  1.
        994    1    1    2    0    0 -0.60803952436E+01 -0.64276893317E+02  0.32156664342E+02  0.18577400594E+03  0.17120000000E+03 0.  0.
        998    1    1    2    0    0 -0.65622992883E+01 -0.18338417587E+01  0.13473744369E+04  0.13474287736E+04  0.10000000000E+02 0.  1.
</event>
<event>
 5    1  0.1488417E-008  0.3816645E+03  0.7957747E-01  0.3443943E+00
         13   -1    0    0    0    0  0.00000000000E+00  0.00000000000E+00  0.14999999963E+04  0.15000000000E+04  0.10566000000E+00 0. -1.
        994   -1    0    0    0    0 -0.00000000000E+00 -0.00000000000E+00  0.11368683772E-12  0.17120000000E+03  0.17120000000E+03 0.  0.
         13    1    1    2    0    0 -0.23405986407E+02  0.86577320253E+01  0.10157060095E+03  0.10459156116E+03  0.10566000000E+00 0. -1.
        994    1    1    2    0    0  0.33522135043E-01 -0.25766602758E+01  0.33173339028E+01  0.17125152556E+03  0.17120000000E+03 0.  0.
        998    1    1    2    0    0  0.23372464272E+02 -0.60810717495E+01  0.13951120614E+04  0.13953569133E+04  0.10000000000E+02 0. -1.
</event>
<event>
 5    1  0.1488417E-008  0.3849097E+03  0.7957747E-01  0.3430055E+00
         13   -1    0    0    0    0  0.00000000000E+00  0.00000000000E+00  0.14999999963E+04  0.15000000000E+04  0.10566000000E+00 0.  1.
        994   -1    0    0    0    0 -0.00000000000E+00 -0.00000000000E+00  0.11368683772E-12  0.17120000000E+03  0.17120000000E+03 0.  0.
         13    1    1    2    0    0 -0.10367377346E+02 -0.70802556721E+01  0.44777344935E+02  0.46504132256E+02  0.10566000000E+00 0.  1.
        994    1    1    2    0    0  0.12130518145E+02  0.13204131521E+02  0.27332802280E+01  0.17215809415E+03  0.17120000000E+03 0.  0.
        998    1    1    2    0    0 -0.17631407989E+01 -0.61238758487E+01  0.14524893711E+04  0.14525377736E+04  0.10000000000E+02 0.  1.
</event>
<event>
 5    1  0.1488417E-008  0.3864436E+03  0.7957747E-01  0.3423573E+00
         13   -1    0    0    0    0  0.00000000000E+00  0.00000000000E+00  0.14999999963E+04  0.15000000000E+04  0.10566000000E+00 0. -1.
        994   -1    0    0    0    0 -0.00000000000E+00 -0.00000000000E+00  0.11368683772E-12  0.17120000000E+03  0.17120000000E+03 0.  0.
         13    1    1    2    0    0  0.49701670146E-01  0.10721692856E+02  0.62155860127E+02  0.63073919175E+02  0.10566000000E+00 0. -1.
        994    1    1    2    0    0 -0.36820990904E+01 -0.10959323934E+02  0.13527377484E+01  0.17159526373E+03  0.17120000000E+03 0.  0.
        998    1    1    2    0    0  0.36323974202E+01  0.23763107828E+00  0.14364913984E+04  0.14365308171E+04  0.10000000000E+02 0. -1.
</event>
<event>
 5    1  0.1488417E-008  0.3856443E+03  0.7957747E-01  0.3426944E+00
         13   -1    0    0    0    0  0.00000000000E+00  0.00000000000E+00  0.14999999963E+04  0.15000000000E+04  0.10566000000E+00 0. -1.
        994   -1    0    0    0    0 -0.00000000000E+00 -0.00000000000E+00  0.11368683772E-12  0.17120000000E+03  0.17120000000E+03 0.  0.
         13    1    1    2    0    0 -0.84681667294E+01  0.91342575456E+01  0.62853103699E+02  0.64075489209E+02  0.10566000000E+00 0. -1.
        994    1    1    2    0    0  0.39597378012E+01  0.27385060481E+01  0.13866675701E+01  0.17127329560E+03  0.17120000000E+03 0.  0.
        998    1    1    2    0    0  0.45084289281E+01 -0.11872763594E+02  0.14357602250E+04  0.14358512152E+04  0.10000000000E+02 0. -1.
</event>
<event>
 5    1  0.1488417E-008  0.3809109E+03  0.7957747E-01  0.3447202E+00
         13   -1    0    0    0    0  0.00000000000E+00  0.00000000000E+00  0.14999999963E+04  0.15000000000E+04  0.10566000000E+00 0. -1.
        994   -1    0    0    0    0 -0.00000000000E+00 -0.00000000000E+00  0.11368683772E-12  0.17120000000E+03  0.17120000000E+03 0.  0.
         13    1    1    2    0    0  0.90018833866E+01 -0.45830944082E+02  0.24168973000E+03  0.24616142283E+03  0.10566000000E+00 0. -1.
        994    1    1    2    0    0 -0.11834939507E+02  0.49385942495E+02  0.12317895871E+02  0.17899778677E+03  0.17120000000E+03 0.  0.
        998    1    1    2    0    0  0.28330561206E+01 -0.35549984129E+01  0.12459923704E+04  0.12460407904E+04  0.10000000000E+02 0.  0.
</event>
<event>
 5    1  0.1488417E-008  0.3805025E+03  0.7957747E-01  0.3448973E+00
         13   -1    0    0    0    0  0.00000000000E+00  0.00000000000E+00  0.14999999963E+04  0.15000000000E+04  0.10566000000E+00 0. -1.
        994   -1    0    0    0    0 -0.00000000000E+00 -0.00000000000E+00  0.11368683772E-12  0.17120000000E+03  0.17120000000E+03 0.  0.
         13    1    1    2    0    0  0.19142559553E+02  0.35635657007E+02  0.23748376443E+03  0.24090431123E+03  0.10566000000E+00 0. -1.
        994    1    1    2    0    0 -0.83908320576E+01 -0.53860604891E+01  0.42115438359E+01  0.17154181068E+03  0.17120000000E+03 0.  0.
        998    1    1    2    0    0 -0.10751727495E+02 -0.30249596517E+02  0.12583046880E+04  0.12587538781E+04  0.10000000000E+02 0. -1.
</event>
<event>
 5    1  0.1488417E-008  0.3756984E+03  0.7957747E-01  0.3470105E+00
         13   -1    0    0    0    0  0.00000000000E+00  0.00000000000E+00  0.14999999963E+04  0.15000000000E+04  0.10566000000E+00 0.  1.
        994   -1    0    0    0    0 -0.00000000000E+00 -0.00000000000E+00  0.11368683772E-12  0.17120000000E+03  0.17120000000E+03 0.  0.
         13    1    1    2    0    0 -0.24695429523E+02  0.28909254012E+01  0.46449010243E+02  0.52685324386E+02  0.10566000000E+00 0.  1.
        994    1    1    2    0    0  0.21920708069E+02  0.49742423253E+02  0.16407629551E+02  0.18037038676E+03  0.17120000000E+03 0.  0.
        998    1    1    2    0    0  0.27747214546E+01 -0.52633348654E+02  0.14371433565E+04  0.14381442889E+04  0.10000000000E+02 0.  1.
</event>
<event>
 5    1  0.1488417E-008  0.3857122E+03  0.7957747E-01  0.3426657E+00
         13   -1    0    0    0    0  0.00000000000E+00  0.00000000000E+00  0.14999999963E+04  0.15000000000E+04  0.10566000000E+00 0.  1.
        994   -1    0    0    0    0 -0.00000000000E+00 -0.00000000000E+00  0.11368683772E-12  0.17120000000E+03  0.17120000000E+03 0.  0.
         13    1    1    2    0    0  0.72772671896E+01 -0.91299319319E+01  0.54456634572E+02  0.55694259020E+02  0.10566000000E+00 0.  1.
        994    1    1    2    0    0 -0.86634891591E+01  0.69163425326E+00  0.15248079679E+01  0.17142724241E+03  0.17120000000E+03 0.  0.
        998    1    1    2    0    0  0.13862219695E+01  0.84382976786E+01  0.14440185537E+04  0.14440784986E+04  0.10000000000E+02 0.  1.
</event>
<event>
 5    1  0.1488417E-008  0.3856438E+03  0.7957747E-01  0.3426946E+00
         13   -1    0    0    0    0  0.00000000000E+00  0.00000000000E+00  0.14999999963E+04  0.15000000000E+04  0.10566000000E+00 0. -1.
        994   -1    0    0    0    0 -0.00000000000E+00 -0.00000000000E+00  0.11368683772E-12  0.17120000000E+03  0.17120000000E+03 0.  0.
         13    1    1    2    0    0 -0.13285248724E+02  0.42986742393E+01  0.73394300170E+02  0.74710848578E+02  0.10566000000E+00 0. -1.
        994    1    1    2    0    0  0.11267814934E+02 -0.37211468111E+01  0.17730940966E+01  0.17161991274E+03  0.17120000000E+03 0.  0.
        998    1    1    2    0    0  0.20174337902E+01 -0.57752742819E+00  0.14248326020E+04  0.14248692387E+04  0.10000000000E+02 0. -1.
</event>
<event>
 5    1  0.1488417E-008  0.3792705E+03  0.7957747E-01  0.3454341E+00
         13   -1    0    0    0    0  0.00000000000E+00  0.00000000000E+00  0.14999999963E+04  0.15000000000E+04  0.10566000000E+00 0.  1.
        994   -1    0    0    0    0 -0.00000000000E+00 -0.00000000000E+00  0.11368683772E-12  0.17120000000E+03  0.17120000000E+03 0.  0.
         13    1    1    2    0    0  0.52726314380E+02  0.10996460074E+02  0.31028499195E+03  0.31492502878E+03  0.10566000000E+00 0.  1.
        994    1    1    2    0    0 -0.32994033769E+02 -0.94634668829E+01  0.84599726466E+01  0.17481182628E+03  0.17120000000E+03 0.  0.
        998    1    1    2    0    0 -0.19732280611E+02 -0.15329931914E+01  0.11812550317E+04  0.11814631449E+04  0.10000000000E+02 0.  1.
</event>
<event>
 5    1  0.1488417E-008  0.3817597E+03  0.7957747E-01  0.3443532E+00
         13   -1    0    0    0    0  0.00000000000E+00  0.00000000000E+00  0.14999999963E+04  0.15000000000E+04  0.10566000000E+00 0.  1.
        994   -1    0    0    0    0 -0.00000000000E+00 -0.00000000000E+00  0.11368683772E-12  0.17120000000E+03  0.17120000000E+03 0.  0.
         13    1    1    2    0    0 -0.29652963248E+02 -0.12139879362E+02  0.16449073050E+03  0.16758247667E+03  0.10566000000E+00 0.  1.
        994    1    1    2    0    0  0.14688021564E+02 -0.23342799495E+01  0.39829702095E+01  0.17189092731E+03  0.17120000000E+03 0.  0.
        998    1    1    2    0    0  0.14964941683E+02  0.14474159311E+02  0.13315262956E+04  0.13317265960E+04  0.10000000000E+02 0.  1.
</event>
<event>
 5    1  0.1488417E-008  0.3852250E+03  0.7957747E-01  0.3428719E+00
         13   -1    0    0    0    0  0.00000000000E+00  0.00000000000E+00  0.14999999963E+04  0.15000000000E+04  0.10566000000E+00 0. -1.
        994   -1    0    0    0    0 -0.00000000000E+00 -0.00000000000E+00  0.11368683772E-12  0.17120000000E+03  0.17120000000E+03 0.  0.
         13    1    1    2    0    0  0.15968266070E+02  0.84608861282E+01  0.93325075796E+02  0.95058682148E+02  0.10566000000E+00 0. -1.
        994    1    1    2    0    0 -0.32668360640E+02 -0.37626294169E+01  0.50802710278E+01  0.17440363620E+03  0.17120000000E+03 0.  0.
        998    1    1    2    0    0  0.16700094570E+02 -0.46982567112E+01  0.14015946495E+04  0.14017376816E+04  0.10000000000E+02 0. -1.
</event>
<event>
 5    1  0.1488417E-008  0.3788213E+03  0.7957747E-01  0.3456307E+00
         13   -1    0    0    0    0  0.00000000000E+00  0.00000000000E+00  0.14999999963E+04  0.15000000000E+04  0.10566000000E+00 0. -1.
        994   -1    0    0    0    0 -0.00000000000E+00 -0.00000000000E+00  0.11368683772E-12  0.17120000000E+03  0.17120000000E+03 0.  0.
         13    1    1    2    0    0 -0.40874397343E+01 -0.14254268186E+02  0.21043773593E+02  0.25743793353E+02  0.10566000000E+00 0. -1.
        994    1    1    2    0    0  0.20059884795E+01  0.14265977780E+02  0.54261542740E+01  0.17189073641E+03  0.17120000000E+03 0.  0.
        998    1    1    2    0    0  0.20814512547E+01 -0.11709593985E-01  0.14735300684E+04  0.14735654702E+04  0.10000000000E+02 0. -1.
</event>
<event>
 5    1  0.1488417E-008  0.3753278E+03  0.7957747E-01  0.3471758E+00
         13   -1    0    0    0    0  0.00000000000E+00  0.00000000000E+00  0.14999999963E+04  0.15000000000E+04  0.10566000000E+00 0. -1.
        994   -1    0    0    0    0 -0.00000000000E+00 -0.00000000000E+00  0.11368683772E-12  0.17120000000E+03  0.17120000000E+03 0.  0.
         13    1    1    2    0    0  0.10134611570E+03  0.15858554826E+03  0.99745184097E+03  0.10150520171E+04  0.10566000000E+00 0. -1.
        994    1    1    2    0    0 -0.99860834006E+02 -0.14455318116E+03  0.11978437227E+03  0.27299367061E+03  0.17120000000E+03 0.  0.
        998    1    1    2    0    0 -0.14852816907E+01 -0.14032367099E+02  0.38276378305E+03  0.38315431225E+03  0.10000000000E+02 0. -1.
</event>
<event>
 5    1  0.1488417E-008  0.3806749E+03  0.7957747E-01  0.3448225E+00
         13   -1    0    0    0    0  0.00000000000E+00  0.00000000000E+00  0.14999999963E+04  0.15000000000E+04  0.10566000000E+00 0. -1.
        994   -1    0    0    0    0 -0.00000000000E+00 -0.00000000000E+00  0.11368683772E-12  0.17120000000E+03  0.17120000000E+03 0.  0.
         13    1    1    2    0    0 -0.89201289318E+02 -0.12867804961E+03  0.94460180463E+03  0.95749020410E+03  0.10566000000E+00 0. -1.
        994    1    1    2    0    0  0.87074155277E+02  0.13412912705E+03  0.94411800777E+02  0.25257782834E+03  0.17120000000E+03 0.  0.
        998    1    1    2    0    0  0.21271340408E+01 -0.54510774457E+01  0.46098639087E+03  0.46113196757E+03  0.10000000000E+02 0. -1.
</event>
<event>
 5    1  0.1488417E-008  0.3736413E+03  0.7957747E-01  0.3479322E+00
         13   -1    0    0    0    0  0.00000000000E+00  0.00000000000E+00  0.14999999963E+04  0.15000000000E+04  0.10566000000E+00 0. -1.
        994   -1    0    0    0    0 -0.00000000000E+00 -0.00000000000E+00  0.11368683772E-12  0.17120000000E+03  0.17120000000E+03 0.  0.
         13    1    1    2    0    0  0.14169913471E+03 -0.13346081143E+03  0.10255618208E+04  0.10438713965E+04  0.10566000000E+00 0. -1.
        994    1    1    2    0    0 -0.14884049803E+03  0.10407074179E+03  0.12998724670E+03  0.28140777788E+03  0.17120000000E+03 0.  0.
        998    1    1    2    0    0  0.71413633209E+01  0.29390069642E+02  0.34445092880E+03  0.34592082565E+03  0.10000000000E+02 0.  0.
</event>
<event>
 5    1  0.1488417E-008  0.3726057E+03  0.7957747E-01  0.3484001E+00
         13   -1    0    0    0    0  0.00000000000E+00  0.00000000000E+00  0.14999999963E+04  0.15000000000E+04  0.10566000000E+00 0. -1.
        994   -1    0    0    0    0 -0.00000000000E+00 -0.00000000000E+00  0.11368683772E-12  0.17120000000E+03  0.17120000000E+03 0.  0.
         13    1    1    2    0    0 -0.10232601312E+03 -0.29671031084E+02  0.43453187876E+03  0.44740244508E+03  0.10566000000E+00 0. -1.
        994    1    1    2    0    0  0.98103640382E+02 -0.57748038773E+02  0.59569858604E+02  0.21404945291E+03  0.17120000000E+03 0.  0.
        998    1    1    2    0    0  0.42223727383E+01  0.87419069857E+02  0.10058982589E+04  0.10097481020E+04  0.10000000000E+02 0. -1.
</event>
<event>
 5    1  0.1488417E-008  0.3877177E+03  0.7957747E-01  0.3418227E+00
         13   -1    0    0    0    0  0.00000000000E+00  0.00000000000E+00  0.14999999963E+04  0.15000000000E+04  0.10566000000E+00 0. -1.
        994   -1    0    0    0    0 -0.00000000000E+00 -0.00000000000E+00  0.11368683772E-12  0.17120000000E+03  0.17120000000E+03 0.  0.
         13    1    1    2    0    0 -0.10153672605E+03 -0.97911868940E+02  0.39809130202E+03  0.42234244012E+03  0.10566000000E+00 0. -1.
        994    1    1    2    0    0  0.91372145367E+02  0.70936340758E+02  0.72455398010E+02  0.21895218220E+03  0.17120000000E+03 0.  0.
        998    1    1    2    0    0  0.10164580687E+02  0.26975528182E+02  0.10294532963E+04  0.10299053777E+04  0.10000000000E+02 0. -1.
</event>
<event>
 5    1  0.1488417E-008  0.3818303E+03  0.7957747E-01  0.3443228E+00
         13   -1    0    0    0    0  0.00000000000E+00  0.00000000000E+00  0.14999999963E+04  0.15000000000E+04  0.10566000000E+00 0.  1.
        994   -1    0    0    0    0 -0.00000000000E+00 -0.00000000000E+00  0.11368683772E-12  0.17120000000E+03  0.17120000000E+03 0.  0.
         13    1    1    2    0    0 -0.18292577928E+02  0.24919209630E+02  0.18028392706E+03  0.18291498281E+03  0.10566000000E+00 0.  1.
        994    1    1    2    0    0 -0.87659966033E+01  0.13264587745E+01  0.34732978770E+01  0.17146459106E+03  0.17120000000E+03 0.  0.
        998    1    1    2    0    0  0.27058574531E+02 -0.26245668405E+02  0.13162427713E+04  0.13168204261E+04  0.10000000000E+02 0.  1.
</event>
<event>
 5    1  0.1488417E-008  0.3851296E+03  0.7957747E-01  0.3429123E+00
         13   -1    0    0    0    0  0.00000000000E+00  0.00000000000E+00  0.14999999963E+04  0.15000000000E+04  0.10566000000E+00 0.  1.
        994   -1    0    0    0    0 -0.00000000000E+00 -0.00000000000E+00  0.11368683772E-12  0.17120000000E+03  0.17120000000E+03 0.  0.
         13    1    1    2    0    0  0.18376598608E+02  0.65665788127E+01  0.11355084638E+03  0.11521555976E+03  0.10566000000E+00 0.  1.
        994    1    1    2    0    0 -0.19303567382E+02 -0.71101843663E+01  0.29581399277E+01  0.17245687295E+03  0.17120000000E+03 0.  0.
        998    1    1    2    0    0  0.92696877473E+00  0.54360555364E+00  0.13834910100E+04  0.13835275673E+04  0.10000000000E+02 0.  1.
</event>
<event>
 5    1  0.1488417E-008  0.3806072E+03  0.7957747E-01  0.3448519E+00
         13   -1    0    0    0    0  0.00000000000E+00  0.00000000000E+00  0.14999999963E+04  0.15000000000E+04  0.10566000000E+00 0.  1.
        994   -1    0    0    0    0 -0.00000000000E+00 -0.00000000000E+00  0.11368683772E-12  0.17120000000E+03  0.17120000000E+03 0.  0.
         13    1    1    2    0    0 -0.12785633581E+02  0.12341322485E+02  0.37473888777E+02  0.41473897464E+02  0.10566000000E+00 0.  1.
        994    1    1    2    0    0  0.15548441442E+02 -0.26305278980E+02  0.69483195674E+01  0.17404436468E+03  0.17120000000E+03 0.  0.
        998    1    1    2    0    0 -0.27628078616E+01  0.13963956495E+02  0.14555777879E+04  0.14556817379E+04  0.10000000000E+02 0.  1.
</event>
<event>
 5    1  0.1488417E-008  0.3792069E+03  0.7957747E-01  0.3454619E+00
         13   -1    0    0    0    0  0.00000000000E+00  0.00000000000E+00  0.14999999963E+04  0.15000000000E+04  0.10566000000E+00 0.  1.
        994   -1    0    0    0    0 -0.00000000000E+00 -0.00000000000E+00  0.11368683772E-12  0.17120000000E+03  0.17120000000E+03 0.  0.
         13    1    1    2    0    0 -0.31515713330E+02  0.79959862844E+00  0.12138669409E+03  0.12541379594E+03  0.10566000000E+00 0.  1.
        994    1    1    2    0    0 -0.12479305175E+01  0.20017762875E+02  0.58834619960E+01  0.17247122452E+03  0.17120000000E+03 0.  0.
        998    1    1    2    0    0  0.32763643847E+02 -0.20817361503E+02  0.13727298402E+04  0.13733149795E+04  0.10000000000E+02 0.  1.
</event>
<event>
 5    1  0.1488417E-008  0.3854789E+03  0.7957747E-01  0.3427643E+00
         13   -1    0    0    0    0  0.00000000000E+00  0.00000000000E+00  0.14999999963E+04  0.15000000000E+04  0.10566000000E+00 0. -1.
        994   -1    0    0    0    0 -0.00000000000E+00 -0.00000000000E+00  0.11368683772E-12  0.17120000000E+03  0.17120000000E+03 0.  0.
         13    1    1    2    0    0  0.19495833781E+01  0.15569896096E+02  0.80486699357E+02  0.82002088250E+02  0.10566000000E+00 0. -1.
        994    1    1    2    0    0 -0.24093315451E+01 -0.23319896115E+02  0.31993305382E+01  0.17282736516E+03  0.17120000000E+03 0.  0.
        998    1    1    2    0    0  0.45974816702E+00  0.77500000189E+01  0.14163139664E+04  0.14163705466E+04  0.10000000000E+02 0. -1.
</event>
<event>
 5    1  0.1488417E-008  0.3831908E+03  0.7957747E-01  0.3437382E+00
         13   -1    0    0    0    0  0.00000000000E+00  0.00000000000E+00  0.14999999963E+04  0.15000000000E+04  0.10566000000E+00 0. -1.
        994   -1    0    0    0    0 -0.00000000000E+00 -0.00000000000E+00  0.11368683772E-12  0.17120000000E+03  0.17120000000E+03 0.  0.
         13    1    1    2    0    0 -0.66742801710E+02 -0.68666917178E+02  0.27807494938E+03  0.29410106381E+03  0.10566000000E+00 0. -1.
        994    1    1    2    0    0 -0.20956911309E+02  0.72741313355E+02  0.39417660407E+02  0.19129475359E+03  0.17120000000E+03 0.  0.
        998    1    1    2    0    0  0.87699713018E+02 -0.40743961778E+01  0.11825073865E+04  0.11858041826E+04  0.10000000000E+02 0. -1.
</event>
<event>
 5    1  0.1488417E-008  0.3838244E+03  0.7957747E-01  0.3434673E+00
         13   -1    0    0    0    0  0.00000000000E+00  0.00000000000E+00  0.14999999963E+04  0.15000000000E+04  0.10566000000E+00 0. -1.
        994   -1    0    0    0    0 -0.00000000000E+00 -0.00000000000E+00  0.11368683772E-12  0.17120000000E+03  0.17120000000E+03 0.  0.
         13    1    1    2    0    0  0.12721910895E+02 -0.10166659370E+02  0.63203790922E+02  0.65268203059E+02  0.10566000000E+00 0. -1.
        994    1    1    2    0    0  0.28634328563E+01  0.23462833555E+01  0.22601696218E+01  0.17125493470E+03  0.17120000000E+03 0.  0.
        998    1    1    2    0    0 -0.15585343751E+02  0.78203760146E+01  0.14345360357E+04  0.14346768622E+04  0.10000000000E+02 0. -1.
</event>
<event>
 5    1  0.1488417E-008  0.3828720E+03  0.7957747E-01  0.3438748E+00
         13   -1    0    0    0    0  0.00000000000E+00  0.00000000000E+00  0.14999999963E+04  0.15000000000E+04  0.10566000000E+00 0. -1.
        994   -1    0    0    0    0 -0.00000000000E+00 -0.00000000000E+00  0.11368683772E-12  0.17120000000E+03  0.17120000000E+03 0.  0.
         13    1    1    2    0    0  0.36922109989E+01  0.22837461005E+02  0.10165730546E+03  0.10425641930E+03  0.10566000000E+00 0. -1.
        994    1    1    2    0    0 -0.23135948896E+02 -0.65615549080E+01  0.46078027498E+01  0.17294218103E+03  0.17120000000E+03 0.  0.
        998    1    1    2    0    0  0.19443737898E+02 -0.16275906097E+02  0.13937348881E+04  0.13940013997E+04  0.10000000000E+02 0. -1.
</event>
<event>
 5    1  0.1488417E-008  0.3812993E+03  0.7957747E-01  0.3445520E+00
         13   -1    0    0    0    0  0.00000000000E+00  0.00000000000E+00  0.14999999963E+04  0.15000000000E+04  0.10566000000E+00 0. -1.
        994   -1    0    0    0    0 -0.00000000000E+00 -0.00000000000E+00  0.11368683772E-12  0.17120000000E+03  0.17120000000E+03 0.  0.
         13    1    1    2    0    0 -0.16112784149E+02  0.83602479547E+01  0.42531604969E+02  0.46243530836E+02  0.10566000000E+00 0. -1.
        994    1    1    2    0    0  0.32408662215E+02 -0.10403152532E+02  0.73446677359E+01  0.17470526928E+03  0.17120000000E+03 0.  0.
        998    1    1    2    0    0 -0.16295878066E+02  0.20429045770E+01  0.14501237236E+04  0.14502511999E+04  0.10000000000E+02 0. -1.
</event>
<event>
 5    1  0.1488417E-008  0.3853232E+03  0.7957747E-01  0.3428303E+00
         13   -1    0    0    0    0  0.00000000000E+00  0.00000000000E+00  0.14999999963E+04  0.15000000000E+04  0.10566000000E+00 0.  1.
        994   -1    0    0    0    0 -0.00000000000E+00 -0.00000000000E+00  0.11368683772E-12  0.17120000000E+03  0.17120000000E+03 0.  0.
         13    1    1    2    0    0  0.12709759829E+02  0.34723086705E+01  0.65404333020E+02  0.66718309812E+02  0.10566000000E+00 0.  1.
        994    1    1    2    0    0  0.47769276806E+01  0.45852723969E+01  0.16138055787E+01  0.17133560088E+03  0.17120000000E+03 0.  0.
        998    1    1    2    0    0 -0.17486687510E+02 -0.80575810674E+01  0.14329818577E+04  0.14331460893E+04  0.10000000000E+02 0.  1.
</event>
<event>
 5    1  0.1488417E-008  0.3817599E+03  0.7957747E-01  0.3443531E+00
         13   -1    0    0    0    0  0.00000000000E+00  0.00000000000E+00  0.14999999963E+04  0.15000000000E+04  0.10566000000E+00 0.  1.
        994   -1    0    0    0    0 -0.00000000000E+00 -0.00000000000E+00  0.11368683772E-12  0.17120000000E+03  0.17120000000E+03 0.  0.
         13    1    1    2    0    0 -0.12980076679E+02  0.27265887091E+02  0.14317021902E+03  0.14632031222E+03  0.10566000000E+00 0.  1.
        994    1    1    2    0    0  0.79124026595E+01 -0.11779368563E+02  0.39168915540E+01  0.17183172489E+03  0.17120000000E+03 0.  0.
        998    1    1    2    0    0  0.50676740198E+01 -0.15486518528E+02  0.13529128857E+04  0.13530479629E+04  0.10000000000E+02 0.  1.
</event>
<event>
 5    1  0.1488417E-008  0.3768790E+03  0.7957747E-01  0.3464862E+00
         13   -1    0    0    0    0  0.00000000000E+00  0.00000000000E+00  0.14999999963E+04  0.15000000000E+04  0.10566000000E+00 0.  1.
        994   -1    0    0    0    0 -0.00000000000E+00 -0.00000000000E+00  0.11368683772E-12  0.17120000000E+03  0.17120000000E+03 0.  0.
         13    1    1    2    0    0 -0.40577162618E+02 -0.40114001952E+02  0.10939984758E+03  0.12338548169E+03  0.10566000000E+00 0.  1.
        994    1    1    2    0    0  0.26839395514E+02  0.14069852986E+02  0.17920227863E+02  0.17478240324E+03  0.17120000000E+03 0.  0.
        998    1    1    2    0    0  0.13737767104E+02  0.26044148965E+02  0.13726799208E+04  0.13730321151E+04  0.10000000000E+02 0.  1.
</event>
<event>
 5    1  0.1488417E-008  0.3707399E+03  0.7957747E-01  0.3492497E+00
         13   -1    0    0    0    0  0.00000000000E+00  0.00000000000E+00  0.14999999963E+04  0.15000000000E+04  0.10566000000E+00 0. -1.
        994   -1    0    0    0    0 -0.00000000000E+00 -0.00000000000E+00  0.11368683772E-12  0.17120000000E+03  0.17120000000E+03 0.  0.
         13    1    1    2    0    0  0.46268096705E+02  0.27350319912E+02  0.11676299153E+03  0.12853942635E+03  0.10566000000E+00 0. -1.
        994    1    1    2    0    0 -0.38878131716E+02 -0.30442583015E+02  0.19926223608E+02  0.17928958245E+03  0.17120000000E+03 0.  0.
        998    1    1    2    0    0 -0.73899649887E+01  0.30922631030E+01  0.13633107811E+04  0.13633709912E+04  0.10000000000E+02 0. -1.
</event>
<event>
 5    1  0.1488417E-008  0.3814120E+03  0.7957747E-01  0.3445033E+00
         13   -1    0    0    0    0  0.00000000000E+00  0.00000000000E+00  0.14999999963E+04  0.15000000000E+04  0.10566000000E+00 0.  1.
        994   -1    0    0    0    0 -0.00000000000E+00 -0.00000000000E+00  0.11368683772E-12  0.17120000000E+03  0.17120000000E+03 0.  0.
         13    1    1    2    0    0  0.33703712223E+02 -0.18539151817E+02  0.35824235837E+02  0.52564507084E+02  0.10566000000E+00 0.  1.
        994    1    1    2    0    0 -0.33198308804E+02  0.17155557607E+02  0.22208339039E+02  0.17663264474E+03  0.17120000000E+03 0.  0.
        998    1    1    2    0    0 -0.50540341824E+00  0.13835942107E+01  0.14419674214E+04  0.14420028482E+04  0.10000000000E+02 0.  1.
</event>
<event>
 5    1  0.1488417E-008  0.2332079E+03  0.7957747E-01  0.4529671E+00
         13   -1    0    0    0    0  0.00000000000E+00  0.00000000000E+00  0.14999999963E+04  0.15000000000E+04  0.10566000000E+00 0. -1.
        994   -1    0    0    0    0 -0.00000000000E+00 -0.00000000000E+00  0.11368683772E-12  0.17120000000E+03  0.17120000000E+03 0.  0.
         13    1    1    2    0    0  0.23270084881E+02 -0.15793619535E+03  0.16099833542E+03  0.22672850246E+03  0.10566000000E+00 0. -1.
        994    1    1    2    0    0 -0.18407707896E+02  0.15471793091E+03  0.20147081677E+03  0.30688175551E+03  0.17120000000E+03 0.  0.
        998    1    1    2    0    0 -0.48623769853E+01  0.32182644462E+01  0.11375308441E+04  0.11375897420E+04  0.10000000000E+02 0. -1.
</event>
<event>
 5    1  0.1488417E-008  0.3860191E+03  0.7957747E-01  0.3425361E+00
         13   -1    0    0    0    0  0.00000000000E+00  0.00000000000E+00  0.14999999963E+04  0.15000000000E+04  0.10566000000E+00 0. -1.
        994   -1    0    0    0    0 -0.00000000000E+00 -0.00000000000E+00  0.11368683772E-12  0.17120000000E+03  0.17120000000E+03 0.  0.
         13    1    1    2    0    0  0.10157652323E+02 -0.38287103742E+01  0.51713481217E+02  0.52840630460E+02  0.10566000000E+00 0. -1.
        994    1    1    2    0    0 -0.84588403215E+01  0.87629192633E+01  0.16113742827E+01  0.17164025536E+03  0.17120000000E+03 0.  0.
        998    1    1    2    0    0 -0.16988120011E+01 -0.49342088890E+01  0.14466751408E+04  0.14467191142E+04  0.10000000000E+02 0. -1.
</event>
<event>
 5    1  0.1488417E-008  0.3860131E+03  0.7957747E-01  0.3425387E+00
         13   -1    0    0    0    0  0.00000000000E+00  0.00000000000E+00  0.14999999963E+04  0.15000000000E+04  0.10566000000E+00 0. -1.
        994   -1    0    0    0    0 -0.00000000000E+00 -0.00000000000E+00  0.11368683772E-12  0.17120000000E+03  0.17120000000E+03 0.  0.
         13    1    1    2    0    0  0.10497892984E+02  0.66926617551E+01  0.65861538714E+02  0.67027986127E+02  0.10566000000E+00 0. -1.
        994    1    1    2    0    0 -0.51929909634E+01 -0.21273380406E+02  0.27013948888E+01  0.17261593612E+03  0.17120000000E+03 0.  0.
        998    1    1    2    0    0 -0.53049020202E+01  0.14580718651E+02  0.14314370627E+04  0.14315560778E+04  0.10000000000E+02 0. -1.
</event>
<event>
 5    1  0.2516439E-008  0.3860091E+03  0.7957747E-01  0.3425404E+00
         13   -1    0    0    0    0  0.00000000000E+00  0.00000000000E+00  0.14999999963E+04  0.15000000000E+04  0.10566000000E+00 0.  1.
        994   -1    0    0    0    0 -0.00000000000E+00 -0.00000000000E+00  0.11368683772E-12  0.17120000000E+03  0.17120000000E+03 0.  0.
         13    1    1    2    0    0 -0.62326947367E+01  0.82157339132E+01  0.47414335651E+02  0.48522934337E+02  0.10566000000E+00 0.  1.
        994    1    1    2    0    0  0.32772795356E+01 -0.70518375697E+01  0.13281823494E+01  0.17138165900E+03  0.17120000000E+03 0.  0.
        998    1    1    2    0    0  0.29554152011E+01 -0.11638963435E+01  0.14512574783E+04  0.14512954067E+04  0.10000000000E+02 0.  1.
</event>
<event>
 5    1  0.1488417E-008  0.3702344E+03  0.7957747E-01  0.3494814E+00
         13   -1    0    0    0    0  0.00000000000E+00  0.00000000000E+00  0.14999999963E+04  0.15000000000E+04  0.10566000000E+00 0.  1.
        994   -1    0    0    0    0 -0.00000000000E+00 -0.00000000000E+00  0.11368683772E-12  0.17120000000E+03  0.17120000000E+03 0.  0.
         13    1    1    2    0    0  0.44360630771E+01 -0.36264974532E+02  0.67918648314E+02  0.77121858031E+02  0.10566000000E+00 0.  1.
        994    1    1    2    0    0 -0.44668609177E+01  0.30914306177E+02  0.12524746508E+02  0.17447623462E+03  0.17120000000E+03 0.  0.
        998    1    1    2    0    0  0.30797840588E-01  0.53506683554E+01  0.14195566015E+04  0.14196019073E+04  0.10000000000E+02 0.  1.
</event>
<event>
 5    1  0.5362976E-008  0.3866103E+03  0.7957747E-01  0.3422871E+00
         13   -1    0    0    0    0  0.00000000000E+00  0.00000000000E+00  0.14999999963E+04  0.15000000000E+04  0.10566000000E+00 0.  1.
        994   -1    0    0    0    0 -0.00000000000E+00 -0.00000000000E+00  0.11368683772E-12  0.17120000000E+03  0.17120000000E+03 0.  0.
         13    1    1    2    0    0  0.62240505530E+01  0.81304162748E+01  0.61251626031E+02  0.62101653195E+02  0.10566000000E+00 0.  1.
        994    1    1    2    0    0 -0.81484307972E+01 -0.10152104883E+02  0.13873350364E+01  0.17169981612E+03  0.17120000000E+03 0.  0.
        998    1    1    2    0    0  0.19243802442E+01  0.20216886084E+01  0.14373610352E+04  0.14373985307E+04  0.10000000000E+02 0.  1.
</event>
<event>
 5    1  0.1488417E-008  0.3838707E+03  0.7957747E-01  0.3434476E+00
         13   -1    0    0    0    0  0.00000000000E+00  0.00000000000E+00  0.14999999963E+04  0.15000000000E+04  0.10566000000E+00 0.  1.
        994   -1    0    0    0    0 -0.00000000000E+00 -0.00000000000E+00  0.11368683772E-12  0.17120000000E+03  0.17120000000E+03 0.  0.
         13    1    1    2    0    0 -0.15046280980E+02  0.13541758882E+02  0.93289933454E+02  0.95460948313E+02  0.10566000000E+00 0.  1.
        994    1    1    2    0    0  0.71933800843E+01 -0.10418238319E+02  0.27211057718E+01  0.17168904689E+03  0.17120000000E+03 0.  0.
        998    1    1    2    0    0  0.78529008953E+01 -0.31235205625E+01  0.14039889571E+04  0.14040500048E+04  0.10000000000E+02 0.  1.
</event>
<event>
 5    1  0.1488417E-008  0.3705430E+03  0.7957747E-01  0.3493399E+00
         13   -1    0    0    0    0  0.00000000000E+00  0.00000000000E+00  0.14999999963E+04  0.15000000000E+04  0.10566000000E+00 0.  1.
        994   -1    0    0    0    0 -0.00000000000E+00 -0.00000000000E+00  0.11368683772E-12  0.17120000000E+03  0.17120000000E+03 0.  0.
         13    1    1    2    0    0  0.89956614421E+01 -0.67232381285E+01  0.36674121072E+00  0.11236971072E+02  0.10566000000E+00 0.  1.
        994    1    1    2    0    0 -0.10439580181E+02  0.47636958087E+01  0.11687553121E+02  0.17198173313E+03  0.17120000000E+03 0.  0.
        998    1    1    2    0    0  0.14439187394E+01  0.19595423198E+01  0.14879457019E+04  0.14879812958E+04  0.10000000000E+02 0.  1.
</event>
<event>
 5    1  0.1488417E-008  0.3840077E+03  0.7957747E-01  0.3433892E+00
         13   -1    0    0    0    0  0.00000000000E+00  0.00000000000E+00  0.14999999963E+04  0.15000000000E+04  0.10566000000E+00 0. -1.
        994   -1    0    0    0    0 -0.00000000000E+00 -0.00000000000E+00  0.11368683772E-12  0.17120000000E+03  0.17120000000E+03 0.  0.
         13    1    1    2    0    0 -0.61557810533E+01  0.16170985228E+02  0.70985932134E+02  0.73064410821E+02  0.10566000000E+00 0. -1.
        994    1    1    2    0    0  0.12154453479E+02 -0.50942651821E+01  0.26968297495E+01  0.17172767735E+03  0.17120000000E+03 0.  0.
        998    1    1    2    0    0 -0.59986724253E+01 -0.11076720046E+02  0.14263172344E+04  0.14264079118E+04  0.10000000000E+02 0. -1.
</event>
<event>
 5    1  0.1488417E-008  0.3815940E+03  0.7957747E-01  0.3444247E+00
         13   -1    0    0    0    0  0.00000000000E+00  0.00000000000E+00  0.14999999963E+04  0.15000000000E+04  0.10566000000E+00 0.  1.
        994   -1    0    0    0    0 -0.00000000000E+00 -0.00000000000E+00  0.11368683772E-12  0.17120000000E+03  0.17120000000E+03 0.  0.
         13    1    1    2    0    0 -0.22730196942E+02  0.87794716452E+01  0.90116568459E+02  0.93352814903E+02  0.10566000000E+00 0.  1.
        994    1    1    2    0    0  0.87418113768E+01 -0.72442460611E+01  0.37594396292E+01  0.17161722452E+03  0.17120000000E+03 0.  0.
        998    1    1    2    0    0  0.13988385565E+02 -0.15352255841E+01  0.14061239882E+04  0.14062299606E+04  0.10000000000E+02 0.  1.
</event>
<event>
 5    1  0.1488417E-008  0.3804044E+03  0.7957747E-01  0.3449399E+00
         13   -1    0    0    0    0  0.00000000000E+00  0.00000000000E+00  0.14999999963E+04  0.15000000000E+04  0.10566000000E+00 0. -1.
        994   -1    0    0    0    0 -0.00000000000E+00 -0.00000000000E+00  0.11368683772E-12  0.17120000000E+03  0.17120000000E+03 0.  0.
         13    1    1    2    0    0  0.54084287172E+01  0.21745312054E+02  0.68082784376E+02  0.71675563408E+02  0.10566000000E+00 0. -1.
        994    1    1    2    0    0 -0.60222317631E+01  0.67369119799E+01  0.42017863287E+01  0.17148979056E+03  0.17120000000E+03 0.  0.
        998    1    1    2    0    0  0.61380304581E+00 -0.28482224034E+02  0.14277154256E+04  0.14280346460E+04  0.10000000000E+02 0. -1.
</event>
<event>
 5    1  0.1488417E-008  0.3844991E+03  0.7957747E-01  0.3431800E+00
         13   -1    0    0    0    0  0.00000000000E+00  0.00000000000E+00  0.14999999963E+04  0.15000000000E+04  0.10566000000E+00 0. -1.
        994   -1    0    0    0    0 -0.00000000000E+00 -0.00000000000E+00  0.11368683772E-12  0.17120000000E+03  0.17120000000E+03 0.  0.
         13    1    1    2    0    0  0.18989208102E+02 -0.12848023338E+01  0.91477354047E+02  0.93436385893E+02  0.10566000000E+00 0. -1.
        994    1    1    2    0    0 -0.19092120662E+02  0.39870451049E+01  0.31331052027E+01  0.17233589861E+03  0.17120000000E+03 0.  0.
        998    1    1    2    0    0  0.10291256090E+00 -0.27022427711E+01  0.14053895370E+04  0.14054277155E+04  0.10000000000E+02 0. -1.
</event>
<event>
 5    1  0.1488417E-008  0.3837305E+03  0.7957747E-01  0.3435074E+00
         13   -1    0    0    0    0  0.00000000000E+00  0.00000000000E+00  0.14999999963E+04  0.15000000000E+04  0.10566000000E+00 0.  1.
        994   -1    0    0    0    0 -0.00000000000E+00 -0.00000000000E+00  0.11368683772E-12  0.17120000000E+03  0.17120000000E+03 0.  0.
         13    1    1    2    0    0 -0.13063380769E+02  0.16091379961E+02  0.11131668039E+03  0.11322984996E+03  0.10566000000E+00 0.  1.
        994    1    1    2    0    0  0.15976427227E+02  0.23643462611E+02  0.49552672272E+01  0.17363252640E+03  0.17120000000E+03 0.  0.
        998    1    1    2    0    0 -0.29130464580E+01 -0.39734842572E+02  0.13837280487E+04  0.13843376236E+04  0.10000000000E+02 0.  1.
</event>
<event>
 5    1  0.1488417E-008  0.3768646E+03  0.7957747E-01  0.3464925E+00
         13   -1    0    0    0    0  0.00000000000E+00  0.00000000000E+00  0.14999999963E+04  0.15000000000E+04  0.10566000000E+00 0. -1.
        994   -1    0    0    0    0 -0.00000000000E+00 -0.00000000000E+00  0.11368683772E-12  0.17120000000E+03  0.17120000000E+03 0.  0.
         13    1    1    2    0    0 -0.23247300576E+02 -0.43975508864E+02  0.18603312940E+03  0.19256847811E+03  0.10566000000E+00 0. -1.
        994    1    1    2    0    0  0.26706824469E+02  0.44897113348E+02  0.14998964432E+02  0.17962019428E+03  0.17120000000E+03 0.  0.
        998    1    1    2    0    0 -0.34595238938E+01 -0.92160448450E+00  0.12989679025E+04  0.12990113276E+04  0.10000000000E+02 0.  0.
</event>
<event>
 5    1  0.1488417E-008  0.3763389E+03  0.7957747E-01  0.3467256E+00
         13   -1    0    0    0    0  0.00000000000E+00  0.00000000000E+00  0.14999999963E+04  0.15000000000E+04  0.10566000000E+00 0. -1.
        994   -1    0    0    0    0 -0.00000000000E+00 -0.00000000000E+00  0.11368683772E-12  0.17120000000E+03  0.17120000000E+03 0.  0.
         13    1    1    2    0    0  0.32822786747E+02  0.72822079131E+00  0.84482762218E+02  0.90637817225E+02  0.10566000000E+00 0. -1.
        994    1    1    2    0    0 -0.29607047720E+02 -0.43270650731E+01  0.90283367648E+01  0.17402945622E+03  0.17120000000E+03 0.  0.
        998    1    1    2    0    0 -0.32157390278E+01  0.35988442817E+01  0.14064888973E+04  0.14065327266E+04  0.10000000000E+02 0. -1.
</event>
<event>
 5    1  0.1488417E-008  0.3897608E+03  0.7957747E-01  0.3409729E+00
         13   -1    0    0    0    0  0.00000000000E+00  0.00000000000E+00  0.14999999963E+04  0.15000000000E+04  0.10566000000E+00 0. -1.
        994   -1    0    0    0    0 -0.00000000000E+00 -0.00000000000E+00  0.11368683772E-12  0.17120000000E+03  0.17120000000E+03 0.  0.
         13    1    1    2    0    0  0.15987060845E+02 -0.68856968380E+02  0.11795580803E+03  0.13751527923E+03  0.10566000000E+00 0. -1.
        994    1    1    2    0    0 -0.75086342725E+02  0.97188428635E+00  0.43316534630E+02  0.19189753932E+03  0.17120000000E+03 0.  0.
        998    1    1    2    0    0  0.59099281880E+02  0.67885084094E+02  0.13387276536E+04  0.13417871815E+04  0.10000000000E+02 0. -1.
</event>
<event>
 5    1  0.1488417E-008  0.3817053E+03  0.7957747E-01  0.3443767E+00
         13   -1    0    0    0    0  0.00000000000E+00  0.00000000000E+00  0.14999999963E+04  0.15000000000E+04  0.10566000000E+00 0. -1.
        994   -1    0    0    0    0 -0.00000000000E+00 -0.00000000000E+00  0.11368683772E-12  0.17120000000E+03  0.17120000000E+03 0.  0.
         13    1    1    2    0    0 -0.29903725596E+02  0.22887933519E+02  0.18322397121E+03  0.18705380268E+03  0.10566000000E+00 0. -1.
        994    1    1    2    0    0  0.32028396992E+02 -0.29153191863E+02  0.95352848027E+01  0.17685046923E+03  0.17120000000E+03 0.  0.
        998    1    1    2    0    0 -0.21246713958E+01  0.62652583439E+01  0.13072407403E+04  0.13072957281E+04  0.10000000000E+02 0. -1.
</event>
<event>
 5    1  0.1488417E-008  0.3834481E+03  0.7957747E-01  0.3436281E+00
         13   -1    0    0    0    0  0.00000000000E+00  0.00000000000E+00  0.14999999963E+04  0.15000000000E+04  0.10566000000E+00 0.  1.
        994   -1    0    0    0    0 -0.00000000000E+00 -0.00000000000E+00  0.11368683772E-12  0.17120000000E+03  0.17120000000E+03 0.  0.
         13    1    1    2    0    0 -0.32875775896E+01  0.11713401388E+02  0.30795955022E+02  0.33112142006E+02  0.10566000000E+00 0.  1.
        994    1    1    2    0    0 -0.58371359409E+01 -0.35311074667E+01  0.25564229437E+01  0.17135494208E+03  0.17120000000E+03 0.  0.
        998    1    1    2    0    0  0.91247135306E+01 -0.81822939215E+01  0.14666476183E+04  0.14667329159E+04  0.10000000000E+02 0.  1.
</event>
<event>
 5    1  0.1488417E-008  0.3834962E+03  0.7957747E-01  0.3436075E+00
         13   -1    0    0    0    0  0.00000000000E+00  0.00000000000E+00  0.14999999963E+04  0.15000000000E+04  0.10566000000E+00 0. -1.
        994   -1    0    0    0    0 -0.00000000000E+00 -0.00000000000E+00  0.11368683772E-12  0.17120000000E+03  0.17120000000E+03 0.  0.
         13    1    1    2    0    0  0.95810052971E+01 -0.65152689881E+01  0.26883888150E+02  0.29274545232E+02  0.10566000000E+00 0. -1.
        994    1    1    2    0    0 -0.11994724035E+02  0.68474933664E+01  0.30092703318E+01  0.17178258724E+03  0.17120000000E+03 0.  0.
        998    1    1    2    0    0  0.24137187377E+01 -0.33222437828E+00  0.14701068378E+04  0.14701428675E+04  0.10000000000E+02 0. -1.
</event>
<event>
 5    1  0.1488417E-008  0.3730066E+03  0.7957747E-01  0.3482186E+00
         13   -1    0    0    0    0  0.00000000000E+00  0.00000000000E+00  0.14999999963E+04  0.15000000000E+04  0.10566000000E+00 0.  1.
        994   -1    0    0    0    0 -0.00000000000E+00 -0.00000000000E+00  0.11368683772E-12  0.17120000000E+03  0.17120000000E+03 0.  0.
         13    1    1    2    0    0 -0.83065532711E+01  0.22728340406E+02  0.34620267436E+02  0.42239204138E+02  0.10566000000E+00 0.  1.
        994    1    1    2    0    0  0.61657878966E+01 -0.18181257526E+02  0.89682983874E+01  0.17250636348E+03  0.17120000000E+03 0.  0.
        998    1    1    2    0    0  0.21407653745E+01 -0.45470828798E+01  0.14564114305E+04  0.14564544324E+04  0.10000000000E+02 0.  1.
</event>
<event>
 5    1  0.1488417E-008  0.3817691E+03  0.7957747E-01  0.3443491E+00
         13   -1    0    0    0    0  0.00000000000E+00  0.00000000000E+00  0.14999999963E+04  0.15000000000E+04  0.10566000000E+00 0. -1.
        994   -1    0    0    0    0 -0.00000000000E+00 -0.00000000000E+00  0.11368683772E-12  0.17120000000E+03  0.17120000000E+03 0.  0.
         13    1    1    2    0    0  0.17770934454E+02  0.52330093336E+01  0.53370562051E+02  0.56494411721E+02  0.10566000000E+00 0. -1.
        994    1    1    2    0    0 -0.32544920744E+01 -0.70647820974E+01  0.34438680656E+01  0.17141121052E+03  0.17120000000E+03 0.  0.
        998    1    1    2    0    0 -0.14516442380E+02  0.18317727639E+01  0.14431855662E+04  0.14432943778E+04  0.10000000000E+02 0. -1.
</event>
<event>
 5    1  0.1488417E-008  0.3840914E+03  0.7957747E-01  0.3433535E+00
         13   -1    0    0    0    0  0.00000000000E+00  0.00000000000E+00  0.14999999963E+04  0.15000000000E+04  0.10566000000E+00 0.  1.
        994   -1    0    0    0    0 -0.00000000000E+00 -0.00000000000E+00  0.11368683772E-12  0.17120000000E+03  0.17120000000E+03 0.  0.
         13    1    1    2    0    0  0.87408345362E+01  0.91808174220E+01  0.38396837470E+02  0.40435354439E+02  0.10566000000E+00 0.  1.
        994    1    1    2    0    0 -0.17740256590E+02  0.73000307118E+01  0.32966625505E+01  0.17230297483E+03  0.17120000000E+03 0.  0.
        998    1    1    2    0    0  0.89994220537E+01 -0.16480848134E+02  0.14583064963E+04  0.14584616707E+04  0.10000000000E+02 0.  1.
</event>
<event>
 5    1  0.1488417E-008  0.3853625E+03  0.7957747E-01  0.3428136E+00
         13   -1    0    0    0    0  0.00000000000E+00  0.00000000000E+00  0.14999999963E+04  0.15000000000E+04  0.10566000000E+00 0.  1.
        994   -1    0    0    0    0 -0.00000000000E+00 -0.00000000000E+00  0.11368683772E-12  0.17120000000E+03  0.17120000000E+03 0.  0.
         13    1    1    2    0    0 -0.42064785584E+01  0.12188250512E+02  0.53905676434E+02  0.55426356802E+02  0.10566000000E+00 0.  1.
        994    1    1    2    0    0 -0.91961257287E+00 -0.20796066994E+02  0.28749546751E+01  0.17248486152E+03  0.17120000000E+03 0.  0.
        998    1    1    2    0    0  0.51260911313E+01  0.86078164817E+01  0.14432193652E+04  0.14432887817E+04  0.10000000000E+02 0.  1.
</event>
<event>
 5    1  0.1488417E-008  0.3806347E+03  0.7957747E-01  0.3448400E+00
         13   -1    0    0    0    0  0.00000000000E+00  0.00000000000E+00  0.14999999963E+04  0.15000000000E+04  0.10566000000E+00 0.  1.
        994   -1    0    0    0    0 -0.00000000000E+00 -0.00000000000E+00  0.11368683772E-12  0.17120000000E+03  0.17120000000E+03 0.  0.
         13    1    1    2    0    0 -0.42029084958E+02 -0.57970177496E+02  0.18410932356E+03  0.19754300708E+03  0.10566000000E+00 0.  1.
        994    1    1    2    0    0  0.59690796772E+01 -0.13719215649E+02  0.17489817716E+02  0.17274021105E+03  0.17120000000E+03 0.  0.
        998    1    1    2    0    0  0.36060005281E+02  0.71689393145E+02  0.12984008550E+04  0.13009167819E+04  0.10000000000E+02 0.  1.
</event>
<event>
 5    1  0.1488417E-008  0.3839250E+03  0.7957747E-01  0.3434244E+00
         13   -1    0    0    0    0  0.00000000000E+00  0.00000000000E+00  0.14999999963E+04  0.15000000000E+04  0.10566000000E+00 0. -1.
        994   -1    0    0    0    0 -0.00000000000E+00 -0.00000000000E+00  0.11368683772E-12  0.17120000000E+03  0.17120000000E+03 0.  0.
         13    1    1    2    0    0  0.32978561464E+01  0.14145582948E+02  0.51084768712E+02  0.53109680196E+02  0.10566000000E+00 0. -1.
        994    1    1    2    0    0 -0.41714997257E+01  0.28693113779E+01  0.22494082618E+01  0.17128962080E+03  0.17120000000E+03 0.  0.
        998    1    1    2    0    0  0.87364357931E+00 -0.17014894326E+02  0.14466658193E+04  0.14468006990E+04  0.10000000000E+02 0. -1.
</event>
<event>
 5    1  0.1488417E-008  0.3743874E+03  0.7957747E-01  0.3475967E+00
         13   -1    0    0    0    0  0.00000000000E+00  0.00000000000E+00  0.14999999963E+04  0.15000000000E+04  0.10566000000E+00 0. -1.
        994   -1    0    0    0    0 -0.00000000000E+00 -0.00000000000E+00  0.11368683772E-12  0.17120000000E+03  0.17120000000E+03 0.  0.
         13    1    1    2    0    0 -0.28707723885E+02  0.24761639835E+02  0.11381149359E+03  0.11995974098E+03  0.10566000000E+00 0. -1.
        994    1    1    2    0    0  0.55696485022E+01  0.14360536256E+02  0.78021644971E+01  0.17206847404E+03  0.17120000000E+03 0.  0.
        998    1    1    2    0    0  0.23138075383E+02 -0.39122176090E+02  0.13783863382E+04  0.13791717850E+04  0.10000000000E+02 0. -1.
</event>
<event>
 5    1  0.1488417E-008  0.4160003E+03  0.7957747E-01  0.3307974E+00
         13   -1    0    0    0    0  0.00000000000E+00  0.00000000000E+00  0.14999999963E+04  0.15000000000E+04  0.10566000000E+00 0. -1.
        994   -1    0    0    0    0 -0.00000000000E+00 -0.00000000000E+00  0.11368683772E-12  0.17120000000E+03  0.17120000000E+03 0.  0.
         13    1    1    2    0    0  0.27381217602E+02 -0.82802645642E+02  0.91364978805E+02  0.12630748085E+03  0.10566000000E+00 0. -1.
        994    1    1    2    0    0  0.16046018627E+02  0.68257560269E+02  0.58625641579E+02  0.19406951100E+03  0.17120000000E+03 0.  0.
        998    1    1    2    0    0 -0.43427236229E+02  0.14545085373E+02  0.13500093759E+04  0.13508230082E+04  0.10000000000E+02 0. -1.
</event>
<event>
 5    1  0.1488417E-008  0.3813160E+03  0.7957747E-01  0.3445448E+00
         13   -1    0    0    0    0  0.00000000000E+00  0.00000000000E+00  0.14999999963E+04  0.15000000000E+04  0.10566000000E+00 0.  1.
        994   -1    0    0    0    0 -0.00000000000E+00 -0.00000000000E+00  0.11368683772E-12  0.17120000000E+03  0.17120000000E+03 0.  0.
         13    1    1    2    0    0  0.16355065049E+02  0.49843593230E+01  0.42654153944E+02  0.45953454748E+02  0.10566000000E+00 0.  1.
        994    1    1    2    0    0 -0.29220889696E+01  0.97656069718E+01  0.38162444838E+01  0.17154564817E+03  0.17120000000E+03 0.  0.
        998    1    1    2    0    0 -0.13432976080E+02 -0.14749966295E+02  0.14535295979E+04  0.14537008971E+04  0.10000000000E+02 0.  1.
</event>
<event>
 5    1  0.1488417E-008  0.3800286E+03  0.7957747E-01  0.3451034E+00
         13   -1    0    0    0    0  0.00000000000E+00  0.00000000000E+00  0.14999999963E+04  0.15000000000E+04  0.10566000000E+00 0. -1.
        994   -1    0    0    0    0 -0.00000000000E+00 -0.00000000000E+00  0.11368683772E-12  0.17120000000E+03  0.17120000000E+03 0.  0.
         13    1    1    2    0    0  0.14371733547E+02  0.11930164492E+02  0.40288994764E+02  0.44408217855E+02  0.10566000000E+00 0. -1.
        994    1    1    2    0    0 -0.13233128274E+02 -0.90094526599E+01  0.49758167425E+01  0.17201884976E+03  0.17120000000E+03 0.  0.
        998    1    1    2    0    0 -0.11386052732E+01 -0.29207118319E+01  0.14547351848E+04  0.14547729324E+04  0.10000000000E+02 0. -1.
</event>
<event>
 5    1  0.1488417E-008  0.3717198E+03  0.7957747E-01  0.3488024E+00
         13   -1    0    0    0    0  0.00000000000E+00  0.00000000000E+00  0.14999999963E+04  0.15000000000E+04  0.10566000000E+00 0.  1.
        994   -1    0    0    0    0 -0.00000000000E+00 -0.00000000000E+00  0.11368683772E-12  0.17120000000E+03  0.17120000000E+03 0.  0.
         13    1    1    2    0    0 -0.44970857450E+02 -0.15531862104E+03  0.66877856394E+03  0.68804871252E+03  0.10566000000E+00 0.  1.
        994    1    1    2    0    0  0.52590420255E+02  0.13666664450E+03  0.91610464021E+02  0.24319835760E+03  0.17120000000E+03 0.  0.
        998    1    1    2    0    0 -0.76195628046E+01  0.18651976535E+02  0.73961096832E+03  0.73995292987E+03  0.10000000000E+02 0.  1.
</event>
<event>
 5    1  0.1488417E-008  0.3720522E+03  0.7957747E-01  0.3486512E+00
         13   -1    0    0    0    0  0.00000000000E+00  0.00000000000E+00  0.14999999963E+04  0.15000000000E+04  0.10566000000E+00 0. -1.
        994   -1    0    0    0    0 -0.00000000000E+00 -0.00000000000E+00  0.11368683772E-12  0.17120000000E+03  0.17120000000E+03 0.  0.
         13    1    1    2    0    0 -0.35106672444E+02 -0.23845081024E+02  0.92272531794E+02  0.10156425369E+03  0.10566000000E+00 0. -1.
        994    1    1    2    0    0  0.62866788268E+02  0.23575983843E+02  0.23840544606E+02  0.18543427851E+03  0.17120000000E+03 0.  0.
        998    1    1    2    0    0 -0.27760115824E+02  0.26909718188E+00  0.13838869199E+04  0.13842014678E+04  0.10000000000E+02 0. -1.
</event>
<event>
 5    1  0.1488417E-008  0.3858971E+03  0.7957747E-01  0.3425876E+00
         13   -1    0    0    0    0  0.00000000000E+00  0.00000000000E+00  0.14999999963E+04  0.15000000000E+04  0.10566000000E+00 0. -1.
        994   -1    0    0    0    0 -0.00000000000E+00 -0.00000000000E+00  0.11368683772E-12  0.17120000000E+03  0.17120000000E+03 0.  0.
         13    1    1    2    0    0 -0.98167139746E+01 -0.94246351471E+01  0.73907870708E+02  0.75150356869E+02  0.10566000000E+00 0. -1.
        994    1    1    2    0    0  0.14113176047E+02  0.10373119895E+02  0.21920011213E+01  0.17210760652E+03  0.17120000000E+03 0.  0.
        998    1    1    2    0    0 -0.42964620726E+01 -0.94848474753E+00  0.14239001244E+04  0.14239420366E+04  0.10000000000E+02 0. -1.
</event>
<event>
 5    1  0.1488417E-008  0.3722201E+03  0.7957747E-01  0.3485749E+00
         13   -1    0    0    0    0  0.00000000000E+00  0.00000000000E+00  0.14999999963E+04  0.15000000000E+04  0.10566000000E+00 0.  1.
        994   -1    0    0    0    0 -0.00000000000E+00 -0.00000000000E+00  0.11368683772E-12  0.17120000000E+03  0.17120000000E+03 0.  0.
         13    1    1    2    0    0 -0.99377613821E+01 -0.76556501756E+01  0.60776574515E+01  0.13939769189E+02  0.10566000000E+00 0.  1.
        994    1    1    2    0    0  0.10787449007E+02 -0.92228739017E+01  0.88046961742E+01  0.17201277026E+03  0.17120000000E+03 0.  0.
        998    1    1    2    0    0 -0.84968762539E+00  0.16878524077E+02  0.14851176427E+04  0.14852474605E+04  0.10000000000E+02 0.  1.
</event>
<event>
 5    1  0.1488417E-008  0.3860714E+03  0.7957747E-01  0.3425141E+00
         13   -1    0    0    0    0  0.00000000000E+00  0.00000000000E+00  0.14999999963E+04  0.15000000000E+04  0.10566000000E+00 0.  1.
        994   -1    0    0    0    0 -0.00000000000E+00 -0.00000000000E+00  0.11368683772E-12  0.17120000000E+03  0.17120000000E+03 0.  0.
         13    1    1    2    0    0 -0.60777943927E+01 -0.89446592913E+01  0.51712733584E+02  0.52831472564E+02  0.10566000000E+00 0.  1.
        994    1    1    2    0    0  0.12033764878E+02  0.80246208788E+01  0.17850402838E+01  0.17181918521E+03  0.17120000000E+03 0.  0.
        998    1    1    2    0    0 -0.59559704853E+01  0.92003841250E+00  0.14465022224E+04  0.14465493422E+04  0.10000000000E+02 0.  1.
</event>
<event>
 5    1  0.1488417E-008  0.3825621E+03  0.7957747E-01  0.3440078E+00
         13   -1    0    0    0    0  0.00000000000E+00  0.00000000000E+00  0.14999999963E+04  0.15000000000E+04  0.10566000000E+00 0.  1.
        994   -1    0    0    0    0 -0.00000000000E+00 -0.00000000000E+00  0.11368683772E-12  0.17120000000E+03  0.17120000000E+03 0.  0.
         13    1    1    2    0    0 -0.50062553061E+01 -0.19763367353E+02  0.80085585373E+02  0.82639974770E+02  0.10566000000E+00 0.  1.
        994    1    1    2    0    0  0.52496977884E+00 -0.62209307159E+01  0.29746012403E+01  0.17133961546E+03  0.17120000000E+03 0.  0.
        998    1    1    2    0    0  0.44812855273E+01  0.25984298068E+02  0.14169398097E+04  0.14172204098E+04  0.10000000000E+02 0.  1.
</event>
<event>
 5    1  0.1488417E-008  0.3850113E+03  0.7957747E-01  0.3429624E+00
         13   -1    0    0    0    0  0.00000000000E+00  0.00000000000E+00  0.14999999963E+04  0.15000000000E+04  0.10566000000E+00 0.  1.
        994   -1    0    0    0    0 -0.00000000000E+00 -0.00000000000E+00  0.11368683772E-12  0.17120000000E+03  0.17120000000E+03 0.  0.
         13    1    1    2    0    0  0.13871536756E+02 -0.10857414650E+02  0.10005164870E+03  0.10159058301E+03  0.10566000000E+00 0.  1.
        994    1    1    2    0    0 -0.38993332159E+01  0.39618010921E+01  0.17261732382E+01  0.17129892102E+03  0.17120000000E+03 0.  0.
        998    1    1    2    0    0 -0.99722035398E+01  0.68956135579E+01  0.13982221743E+04  0.13983104960E+04  0.10000000000E+02 0.  1.
</event>
<event>
 5    1  0.1488417E-008  0.3781955E+03  0.7957747E-01  0.3459054E+00
         13   -1    0    0    0    0  0.00000000000E+00  0.00000000000E+00  0.14999999963E+04  0.15000000000E+04  0.10566000000E+00 0.  1.
        994   -1    0    0    0    0 -0.00000000000E+00 -0.00000000000E+00  0.11368683772E-12  0.17120000000E+03  0.17120000000E+03 0.  0.
         13    1    1    2    0    0 -0.13222408055E+02 -0.10979802800E+01  0.15204182157E+02  0.20179592527E+02  0.10566000000E+00 0.  1.
        994    1    1    2    0    0  0.10601667224E+02  0.98816466721E+00  0.54281870772E+01  0.17161665721E+03  0.17120000000E+03 0.  0.
        998    1    1    2    0    0  0.26207408306E+01  0.10981561278E+00  0.14793676270E+04  0.14794037503E+04  0.10000000000E+02 0.  1.
</event>
<event>
 5    1  0.1488417E-008  0.2483610E+03  0.7957747E-01  0.4351295E+00
         13   -1    0    0    0    0  0.00000000000E+00  0.00000000000E+00  0.14999999963E+04  0.15000000000E+04  0.10566000000E+00 0. -1.
        994   -1    0    0    0    0 -0.00000000000E+00 -0.00000000000E+00  0.11368683772E-12  0.17120000000E+03  0.17120000000E+03 0.  0.
         13    1    1    2    0    0 -0.78054412266E+02 -0.43913553138E+02 -0.70797751839E+01  0.89838888039E+02  0.10566000000E+00 0. -1.
        994    1    1    2    0    0  0.91827472277E+02  0.38322074954E+02  0.22729937060E+03  0.30145532002E+03  0.17120000000E+03 0.  0.
        998    1    1    2    0    0 -0.13773060011E+02  0.55914781844E+01  0.12797804009E+04  0.12799057919E+04  0.10000000000E+02 0. -1.
</event>
<event>
 5    1  0.1488417E-008  0.3816944E+03  0.7957747E-01  0.3443814E+00
         13   -1    0    0    0    0  0.00000000000E+00  0.00000000000E+00  0.14999999963E+04  0.15000000000E+04  0.10566000000E+00 0.  1.
        994   -1    0    0    0    0 -0.00000000000E+00 -0.00000000000E+00  0.11368683772E-12  0.17120000000E+03  0.17120000000E+03 0.  0.
         13    1    1    2    0    0  0.29141407273E+02 -0.35320529779E+01  0.11582699130E+03  0.11948891201E+03  0.10566000000E+00 0.  1.
        994    1    1    2    0    0 -0.36985713744E+02  0.36427910673E+01  0.78854627064E+01  0.17536485814E+03  0.17120000000E+03 0.  0.
        998    1    1    2    0    0  0.78443064713E+01 -0.11073808940E+00  0.13762875423E+04  0.13763462299E+04  0.10000000000E+02 0.  1.
</event>
<event>
 5    1  0.1488417E-008  0.3854425E+03  0.7957747E-01  0.3427798E+00
         13   -1    0    0    0    0  0.00000000000E+00  0.00000000000E+00  0.14999999963E+04  0.15000000000E+04  0.10566000000E+00 0.  1.
        994   -1    0    0    0    0 -0.00000000000E+00 -0.00000000000E+00  0.11368683772E-12  0.17120000000E+03  0.17120000000E+03 0.  0.
         13    1    1    2    0    0 -0.86341903969E+01 -0.10447793948E+02  0.64953325215E+02  0.66352477442E+02  0.10566000000E+00 0.  1.
        994    1    1    2    0    0  0.12117651601E+02  0.30510886791E+01  0.19235651576E+01  0.17166620729E+03  0.17120000000E+03 0.  0.
        998    1    1    2    0    0 -0.34834612038E+01  0.73967052688E+01  0.14331231059E+04  0.14331813153E+04  0.10000000000E+02 0.  1.
</event>
<event>
 5    1  0.1488417E-008  0.3838422E+03  0.7957747E-01  0.3434597E+00
         13   -1    0    0    0    0  0.00000000000E+00  0.00000000000E+00  0.14999999963E+04  0.15000000000E+04  0.10566000000E+00 0. -1.
        994   -1    0    0    0    0 -0.00000000000E+00 -0.00000000000E+00  0.11368683772E-12  0.17120000000E+03  0.17120000000E+03 0.  0.
         13    1    1    2    0    0 -0.27342090593E+02  0.34565613379E+02  0.44374646246E+02  0.62541921459E+02  0.10566000000E+00 0. -1.
        994    1    1    2    0    0  0.13181194844E+02 -0.45578382183E+02  0.26774054303E+02  0.17965918514E+03  0.17120000000E+03 0.  0.
        998    1    1    2    0    0  0.14160895749E+02  0.11012768804E+02  0.14288512957E+04  0.14289988934E+04  0.10000000000E+02 0. -1.
</event>
<event>
 5    1  0.1488417E-008  0.3762173E+03  0.7957747E-01  0.3467796E+00
         13   -1    0    0    0    0  0.00000000000E+00  0.00000000000E+00  0.14999999963E+04  0.15000000000E+04  0.10566000000E+00 0. -1.
        994   -1    0    0    0    0 -0.00000000000E+00 -0.00000000000E+00  0.11368683772E-12  0.17120000000E+03  0.17120000000E+03 0.  0.
         13    1    1    2    0    0  0.29883523205E+02  0.82166704993E+02  0.23473657664E+03  0.25049084603E+03  0.10566000000E+00 0. -1.
        994    1    1    2    0    0 -0.19331820129E+02 -0.74358623580E+02  0.35675792324E+02  0.19101080160E+03  0.17120000000E+03 0.  0.
        998    1    1    2    0    0 -0.10551703075E+02 -0.78080814134E+01  0.12295876273E+04  0.12296983524E+04  0.10000000000E+02 0. -1.
</event>
