<event>
 5    1  0.1582292E-008  0.3842664E+03  0.7957747E-01  0.3432790E+00
         13   -1    0    0    0    0  0.00000000000E+00  0.00000000000E+00  0.14999999963E+04  0.15000000000E+04  0.10566000000E+00 0. -1.
        994   -1    0    0    0    0 -0.00000000000E+00 -0.00000000000E+00  0.11368683772E-12  0.17120000000E+03  0.17120000000E+03 0.  0.
         13    1    1    2    0    0 -0.18381794386E+02  0.19278856711E+01  0.80817742697E+02  0.82904317178E+02  0.10566000000E+00 0. -1.
        994    1    1    2    0    0  0.19457816468E+02 -0.10325939224E+02  0.35959950561E+01  0.17264878460E+03  0.17120000000E+03 0.  0.
        998    1    1    2    0    0 -0.10760220818E+01  0.83980535525E+01  0.14155862585E+04  0.14156468982E+04  0.10000000000E+02 0. -1.
</event>
<event>
 5    1  0.1582292E-008  0.3403020E+03  0.7957747E-01  0.3644602E+00
         13   -1    0    0    0    0  0.00000000000E+00  0.00000000000E+00  0.14999999963E+04  0.15000000000E+04  0.10566000000E+00 0. -1.
        994   -1    0    0    0    0 -0.00000000000E+00 -0.00000000000E+00  0.11368683772E-12  0.17120000000E+03  0.17120000000E+03 0.  0.
         13    1    1    2    0    0 -0.21981330390E+03  0.11977707540E+03  0.86554130239E+03  0.90101398084E+03  0.10566000000E+00 0. -1.
        994    1    1    2    0    0  0.20619269320E+03 -0.96705991872E+02  0.23395387047E+03  0.36866153732E+03  0.17120000000E+03 0.  0.
        998    1    1    2    0    0  0.13620610700E+02 -0.23071083533E+02  0.40050482342E+03  0.40152448183E+03  0.10000000000E+02 0.  1.
</event>
<event>
 5    1  0.1582292E-008  0.3802078E+03  0.7957747E-01  0.3450254E+00
         13   -1    0    0    0    0  0.00000000000E+00  0.00000000000E+00  0.14999999963E+04  0.15000000000E+04  0.10566000000E+00 0.  1.
        994   -1    0    0    0    0 -0.00000000000E+00 -0.00000000000E+00  0.11368683772E-12  0.17120000000E+03  0.17120000000E+03 0.  0.
         13    1    1    2    0    0 -0.20792946541E+02  0.59995483216E+02  0.10793776741E+03  0.12522929941E+03  0.10566000000E+00 0.  1.
        994    1    1    2    0    0  0.25878879210E+02 -0.61765603361E+02  0.32889856447E+02  0.18675087364E+03  0.17120000000E+03 0.  0.
        998    1    1    2    0    0 -0.50859326688E+01  0.17701201454E+01  0.13591723724E+04  0.13592198270E+04  0.10000000000E+02 0.  1.
</event>
<event>
 5    1  0.1582292E-008  0.3853102E+03  0.7957747E-01  0.3428358E+00
         13   -1    0    0    0    0  0.00000000000E+00  0.00000000000E+00  0.14999999963E+04  0.15000000000E+04  0.10566000000E+00 0. -1.
        994   -1    0    0    0    0 -0.00000000000E+00 -0.00000000000E+00  0.11368683772E-12  0.17120000000E+03  0.17120000000E+03 0.  0.
         13    1    1    2    0    0 -0.13522521322E+01 -0.99164349693E+01  0.33343020152E+02  0.34812819840E+02  0.10566000000E+00 0. -1.
        994    1    1    2    0    0 -0.40506182768E+01  0.10726049277E+02  0.19082243690E+01  0.17159410527E+03  0.17120000000E+03 0.  0.
        998    1    1    2    0    0  0.54028704090E+01 -0.80961430759E+00  0.14647487518E+04  0.14647930749E+04  0.10000000000E+02 0. -1.
</event>
<event>
 5    1  0.1582292E-008  0.3737514E+03  0.7957747E-01  0.3478826E+00
         13   -1    0    0    0    0  0.00000000000E+00  0.00000000000E+00  0.14999999963E+04  0.15000000000E+04  0.10566000000E+00 0.  1.
        994   -1    0    0    0    0 -0.00000000000E+00 -0.00000000000E+00  0.11368683772E-12  0.17120000000E+03  0.17120000000E+03 0.  0.
         13    1    1    2    0    0 -0.20082452956E+02 -0.47982138384E+01  0.27430532627E+02  0.34333264584E+02  0.10566000000E+00 0.  1.
        994    1    1    2    0    0 -0.80929290298E+01  0.83390367203E+01  0.77824026722E+01  0.17177031416E+03  0.17120000000E+03 0.  0.
        998    1    1    2    0    0  0.28175381986E+02 -0.35408228819E+01  0.14647870610E+04  0.14650964213E+04  0.10000000000E+02 0.  1.
</event>
<event>
 5    1  0.1582292E-008  0.3828927E+03  0.7957747E-01  0.3438659E+00
         13   -1    0    0    0    0  0.00000000000E+00  0.00000000000E+00  0.14999999963E+04  0.15000000000E+04  0.10566000000E+00 0.  1.
        994   -1    0    0    0    0 -0.00000000000E+00 -0.00000000000E+00  0.11368683772E-12  0.17120000000E+03  0.17120000000E+03 0.  0.
         13    1    1    2    0    0  0.22058724925E+02  0.69504289328E+01  0.10132791298E+03  0.10393388726E+03  0.10566000000E+00 0.  1.
        994    1    1    2    0    0 -0.11572174796E+02  0.11906820785E+01  0.31282463314E+01  0.17162330517E+03  0.17120000000E+03 0.  0.
        998    1    1    2    0    0 -0.10486550129E+02 -0.81411110113E+01  0.13955438370E+04  0.13956428076E+04  0.10000000000E+02 0.  1.
</event>
<event>
 5    1  0.1582292E-008  0.3800746E+03  0.7957747E-01  0.3450834E+00
         13   -1    0    0    0    0  0.00000000000E+00  0.00000000000E+00  0.14999999963E+04  0.15000000000E+04  0.10566000000E+00 0.  1.
        994   -1    0    0    0    0 -0.00000000000E+00 -0.00000000000E+00  0.11368683772E-12  0.17120000000E+03  0.17120000000E+03 0.  0.
         13    1    1    2    0    0 -0.70305791135E+02 -0.45257009857E+02  0.18355323797E+03  0.20170003357E+03  0.10566000000E+00 0.  1.
        994    1    1    2    0    0  0.63665009996E+02  0.54315083706E+02  0.42214613455E+02  0.19517908547E+03  0.17120000000E+03 0.  0.
        998    1    1    2    0    0  0.66407811381E+01 -0.90580738486E+01  0.12742321449E+04  0.12743208810E+04  0.10000000000E+02 0.  1.
</event>
<event>
 5    1  0.1582292E-008  0.3822926E+03  0.7957747E-01  0.3441237E+00
         13   -1    0    0    0    0  0.00000000000E+00  0.00000000000E+00  0.14999999963E+04  0.15000000000E+04  0.10566000000E+00 0. -1.
        994   -1    0    0    0    0 -0.00000000000E+00 -0.00000000000E+00  0.11368683772E-12  0.17120000000E+03  0.17120000000E+03 0.  0.
         13    1    1    2    0    0 -0.71144506571E+01  0.11846767186E+02  0.33002622393E+02  0.35779121701E+02  0.10566000000E+00 0. -1.
        994    1    1    2    0    0  0.14659388242E+02  0.18371071889E+02  0.48152000253E+01  0.17287284372E+03  0.17120000000E+03 0.  0.
        998    1    1    2    0    0 -0.75449375844E+01 -0.30217839074E+02  0.14621821739E+04  0.14625480346E+04  0.10000000000E+02 0. -1.
</event>
<event>
 5    1  0.1582292E-008  0.3804821E+03  0.7957747E-01  0.3449062E+00
         13   -1    0    0    0    0  0.00000000000E+00  0.00000000000E+00  0.14999999963E+04  0.15000000000E+04  0.10566000000E+00 0. -1.
        994   -1    0    0    0    0 -0.00000000000E+00 -0.00000000000E+00  0.11368683772E-12  0.17120000000E+03  0.17120000000E+03 0.  0.
         13    1    1    2    0    0  0.13562056653E+02 -0.69142667248E+01  0.28038432906E+02  0.31904566270E+02  0.10566000000E+00 0. -1.
        994    1    1    2    0    0 -0.11788532957E+02  0.51349828962E+01  0.44420052192E+01  0.17173965462E+03  0.17120000000E+03 0.  0.
        998    1    1    2    0    0 -0.17735236956E+01  0.17792838286E+01  0.14675195582E+04  0.14675557791E+04  0.10000000000E+02 0. -1.
</event>
<event>
 5    1  0.1582292E-008  0.3740149E+03  0.7957747E-01  0.3477640E+00
         13   -1    0    0    0    0  0.00000000000E+00  0.00000000000E+00  0.14999999963E+04  0.15000000000E+04  0.10566000000E+00 0. -1.
        994   -1    0    0    0    0 -0.00000000000E+00 -0.00000000000E+00  0.11368683772E-12  0.17120000000E+03  0.17120000000E+03 0.  0.
         13    1    1    2    0    0 -0.52708884022E+02  0.44994422534E+02  0.21288857998E+03  0.22388453087E+03  0.10566000000E+00 0. -1.
        994    1    1    2    0    0  0.24892621270E+02  0.18620761343E+02  0.16512000094E+02  0.17478118175E+03  0.17120000000E+03 0.  0.
        998    1    1    2    0    0  0.27816262751E+02 -0.63615183877E+02  0.12705994162E+04  0.12725342874E+04  0.10000000000E+02 0. -1.
</event>
<event>
 5    1  0.1582292E-008  0.3688963E+03  0.7957747E-01  0.3500979E+00
         13   -1    0    0    0    0  0.00000000000E+00  0.00000000000E+00  0.14999999963E+04  0.15000000000E+04  0.10566000000E+00 0. -1.
        994   -1    0    0    0    0 -0.00000000000E+00 -0.00000000000E+00  0.11368683772E-12  0.17120000000E+03  0.17120000000E+03 0.  0.
         13    1    1    2    0    0 -0.89087055473E+01  0.18111457734E+02  0.15018597025E+02  0.25158683519E+02  0.10566000000E+00 0. -1.
        994    1    1    2    0    0  0.61439285742E+01 -0.18311711770E+02  0.11656630625E+02  0.17268000372E+03  0.17120000000E+03 0.  0.
        998    1    1    2    0    0  0.27647769731E+01  0.20025403643E+00  0.14733247686E+04  0.14733613128E+04  0.10000000000E+02 0. -1.
</event>
<event>
 5    1  0.1582292E-008  0.2623840E+03  0.7957747E-01  0.4207525E+00
         13   -1    0    0    0    0  0.00000000000E+00  0.00000000000E+00  0.14999999963E+04  0.15000000000E+04  0.10566000000E+00 0. -1.
        994   -1    0    0    0    0 -0.00000000000E+00 -0.00000000000E+00  0.11368683772E-12  0.17120000000E+03  0.17120000000E+03 0.  0.
         13    1    1    2    0    0  0.50258344791E+02 -0.16237571315E+03  0.39801043288E+03  0.43278642456E+03  0.10566000000E+00 0. -1.
        994    1    1    2    0    0 -0.54208908738E+02  0.15501997870E+03  0.13823110610E+03  0.27456707428E+03  0.17120000000E+03 0.  0.
        998    1    1    2    0    0  0.39505639468E+01  0.73557344497E+01  0.96375845730E+03  0.96384650116E+03  0.10000000000E+02 0. -1.
</event>
<event>
 5    1  0.1582292E-008  0.3706032E+03  0.7957747E-01  0.3493123E+00
         13   -1    0    0    0    0  0.00000000000E+00  0.00000000000E+00  0.14999999963E+04  0.15000000000E+04  0.10566000000E+00 0.  1.
        994   -1    0    0    0    0 -0.00000000000E+00 -0.00000000000E+00  0.11368683772E-12  0.17120000000E+03  0.17120000000E+03 0.  0.
         13    1    1    2    0    0 -0.28579311653E+02 -0.41328382325E+02  0.12582258816E+03  0.13548485928E+03  0.10566000000E+00 0.  1.
        994    1    1    2    0    0  0.37511072931E+02  0.37935315703E+02  0.18839629677E+02  0.18030679526E+03  0.17120000000E+03 0.  0.
        998    1    1    2    0    0 -0.89317612782E+01  0.33930666223E+01  0.13553377784E+04  0.13554083455E+04  0.10000000000E+02 0.  1.
</event>
<event>
 5    1  0.1582292E-008  0.3763686E+03  0.7957747E-01  0.3467125E+00
         13   -1    0    0    0    0  0.00000000000E+00  0.00000000000E+00  0.14999999963E+04  0.15000000000E+04  0.10566000000E+00 0. -1.
        994   -1    0    0    0    0 -0.00000000000E+00 -0.00000000000E+00  0.11368683772E-12  0.17120000000E+03  0.17120000000E+03 0.  0.
         13    1    1    2    0    0 -0.70178944804E+01 -0.80821882530E+02  0.39316676981E+03  0.40144930886E+03  0.10566000000E+00 0. -1.
        994    1    1    2    0    0  0.46875521684E+02  0.82737440209E+02  0.37215275384E+02  0.19934195561E+03  0.17120000000E+03 0.  0.
        998    1    1    2    0    0 -0.39857627204E+02 -0.19155576790E+01  0.10696179511E+04  0.10704087355E+04  0.10000000000E+02 0. -1.
</event>
<event>
 5    1  0.1582292E-008  0.3809068E+03  0.7957747E-01  0.3447220E+00
         13   -1    0    0    0    0  0.00000000000E+00  0.00000000000E+00  0.14999999963E+04  0.15000000000E+04  0.10566000000E+00 0. -1.
        994   -1    0    0    0    0 -0.00000000000E+00 -0.00000000000E+00  0.11368683772E-12  0.17120000000E+03  0.17120000000E+03 0.  0.
         13    1    1    2    0    0 -0.25894437140E+02 -0.13331573502E+02  0.11902721980E+03  0.12253874059E+03  0.10566000000E+00 0. -1.
        994    1    1    2    0    0  0.77684218742E+01  0.78212332271E+01  0.40812348580E+01  0.17160307849E+03  0.17120000000E+03 0.  0.
        998    1    1    2    0    0  0.18126015266E+02  0.55103402744E+01  0.13768915416E+04  0.13770581809E+04  0.10000000000E+02 0. -1.
</event>
<event>
 5    1  0.1582292E-008  0.3846920E+03  0.7957747E-01  0.3430979E+00
         13   -1    0    0    0    0  0.00000000000E+00  0.00000000000E+00  0.14999999963E+04  0.15000000000E+04  0.10566000000E+00 0. -1.
        994   -1    0    0    0    0 -0.00000000000E+00 -0.00000000000E+00  0.11368683772E-12  0.17120000000E+03  0.17120000000E+03 0.  0.
         13    1    1    2    0    0  0.14297203171E+02 -0.11957101073E+02  0.10196867371E+03  0.10365811048E+03  0.10566000000E+00 0. -1.
        994    1    1    2    0    0 -0.40026471254E+01  0.41480803556E+01  0.18925060003E+01  0.17130747016E+03  0.17120000000E+03 0.  0.
        998    1    1    2    0    0 -0.10294556046E+02  0.78090207174E+01  0.13961388166E+04  0.13962344194E+04  0.10000000000E+02 0. -1.
</event>
<event>
 5    1  0.1582292E-008  0.3761627E+03  0.7957747E-01  0.3468039E+00
         13   -1    0    0    0    0  0.00000000000E+00  0.00000000000E+00  0.14999999963E+04  0.15000000000E+04  0.10566000000E+00 0.  1.
        994   -1    0    0    0    0 -0.00000000000E+00 -0.00000000000E+00  0.11368683772E-12  0.17120000000E+03  0.17120000000E+03 0.  0.
         13    1    1    2    0    0 -0.18637134309E+02  0.15660427582E+02  0.45975545804E+02  0.52022627224E+02  0.10566000000E+00 0.  1.
        994    1    1    2    0    0  0.91944993930E+01 -0.17787847172E+02  0.74415970408E+01  0.17252757372E+03  0.17120000000E+03 0.  0.
        998    1    1    2    0    0  0.94426349156E+01  0.21274195894E+01  0.14465828534E+04  0.14466497991E+04  0.10000000000E+02 0.  1.
</event>
<event>
 5    1  0.1582292E-008  0.3702703E+03  0.7957747E-01  0.3494649E+00
         13   -1    0    0    0    0  0.00000000000E+00  0.00000000000E+00  0.14999999963E+04  0.15000000000E+04  0.10566000000E+00 0.  1.
        994   -1    0    0    0    0 -0.00000000000E+00 -0.00000000000E+00  0.11368683772E-12  0.17120000000E+03  0.17120000000E+03 0.  0.
         13    1    1    2    0    0  0.64302416205E+02 -0.14471827419E+02  0.28073868877E+03  0.28837208092E+03  0.10566000000E+00 0.  1.
        994    1    1    2    0    0  0.23953960515E+02  0.48356802208E+01  0.13174309131E+02  0.17343638156E+03  0.17120000000E+03 0.  0.
        998    1    1    2    0    0 -0.88256376720E+02  0.96361471982E+01  0.12060869984E+04  0.12093915375E+04  0.10000000000E+02 0.  1.
</event>
<event>
 5    1  0.1582292E-008  0.3765999E+03  0.7957747E-01  0.3466098E+00
         13   -1    0    0    0    0  0.00000000000E+00  0.00000000000E+00  0.14999999963E+04  0.15000000000E+04  0.10566000000E+00 0. -1.
        994   -1    0    0    0    0 -0.00000000000E+00 -0.00000000000E+00  0.11368683772E-12  0.17120000000E+03  0.17120000000E+03 0.  0.
         13    1    1    2    0    0 -0.35258835172E+01 -0.16590659318E+02  0.21921041254E+02  0.27716872928E+02  0.10566000000E+00 0. -1.
        994    1    1    2    0    0  0.35984673494E+01  0.14042189547E+02  0.65702002053E+01  0.17193818536E+03  0.17120000000E+03 0.  0.
        998    1    1    2    0    0 -0.72583832194E-01  0.25484697710E+01  0.14715087548E+04  0.14715449417E+04  0.10000000000E+02 0. -1.
</event>
<event>
 5    1  0.1582292E-008  0.3767174E+03  0.7957747E-01  0.3465577E+00
         13   -1    0    0    0    0  0.00000000000E+00  0.00000000000E+00  0.14999999963E+04  0.15000000000E+04  0.10566000000E+00 0. -1.
        994   -1    0    0    0    0 -0.00000000000E+00 -0.00000000000E+00  0.11368683772E-12  0.17120000000E+03  0.17120000000E+03 0.  0.
         13    1    1    2    0    0 -0.22442823022E+02  0.57896299679E+01  0.12447377143E+02  0.26308714946E+02  0.10566000000E+00 0. -1.
        994    1    1    2    0    0  0.12279665959E+02  0.90826256803E+01  0.15371436892E+02  0.17256594495E+03  0.17120000000E+03 0.  0.
        998    1    1    2    0    0  0.10163157063E+02 -0.14872255648E+02  0.14721811822E+04  0.14723253401E+04  0.10000000000E+02 0. -1.
</event>
<event>
 5    1  0.1582292E-008  0.3729763E+03  0.7957747E-01  0.3482323E+00
         13   -1    0    0    0    0  0.00000000000E+00  0.00000000000E+00  0.14999999963E+04  0.15000000000E+04  0.10566000000E+00 0. -1.
        994   -1    0    0    0    0 -0.00000000000E+00 -0.00000000000E+00  0.11368683772E-12  0.17120000000E+03  0.17120000000E+03 0.  0.
         13    1    1    2    0    0 -0.51361134085E+02  0.68921271585E+02  0.50422475705E+03  0.51149850885E+03  0.10566000000E+00 0. -1.
        994    1    1    2    0    0 -0.32756843867E+02 -0.10053082293E+03  0.47008972070E+02  0.20663673592E+03  0.17120000000E+03 0.  0.
        998    1    1    2    0    0  0.84117977951E+02  0.31609551343E+02  0.94876626716E+03  0.95306475522E+03  0.10000000000E+02 0. -1.
</event>
<event>
 5    1  0.1582292E-008  0.3782376E+03  0.7957747E-01  0.3458868E+00
         13   -1    0    0    0    0  0.00000000000E+00  0.00000000000E+00  0.14999999963E+04  0.15000000000E+04  0.10566000000E+00 0.  1.
        994   -1    0    0    0    0 -0.00000000000E+00 -0.00000000000E+00  0.11368683772E-12  0.17120000000E+03  0.17120000000E+03 0.  0.
         13    1    1    2    0    0 -0.12373171703E+02 -0.27586255872E+02  0.84625102679E+02  0.89863875158E+02  0.10566000000E+00 0.  1.
        994    1    1    2    0    0  0.85281986059E+01  0.29692240470E+02  0.82411604483E+01  0.17416002998E+03  0.17120000000E+03 0.  0.
        998    1    1    2    0    0  0.38449730975E+01 -0.21059845985E+01  0.14071337332E+04  0.14071760949E+04  0.10000000000E+02 0.  1.
</event>
<event>
 5    1  0.1582292E-008  0.3830067E+03  0.7957747E-01  0.3438170E+00
         13   -1    0    0    0    0  0.00000000000E+00  0.00000000000E+00  0.14999999963E+04  0.15000000000E+04  0.10566000000E+00 0.  1.
        994   -1    0    0    0    0 -0.00000000000E+00 -0.00000000000E+00  0.11368683772E-12  0.17120000000E+03  0.17120000000E+03 0.  0.
         13    1    1    2    0    0  0.13146009896E+02  0.31481669558E+01  0.33001935759E+02  0.35663250822E+02  0.10566000000E+00 0.  1.
        994    1    1    2    0    0 -0.20772756807E+02  0.14017918902E+02  0.47045070195E+01  0.17308836432E+03  0.17120000000E+03 0.  0.
        998    1    1    2    0    0  0.76267469112E+01 -0.17166085858E+02  0.14622935535E+04  0.14624483849E+04  0.10000000000E+02 0.  1.
</event>
<event>
 5    1  0.1582292E-008  0.3857700E+03  0.7957747E-01  0.3426413E+00
         13   -1    0    0    0    0  0.00000000000E+00  0.00000000000E+00  0.14999999963E+04  0.15000000000E+04  0.10566000000E+00 0.  1.
        994   -1    0    0    0    0 -0.00000000000E+00 -0.00000000000E+00  0.11368683772E-12  0.17120000000E+03  0.17120000000E+03 0.  0.
         13    1    1    2    0    0 -0.12054041624E+02 -0.22827400880E+01  0.61274336937E+02  0.62490530106E+02  0.10566000000E+00 0.  1.
        994    1    1    2    0    0  0.64372450988E+01  0.39308046702E+01  0.14349723758E+01  0.17137207618E+03  0.17120000000E+03 0.  0.
        998    1    1    2    0    0  0.56167965249E+01 -0.16480645822E+01  0.14372906870E+04  0.14373373937E+04  0.10000000000E+02 0.  1.
</event>
<event>
 5    1  0.1582292E-008  0.3762231E+03  0.7957747E-01  0.3467771E+00
         13   -1    0    0    0    0  0.00000000000E+00  0.00000000000E+00  0.14999999963E+04  0.15000000000E+04  0.10566000000E+00 0.  1.
        994   -1    0    0    0    0 -0.00000000000E+00 -0.00000000000E+00  0.11368683772E-12  0.17120000000E+03  0.17120000000E+03 0.  0.
         13    1    1    2    0    0  0.85490811398E+02  0.25207304271E+02  0.24452776752E+03  0.26026510960E+03  0.10566000000E+00 0.  1.
        994    1    1    2    0    0 -0.69124773886E+02 -0.36184095769E+02  0.36359583848E+02  0.19162197809E+03  0.17120000000E+03 0.  0.
        998    1    1    2    0    0 -0.16366037513E+02  0.10976791499E+02  0.12191126449E+04  0.12193129123E+04  0.10000000000E+02 0.  1.
</event>
<event>
 5    1  0.1582292E-008  0.3803772E+03  0.7957747E-01  0.3449518E+00
         13   -1    0    0    0    0  0.00000000000E+00  0.00000000000E+00  0.14999999963E+04  0.15000000000E+04  0.10566000000E+00 0. -1.
        994   -1    0    0    0    0 -0.00000000000E+00 -0.00000000000E+00  0.11368683772E-12  0.17120000000E+03  0.17120000000E+03 0.  0.
         13    1    1    2    0    0 -0.18223057817E+02 -0.20930140071E+02  0.11185819595E+03  0.11524937208E+03  0.10566000000E+00 0. -1.
        994    1    1    2    0    0 -0.10262360145E+02 -0.36094664424E+01  0.43380931158E+01  0.17160012627E+03  0.17120000000E+03 0.  0.
        998    1    1    2    0    0  0.28485417963E+02  0.24539606513E+02  0.13838037072E+04  0.13843505017E+04  0.10000000000E+02 0. -1.
</event>
<event>
 5    1  0.1582292E-008  0.3852654E+03  0.7957747E-01  0.3428548E+00
         13   -1    0    0    0    0  0.00000000000E+00  0.00000000000E+00  0.14999999963E+04  0.15000000000E+04  0.10566000000E+00 0.  1.
        994   -1    0    0    0    0 -0.00000000000E+00 -0.00000000000E+00  0.11368683772E-12  0.17120000000E+03  0.17120000000E+03 0.  0.
         13    1    1    2    0    0 -0.52480603980E+01  0.15092853916E+02  0.95374564779E+02  0.96703956218E+02  0.10566000000E+00 0.  1.
        994    1    1    2    0    0 -0.94491109715E+00  0.29900524459E+01  0.15307643328E+01  0.17123555854E+03  0.17120000000E+03 0.  0.
        998    1    1    2    0    0  0.61929714952E+01 -0.18082906362E+02  0.14030946672E+04  0.14032604852E+04  0.10000000000E+02 0.  1.
</event>
<event>
 5    1  0.1582292E-008  0.3845443E+03  0.7957747E-01  0.3431607E+00
         13   -1    0    0    0    0  0.00000000000E+00  0.00000000000E+00  0.14999999963E+04  0.15000000000E+04  0.10566000000E+00 0. -1.
        994   -1    0    0    0    0 -0.00000000000E+00 -0.00000000000E+00  0.11368683772E-12  0.17120000000E+03  0.17120000000E+03 0.  0.
         13    1    1    2    0    0 -0.16215312674E+02 -0.42205746623E+01  0.78796996247E+02  0.80558844314E+02  0.10566000000E+00 0. -1.
        994    1    1    2    0    0  0.44246377365E+01 -0.26301124791E+00  0.19212740797E+01  0.17126814616E+03  0.17120000000E+03 0.  0.
        998    1    1    2    0    0  0.11790674938E+02  0.44835859102E+01  0.14192817260E+04  0.14193730095E+04  0.10000000000E+02 0. -1.
</event>
<event>
 5    1  0.1582292E-008  0.3823939E+03  0.7957747E-01  0.3440801E+00
         13   -1    0    0    0    0  0.00000000000E+00  0.00000000000E+00  0.14999999963E+04  0.15000000000E+04  0.10566000000E+00 0.  1.
        994   -1    0    0    0    0 -0.00000000000E+00 -0.00000000000E+00  0.11368683772E-12  0.17120000000E+03  0.17120000000E+03 0.  0.
         13    1    1    2    0    0  0.85920748146E+01 -0.17195338424E+02  0.61180922140E+02  0.64129710829E+02  0.10566000000E+00 0.  1.
        994    1    1    2    0    0 -0.43539563227E+01  0.15353124782E+02  0.37746814739E+01  0.17198361433E+03  0.17120000000E+03 0.  0.
        998    1    1    2    0    0 -0.42381184918E+01  0.18422136416E+01  0.14350443927E+04  0.14350866748E+04  0.10000000000E+02 0.  1.
</event>
<event>
 5    1  0.1582292E-008  0.3778784E+03  0.7957747E-01  0.3460449E+00
         13   -1    0    0    0    0  0.00000000000E+00  0.00000000000E+00  0.14999999963E+04  0.15000000000E+04  0.10566000000E+00 0. -1.
        994   -1    0    0    0    0 -0.00000000000E+00 -0.00000000000E+00  0.11368683772E-12  0.17120000000E+03  0.17120000000E+03 0.  0.
         13    1    1    2    0    0 -0.19990810863E+01  0.16796623615E+02  0.24930208968E+02  0.30127219806E+02  0.10566000000E+00 0. -1.
        994    1    1    2    0    0  0.53806524483E+01 -0.16694722161E+02  0.62444024307E+01  0.17220945889E+03  0.17120000000E+03 0.  0.
        998    1    1    2    0    0 -0.33815713619E+01 -0.10190145368E+00  0.14688253849E+04  0.14688633213E+04  0.10000000000E+02 0. -1.
</event>
<event>
 5    1  0.1582292E-008  0.3853774E+03  0.7957747E-01  0.3428073E+00
         13   -1    0    0    0    0  0.00000000000E+00  0.00000000000E+00  0.14999999963E+04  0.15000000000E+04  0.10566000000E+00 0.  1.
        994   -1    0    0    0    0 -0.00000000000E+00 -0.00000000000E+00  0.11368683772E-12  0.17120000000E+03  0.17120000000E+03 0.  0.
         13    1    1    2    0    0 -0.20035734412E+01 -0.13544474138E+02  0.61372180070E+02  0.62881020481E+02  0.10566000000E+00 0.  1.
        994    1    1    2    0    0  0.54357892222E+01  0.17867847914E+02  0.25894311790E+01  0.17223516757E+03  0.17120000000E+03 0.  0.
        998    1    1    2    0    0 -0.34322157810E+01 -0.43233737762E+01  0.14360383850E+04  0.14360838120E+04  0.10000000000E+02 0.  1.
</event>
<event>
 5    1  0.1582292E-008  0.3773688E+03  0.7957747E-01  0.3462696E+00
         13   -1    0    0    0    0  0.00000000000E+00  0.00000000000E+00  0.14999999963E+04  0.15000000000E+04  0.10566000000E+00 0. -1.
        994   -1    0    0    0    0 -0.00000000000E+00 -0.00000000000E+00  0.11368683772E-12  0.17120000000E+03  0.17120000000E+03 0.  0.
         13    1    1    2    0    0 -0.16460171331E+02  0.63043461719E+02  0.13007513308E+03  0.14548184325E+03  0.10566000000E+00 0. -1.
        994    1    1    2    0    0  0.22979804926E+02 -0.53360868504E+02  0.27104870379E+02  0.18281019589E+03  0.17120000000E+03 0.  0.
        998    1    1    2    0    0 -0.65196335951E+01 -0.96825932157E+01  0.13428199928E+04  0.13429079609E+04  0.10000000000E+02 0. -1.
</event>
<event>
 5    1  0.1582292E-008  0.3855647E+03  0.7957747E-01  0.3427281E+00
         13   -1    0    0    0    0  0.00000000000E+00  0.00000000000E+00  0.14999999963E+04  0.15000000000E+04  0.10566000000E+00 0.  1.
        994   -1    0    0    0    0 -0.00000000000E+00 -0.00000000000E+00  0.11368683772E-12  0.17120000000E+03  0.17120000000E+03 0.  0.
         13    1    1    2    0    0 -0.12947460244E+02  0.39586925089E+01  0.66396896315E+02  0.67763315868E+02  0.10566000000E+00 0.  1.
        994    1    1    2    0    0  0.11040241414E+02 -0.84162652387E+01  0.19829259839E+01  0.17177337526E+03  0.17120000000E+03 0.  0.
        998    1    1    2    0    0  0.19072188299E+01  0.44575727298E+01  0.14316201740E+04  0.14316633089E+04  0.10000000000E+02 0.  1.
</event>
<event>
 5    1  0.1582292E-008  0.3813849E+03  0.7957747E-01  0.3445150E+00
         13   -1    0    0    0    0  0.00000000000E+00  0.00000000000E+00  0.14999999963E+04  0.15000000000E+04  0.10566000000E+00 0.  1.
        994   -1    0    0    0    0 -0.00000000000E+00 -0.00000000000E+00  0.11368683772E-12  0.17120000000E+03  0.17120000000E+03 0.  0.
         13    1    1    2    0    0 -0.19220960188E+02  0.16340980915E+02  0.88223750594E+02  0.91760091002E+02  0.10566000000E+00 0.  1.
        994    1    1    2    0    0  0.18362402108E+02 -0.13191905780E+02  0.51386567517E+01  0.17276298788E+03  0.17120000000E+03 0.  0.
        998    1    1    2    0    0  0.85855808013E+00 -0.31490751350E+01  0.14066375889E+04  0.14066769211E+04  0.10000000000E+02 0.  1.
</event>
<event>
 5    1  0.1582292E-008  0.3818065E+03  0.7957747E-01  0.3443330E+00
         13   -1    0    0    0    0  0.00000000000E+00  0.00000000000E+00  0.14999999963E+04  0.15000000000E+04  0.10566000000E+00 0.  1.
        994   -1    0    0    0    0 -0.00000000000E+00 -0.00000000000E+00  0.11368683772E-12  0.17120000000E+03  0.17120000000E+03 0.  0.
         13    1    1    2    0    0  0.23109019786E+01  0.28336458242E+02  0.12773050643E+03  0.13085636618E+03  0.10566000000E+00 0.  1.
        994    1    1    2    0    0 -0.10668985322E+02 -0.12198586808E+02  0.40972237214E+01  0.17201412736E+03  0.17120000000E+03 0.  0.
        998    1    1    2    0    0  0.83580833439E+01 -0.16137871435E+02  0.13681722661E+04  0.13683295065E+04  0.10000000000E+02 0.  1.
</event>
<event>
 5    1  0.1582292E-008  0.3857520E+03  0.7957747E-01  0.3426489E+00
         13   -1    0    0    0    0  0.00000000000E+00  0.00000000000E+00  0.14999999963E+04  0.15000000000E+04  0.10566000000E+00 0.  1.
        994   -1    0    0    0    0 -0.00000000000E+00 -0.00000000000E+00  0.11368683772E-12  0.17120000000E+03  0.17120000000E+03 0.  0.
         13    1    1    2    0    0  0.78888783933E+01 -0.11781029044E+02  0.79216840390E+02  0.80475747981E+02  0.10566000000E+00 0.  1.
        994    1    1    2    0    0 -0.89981780943E+01  0.77852847255E+01  0.17218230349E+01  0.17162162609E+03  0.17120000000E+03 0.  0.
        998    1    1    2    0    0  0.11092997010E+01  0.39957443182E+01  0.14190613329E+04  0.14191026259E+04  0.10000000000E+02 0.  1.
</event>
<event>
 5    1  0.1582292E-008  0.3831819E+03  0.7957747E-01  0.3437420E+00
         13   -1    0    0    0    0  0.00000000000E+00  0.00000000000E+00  0.14999999963E+04  0.15000000000E+04  0.10566000000E+00 0.  1.
        994   -1    0    0    0    0 -0.00000000000E+00 -0.00000000000E+00  0.11368683772E-12  0.17120000000E+03  0.17120000000E+03 0.  0.
         13    1    1    2    0    0 -0.23592736270E+02 -0.66870501572E+01  0.11318981858E+03  0.11581571585E+03  0.10566000000E+00 0.  1.
        994    1    1    2    0    0  0.21567440606E+02  0.10817424031E+01  0.40796727507E+01  0.17260477511E+03  0.17120000000E+03 0.  0.
        998    1    1    2    0    0  0.20252956643E+01  0.56053077541E+01  0.13827305050E+04  0.13827795090E+04  0.10000000000E+02 0.  1.
</event>
<event>
 5    1  0.1582292E-008  0.3852413E+03  0.7957747E-01  0.3428650E+00
         13   -1    0    0    0    0  0.00000000000E+00  0.00000000000E+00  0.14999999963E+04  0.15000000000E+04  0.10566000000E+00 0.  1.
        994   -1    0    0    0    0 -0.00000000000E+00 -0.00000000000E+00  0.11368683772E-12  0.17120000000E+03  0.17120000000E+03 0.  0.
         13    1    1    2    0    0  0.17740091314E+02  0.12907513714E+01  0.97464636375E+02  0.99074433567E+02  0.10566000000E+00 0.  1.
        994    1    1    2    0    0 -0.20837427395E+02  0.52694437907E+00  0.29394181568E+01  0.17248929309E+03  0.17120000000E+03 0.  0.
        998    1    1    2    0    0  0.30973360803E+01 -0.18176957505E+01  0.13995959417E+04  0.13996362733E+04  0.10000000000E+02 0.  1.
</event>
<event>
 5    1  0.1582292E-008  0.3781352E+03  0.7957747E-01  0.3459319E+00
         13   -1    0    0    0    0  0.00000000000E+00  0.00000000000E+00  0.14999999963E+04  0.15000000000E+04  0.10566000000E+00 0.  1.
        994   -1    0    0    0    0 -0.00000000000E+00 -0.00000000000E+00  0.11368683772E-12  0.17120000000E+03  0.17120000000E+03 0.  0.
         13    1    1    2    0    0 -0.51283327006E+01 -0.19361769811E+02  0.39218645131E+02  0.44037384306E+02  0.10566000000E+00 0.  1.
        994    1    1    2    0    0 -0.37232194944E+02  0.89333793119E+01  0.10024561563E+02  0.17571560386E+03  0.17120000000E+03 0.  0.
        998    1    1    2    0    0  0.42360527645E+02  0.10428390499E+02  0.14507567896E+04  0.14514470118E+04  0.10000000000E+02 0.  1.
</event>
<event>
 5    1  0.1582292E-008  0.3852362E+03  0.7957747E-01  0.3428671E+00
         13   -1    0    0    0    0  0.00000000000E+00  0.00000000000E+00  0.14999999963E+04  0.15000000000E+04  0.10566000000E+00 0.  1.
        994   -1    0    0    0    0 -0.00000000000E+00 -0.00000000000E+00  0.11368683772E-12  0.17120000000E+03  0.17120000000E+03 0.  0.
         13    1    1    2    0    0  0.15000696580E+01 -0.99470400053E+01  0.34119257252E+02  0.35571458971E+02  0.10566000000E+00 0.  1.
        994    1    1    2    0    0 -0.26248038307E+01  0.17673691562E+01  0.15458388615E+01  0.17123621932E+03  0.17120000000E+03 0.  0.
        998    1    1    2    0    0  0.11247341726E+01  0.81796708490E+01  0.14643349002E+04  0.14643923217E+04  0.10000000000E+02 0.  1.
</event>
<event>
 5    1  0.3267055E-008  0.3858315E+03  0.7957747E-01  0.3426153E+00
         13   -1    0    0    0    0  0.00000000000E+00  0.00000000000E+00  0.14999999963E+04  0.15000000000E+04  0.10566000000E+00 0.  1.
        994   -1    0    0    0    0 -0.00000000000E+00 -0.00000000000E+00  0.11368683772E-12  0.17120000000E+03  0.17120000000E+03 0.  0.
         13    1    1    2    0    0 -0.92538558253E+01 -0.41811879874E+01  0.42316454500E+02  0.43517923504E+02  0.10566000000E+00 0.  1.
        994    1    1    2    0    0  0.77434064248E+01  0.31272325652E+01  0.14466279242E+01  0.17140966326E+03  0.17120000000E+03 0.  0.
        998    1    1    2    0    0  0.15104494005E+01  0.10539554221E+01  0.14562369139E+04  0.14562724132E+04  0.10000000000E+02 0.  1.
</event>
<event>
 5    1  0.1582292E-008  0.3756827E+03  0.7957747E-01  0.3470175E+00
         13   -1    0    0    0    0  0.00000000000E+00  0.00000000000E+00  0.14999999963E+04  0.15000000000E+04  0.10566000000E+00 0. -1.
        994   -1    0    0    0    0 -0.00000000000E+00 -0.00000000000E+00  0.11368683772E-12  0.17120000000E+03  0.17120000000E+03 0.  0.
         13    1    1    2    0    0  0.13971418128E+02 -0.19739674900E+02  0.42939950771E+02  0.49281901607E+02  0.10566000000E+00 0. -1.
        994    1    1    2    0    0 -0.12909816933E+02  0.17677527943E+02  0.79552872668E+01  0.17277698042E+03  0.17120000000E+03 0.  0.
        998    1    1    2    0    0 -0.10616011951E+01  0.20621469575E+01  0.14491047582E+04  0.14491411180E+04  0.10000000000E+02 0. -1.
</event>
<event>
 5    1  0.1582292E-008  0.3828673E+03  0.7957747E-01  0.3438768E+00
         13   -1    0    0    0    0  0.00000000000E+00  0.00000000000E+00  0.14999999963E+04  0.15000000000E+04  0.10566000000E+00 0.  1.
        994   -1    0    0    0    0 -0.00000000000E+00 -0.00000000000E+00  0.11368683772E-12  0.17120000000E+03  0.17120000000E+03 0.  0.
         13    1    1    2    0    0 -0.60848289519E+01  0.19915989223E+02  0.77141910227E+02  0.79903424505E+02  0.10566000000E+00 0.  1.
        994    1    1    2    0    0  0.76807924821E+00 -0.19939426005E+02  0.40123660976E+01  0.17240565460E+03  0.17120000000E+03 0.  0.
        998    1    1    2    0    0  0.53167497037E+01  0.23436782019E-01  0.14188457200E+04  0.14188909209E+04  0.10000000000E+02 0.  1.
</event>
<event>
 5    1  0.1582292E-008  0.3764697E+03  0.7957747E-01  0.3466676E+00
         13   -1    0    0    0    0  0.00000000000E+00  0.00000000000E+00  0.14999999963E+04  0.15000000000E+04  0.10566000000E+00 0. -1.
        994   -1    0    0    0    0 -0.00000000000E+00 -0.00000000000E+00  0.11368683772E-12  0.17120000000E+03  0.17120000000E+03 0.  0.
         13    1    1    2    0    0  0.47747103655E+02 -0.14733541790E+02  0.19842521657E+03  0.20462023579E+03  0.10566000000E+00 0. -1.
        994    1    1    2    0    0 -0.34245391026E+02  0.14528969248E+02  0.10620980797E+02  0.17551661741E+03  0.17120000000E+03 0.  0.
        998    1    1    2    0    0 -0.13501712629E+02  0.20457254234E+00  0.12909537989E+04  0.12910631468E+04  0.10000000000E+02 0. -1.
</event>
<event>
 5    1  0.1582292E-008  0.3824335E+03  0.7957747E-01  0.3440630E+00
         13   -1    0    0    0    0  0.00000000000E+00  0.00000000000E+00  0.14999999963E+04  0.15000000000E+04  0.10566000000E+00 0. -1.
        994   -1    0    0    0    0 -0.00000000000E+00 -0.00000000000E+00  0.11368683772E-12  0.17120000000E+03  0.17120000000E+03 0.  0.
         13    1    1    2    0    0 -0.27223490139E+02 -0.27359647493E+00  0.11973443848E+03  0.12279063561E+03  0.10566000000E+00 0. -1.
        994    1    1    2    0    0  0.24870387133E+02 -0.30595522988E+01  0.49947735326E+01  0.17309617205E+03  0.17120000000E+03 0.  0.
        998    1    1    2    0    0  0.23531030060E+01  0.33331487737E+01  0.13752707843E+04  0.13753131923E+04  0.10000000000E+02 0. -1.
</event>
<event>
 5    1  0.1582292E-008  0.3850037E+03  0.7957747E-01  0.3429657E+00
         13   -1    0    0    0    0  0.00000000000E+00  0.00000000000E+00  0.14999999963E+04  0.15000000000E+04  0.10566000000E+00 0. -1.
        994   -1    0    0    0    0 -0.00000000000E+00 -0.00000000000E+00  0.11368683772E-12  0.17120000000E+03  0.17120000000E+03 0.  0.
         13    1    1    2    0    0 -0.13431658412E+02  0.19429574516E+01  0.58839937461E+02  0.60384881683E+02  0.10566000000E+00 0. -1.
        994    1    1    2    0    0  0.25804726791E+01  0.68846131547E+00  0.16517740919E+01  0.17122879774E+03  0.17120000000E+03 0.  0.
        998    1    1    2    0    0  0.10851185733E+02 -0.26314187670E+01  0.14395082847E+04  0.14395863206E+04  0.10000000000E+02 0. -1.
</event>
<event>
 5    1  0.1582292E-008  0.3723261E+03  0.7957747E-01  0.3485268E+00
         13   -1    0    0    0    0  0.00000000000E+00  0.00000000000E+00  0.14999999963E+04  0.15000000000E+04  0.10566000000E+00 0.  1.
        994   -1    0    0    0    0 -0.00000000000E+00 -0.00000000000E+00  0.11368683772E-12  0.17120000000E+03  0.17120000000E+03 0.  0.
         13    1    1    2    0    0  0.30967526208E+02  0.23154843995E+01  0.35177273176E+02  0.46923350899E+02  0.10566000000E+00 0.  1.
        994    1    1    2    0    0 -0.18455532168E+02  0.24096100847E+02  0.15428017294E+02  0.17455283573E+03  0.17120000000E+03 0.  0.
        998    1    1    2    0    0 -0.12511994040E+02 -0.26411585247E+02  0.14493947058E+04  0.14497238134E+04  0.10000000000E+02 0.  1.
</event>
<event>
 5    1  0.1582292E-008  0.3783617E+03  0.7957747E-01  0.3458323E+00
         13   -1    0    0    0    0  0.00000000000E+00  0.00000000000E+00  0.14999999963E+04  0.15000000000E+04  0.10566000000E+00 0.  1.
        994   -1    0    0    0    0 -0.00000000000E+00 -0.00000000000E+00  0.11368683772E-12  0.17120000000E+03  0.17120000000E+03 0.  0.
         13    1    1    2    0    0 -0.21427444721E+02  0.11422106794E+02  0.56511515929E+02  0.61507418313E+02  0.10566000000E+00 0.  1.
        994    1    1    2    0    0  0.20840163062E+02 -0.45349045698E+01  0.64928343124E+01  0.17264551733E+03  0.17120000000E+03 0.  0.
        998    1    1    2    0    0  0.58728165887E+00 -0.68872022243E+01  0.14369956460E+04  0.14370470644E+04  0.10000000000E+02 0.  1.
</event>
<event>
 5    1  0.1833687E-008  0.3840529E+03  0.7957747E-01  0.3433699E+00
         13   -1    0    0    0    0  0.00000000000E+00  0.00000000000E+00  0.14999999963E+04  0.15000000000E+04  0.10566000000E+00 0. -1.
        994   -1    0    0    0    0 -0.00000000000E+00 -0.00000000000E+00  0.11368683772E-12  0.17120000000E+03  0.17120000000E+03 0.  0.
         13    1    1    2    0    0 -0.90534294964E+01  0.43336697691E+01  0.23237467115E+02  0.25312769924E+02  0.10566000000E+00 0. -1.
        994    1    1    2    0    0  0.57435615312E+01 -0.68055879480E+01  0.23627365038E+01  0.17144773854E+03  0.17120000000E+03 0.  0.
        998    1    1    2    0    0  0.33098679651E+01  0.24719181789E+01  0.14743997927E+04  0.14744394915E+04  0.10000000000E+02 0. -1.
</event>
<event>
 5    1  0.1582292E-008  0.3745151E+03  0.7957747E-01  0.3475394E+00
         13   -1    0    0    0    0  0.00000000000E+00  0.00000000000E+00  0.14999999963E+04  0.15000000000E+04  0.10566000000E+00 0. -1.
        994   -1    0    0    0    0 -0.00000000000E+00 -0.00000000000E+00  0.11368683772E-12  0.17120000000E+03  0.17120000000E+03 0.  0.
         13    1    1    2    0    0 -0.90891312731E+02  0.88604970562E+02  0.49145909448E+03  0.50758656824E+03  0.10566000000E+00 0. -1.
        994    1    1    2    0    0  0.12086427805E+03 -0.11298457376E+03  0.10671452634E+03  0.26090442263E+03  0.17120000000E+03 0.  0.
        998    1    1    2    0    0 -0.29972965322E+02  0.24379603194E+02  0.90182637546E+03  0.90270900914E+03  0.10000000000E+02 0. -1.
</event>
<event>
 5    1  0.1582292E-008  0.3835197E+03  0.7957747E-01  0.3435975E+00
         13   -1    0    0    0    0  0.00000000000E+00  0.00000000000E+00  0.14999999963E+04  0.15000000000E+04  0.10566000000E+00 0. -1.
        994   -1    0    0    0    0 -0.00000000000E+00 -0.00000000000E+00  0.11368683772E-12  0.17120000000E+03  0.17120000000E+03 0.  0.
         13    1    1    2    0    0 -0.45797082587E+01 -0.95981012308E+01  0.23532007748E+02  0.25823706699E+02  0.10566000000E+00 0. -1.
        994    1    1    2    0    0 -0.19242952350E+01  0.29873451748E+01  0.24085994506E+01  0.17125381308E+03  0.17120000000E+03 0.  0.
        998    1    1    2    0    0  0.65040034937E+01  0.66107560560E+01  0.14740593891E+04  0.14741224802E+04  0.10000000000E+02 0. -1.
</event>
<event>
 5    1  0.1582292E-008  0.3775325E+03  0.7957747E-01  0.3461973E+00
         13   -1    0    0    0    0  0.00000000000E+00  0.00000000000E+00  0.14999999963E+04  0.15000000000E+04  0.10566000000E+00 0. -1.
        994   -1    0    0    0    0 -0.00000000000E+00 -0.00000000000E+00  0.11368683772E-12  0.17120000000E+03  0.17120000000E+03 0.  0.
         13    1    1    2    0    0  0.50566207663E+02 -0.67485580237E+01  0.20809829754E+03  0.21426011527E+03  0.10566000000E+00 0. -1.
        994    1    1    2    0    0 -0.49797994105E+02  0.12339965349E+02  0.14307168906E+02  0.17929375350E+03  0.17120000000E+03 0.  0.
        998    1    1    2    0    0 -0.76821355712E+00 -0.55914073257E+01  0.12775945298E+04  0.12776461312E+04  0.10000000000E+02 0. -1.
</event>
<event>
 5    1  0.1582292E-008  0.3801765E+03  0.7957747E-01  0.3450390E+00
         13   -1    0    0    0    0  0.00000000000E+00  0.00000000000E+00  0.14999999963E+04  0.15000000000E+04  0.10566000000E+00 0. -1.
        994   -1    0    0    0    0 -0.00000000000E+00 -0.00000000000E+00  0.11368683772E-12  0.17120000000E+03  0.17120000000E+03 0.  0.
         13    1    1    2    0    0 -0.38190981125E+02  0.13795558218E+02  0.17794619460E+03  0.18252048598E+03  0.10566000000E+00 0. -1.
        994    1    1    2    0    0  0.47088136906E+02  0.40869460901E+01  0.11544137440E+02  0.17797950128E+03  0.17120000000E+03 0.  0.
        998    1    1    2    0    0 -0.88971557810E+01 -0.17882504308E+02  0.13105096642E+04  0.13107000127E+04  0.10000000000E+02 0. -1.
</event>
<event>
 5    1  0.1582292E-008  0.3719481E+03  0.7957747E-01  0.3486985E+00
         13   -1    0    0    0    0  0.00000000000E+00  0.00000000000E+00  0.14999999963E+04  0.15000000000E+04  0.10566000000E+00 0.  1.
        994   -1    0    0    0    0 -0.00000000000E+00 -0.00000000000E+00  0.11368683772E-12  0.17120000000E+03  0.17120000000E+03 0.  0.
         13    1    1    2    0    0 -0.84033728511E+01 -0.10494989205E+02  0.71665376962E+01  0.15235875435E+02  0.10566000000E+00 0.  1.
        994    1    1    2    0    0  0.78702707789E+01  0.87379428869E+01  0.87294676480E+01  0.17182530784E+03  0.17120000000E+03 0.  0.
        998    1    1    2    0    0  0.53310207223E+00  0.17570463180E+01  0.14841039909E+04  0.14841388167E+04  0.10000000000E+02 0.  1.
</event>
<event>
 5    1  0.1582292E-008  0.3852099E+03  0.7957747E-01  0.3428783E+00
         13   -1    0    0    0    0  0.00000000000E+00  0.00000000000E+00  0.14999999963E+04  0.15000000000E+04  0.10566000000E+00 0.  1.
        994   -1    0    0    0    0 -0.00000000000E+00 -0.00000000000E+00  0.11368683772E-12  0.17120000000E+03  0.17120000000E+03 0.  0.
         13    1    1    2    0    0  0.21868726489E+01  0.99498505147E+01  0.37039456332E+02  0.38415028656E+02  0.10566000000E+00 0.  1.
        994    1    1    2    0    0  0.11104110782E+02  0.82510048061E+01  0.21551805905E+01  0.17177154933E+03  0.17120000000E+03 0.  0.
        998    1    1    2    0    0 -0.13290983430E+02 -0.18200855321E+02  0.14608053594E+04  0.14610134220E+04  0.10000000000E+02 0.  1.
</event>
<event>
 5    1  0.1699967E-008  0.3858185E+03  0.7957747E-01  0.3426208E+00
         13   -1    0    0    0    0  0.00000000000E+00  0.00000000000E+00  0.14999999963E+04  0.15000000000E+04  0.10566000000E+00 0. -1.
        994   -1    0    0    0    0 -0.00000000000E+00 -0.00000000000E+00  0.11368683772E-12  0.17120000000E+03  0.17120000000E+03 0.  0.
         13    1    1    2    0    0 -0.50760487069E+01 -0.10058215912E+02  0.50960688266E+02  0.52191348808E+02  0.10566000000E+00 0. -1.
        994    1    1    2    0    0  0.12100342253E+01  0.12426578700E+02  0.17357450718E+01  0.17166344064E+03  0.17120000000E+03 0.  0.
        998    1    1    2    0    0  0.38660144816E+01 -0.23683627880E+01  0.14473035629E+04  0.14473452106E+04  0.10000000000E+02 0. -1.
</event>
<event>
 5    1  0.1582292E-008  0.3856168E+03  0.7957747E-01  0.3427060E+00
         13   -1    0    0    0    0  0.00000000000E+00  0.00000000000E+00  0.14999999963E+04  0.15000000000E+04  0.10566000000E+00 0.  1.
        994   -1    0    0    0    0 -0.00000000000E+00 -0.00000000000E+00  0.11368683772E-12  0.17120000000E+03  0.17120000000E+03 0.  0.
         13    1    1    2    0    0 -0.14065949079E+02 -0.65335996144E+01  0.76818346548E+02  0.78368414414E+02  0.10566000000E+00 0.  1.
        994    1    1    2    0    0  0.27741820113E+02  0.20474273668E+02  0.52357299070E+01  0.17471593325E+03  0.17120000000E+03 0.  0.
        998    1    1    2    0    0 -0.13675871034E+02 -0.13940674053E+02  0.14179459198E+04  0.14181156523E+04  0.10000000000E+02 0.  1.
</event>
<event>
 5    1  0.1582292E-008  0.3769997E+03  0.7957747E-01  0.3464327E+00
         13   -1    0    0    0    0  0.00000000000E+00  0.00000000000E+00  0.14999999963E+04  0.15000000000E+04  0.10566000000E+00 0. -1.
        994   -1    0    0    0    0 -0.00000000000E+00 -0.00000000000E+00  0.11368683772E-12  0.17120000000E+03  0.17120000000E+03 0.  0.
         13    1    1    2    0    0  0.13270210684E+03 -0.27852015913E+02  0.73584239287E+03  0.74823099525E+03  0.10566000000E+00 0. -1.
        994    1    1    2    0    0 -0.13391703113E+03  0.35147280217E+02  0.73387253411E+02  0.23208668962E+03  0.17120000000E+03 0.  0.
        998    1    1    2    0    0  0.12149242896E+01 -0.72952643040E+01  0.69077035000E+03  0.69088231513E+03  0.10000000000E+02 0.  1.
</event>
<event>
 5    1  0.1582292E-008  0.3852442E+03  0.7957747E-01  0.3428637E+00
         13   -1    0    0    0    0  0.00000000000E+00  0.00000000000E+00  0.14999999963E+04  0.15000000000E+04  0.10566000000E+00 0.  1.
        994   -1    0    0    0    0 -0.00000000000E+00 -0.00000000000E+00  0.11368683772E-12  0.17120000000E+03  0.17120000000E+03 0.  0.
         13    1    1    2    0    0  0.12805548294E+02  0.63321073933E+01  0.67135326281E+02  0.68638479369E+02  0.10566000000E+00 0.  1.
        994    1    1    2    0    0 -0.11996816649E+02 -0.35832721439E+00  0.19824369971E+01  0.17163164645E+03  0.17120000000E+03 0.  0.
        998    1    1    2    0    0 -0.80873164514E+00 -0.59737801790E+01  0.14308822330E+04  0.14309298742E+04  0.10000000000E+02 0.  1.
</event>
<event>
 5    1  0.1582292E-008  0.3738148E+03  0.7957747E-01  0.3478541E+00
         13   -1    0    0    0    0  0.00000000000E+00  0.00000000000E+00  0.14999999963E+04  0.15000000000E+04  0.10566000000E+00 0.  1.
        994   -1    0    0    0    0 -0.00000000000E+00 -0.00000000000E+00  0.11368683772E-12  0.17120000000E+03  0.17120000000E+03 0.  0.
         13    1    1    2    0    0 -0.11249670248E+03 -0.71327832975E+02  0.48003144330E+03  0.49817001671E+03  0.10566000000E+00 0.  1.
        994    1    1    2    0    0  0.10958729232E+03  0.58055051305E+02  0.69671657657E+02  0.22258334057E+03  0.17120000000E+03 0.  0.
        998    1    1    2    0    0  0.29094101556E+01  0.13272781669E+02  0.95029689532E+03  0.95044664272E+03  0.10000000000E+02 0.  1.
</event>
<event>
 5    1  0.1582292E-008  0.3736544E+03  0.7957747E-01  0.3479263E+00
         13   -1    0    0    0    0  0.00000000000E+00  0.00000000000E+00  0.14999999963E+04  0.15000000000E+04  0.10566000000E+00 0. -1.
        994   -1    0    0    0    0 -0.00000000000E+00 -0.00000000000E+00  0.11368683772E-12  0.17120000000E+03  0.17120000000E+03 0.  0.
         13    1    1    2    0    0 -0.43399744202E+02 -0.34225153563E+02  0.20691927708E+03  0.21417398844E+03  0.10566000000E+00 0. -1.
        994    1    1    2    0    0  0.26130908195E+02  0.15905711027E+02  0.10573523896E+02  0.17423276217E+03  0.17120000000E+03 0.  0.
        998    1    1    2    0    0  0.17268836007E+02  0.18319442537E+02  0.12825071953E+04  0.12827932494E+04  0.10000000000E+02 0. -1.
</event>
<event>
 5    1  0.1582292E-008  0.3801321E+03  0.7957747E-01  0.3450584E+00
         13   -1    0    0    0    0  0.00000000000E+00  0.00000000000E+00  0.14999999963E+04  0.15000000000E+04  0.10566000000E+00 0.  1.
        994   -1    0    0    0    0 -0.00000000000E+00 -0.00000000000E+00  0.11368683772E-12  0.17120000000E+03  0.17120000000E+03 0.  0.
         13    1    1    2    0    0 -0.26786263070E+01  0.18673105778E+02  0.43680375608E+02  0.47579893816E+02  0.10566000000E+00 0.  1.
        994    1    1    2    0    0  0.54604370248E+01 -0.21975350437E+01  0.41822702716E+01  0.17135220138E+03  0.17120000000E+03 0.  0.
        998    1    1    2    0    0 -0.27818107179E+01 -0.16475570734E+02  0.14521373504E+04  0.14522679048E+04  0.10000000000E+02 0.  1.
</event>
<event>
 5    1  0.1811025E-008  0.3841784E+03  0.7957747E-01  0.3433164E+00
         13   -1    0    0    0    0  0.00000000000E+00  0.00000000000E+00  0.14999999963E+04  0.15000000000E+04  0.10566000000E+00 0. -1.
        994   -1    0    0    0    0 -0.00000000000E+00 -0.00000000000E+00  0.11368683772E-12  0.17120000000E+03  0.17120000000E+03 0.  0.
         13    1    1    2    0    0  0.84403927696E+01  0.94273240996E+01  0.37884003110E+02  0.39941501292E+02  0.10566000000E+00 0. -1.
        994    1    1    2    0    0 -0.82887616076E+01 -0.11324304084E+02  0.26882511814E+01  0.17179525641E+03  0.17120000000E+03 0.  0.
        998    1    1    2    0    0 -0.15163116202E+00  0.18969799843E+01  0.14594277420E+04  0.14594632423E+04  0.10000000000E+02 0. -1.
</event>
<event>
 5    1  0.1582292E-008  0.3717169E+03  0.7957747E-01  0.3488037E+00
         13   -1    0    0    0    0  0.00000000000E+00  0.00000000000E+00  0.14999999963E+04  0.15000000000E+04  0.10566000000E+00 0. -1.
        994   -1    0    0    0    0 -0.00000000000E+00 -0.00000000000E+00  0.11368683772E-12  0.17120000000E+03  0.17120000000E+03 0.  0.
         13    1    1    2    0    0  0.33606793489E+02 -0.15555369123E+02  0.52252981778E+02  0.64045072768E+02  0.10566000000E+00 0. -1.
        994    1    1    2    0    0 -0.30243892702E+02  0.13161344146E+02  0.15685481265E+02  0.17505253025E+03  0.17120000000E+03 0.  0.
        998    1    1    2    0    0 -0.33629007869E+01  0.23940249772E+01  0.14320615332E+04  0.14321023970E+04  0.10000000000E+02 0. -1.
</event>
<event>
 5    1  0.1582292E-008  0.3862967E+03  0.7957747E-01  0.3424191E+00
         13   -1    0    0    0    0  0.00000000000E+00  0.00000000000E+00  0.14999999963E+04  0.15000000000E+04  0.10566000000E+00 0. -1.
        994   -1    0    0    0    0 -0.00000000000E+00 -0.00000000000E+00  0.11368683772E-12  0.17120000000E+03  0.17120000000E+03 0.  0.
         13    1    1    2    0    0 -0.10908242976E+02 -0.80732289513E+01  0.76625457839E+02  0.77817984705E+02  0.10566000000E+00 0. -1.
        994    1    1    2    0    0  0.31289926348E+02  0.15245280699E+02  0.49652431601E+01  0.17477291470E+03  0.17120000000E+03 0.  0.
        998    1    1    2    0    0 -0.20381683372E+02 -0.71720517479E+01  0.14184092953E+04  0.14186091006E+04  0.10000000000E+02 0. -1.
</event>
<event>
 5    1  0.1582292E-008  0.3826343E+03  0.7957747E-01  0.3439768E+00
         13   -1    0    0    0    0  0.00000000000E+00  0.00000000000E+00  0.14999999963E+04  0.15000000000E+04  0.10566000000E+00 0. -1.
        994   -1    0    0    0    0 -0.00000000000E+00 -0.00000000000E+00  0.11368683772E-12  0.17120000000E+03  0.17120000000E+03 0.  0.
         13    1    1    2    0    0 -0.52471153702E+02 -0.74914109873E+02  0.27094224684E+03  0.28596338597E+03  0.10566000000E+00 0. -1.
        994    1    1    2    0    0  0.39336969014E+02  0.25692180245E+00  0.23464952365E+02  0.17722163279E+03  0.17120000000E+03 0.  0.
        998    1    1    2    0    0  0.13134184688E+02  0.74657188071E+02  0.12055927971E+04  0.12080149812E+04  0.10000000000E+02 0. -1.
</event>
<event>
 5    1  0.1582292E-008  0.3765119E+03  0.7957747E-01  0.3466489E+00
         13   -1    0    0    0    0  0.00000000000E+00  0.00000000000E+00  0.14999999963E+04  0.15000000000E+04  0.10566000000E+00 0.  1.
        994   -1    0    0    0    0 -0.00000000000E+00 -0.00000000000E+00  0.11368683772E-12  0.17120000000E+03  0.17120000000E+03 0.  0.
         13    1    1    2    0    0  0.22722401312E+02 -0.15664145444E+02  0.59708702897E+02  0.65778517311E+02  0.10566000000E+00 0.  1.
        994    1    1    2    0    0 -0.18999372998E+02  0.24549899603E+02  0.91703796984E+01  0.17423320467E+03  0.17120000000E+03 0.  0.
        998    1    1    2    0    0 -0.37230283147E+01 -0.88857541585E+01  0.14311209137E+04  0.14311882780E+04  0.10000000000E+02 0.  1.
</event>
<event>
 5    1  0.1582292E-008  0.3837985E+03  0.7957747E-01  0.3434784E+00
         13   -1    0    0    0    0  0.00000000000E+00  0.00000000000E+00  0.14999999963E+04  0.15000000000E+04  0.10566000000E+00 0. -1.
        994   -1    0    0    0    0 -0.00000000000E+00 -0.00000000000E+00  0.11368683772E-12  0.17120000000E+03  0.17120000000E+03 0.  0.
         13    1    1    2    0    0 -0.10185320397E+02  0.17306962739E+02  0.89260445155E+02  0.91491584008E+02  0.10566000000E+00 0. -1.
        994    1    1    2    0    0  0.27243016339E+01 -0.14690236151E+02  0.29651378585E+01  0.17187628370E+03  0.17120000000E+03 0.  0.
        998    1    1    2    0    0  0.74610187629E+01 -0.26167265882E+01  0.14077744133E+04  0.14078321323E+04  0.10000000000E+02 0. -1.
</event>
<event>
 5    1  0.1582292E-008  0.3855777E+03  0.7957747E-01  0.3427226E+00
         13   -1    0    0    0    0  0.00000000000E+00  0.00000000000E+00  0.14999999963E+04  0.15000000000E+04  0.10566000000E+00 0. -1.
        994   -1    0    0    0    0 -0.00000000000E+00 -0.00000000000E+00  0.11368683772E-12  0.17120000000E+03  0.17120000000E+03 0.  0.
         13    1    1    2    0    0  0.10132162449E+02  0.12531396313E+01  0.41692034408E+02  0.42923978985E+02  0.10566000000E+00 0. -1.
        994    1    1    2    0    0  0.48864968547E+01  0.24506429875E+01  0.14416987949E+01  0.17129332152E+03  0.17120000000E+03 0.  0.
        998    1    1    2    0    0 -0.15018659303E+02 -0.37037826189E+01  0.14568662631E+04  0.14569826995E+04  0.10000000000E+02 0. -1.
</event>
<event>
 5    1  0.1582292E-008  0.3744571E+03  0.7957747E-01  0.3475654E+00
         13   -1    0    0    0    0  0.00000000000E+00  0.00000000000E+00  0.14999999963E+04  0.15000000000E+04  0.10566000000E+00 0.  1.
        994   -1    0    0    0    0 -0.00000000000E+00 -0.00000000000E+00  0.11368683772E-12  0.17120000000E+03  0.17120000000E+03 0.  0.
         13    1    1    2    0    0 -0.61707988534E+02  0.15185755635E+02  0.29441881861E+03  0.30119916158E+03  0.10566000000E+00 0.  1.
        994    1    1    2    0    0  0.28037315618E+02 -0.27980454238E+02  0.12319684088E+02  0.17615394263E+03  0.17120000000E+03 0.  0.
        998    1    1    2    0    0  0.33670672917E+02  0.12794698603E+02  0.11932614936E+04  0.11938468958E+04  0.10000000000E+02 0.  1.
</event>
<event>
 5    1  0.1582292E-008  0.3824711E+03  0.7957747E-01  0.3440469E+00
         13   -1    0    0    0    0  0.00000000000E+00  0.00000000000E+00  0.14999999963E+04  0.15000000000E+04  0.10566000000E+00 0.  1.
        994   -1    0    0    0    0 -0.00000000000E+00 -0.00000000000E+00  0.11368683772E-12  0.17120000000E+03  0.17120000000E+03 0.  0.
         13    1    1    2    0    0  0.10081800515E+00 -0.34295092045E+02  0.18825210411E+03  0.19135054055E+03  0.10566000000E+00 0.  1.
        994    1    1    2    0    0  0.80674382066E+01  0.28921586007E+02  0.58860209005E+01  0.17391269919E+03  0.17120000000E+03 0.  0.
        998    1    1    2    0    0 -0.81682562117E+01  0.53735060376E+01  0.13058618713E+04  0.13059367603E+04  0.10000000000E+02 0.  1.
</event>
<event>
 5    1  0.1582292E-008  0.3833082E+03  0.7957747E-01  0.3436879E+00
         13   -1    0    0    0    0  0.00000000000E+00  0.00000000000E+00  0.14999999963E+04  0.15000000000E+04  0.10566000000E+00 0. -1.
        994   -1    0    0    0    0 -0.00000000000E+00 -0.00000000000E+00  0.11368683772E-12  0.17120000000E+03  0.17120000000E+03 0.  0.
         13    1    1    2    0    0  0.12578508795E+02  0.64999386453E+01  0.39565054016E+02  0.42022288720E+02  0.10566000000E+00 0. -1.
        994    1    1    2    0    0 -0.80059363753E+01 -0.83430014947E+01  0.29146625154E+01  0.17161478942E+03  0.17120000000E+03 0.  0.
        998    1    1    2    0    0 -0.45725724194E+01  0.18430628495E+01  0.14575202797E+04  0.14575629219E+04  0.10000000000E+02 0. -1.
</event>
<event>
 5    1  0.1582292E-008  0.3691061E+03  0.7957747E-01  0.3500009E+00
         13   -1    0    0    0    0  0.00000000000E+00  0.00000000000E+00  0.14999999963E+04  0.15000000000E+04  0.10566000000E+00 0.  1.
        994   -1    0    0    0    0 -0.00000000000E+00 -0.00000000000E+00  0.11368683772E-12  0.17120000000E+03  0.17120000000E+03 0.  0.
         13    1    1    2    0    0 -0.16709146439E+02 -0.27648299993E+02  0.54102455057E+02  0.63013576906E+02  0.10566000000E+00 0.  1.
        994    1    1    2    0    0 -0.88094460670E+02  0.72498027868E+01  0.38215633425E+02  0.19642573222E+03  0.17120000000E+03 0.  0.
        998    1    1    2    0    0  0.10480360711E+03  0.20398497207E+02  0.14076819078E+04  0.14117606909E+04  0.10000000000E+02 0.  1.
</event>
<event>
 5    1  0.1582292E-008  0.3718340E+03  0.7957747E-01  0.3487504E+00
         13   -1    0    0    0    0  0.00000000000E+00  0.00000000000E+00  0.14999999963E+04  0.15000000000E+04  0.10566000000E+00 0.  1.
        994   -1    0    0    0    0 -0.00000000000E+00 -0.00000000000E+00  0.11368683772E-12  0.17120000000E+03  0.17120000000E+03 0.  0.
         13    1    1    2    0    0  0.19105803217E+02  0.23489081424E+02  0.37050848749E+02  0.47849192467E+02  0.10566000000E+00 0.  1.
        994    1    1    2    0    0  0.18729769683E+02  0.67059768601E+01  0.13305655696E+02  0.17286484568E+03  0.17120000000E+03 0.  0.
        998    1    1    2    0    0 -0.37835572900E+02 -0.30195058284E+02  0.14496434918E+04  0.14504859619E+04  0.10000000000E+02 0.  1.
</event>
<event>
 5    1  0.1790036E-008  0.3862163E+03  0.7957747E-01  0.3424530E+00
         13   -1    0    0    0    0  0.00000000000E+00  0.00000000000E+00  0.14999999963E+04  0.15000000000E+04  0.10566000000E+00 0.  1.
        994   -1    0    0    0    0 -0.00000000000E+00 -0.00000000000E+00  0.11368683772E-12  0.17120000000E+03  0.17120000000E+03 0.  0.
         13    1    1    2    0    0 -0.10598162487E+02 -0.36133383058E+01  0.63354952580E+02  0.64336913528E+02  0.10566000000E+00 0.  1.
        994    1    1    2    0    0  0.51269006929E+01 -0.56150210158E+00  0.11145806271E+01  0.17128129695E+03  0.17120000000E+03 0.  0.
        998    1    1    2    0    0  0.54712617943E+01  0.41748404074E+01  0.14355304631E+04  0.14355817895E+04  0.10000000000E+02 0.  1.
</event>
<event>
 5    1  0.1582292E-008  0.3805958E+03  0.7957747E-01  0.3448568E+00
         13   -1    0    0    0    0  0.00000000000E+00  0.00000000000E+00  0.14999999963E+04  0.15000000000E+04  0.10566000000E+00 0.  1.
        994   -1    0    0    0    0 -0.00000000000E+00 -0.00000000000E+00  0.11368683772E-12  0.17120000000E+03  0.17120000000E+03 0.  0.
         13    1    1    2    0    0 -0.95121889901E+00  0.22033814687E+02  0.61417758872E+02  0.65257536545E+02  0.10566000000E+00 0.  1.
        994    1    1    2    0    0  0.50789364491E+01 -0.16468389840E+02  0.48242359401E+01  0.17213284612E+03  0.17120000000E+03 0.  0.
        998    1    1    2    0    0 -0.41277175501E+01 -0.55654248464E+01  0.14337580015E+04  0.14338096173E+04  0.10000000000E+02 0.  1.
</event>
<event>
 5    1  0.1582292E-008  0.3758924E+03  0.7957747E-01  0.3469241E+00
         13   -1    0    0    0    0  0.00000000000E+00  0.00000000000E+00  0.14999999963E+04  0.15000000000E+04  0.10566000000E+00 0. -1.
        994   -1    0    0    0    0 -0.00000000000E+00 -0.00000000000E+00  0.11368683772E-12  0.17120000000E+03  0.17120000000E+03 0.  0.
         13    1    1    2    0    0 -0.56748729539E+01  0.20491743382E+02  0.10895321654E+02  0.23892152014E+02  0.10566000000E+00 0. -1.
        994    1    1    2    0    0 -0.11507279704E+02  0.21400738746E+02  0.16199452088E+02  0.17367288606E+03  0.17120000000E+03 0.  0.
        998    1    1    2    0    0  0.17182152658E+02 -0.41892482128E+02  0.14729052225E+04  0.14736349619E+04  0.10000000000E+02 0. -1.
</event>
<event>
 5    1  0.1582292E-008  0.3712530E+03  0.7957747E-01  0.3490152E+00
         13   -1    0    0    0    0  0.00000000000E+00  0.00000000000E+00  0.14999999963E+04  0.15000000000E+04  0.10566000000E+00 0.  1.
        994   -1    0    0    0    0 -0.00000000000E+00 -0.00000000000E+00  0.11368683772E-12  0.17120000000E+03  0.17120000000E+03 0.  0.
         13    1    1    2    0    0  0.75421391892E+00 -0.15396236580E+02  0.48978337084E+01  0.16174451414E+02  0.10566000000E+00 0.  1.
        994    1    1    2    0    0  0.10585944376E+01  0.16792553763E+02  0.12597613870E+02  0.17248550768E+03  0.17120000000E+03 0.  0.
        998    1    1    2    0    0 -0.18128083565E+01 -0.13963171824E+01  0.14825045487E+04  0.14825400409E+04  0.10000000000E+02 0.  1.
</event>
<event>
 5    1  0.1582292E-008  0.3850712E+03  0.7957747E-01  0.3429370E+00
         13   -1    0    0    0    0  0.00000000000E+00  0.00000000000E+00  0.14999999963E+04  0.15000000000E+04  0.10566000000E+00 0.  1.
        994   -1    0    0    0    0 -0.00000000000E+00 -0.00000000000E+00  0.11368683772E-12  0.17120000000E+03  0.17120000000E+03 0.  0.
         13    1    1    2    0    0 -0.10268991766E+02 -0.28250783614E+02  0.18007466198E+03  0.18256630034E+03  0.10566000000E+00 0.  1.
        994    1    1    2    0    0 -0.45178250943E+00  0.69251654344E+02  0.17525608391E+02  0.18550628746E+03  0.17120000000E+03 0.  0.
        998    1    1    2    0    0  0.10720774276E+02 -0.41000870730E+02  0.13023997259E+04  0.13031274122E+04  0.10000000000E+02 0.  1.
</event>
<event>
 5    1  0.1582292E-008  0.3760915E+03  0.7957747E-01  0.3468355E+00
         13   -1    0    0    0    0  0.00000000000E+00  0.00000000000E+00  0.14999999963E+04  0.15000000000E+04  0.10566000000E+00 0.  1.
        994   -1    0    0    0    0 -0.00000000000E+00 -0.00000000000E+00  0.11368683772E-12  0.17120000000E+03  0.17120000000E+03 0.  0.
         13    1    1    2    0    0 -0.27867318787E+01  0.11017066356E+02  0.77555363344E+01  0.13758674846E+02  0.10566000000E+00 0.  1.
        994    1    1    2    0    0  0.37120972013E+01 -0.84210397019E+01  0.64061576320E+01  0.17156681623E+03  0.17120000000E+03 0.  0.
        998    1    1    2    0    0 -0.92536532265E+00 -0.25960266537E+01  0.14858383023E+04  0.14858745089E+04  0.10000000000E+02 0.  1.
</event>
<event>
 5    1  0.1582292E-008  0.3848340E+03  0.7957747E-01  0.3430377E+00
         13   -1    0    0    0    0  0.00000000000E+00  0.00000000000E+00  0.14999999963E+04  0.15000000000E+04  0.10566000000E+00 0. -1.
        994   -1    0    0    0    0 -0.00000000000E+00 -0.00000000000E+00  0.11368683772E-12  0.17120000000E+03  0.17120000000E+03 0.  0.
         13    1    1    2    0    0 -0.65835531238E+01  0.16412489078E+02  0.95146772527E+02  0.96776197775E+02  0.10566000000E+00 0. -1.
        994    1    1    2    0    0  0.28576612351E+01 -0.51067303985E+01  0.18252642244E+01  0.17130970934E+03  0.17120000000E+03 0.  0.
        998    1    1    2    0    0  0.37258918887E+01 -0.11305758680E+02  0.14030279595E+04  0.14031140929E+04  0.10000000000E+02 0. -1.
</event>
<event>
 5    1  0.1582292E-008  0.3828643E+03  0.7957747E-01  0.3438781E+00
         13   -1    0    0    0    0  0.00000000000E+00  0.00000000000E+00  0.14999999963E+04  0.15000000000E+04  0.10566000000E+00 0.  1.
        994   -1    0    0    0    0 -0.00000000000E+00 -0.00000000000E+00  0.11368683772E-12  0.17120000000E+03  0.17120000000E+03 0.  0.
         13    1    1    2    0    0  0.55975795163E+01 -0.15012548914E+02  0.47545998832E+02  0.50173127173E+02  0.10566000000E+00 0.  1.
        994    1    1    2    0    0 -0.26543570423E+01  0.64897451572E+01  0.28569970306E+01  0.17136733888E+03  0.17120000000E+03 0.  0.
        998    1    1    2    0    0 -0.29432224740E+01  0.85228037567E+01  0.14495970004E+04  0.14496595339E+04  0.10000000000E+02 0.  1.
</event>
<event>
 5    1  0.1582292E-008  0.3822506E+03  0.7957747E-01  0.3441417E+00
         13   -1    0    0    0    0  0.00000000000E+00  0.00000000000E+00  0.14999999963E+04  0.15000000000E+04  0.10566000000E+00 0. -1.
        994   -1    0    0    0    0 -0.00000000000E+00 -0.00000000000E+00  0.11368683772E-12  0.17120000000E+03  0.17120000000E+03 0.  0.
         13    1    1    2    0    0  0.50041862071E+01  0.26179044844E+02  0.12038310160E+03  0.12329836408E+03  0.10566000000E+00 0. -1.
        994    1    1    2    0    0 -0.24967020956E+02 -0.84170544689E+01  0.53082804378E+01  0.17329690356E+03  0.17120000000E+03 0.  0.
        998    1    1    2    0    0  0.19962834749E+02 -0.17761990375E+02  0.13743086142E+04  0.13746047324E+04  0.10000000000E+02 0. -1.
</event>
<event>
 5    1  0.1582292E-008  0.3833745E+03  0.7957747E-01  0.3436595E+00
         13   -1    0    0    0    0  0.00000000000E+00  0.00000000000E+00  0.14999999963E+04  0.15000000000E+04  0.10566000000E+00 0. -1.
        994   -1    0    0    0    0 -0.00000000000E+00 -0.00000000000E+00  0.11368683772E-12  0.17120000000E+03  0.17120000000E+03 0.  0.
         13    1    1    2    0    0  0.14152210143E+02 -0.49363367257E+01  0.47302813862E+02  0.49620760126E+02  0.10566000000E+00 0. -1.
        994    1    1    2    0    0 -0.54493295099E+01 -0.12930979134E+02  0.30905742286E+01  0.17180191228E+03  0.17120000000E+03 0.  0.
        998    1    1    2    0    0 -0.87028806326E+01  0.17867315860E+02  0.14496066082E+04  0.14497773276E+04  0.10000000000E+02 0. -1.
</event>
<event>
 5    1  0.1582292E-008  0.3714753E+03  0.7957747E-01  0.3489138E+00
         13   -1    0    0    0    0  0.00000000000E+00  0.00000000000E+00  0.14999999963E+04  0.15000000000E+04  0.10566000000E+00 0. -1.
        994   -1    0    0    0    0 -0.00000000000E+00 -0.00000000000E+00  0.11368683772E-12  0.17120000000E+03  0.17120000000E+03 0.  0.
         13    1    1    2    0    0  0.39779560419E+02 -0.34917391159E+02  0.20198566470E+03  0.20880578905E+03  0.10566000000E+00 0. -1.
        994    1    1    2    0    0  0.37888490932E+01 -0.82963241827E+01  0.87862202562E+01  0.17166776645E+03  0.17120000000E+03 0.  0.
        998    1    1    2    0    0 -0.43568409512E+02  0.43213715341E+02  0.12892281113E+04  0.12907264445E+04  0.10000000000E+02 0. -1.
</event>
<event>
 5    1  0.1582292E-008  0.3847282E+03  0.7957747E-01  0.3430826E+00
         13   -1    0    0    0    0  0.00000000000E+00  0.00000000000E+00  0.14999999963E+04  0.15000000000E+04  0.10566000000E+00 0.  1.
        994   -1    0    0    0    0 -0.00000000000E+00 -0.00000000000E+00  0.11368683772E-12  0.17120000000E+03  0.17120000000E+03 0.  0.
         13    1    1    2    0    0  0.11921192990E+02  0.18928305502E+01  0.38927700229E+02  0.40756283674E+02  0.10566000000E+00 0.  1.
        994    1    1    2    0    0 -0.19814693519E+02  0.23506871840E+01  0.30767667993E+01  0.17238635185E+03  0.17120000000E+03 0.  0.
        998    1    1    2    0    0  0.78935005286E+01 -0.42435177342E+01  0.14579955293E+04  0.14580573645E+04  0.10000000000E+02 0.  1.
</event>
<event>
 5    1  0.1582292E-008  0.3722352E+03  0.7957747E-01  0.3485681E+00
         13   -1    0    0    0    0  0.00000000000E+00  0.00000000000E+00  0.14999999963E+04  0.15000000000E+04  0.10566000000E+00 0. -1.
        994   -1    0    0    0    0 -0.00000000000E+00 -0.00000000000E+00  0.11368683772E-12  0.17120000000E+03  0.17120000000E+03 0.  0.
         13    1    1    2    0    0 -0.49810313540E+02 -0.53865526700E+02  0.21796297798E+03  0.22997920175E+03  0.10566000000E+00 0. -1.
        994    1    1    2    0    0  0.40353024678E+02  0.22734281476E+02  0.19722941168E+02  0.17844788753E+03  0.17120000000E+03 0.  0.
        998    1    1    2    0    0  0.94572888618E+01  0.31131245224E+02  0.12623140771E+04  0.12627729107E+04  0.10000000000E+02 0. -1.
</event>
<event>
 5    1  0.1582292E-008  0.3841353E+03  0.7957747E-01  0.3433348E+00
         13   -1    0    0    0    0  0.00000000000E+00  0.00000000000E+00  0.14999999963E+04  0.15000000000E+04  0.10566000000E+00 0.  1.
        994   -1    0    0    0    0 -0.00000000000E+00 -0.00000000000E+00  0.11368683772E-12  0.17120000000E+03  0.17120000000E+03 0.  0.
         13    1    1    2    0    0  0.69947660575E+01  0.97332589599E+01  0.36414908101E+02  0.38336924475E+02  0.10566000000E+00 0.  1.
        994    1    1    2    0    0  0.46309201511E+01  0.30048752015E+01  0.21605812113E+01  0.17130260596E+03  0.17120000000E+03 0.  0.
        998    1    1    2    0    0 -0.11625686209E+02 -0.12738134161E+02  0.14614245070E+04  0.14615604696E+04  0.10000000000E+02 0.  1.
</event>
<event>
 5    1  0.1582292E-008  0.3808627E+03  0.7957747E-01  0.3447411E+00
         13   -1    0    0    0    0  0.00000000000E+00  0.00000000000E+00  0.14999999963E+04  0.15000000000E+04  0.10566000000E+00 0. -1.
        994   -1    0    0    0    0 -0.00000000000E+00 -0.00000000000E+00  0.11368683772E-12  0.17120000000E+03  0.17120000000E+03 0.  0.
         13    1    1    2    0    0 -0.11945398362E+03 -0.80618822359E+02  0.78997434430E+03  0.80301190809E+03  0.10566000000E+00 0. -1.
        994    1    1    2    0    0  0.13733181342E+03  0.89620518388E+02  0.99254640889E+02  0.25700736960E+03  0.17120000000E+03 0.  0.
        998    1    1    2    0    0 -0.17877829799E+02 -0.90016960295E+01  0.61077101109E+03  0.61118072231E+03  0.10000000000E+02 0. -1.
</event>
<event>
 5    1  0.1582292E-008  0.3706272E+03  0.7957747E-01  0.3493013E+00
         13   -1    0    0    0    0  0.00000000000E+00  0.00000000000E+00  0.14999999963E+04  0.15000000000E+04  0.10566000000E+00 0.  1.
        994   -1    0    0    0    0 -0.00000000000E+00 -0.00000000000E+00  0.11368683772E-12  0.17120000000E+03  0.17120000000E+03 0.  0.
         13    1    1    2    0    0 -0.22488057974E+02 -0.32309688706E+02  0.80969206243E+02  0.90031395965E+02  0.10566000000E+00 0.  1.
        994    1    1    2    0    0  0.12110538577E+02  0.32564040536E+02  0.13117677911E+02  0.17518160678E+03  0.17120000000E+03 0.  0.
        998    1    1    2    0    0  0.10377519397E+02 -0.25435182979E+00  0.14059131121E+04  0.14059869973E+04  0.10000000000E+02 0.  1.
</event>
<event>
 5    1  0.1582292E-008  0.3913345E+03  0.7957747E-01  0.3403243E+00
         13   -1    0    0    0    0  0.00000000000E+00  0.00000000000E+00  0.14999999963E+04  0.15000000000E+04  0.10566000000E+00 0.  1.
        994   -1    0    0    0    0 -0.00000000000E+00 -0.00000000000E+00  0.11368683772E-12  0.17120000000E+03  0.17120000000E+03 0.  0.
         13    1    1    2    0    0 -0.10677304337E+02  0.14133237274E+03  0.44726811598E+03  0.46918825982E+03  0.10566000000E+00 0.  1.
        994    1    1    2    0    0  0.35704900796E+02 -0.79379448233E+02  0.51957832860E+02  0.19895977769E+03  0.17120000000E+03 0.  0.
        998    1    1    2    0    0 -0.25027596459E+02 -0.61952924506E+02  0.10007740474E+04  0.10030519625E+04  0.10000000000E+02 0.  1.
</event>
<event>
 5    1  0.1582292E-008  0.3776389E+03  0.7957747E-01  0.3461504E+00
         13   -1    0    0    0    0  0.00000000000E+00  0.00000000000E+00  0.14999999963E+04  0.15000000000E+04  0.10566000000E+00 0. -1.
        994   -1    0    0    0    0 -0.00000000000E+00 -0.00000000000E+00  0.11368683772E-12  0.17120000000E+03  0.17120000000E+03 0.  0.
         13    1    1    2    0    0 -0.29789726251E+02  0.28247743138E+02  0.14625980210E+03  0.15191215770E+03  0.10566000000E+00 0. -1.
        994    1    1    2    0    0  0.20873535229E+02 -0.30567455461E+02  0.99597647393E+01  0.17543862380E+03  0.17120000000E+03 0.  0.
        998    1    1    2    0    0  0.89161910220E+01  0.23197123229E+01  0.13437804294E+04  0.13438492185E+04  0.10000000000E+02 0. -1.
</event>
<event>
 5    1  0.1582292E-008  0.3832256E+03  0.7957747E-01  0.3437233E+00
         13   -1    0    0    0    0  0.00000000000E+00  0.00000000000E+00  0.14999999963E+04  0.15000000000E+04  0.10566000000E+00 0. -1.
        994   -1    0    0    0    0 -0.00000000000E+00 -0.00000000000E+00  0.11368683772E-12  0.17120000000E+03  0.17120000000E+03 0.  0.
         13    1    1    2    0    0 -0.16151718667E+02 -0.15120382516E+02  0.10900264852E+03  0.11122541315E+03  0.10566000000E+00 0. -1.
        994    1    1    2    0    0  0.10156708442E+01 -0.65271802149E+01  0.26580337866E+01  0.17134801082E+03  0.17120000000E+03 0.  0.
        998    1    1    2    0    0  0.15136047823E+02  0.21647562731E+02  0.13883393140E+04  0.13886265760E+04  0.10000000000E+02 0. -1.
</event>
<event>
 5    1  0.1582292E-008  0.3817458E+03  0.7957747E-01  0.3443592E+00
         13   -1    0    0    0    0  0.00000000000E+00  0.00000000000E+00  0.14999999963E+04  0.15000000000E+04  0.10566000000E+00 0. -1.
        994   -1    0    0    0    0 -0.00000000000E+00 -0.00000000000E+00  0.11368683772E-12  0.17120000000E+03  0.17120000000E+03 0.  0.
         13    1    1    2    0    0  0.13233831403E+02  0.25549861682E+02  0.14445638516E+03  0.14729422291E+03  0.10566000000E+00 0. -1.
        994    1    1    2    0    0  0.12697793737E+02 -0.46095614127E+01  0.38612251551E+01  0.17177552527E+03  0.17120000000E+03 0.  0.
        998    1    1    2    0    0 -0.25931625140E+02 -0.20940300270E+02  0.13516823860E+04  0.13521302518E+04  0.10000000000E+02 0. -1.
</event>
<event>
 5    1  0.1582292E-008  0.3710726E+03  0.7957747E-01  0.3490976E+00
         13   -1    0    0    0    0  0.00000000000E+00  0.00000000000E+00  0.14999999963E+04  0.15000000000E+04  0.10566000000E+00 0. -1.
        994   -1    0    0    0    0 -0.00000000000E+00 -0.00000000000E+00  0.11368683772E-12  0.17120000000E+03  0.17120000000E+03 0.  0.
         13    1    1    2    0    0 -0.12200348455E+02 -0.66236650571E+01  0.70065397087E+01  0.15550697860E+02  0.10566000000E+00 0. -1.
        994    1    1    2    0    0  0.19300118313E+01  0.28202653923E+02  0.11467313503E+02  0.17389667597E+03  0.17120000000E+03 0.  0.
        998    1    1    2    0    0  0.10270336624E+02 -0.21578988866E+02  0.14815261431E+04  0.14817526262E+04  0.10000000000E+02 0. -1.
</event>
<event>
 5    1  0.1582292E-008  0.3839916E+03  0.7957747E-01  0.3433960E+00
         13   -1    0    0    0    0  0.00000000000E+00  0.00000000000E+00  0.14999999963E+04  0.15000000000E+04  0.10566000000E+00 0. -1.
        994   -1    0    0    0    0 -0.00000000000E+00 -0.00000000000E+00  0.11368683772E-12  0.17120000000E+03  0.17120000000E+03 0.  0.
         13    1    1    2    0    0  0.13469438126E+02 -0.87584195113E+01  0.59336894622E+02  0.61473684639E+02  0.10566000000E+00 0. -1.
        994    1    1    2    0    0 -0.13682060447E+02  0.27351058870E+01  0.27742246189E+01  0.17179003436E+03  0.17120000000E+03 0.  0.
        998    1    1    2    0    0  0.21262232080E+00  0.60233136242E+01  0.14378888770E+04  0.14379362810E+04  0.10000000000E+02 0. -1.
</event>
<event>
 5    1  0.1582292E-008  0.3705279E+03  0.7957747E-01  0.3493468E+00
         13   -1    0    0    0    0  0.00000000000E+00  0.00000000000E+00  0.14999999963E+04  0.15000000000E+04  0.10566000000E+00 0. -1.
        994   -1    0    0    0    0 -0.00000000000E+00 -0.00000000000E+00  0.11368683772E-12  0.17120000000E+03  0.17120000000E+03 0.  0.
         13    1    1    2    0    0 -0.79265354817E+02  0.14130193479E+02  0.25717475428E+03  0.26948381073E+03  0.10566000000E+00 0. -1.
        994    1    1    2    0    0  0.65159952264E+02 -0.11150729357E+02  0.26685665337E+02  0.18545005494E+03  0.17120000000E+03 0.  0.
        998    1    1    2    0    0  0.14105402553E+02 -0.29794641222E+01  0.12161395767E+04  0.12162661343E+04  0.10000000000E+02 0. -1.
</event>
<event>
 5    1  0.1822548E-008  0.3858476E+03  0.7957747E-01  0.3426085E+00
         13   -1    0    0    0    0  0.00000000000E+00  0.00000000000E+00  0.14999999963E+04  0.15000000000E+04  0.10566000000E+00 0.  1.
        994   -1    0    0    0    0 -0.00000000000E+00 -0.00000000000E+00  0.11368683772E-12  0.17120000000E+03  0.17120000000E+03 0.  0.
         13    1    1    2    0    0  0.42632761665E+01 -0.12527959107E+02  0.71290411661E+02  0.72508339120E+02  0.10566000000E+00 0.  1.
        994    1    1    2    0    0 -0.54257596116E+01  0.10771427895E+02  0.16871143523E+01  0.17163259854E+03  0.17120000000E+03 0.  0.
        998    1    1    2    0    0  0.11624834452E+01  0.17565312114E+01  0.14270224703E+04  0.14270590623E+04  0.10000000000E+02 0.  1.
</event>
<event>
 5    1  0.1582292E-008  0.3843593E+03  0.7957747E-01  0.3432394E+00
         13   -1    0    0    0    0  0.00000000000E+00  0.00000000000E+00  0.14999999963E+04  0.15000000000E+04  0.10566000000E+00 0.  1.
        994   -1    0    0    0    0 -0.00000000000E+00 -0.00000000000E+00  0.11368683772E-12  0.17120000000E+03  0.17120000000E+03 0.  0.
         13    1    1    2    0    0 -0.13610171632E+02 -0.18439334589E+02  0.12087417421E+03  0.12302773259E+03  0.10566000000E+00 0.  1.
        994    1    1    2    0    0  0.19371391991E+02  0.20264386945E+02  0.45427559349E+01  0.17353954258E+03  0.17120000000E+03 0.  0.
        998    1    1    2    0    0 -0.57612203591E+01 -0.18250523559E+01  0.13745830661E+04  0.13746327248E+04  0.10000000000E+02 0.  1.
</event>
<event>
 5    1  0.1582292E-008  0.3768253E+03  0.7957747E-01  0.3465099E+00
         13   -1    0    0    0    0  0.00000000000E+00  0.00000000000E+00  0.14999999963E+04  0.15000000000E+04  0.10566000000E+00 0.  1.
        994   -1    0    0    0    0 -0.00000000000E+00 -0.00000000000E+00  0.11368683772E-12  0.17120000000E+03  0.17120000000E+03 0.  0.
         13    1    1    2    0    0 -0.18098059924E+02  0.10290971516E+02  0.35046563050E+02  0.40764158441E+02  0.10566000000E+00 0.  1.
        994    1    1    2    0    0  0.14827233780E+02 -0.95508467345E+01  0.67959487780E+01  0.17224021149E+03  0.17120000000E+03 0.  0.
        998    1    1    2    0    0  0.32708261440E+01 -0.74012478189E+00  0.14581574845E+04  0.14581956301E+04  0.10000000000E+02 0.  1.
</event>
<event>
 5    1  0.1582292E-008  0.3731644E+03  0.7957747E-01  0.3481473E+00
         13   -1    0    0    0    0  0.00000000000E+00  0.00000000000E+00  0.14999999963E+04  0.15000000000E+04  0.10566000000E+00 0.  1.
        994   -1    0    0    0    0 -0.00000000000E+00 -0.00000000000E+00  0.11368683772E-12  0.17120000000E+03  0.17120000000E+03 0.  0.
         13    1    1    2    0    0  0.31298794035E+01  0.14943868193E+02  0.11737381965E+02  0.19258573183E+02  0.10566000000E+00 0.  1.
        994    1    1    2    0    0 -0.47077240441E+01 -0.16377163811E+02  0.86181976348E+01  0.17226168318E+03  0.17120000000E+03 0.  0.
        998    1    1    2    0    0  0.15778446406E+01  0.14332956187E+01  0.14796444167E+04  0.14796797436E+04  0.10000000000E+02 0.  1.
</event>
<event>
 5    1  0.1582292E-008  0.3768379E+03  0.7957747E-01  0.3465044E+00
         13   -1    0    0    0    0  0.00000000000E+00  0.00000000000E+00  0.14999999963E+04  0.15000000000E+04  0.10566000000E+00 0.  1.
        994   -1    0    0    0    0 -0.00000000000E+00 -0.00000000000E+00  0.11368683772E-12  0.17120000000E+03  0.17120000000E+03 0.  0.
         13    1    1    2    0    0 -0.97905180020E+01  0.95179595353E+01  0.14304032317E+02  0.19775295220E+02  0.10566000000E+00 0.  1.
        994    1    1    2    0    0 -0.13516434081E+02 -0.21973592677E+01  0.63717050286E+01  0.17186494990E+03  0.17120000000E+03 0.  0.
        998    1    1    2    0    0  0.23306952083E+02 -0.73206002675E+01  0.14793242589E+04  0.14795597549E+04  0.10000000000E+02 0.  1.
</event>
<event>
 5    1  0.1582292E-008  0.3842415E+03  0.7957747E-01  0.3432895E+00
         13   -1    0    0    0    0  0.00000000000E+00  0.00000000000E+00  0.14999999963E+04  0.15000000000E+04  0.10566000000E+00 0.  1.
        994   -1    0    0    0    0 -0.00000000000E+00 -0.00000000000E+00  0.11368683772E-12  0.17120000000E+03  0.17120000000E+03 0.  0.
         13    1    1    2    0    0 -0.16501309123E+02  0.60280084269E+01  0.74756591990E+02  0.76793159190E+02  0.10566000000E+00 0.  1.
        994    1    1    2    0    0  0.99268535851E+01 -0.17759541619E+02  0.33730235068E+01  0.17243770188E+03  0.17120000000E+03 0.  0.
        998    1    1    2    0    0  0.65744555384E+01  0.11731533192E+02  0.14218703808E+04  0.14219691389E+04  0.10000000000E+02 0.  1.
</event>
<event>
 5    1  0.1582292E-008  0.3834855E+03  0.7957747E-01  0.3436121E+00
         13   -1    0    0    0    0  0.00000000000E+00  0.00000000000E+00  0.14999999963E+04  0.15000000000E+04  0.10566000000E+00 0.  1.
        994   -1    0    0    0    0 -0.00000000000E+00 -0.00000000000E+00  0.11368683772E-12  0.17120000000E+03  0.17120000000E+03 0.  0.
         13    1    1    2    0    0  0.84654144320E+01 -0.82453891065E+01  0.29664500414E+02  0.31931856067E+02  0.10566000000E+00 0.  1.
        994    1    1    2    0    0 -0.18924863514E+02 -0.22350442109E+02  0.52236414076E+01  0.17376541414E+03  0.17120000000E+03 0.  0.
        998    1    1    2    0    0  0.10459449082E+02  0.30595831215E+02  0.14651118545E+04  0.14655027298E+04  0.10000000000E+02 0.  1.
</event>
<event>
 5    1  0.1582292E-008  0.3788804E+03  0.7957747E-01  0.3456048E+00
         13   -1    0    0    0    0  0.00000000000E+00  0.00000000000E+00  0.14999999963E+04  0.15000000000E+04  0.10566000000E+00 0. -1.
        994   -1    0    0    0    0 -0.00000000000E+00 -0.00000000000E+00  0.11368683772E-12  0.17120000000E+03  0.17120000000E+03 0.  0.
         13    1    1    2    0    0 -0.39764893185E+02 -0.83665808359E+01  0.20043582589E+03  0.20451351513E+03  0.10566000000E+00 0. -1.
        994    1    1    2    0    0  0.30042053144E+01  0.43074244909E+01  0.47919357866E+01  0.17134754683E+03  0.17120000000E+03 0.  0.
        998    1    1    2    0    0  0.36760687870E+02  0.40591563450E+01  0.12947722346E+04  0.12953389380E+04  0.10000000000E+02 0. -1.
</event>
<event>
 5    1  0.1582292E-008  0.3811205E+03  0.7957747E-01  0.3446294E+00
         13   -1    0    0    0    0  0.00000000000E+00  0.00000000000E+00  0.14999999963E+04  0.15000000000E+04  0.10566000000E+00 0. -1.
        994   -1    0    0    0    0 -0.00000000000E+00 -0.00000000000E+00  0.11368683772E-12  0.17120000000E+03  0.17120000000E+03 0.  0.
         13    1    1    2    0    0 -0.63437430266E+01 -0.20695590691E+02  0.66326413502E+02  0.69769297271E+02  0.10566000000E+00 0. -1.
        994    1    1    2    0    0  0.26311184315E+01  0.68422732141E+01  0.37476224263E+01  0.17139785343E+03  0.17120000000E+03 0.  0.
        998    1    1    2    0    0  0.37126245951E+01  0.13853317477E+02  0.14299259604E+04  0.14300328493E+04  0.10000000000E+02 0. -1.
</event>
<event>
 5    1  0.1582292E-008  0.3841858E+03  0.7957747E-01  0.3433133E+00
         13   -1    0    0    0    0  0.00000000000E+00  0.00000000000E+00  0.14999999963E+04  0.15000000000E+04  0.10566000000E+00 0. -1.
        994   -1    0    0    0    0 -0.00000000000E+00 -0.00000000000E+00  0.11368683772E-12  0.17120000000E+03  0.17120000000E+03 0.  0.
         13    1    1    2    0    0 -0.38710829106E+01 -0.23644266193E+02  0.13558838404E+03  0.13768898887E+03  0.10566000000E+00 0. -1.
        994    1    1    2    0    0  0.16072494722E+00  0.19336193515E+02  0.32687933116E+01  0.17231958456E+03  0.17120000000E+03 0.  0.
        998    1    1    2    0    0  0.37103579633E+01  0.43080726780E+01  0.13611428189E+04  0.13611914266E+04  0.10000000000E+02 0. -1.
</event>
<event>
 5    1  0.1582292E-008  0.3836063E+03  0.7957747E-01  0.3435605E+00
         13   -1    0    0    0    0  0.00000000000E+00  0.00000000000E+00  0.14999999963E+04  0.15000000000E+04  0.10566000000E+00 0.  1.
        994   -1    0    0    0    0 -0.00000000000E+00 -0.00000000000E+00  0.11368683772E-12  0.17120000000E+03  0.17120000000E+03 0.  0.
         13    1    1    2    0    0 -0.10510236656E+01 -0.20465448676E+02  0.88790838255E+02  0.91124987585E+02  0.10566000000E+00 0.  1.
        994    1    1    2    0    0  0.11000908523E+02  0.14313497624E+02  0.34010229801E+01  0.17218276093E+03  0.17120000000E+03 0.  0.
        998    1    1    2    0    0 -0.99498848575E+01  0.61519510523E+01  0.14078081350E+04  0.14078922515E+04  0.10000000000E+02 0.  1.
</event>
<event>
 5    1  0.1582292E-008  0.3816406E+03  0.7957747E-01  0.3444046E+00
         13   -1    0    0    0    0  0.00000000000E+00  0.00000000000E+00  0.14999999963E+04  0.15000000000E+04  0.10566000000E+00 0. -1.
        994   -1    0    0    0    0 -0.00000000000E+00 -0.00000000000E+00  0.11368683772E-12  0.17120000000E+03  0.17120000000E+03 0.  0.
         13    1    1    2    0    0  0.76316409474E+01  0.90388523050E+01  0.21918770324E+02  0.24907558112E+02  0.10566000000E+00 0. -1.
        994    1    1    2    0    0  0.83987891098E+01  0.26519239381E+02  0.58843629020E+01  0.17354502425E+03  0.17120000000E+03 0.  0.
        998    1    1    2    0    0 -0.16030430057E+02 -0.35558091686E+02  0.14721968631E+04  0.14727474176E+04  0.10000000000E+02 0. -1.
</event>
<event>
 5    1  0.1582292E-008  0.3850583E+03  0.7957747E-01  0.3429425E+00
         13   -1    0    0    0    0  0.00000000000E+00  0.00000000000E+00  0.14999999963E+04  0.15000000000E+04  0.10566000000E+00 0.  1.
        994   -1    0    0    0    0 -0.00000000000E+00 -0.00000000000E+00  0.11368683772E-12  0.17120000000E+03  0.17120000000E+03 0.  0.
         13    1    1    2    0    0  0.18752511469E+01 -0.13854289509E+02  0.61449709498E+02  0.63020122708E+02  0.10566000000E+00 0.  1.
        994    1    1    2    0    0 -0.64318535825E+01  0.74880969350E+01  0.19216546362E+01  0.17149511099E+03  0.17120000000E+03 0.  0.
        998    1    1    2    0    0  0.45566024356E+01  0.63661925744E+01  0.14366286321E+04  0.14366847663E+04  0.10000000000E+02 0.  1.
</event>
<event>
 5    1  0.1582292E-008  0.3835248E+03  0.7957747E-01  0.3435953E+00
         13   -1    0    0    0    0  0.00000000000E+00  0.00000000000E+00  0.14999999963E+04  0.15000000000E+04  0.10566000000E+00 0.  1.
        994   -1    0    0    0    0 -0.00000000000E+00 -0.00000000000E+00  0.11368683772E-12  0.17120000000E+03  0.17120000000E+03 0.  0.
         13    1    1    2    0    0  0.11084260933E+02 -0.11418797273E+02  0.55798554372E+02  0.58023612483E+02  0.10566000000E+00 0.  1.
        994    1    1    2    0    0  0.56456095513E+01  0.54926839895E+01  0.25693456437E+01  0.17140036179E+03  0.17120000000E+03 0.  0.
        998    1    1    2    0    0 -0.16729870484E+02  0.59261132838E+01  0.14416320963E+04  0.14417760257E+04  0.10000000000E+02 0.  1.
</event>
<event>
 5    1  0.2458769E-008  0.3863059E+03  0.7957747E-01  0.3424152E+00
         13   -1    0    0    0    0  0.00000000000E+00  0.00000000000E+00  0.14999999963E+04  0.15000000000E+04  0.10566000000E+00 0. -1.
        994   -1    0    0    0    0 -0.00000000000E+00 -0.00000000000E+00  0.11368683772E-12  0.17120000000E+03  0.17120000000E+03 0.  0.
         13    1    1    2    0    0 -0.96618225572E+01 -0.61457969790E+01  0.68345296578E+02  0.69297996825E+02  0.10566000000E+00 0. -1.
        994    1    1    2    0    0  0.77276110752E+01  0.41823961156E+00  0.11793066094E+01  0.17137888336E+03  0.17120000000E+03 0.  0.
        998    1    1    2    0    0  0.19342114821E+01  0.57275573674E+01  0.14304753931E+04  0.14305231198E+04  0.10000000000E+02 0. -1.
</event>
<event>
 5    1  0.1582292E-008  0.3836714E+03  0.7957747E-01  0.3435327E+00
         13   -1    0    0    0    0  0.00000000000E+00  0.00000000000E+00  0.14999999963E+04  0.15000000000E+04  0.10566000000E+00 0. -1.
        994   -1    0    0    0    0 -0.00000000000E+00 -0.00000000000E+00  0.11368683772E-12  0.17120000000E+03  0.17120000000E+03 0.  0.
         13    1    1    2    0    0 -0.14379298310E+02  0.11863272128E+02  0.97946391112E+02  0.99704604414E+02  0.10566000000E+00 0. -1.
        994    1    1    2    0    0 -0.68302660311E+01  0.31501998361E+02  0.57305675565E+01  0.17430234605E+03  0.17120000000E+03 0.  0.
        998    1    1    2    0    0  0.21209564341E+02 -0.43365270489E+02  0.13963230376E+04  0.13971930495E+04  0.10000000000E+02 0. -1.
</event>
<event>
 5    1  0.1582292E-008  0.3831123E+03  0.7957747E-01  0.3437718E+00
         13   -1    0    0    0    0  0.00000000000E+00  0.00000000000E+00  0.14999999963E+04  0.15000000000E+04  0.10566000000E+00 0. -1.
        994   -1    0    0    0    0 -0.00000000000E+00 -0.00000000000E+00  0.11368683772E-12  0.17120000000E+03  0.17120000000E+03 0.  0.
         13    1    1    2    0    0 -0.26137901006E+01  0.10547665264E+02  0.21964655298E+02  0.24505966368E+02  0.10566000000E+00 0. -1.
        994    1    1    2    0    0  0.67623542458E+01 -0.73109240539E+01  0.28984934988E+01  0.17151390705E+03  0.17120000000E+03 0.  0.
        998    1    1    2    0    0 -0.41485641452E+01 -0.32367412102E+01  0.14751368475E+04  0.14751801266E+04  0.10000000000E+02 0. -1.
</event>
<event>
 5    1  0.1582292E-008  0.3756184E+03  0.7957747E-01  0.3470462E+00
         13   -1    0    0    0    0  0.00000000000E+00  0.00000000000E+00  0.14999999963E+04  0.15000000000E+04  0.10566000000E+00 0.  1.
        994   -1    0    0    0    0 -0.00000000000E+00 -0.00000000000E+00  0.11368683772E-12  0.17120000000E+03  0.17120000000E+03 0.  0.
         13    1    1    2    0    0  0.25884267547E+02 -0.30497677956E+02  0.12325190602E+03  0.12958065893E+03  0.10566000000E+00 0.  1.
        994    1    1    2    0    0 -0.24414721987E+02  0.11550879070E+02  0.88400511603E+01  0.17354275543E+03  0.17120000000E+03 0.  0.
        998    1    1    2    0    0 -0.14695455600E+01  0.18946798886E+02  0.13679080391E+04  0.13680765856E+04  0.10000000000E+02 0.  1.
</event>
<event>
 5    1  0.1582292E-008  0.3793587E+03  0.7957747E-01  0.3453956E+00
         13   -1    0    0    0    0  0.00000000000E+00  0.00000000000E+00  0.14999999963E+04  0.15000000000E+04  0.10566000000E+00 0. -1.
        994   -1    0    0    0    0 -0.00000000000E+00 -0.00000000000E+00  0.11368683772E-12  0.17120000000E+03  0.17120000000E+03 0.  0.
         13    1    1    2    0    0  0.16321400345E+02 -0.44465838240E+01  0.16802003874E+01  0.16999836890E+02  0.10566000000E+00 0. -1.
        994    1    1    2    0    0 -0.17186024514E+02  0.59255571331E+01  0.17171013986E+02  0.17301663327E+03  0.17120000000E+03 0.  0.
        998    1    1    2    0    0  0.86462416929E+00 -0.14789733091E+01  0.14811487819E+04  0.14811835298E+04  0.10000000000E+02 0. -1.
</event>
<event>
 5    1  0.1582292E-008  0.3822496E+03  0.7957747E-01  0.3441421E+00
         13   -1    0    0    0    0  0.00000000000E+00  0.00000000000E+00  0.14999999963E+04  0.15000000000E+04  0.10566000000E+00 0. -1.
        994   -1    0    0    0    0 -0.00000000000E+00 -0.00000000000E+00  0.11368683772E-12  0.17120000000E+03  0.17120000000E+03 0.  0.
         13    1    1    2    0    0  0.26428875806E+02 -0.18141036300E+02  0.15490455037E+03  0.15818664155E+03  0.10566000000E+00 0. -1.
        994    1    1    2    0    0 -0.27858028479E+02  0.15584627175E+02  0.63903268088E+01  0.17426768671E+03  0.17120000000E+03 0.  0.
        998    1    1    2    0    0  0.14291526729E+01  0.25564091245E+01  0.13387051191E+04  0.13387456717E+04  0.10000000000E+02 0. -1.
</event>
<event>
 5    1  0.2779018E-008  0.3842461E+03  0.7957747E-01  0.3432876E+00
         13   -1    0    0    0    0  0.00000000000E+00  0.00000000000E+00  0.14999999963E+04  0.15000000000E+04  0.10566000000E+00 0.  1.
        994   -1    0    0    0    0 -0.00000000000E+00 -0.00000000000E+00  0.11368683772E-12  0.17120000000E+03  0.17120000000E+03 0.  0.
         13    1    1    2    0    0  0.21571800355E+01  0.10793616547E+02  0.29032046961E+02  0.31048776122E+02  0.10566000000E+00 0.  1.
        994    1    1    2    0    0 -0.27603542484E+01 -0.12963416023E+02  0.25842356741E+01  0.17173173261E+03  0.17120000000E+03 0.  0.
        998    1    1    2    0    0  0.60317421290E+00  0.21697994762E+01  0.14683837136E+04  0.14684194913E+04  0.10000000000E+02 0.  1.
</event>
<event>
 5    1  0.1582292E-008  0.3833572E+03  0.7957747E-01  0.3436670E+00
         13   -1    0    0    0    0  0.00000000000E+00  0.00000000000E+00  0.14999999963E+04  0.15000000000E+04  0.10566000000E+00 0. -1.
        994   -1    0    0    0    0 -0.00000000000E+00 -0.00000000000E+00  0.11368683772E-12  0.17120000000E+03  0.17120000000E+03 0.  0.
         13    1    1    2    0    0  0.46105907991E+01 -0.21965693566E+02  0.10945826854E+03  0.11173572820E+03  0.10566000000E+00 0. -1.
        994    1    1    2    0    0  0.19713766624E+01  0.45197867351E+01  0.25283732934E+01  0.17128965955E+03  0.17120000000E+03 0.  0.
        998    1    1    2    0    0 -0.65819674615E+01  0.17445906830E+02  0.13880133544E+04  0.13881746122E+04  0.10000000000E+02 0. -1.
</event>
<event>
 5    1  0.1582292E-008  0.3821899E+03  0.7957747E-01  0.3441678E+00
         13   -1    0    0    0    0  0.00000000000E+00  0.00000000000E+00  0.14999999963E+04  0.15000000000E+04  0.10566000000E+00 0.  1.
        994   -1    0    0    0    0 -0.00000000000E+00 -0.00000000000E+00  0.11368683772E-12  0.17120000000E+03  0.17120000000E+03 0.  0.
         13    1    1    2    0    0  0.33046485206E+01  0.12567108670E+02  0.27215606077E+02  0.30158801374E+02  0.10566000000E+00 0.  1.
        994    1    1    2    0    0 -0.32912433588E+01 -0.26138883221E+01  0.30903789183E+01  0.17127946502E+03  0.17120000000E+03 0.  0.
        998    1    1    2    0    0 -0.13405161845E-01 -0.99532203476E+01  0.14696940113E+04  0.14697617336E+04  0.10000000000E+02 0.  1.
</event>
<event>
 5    1  0.1582292E-008  0.3772547E+03  0.7957747E-01  0.3463200E+00
         13   -1    0    0    0    0  0.00000000000E+00  0.00000000000E+00  0.14999999963E+04  0.15000000000E+04  0.10566000000E+00 0. -1.
        994   -1    0    0    0    0 -0.00000000000E+00 -0.00000000000E+00  0.11368683772E-12  0.17120000000E+03  0.17120000000E+03 0.  0.
         13    1    1    2    0    0  0.83762212821E+01 -0.10639496083E+02  0.14121201044E+02  0.19564750007E+02  0.10566000000E+00 0. -1.
        994    1    1    2    0    0 -0.66140899210E+01  0.89815517234E+01  0.59452643758E+01  0.17166595651E+03  0.17120000000E+03 0.  0.
        998    1    1    2    0    0 -0.17621313611E+01  0.16579443593E+01  0.14799335309E+04  0.14799692935E+04  0.10000000000E+02 0. -1.
</event>
<event>
 5    1  0.1582292E-008  0.3832207E+03  0.7957747E-01  0.3437254E+00
         13   -1    0    0    0    0  0.00000000000E+00  0.00000000000E+00  0.14999999963E+04  0.15000000000E+04  0.10566000000E+00 0.  1.
        994   -1    0    0    0    0 -0.00000000000E+00 -0.00000000000E+00  0.11368683772E-12  0.17120000000E+03  0.17120000000E+03 0.  0.
         13    1    1    2    0    0 -0.20653405768E+02 -0.25183462105E+01  0.89528002536E+02  0.91913979566E+02  0.10566000000E+00 0.  1.
        994    1    1    2    0    0  0.56413328785E+01 -0.25349006574E+01  0.26426490049E+01  0.17133205757E+03  0.17120000000E+03 0.  0.
        998    1    1    2    0    0  0.15012072889E+02  0.50532468679E+01  0.14078293447E+04  0.14079539629E+04  0.10000000000E+02 0.  1.
</event>
<event>
 5    1  0.1582292E-008  0.3819432E+03  0.7957747E-01  0.3442741E+00
         13   -1    0    0    0    0  0.00000000000E+00  0.00000000000E+00  0.14999999963E+04  0.15000000000E+04  0.10566000000E+00 0. -1.
        994   -1    0    0    0    0 -0.00000000000E+00 -0.00000000000E+00  0.11368683772E-12  0.17120000000E+03  0.17120000000E+03 0.  0.
         13    1    1    2    0    0 -0.15615799930E+03 -0.15642418531E+03  0.89981880660E+03  0.92656772142E+03  0.10566000000E+00 0. -1.
        994    1    1    2    0    0  0.17358467232E+03  0.17700774163E+03  0.24510574151E+03  0.38839367088E+03  0.17120000000E+03 0.  0.
        998    1    1    2    0    0 -0.17426673019E+02 -0.20583556318E+02  0.35507544817E+03  0.35623860770E+03  0.10000000000E+02 0. -1.
</event>
<event>
 5    1  0.1582292E-008  0.3836238E+03  0.7957747E-01  0.3435530E+00
         13   -1    0    0    0    0  0.00000000000E+00  0.00000000000E+00  0.14999999963E+04  0.15000000000E+04  0.10566000000E+00 0.  1.
        994   -1    0    0    0    0 -0.00000000000E+00 -0.00000000000E+00  0.11368683772E-12  0.17120000000E+03  0.17120000000E+03 0.  0.
         13    1    1    2    0    0 -0.12475665182E+02  0.10667127382E+02  0.54262159769E+02  0.56690589829E+02  0.10566000000E+00 0.  1.
        994    1    1    2    0    0  0.17724863033E+02 -0.14610621954E+02  0.40598957014E+01  0.17278183873E+03  0.17120000000E+03 0.  0.
        998    1    1    2    0    0 -0.52491978513E+01  0.39434945722E+01  0.14416779408E+04  0.14417275714E+04  0.10000000000E+02 0.  1.
</event>
<event>
 5    1  0.1582292E-008  0.3785928E+03  0.7957747E-01  0.3457309E+00
         13   -1    0    0    0    0  0.00000000000E+00  0.00000000000E+00  0.14999999963E+04  0.15000000000E+04  0.10566000000E+00 0. -1.
        994   -1    0    0    0    0 -0.00000000000E+00 -0.00000000000E+00  0.11368683772E-12  0.17120000000E+03  0.17120000000E+03 0.  0.
         13    1    1    2    0    0  0.11149070341E+02  0.21517567534E+02  0.58846992776E+02  0.63641866761E+02  0.10566000000E+00 0. -1.
        994    1    1    2    0    0 -0.15159239706E+02 -0.94198069398E+01  0.59157073796E+01  0.17222941359E+03  0.17120000000E+03 0.  0.
        998    1    1    2    0    0  0.40101693651E+01 -0.12097760594E+02  0.14352372961E+04  0.14353287197E+04  0.10000000000E+02 0. -1.
</event>
<event>
 5    1  0.1582292E-008  0.3817025E+03  0.7957747E-01  0.3443779E+00
         13   -1    0    0    0    0  0.00000000000E+00  0.00000000000E+00  0.14999999963E+04  0.15000000000E+04  0.10566000000E+00 0. -1.
        994   -1    0    0    0    0 -0.00000000000E+00 -0.00000000000E+00  0.11368683772E-12  0.17120000000E+03  0.17120000000E+03 0.  0.
         13    1    1    2    0    0 -0.26022815933E+01 -0.98574078223E+01  0.14321273136E+02  0.17579828974E+02  0.10566000000E+00 0. -1.
        994    1    1    2    0    0  0.82712864373E+01  0.10139738055E+02  0.38455787155E+01  0.17174241451E+03  0.17120000000E+03 0.  0.
        998    1    1    2    0    0 -0.56690048440E+01 -0.28233023310E+00  0.14818331444E+04  0.14818777565E+04  0.10000000000E+02 0. -1.
</event>
<event>
 5    1  0.1582292E-008  0.3824846E+03  0.7957747E-01  0.3440411E+00
         13   -1    0    0    0    0  0.00000000000E+00  0.00000000000E+00  0.14999999963E+04  0.15000000000E+04  0.10566000000E+00 0. -1.
        994   -1    0    0    0    0 -0.00000000000E+00 -0.00000000000E+00  0.11368683772E-12  0.17120000000E+03  0.17120000000E+03 0.  0.
         13    1    1    2    0    0  0.94131225066E+01 -0.64717992033E+01  0.20844037506E+02  0.23769226404E+02  0.10566000000E+00 0. -1.
        994    1    1    2    0    0 -0.17168308525E+02  0.76445907148E+01  0.40561137381E+01  0.17227618130E+03  0.17120000000E+03 0.  0.
        998    1    1    2    0    0  0.77551860182E+01 -0.11727915115E+01  0.14750998450E+04  0.14751545923E+04  0.10000000000E+02 0. -1.
</event>
<event>
 5    1  0.1582292E-008  0.3833379E+03  0.7957747E-01  0.3436752E+00
         13   -1    0    0    0    0  0.00000000000E+00  0.00000000000E+00  0.14999999963E+04  0.15000000000E+04  0.10566000000E+00 0.  1.
        994   -1    0    0    0    0 -0.00000000000E+00 -0.00000000000E+00  0.11368683772E-12  0.17120000000E+03  0.17120000000E+03 0.  0.
         13    1    1    2    0    0  0.15688204936E+02  0.48959754406E+01  0.54342069229E+02  0.56772898479E+02  0.10566000000E+00 0.  1.
        994    1    1    2    0    0 -0.77585565369E+01 -0.10637236378E+02  0.30309712471E+01  0.17173227065E+03  0.17120000000E+03 0.  0.
        998    1    1    2    0    0 -0.79296483992E+01  0.57412609372E+01  0.14426269558E+04  0.14426948309E+04  0.10000000000E+02 0.  1.
</event>
<event>
 5    1  0.1582292E-008  0.3841753E+03  0.7957747E-01  0.3433177E+00
         13   -1    0    0    0    0  0.00000000000E+00  0.00000000000E+00  0.14999999963E+04  0.15000000000E+04  0.10566000000E+00 0. -1.
        994   -1    0    0    0    0 -0.00000000000E+00 -0.00000000000E+00  0.11368683772E-12  0.17120000000E+03  0.17120000000E+03 0.  0.
         13    1    1    2    0    0  0.21601849224E+02 -0.12210597231E+02  0.14066208470E+03  0.14283407091E+03  0.10566000000E+00 0. -1.
        994    1    1    2    0    0 -0.25457480160E+02  0.24833442822E+01  0.42004620826E+01  0.17315118878E+03  0.17120000000E+03 0.  0.
        998    1    1    2    0    0  0.38556309364E+01  0.97272529485E+01  0.13551374495E+04  0.13552147403E+04  0.10000000000E+02 0. -1.
</event>
<event>
 5    1  0.1582292E-008  0.3800263E+03  0.7957747E-01  0.3451044E+00
         13   -1    0    0    0    0  0.00000000000E+00  0.00000000000E+00  0.14999999963E+04  0.15000000000E+04  0.10566000000E+00 0.  1.
        994   -1    0    0    0    0 -0.00000000000E+00 -0.00000000000E+00  0.11368683772E-12  0.17120000000E+03  0.17120000000E+03 0.  0.
         13    1    1    2    0    0 -0.60101803444E+02 -0.28970814674E+02  0.37374034797E+03  0.37964904023E+03  0.10566000000E+00 0.  1.
        994    1    1    2    0    0 -0.95277053962E+02 -0.47228666620E+02  0.58563808846E+02  0.20987478093E+03  0.17120000000E+03 0.  0.
        998    1    1    2    0    0  0.15537885741E+03  0.76199481295E+02  0.10676958395E+04  0.10816761788E+04  0.10000000000E+02 0.  1.
</event>
<event>
 5    1  0.1582292E-008  0.3748904E+03  0.7957747E-01  0.3473713E+00
         13   -1    0    0    0    0  0.00000000000E+00  0.00000000000E+00  0.14999999963E+04  0.15000000000E+04  0.10566000000E+00 0.  1.
        994   -1    0    0    0    0 -0.00000000000E+00 -0.00000000000E+00  0.11368683772E-12  0.17120000000E+03  0.17120000000E+03 0.  0.
         13    1    1    2    0    0 -0.14416538522E+03  0.29824233179E+02  0.88080039845E+03  0.89301875471E+03  0.10566000000E+00 0.  1.
        994    1    1    2    0    0  0.13759444067E+03  0.58819101780E+01  0.74239970262E+02  0.23192205621E+03  0.17120000000E+03 0.  0.
        998    1    1    2    0    0  0.65709445513E+01 -0.35706143357E+02  0.54495962756E+03  0.54625918908E+03  0.10000000000E+02 0.  1.
</event>
<event>
 5    1  0.1582292E-008  0.3832233E+03  0.7957747E-01  0.3437243E+00
         13   -1    0    0    0    0  0.00000000000E+00  0.00000000000E+00  0.14999999963E+04  0.15000000000E+04  0.10566000000E+00 0.  1.
        994   -1    0    0    0    0 -0.00000000000E+00 -0.00000000000E+00  0.11368683772E-12  0.17120000000E+03  0.17120000000E+03 0.  0.
         13    1    1    2    0    0 -0.11664629622E+02  0.11136413927E+02  0.50321267224E+02  0.52842448831E+02  0.10566000000E+00 0.  1.
        994    1    1    2    0    0  0.10506493307E+02 -0.85438576944E+01  0.31216467149E+01  0.17176311765E+03  0.17120000000E+03 0.  0.
        998    1    1    2    0    0  0.11581363149E+01 -0.25925562330E+01  0.14465570823E+04  0.14465944335E+04  0.10000000000E+02 0.  1.
</event>
<event>
 5    1  0.1582292E-008  0.3838242E+03  0.7957747E-01  0.3434674E+00
         13   -1    0    0    0    0  0.00000000000E+00  0.00000000000E+00  0.14999999963E+04  0.15000000000E+04  0.10566000000E+00 0.  1.
        994   -1    0    0    0    0 -0.00000000000E+00 -0.00000000000E+00  0.11368683772E-12  0.17120000000E+03  0.17120000000E+03 0.  0.
         13    1    1    2    0    0 -0.40566746143E+01 -0.12806882299E+02  0.43572623125E+02  0.45596682918E+02  0.10566000000E+00 0.  1.
        994    1    1    2    0    0 -0.56365680197E+00 -0.88740023994E+01  0.24760625384E+01  0.17144864104E+03  0.17120000000E+03 0.  0.
        998    1    1    2    0    0  0.46203314163E+01  0.21680884698E+02  0.14539513106E+04  0.14541546760E+04  0.10000000000E+02 0.  1.
</event>
<event>
 5    1  0.1582292E-008  0.3759508E+03  0.7957747E-01  0.3468981E+00
         13   -1    0    0    0    0  0.00000000000E+00  0.00000000000E+00  0.14999999963E+04  0.15000000000E+04  0.10566000000E+00 0. -1.
        994   -1    0    0    0    0 -0.00000000000E+00 -0.00000000000E+00  0.11368683772E-12  0.17120000000E+03  0.17120000000E+03 0.  0.
         13    1    1    2    0    0 -0.27017491083E+02 -0.10757151573E+03  0.48870384266E+03  0.50113175195E+03  0.10566000000E+00 0. -1.
        994    1    1    2    0    0 -0.45528087008E+02  0.67468588547E+02  0.38171509795E+02  0.19336835653E+03  0.17120000000E+03 0.  0.
        998    1    1    2    0    0  0.72545578091E+02  0.40102927187E+02  0.97312464383E+03  0.97669989152E+03  0.10000000000E+02 0. -1.
</event>
<event>
 5    1  0.1582292E-008  0.3844052E+03  0.7957747E-01  0.3432199E+00
         13   -1    0    0    0    0  0.00000000000E+00  0.00000000000E+00  0.14999999963E+04  0.15000000000E+04  0.10566000000E+00 0.  1.
        994   -1    0    0    0    0 -0.00000000000E+00 -0.00000000000E+00  0.11368683772E-12  0.17120000000E+03  0.17120000000E+03 0.  0.
         13    1    1    2    0    0  0.10936778043E+02  0.11292037935E+02  0.68181063269E+02  0.69969934881E+02  0.10566000000E+00 0.  1.
        994    1    1    2    0    0  0.24876318095E+01 -0.18324848763E+01  0.19572033160E+01  0.17123906376E+03  0.17120000000E+03 0.  0.
        998    1    1    2    0    0 -0.13424409852E+02 -0.94595530585E+01  0.14298617297E+04  0.14299910014E+04  0.10000000000E+02 0.  1.
</event>
<event>
 5    1  0.1582292E-008  0.3732267E+03  0.7957747E-01  0.3481192E+00
         13   -1    0    0    0    0  0.00000000000E+00  0.00000000000E+00  0.14999999963E+04  0.15000000000E+04  0.10566000000E+00 0.  1.
        994   -1    0    0    0    0 -0.00000000000E+00 -0.00000000000E+00  0.11368683772E-12  0.17120000000E+03  0.17120000000E+03 0.  0.
         13    1    1    2    0    0 -0.85691839120E+01  0.54552266812E+01  0.32547312075E+01  0.10667466912E+02  0.10566000000E+00 0.  1.
        994    1    1    2    0    0  0.44244355910E+01 -0.82650435275E+01  0.78927922745E+01  0.17163805739E+03  0.17120000000E+03 0.  0.
        998    1    1    2    0    0  0.41447483210E+01  0.28098168464E+01  0.14888524728E+04  0.14888944757E+04  0.10000000000E+02 0.  1.
</event>
<event>
 5    1  0.1582292E-008  0.3802077E+03  0.7957747E-01  0.3450255E+00
         13   -1    0    0    0    0  0.00000000000E+00  0.00000000000E+00  0.14999999963E+04  0.15000000000E+04  0.10566000000E+00 0.  1.
        994   -1    0    0    0    0 -0.00000000000E+00 -0.00000000000E+00  0.11368683772E-12  0.17120000000E+03  0.17120000000E+03 0.  0.
         13    1    1    2    0    0 -0.12137845254E+02  0.94852340104E+01  0.27294811950E+02  0.31341902863E+02  0.10566000000E+00 0.  1.
        994    1    1    2    0    0  0.11015956115E+02 -0.13827003969E+02  0.50731213169E+01  0.17218511517E+03  0.17120000000E+03 0.  0.
        998    1    1    2    0    0  0.11218891395E+01  0.43417699587E+01  0.14676320630E+04  0.14676729820E+04  0.10000000000E+02 0.  1.
</event>
<event>
 5    1  0.1582292E-008  0.3042671E+03  0.7957747E-01  0.3866019E+00
         13   -1    0    0    0    0  0.00000000000E+00  0.00000000000E+00  0.14999999963E+04  0.15000000000E+04  0.10566000000E+00 0. -1.
        994   -1    0    0    0    0 -0.00000000000E+00 -0.00000000000E+00  0.11368683772E-12  0.17120000000E+03  0.17120000000E+03 0.  0.
         13    1    1    2    0    0 -0.17278488700E+03  0.82043215824E+02  0.78042232579E+03  0.80352020770E+03  0.10566000000E+00 0. -1.
        994    1    1    2    0    0  0.14915800145E+03  0.13780277715E+02  0.11477421566E+03  0.25479514523E+03  0.17120000000E+03 0.  0.
        998    1    1    2    0    0  0.23626885551E+02 -0.95823493539E+02  0.60480345483E+03  0.61288464707E+03  0.10000000000E+02 0. -1.
</event>
<event>
 5    1  0.1582292E-008  0.3716687E+03  0.7957747E-01  0.3488257E+00
         13   -1    0    0    0    0  0.00000000000E+00  0.00000000000E+00  0.14999999963E+04  0.15000000000E+04  0.10566000000E+00 0. -1.
        994   -1    0    0    0    0 -0.00000000000E+00 -0.00000000000E+00  0.11368683772E-12  0.17120000000E+03  0.17120000000E+03 0.  0.
         13    1    1    2    0    0  0.17881871734E+02 -0.55876340603E+02  0.26037927324E+03  0.26690691987E+03  0.10566000000E+00 0. -1.
        994    1    1    2    0    0  0.30559444660E+01 -0.40278007130E+01  0.84873620517E+01  0.17148480192E+03  0.17120000000E+03 0.  0.
        998    1    1    2    0    0 -0.20937816200E+02  0.59904141316E+02  0.12311333610E+04  0.12328082782E+04  0.10000000000E+02 0. -1.
</event>
<event>
 5    1  0.1582292E-008  0.3857407E+03  0.7957747E-01  0.3426537E+00
         13   -1    0    0    0    0  0.00000000000E+00  0.00000000000E+00  0.14999999963E+04  0.15000000000E+04  0.10566000000E+00 0.  1.
        994   -1    0    0    0    0 -0.00000000000E+00 -0.00000000000E+00  0.11368683772E-12  0.17120000000E+03  0.17120000000E+03 0.  0.
         13    1    1    2    0    0 -0.54366650275E+01  0.11819267645E+02  0.71504074995E+02  0.72678031889E+02  0.10566000000E+00 0.  1.
        994    1    1    2    0    0 -0.25129331145E+01 -0.23989476874E+01  0.13024139753E+01  0.17124019991E+03  0.17120000000E+03 0.  0.
        998    1    1    2    0    0  0.79495981420E+01 -0.94203199571E+01  0.14271935073E+04  0.14272817682E+04  0.10000000000E+02 0.  1.
</event>
<event>
 5    1  0.1582292E-008  0.3771287E+03  0.7957747E-01  0.3463757E+00
         13   -1    0    0    0    0  0.00000000000E+00  0.00000000000E+00  0.14999999963E+04  0.15000000000E+04  0.10566000000E+00 0.  1.
        994   -1    0    0    0    0 -0.00000000000E+00 -0.00000000000E+00  0.11368683772E-12  0.17120000000E+03  0.17120000000E+03 0.  0.
         13    1    1    2    0    0  0.83447062882E+01  0.10941283668E+02  0.14539986614E+02  0.20019195441E+02  0.10566000000E+00 0.  1.
        994    1    1    2    0    0 -0.72564528963E+01 -0.50054628283E+01  0.58519673397E+01  0.17152666349E+03  0.17120000000E+03 0.  0.
        998    1    1    2    0    0 -0.10882533919E+01 -0.59358208401E+01  0.14796080423E+04  0.14796541411E+04  0.10000000000E+02 0.  1.
</event>
<event>
 5    1  0.1582292E-008  0.3851360E+03  0.7957747E-01  0.3429096E+00
         13   -1    0    0    0    0  0.00000000000E+00  0.00000000000E+00  0.14999999963E+04  0.15000000000E+04  0.10566000000E+00 0.  1.
        994   -1    0    0    0    0 -0.00000000000E+00 -0.00000000000E+00  0.11368683772E-12  0.17120000000E+03  0.17120000000E+03 0.  0.
         13    1    1    2    0    0  0.51669104643E+01 -0.12429930943E+02  0.60384025526E+02  0.61866322420E+02  0.10566000000E+00 0.  1.
        994    1    1    2    0    0  0.33075174790E+01  0.42541135080E+01  0.16580854493E+01  0.17129280896E+03  0.17120000000E+03 0.  0.
        998    1    1    2    0    0 -0.84744279433E+01  0.81758174348E+01  0.14379578853E+04  0.14380408686E+04  0.10000000000E+02 0.  1.
</event>
<event>
 5    1  0.1582292E-008  0.3824357E+03  0.7957747E-01  0.3440621E+00
         13   -1    0    0    0    0  0.00000000000E+00  0.00000000000E+00  0.14999999963E+04  0.15000000000E+04  0.10566000000E+00 0.  1.
        994   -1    0    0    0    0 -0.00000000000E+00 -0.00000000000E+00  0.11368683772E-12  0.17120000000E+03  0.17120000000E+03 0.  0.
         13    1    1    2    0    0  0.56689757473E+01  0.70029538583E+02  0.33183992574E+03  0.33919613948E+03  0.10566000000E+00 0.  1.
        994    1    1    2    0    0 -0.24097643901E+02 -0.13297485354E+03  0.66041514040E+02  0.22789017024E+03  0.17120000000E+03 0.  0.
        998    1    1    2    0    0  0.18428668154E+02  0.62945314953E+02  0.11021185565E+04  0.11041136903E+04  0.10000000000E+02 0.  1.
</event>
<event>
 5    1  0.1582292E-008  0.3822003E+03  0.7957747E-01  0.3441634E+00
         13   -1    0    0    0    0  0.00000000000E+00  0.00000000000E+00  0.14999999963E+04  0.15000000000E+04  0.10566000000E+00 0. -1.
        994   -1    0    0    0    0 -0.00000000000E+00 -0.00000000000E+00  0.11368683772E-12  0.17120000000E+03  0.17120000000E+03 0.  0.
         13    1    1    2    0    0  0.15353590682E+02  0.41976554457E+01  0.48221683890E+02  0.50780852881E+02  0.10566000000E+00 0. -1.
        994    1    1    2    0    0  0.19162108355E+02  0.36384980859E+02  0.86592122283E+01  0.17628237344E+03  0.17120000000E+03 0.  0.
        998    1    1    2    0    0 -0.34515699037E+02 -0.40582636305E+02  0.14431191002E+04  0.14441367737E+04  0.10000000000E+02 0. -1.
</event>
<event>
 5    1  0.1582292E-008  0.3811916E+03  0.7957747E-01  0.3445986E+00
         13   -1    0    0    0    0  0.00000000000E+00  0.00000000000E+00  0.14999999963E+04  0.15000000000E+04  0.10566000000E+00 0.  1.
        994   -1    0    0    0    0 -0.00000000000E+00 -0.00000000000E+00  0.11368683772E-12  0.17120000000E+03  0.17120000000E+03 0.  0.
         13    1    1    2    0    0  0.91211109972E+01 -0.33307144818E+02  0.19336691553E+03  0.19642641306E+03  0.10566000000E+00 0.  1.
        994    1    1    2    0    0  0.18370754823E+02  0.80242253612E+01  0.48721419050E+01  0.17243854149E+03  0.17120000000E+03 0.  0.
        998    1    1    2    0    0 -0.27491865820E+02  0.25282919457E+02  0.13017609388E+04  0.13023350454E+04  0.10000000000E+02 0.  1.
</event>
<event>
 5    1  0.1582292E-008  0.3853986E+03  0.7957747E-01  0.3427983E+00
         13   -1    0    0    0    0  0.00000000000E+00  0.00000000000E+00  0.14999999963E+04  0.15000000000E+04  0.10566000000E+00 0. -1.
        994   -1    0    0    0    0 -0.00000000000E+00 -0.00000000000E+00  0.11368683772E-12  0.17120000000E+03  0.17120000000E+03 0.  0.
         13    1    1    2    0    0 -0.96867107586E+01 -0.74502909200E+01  0.50238430497E+02  0.51703484050E+02  0.10566000000E+00 0. -1.
        994    1    1    2    0    0  0.13774584596E+02  0.67390953498E+01  0.22050920068E+01  0.17189955502E+03  0.17120000000E+03 0.  0.
        998    1    1    2    0    0 -0.40878738375E+01  0.71119557020E+00  0.14475564738E+04  0.14475969609E+04  0.10000000000E+02 0. -1.
</event>
<event>
 5    1  0.1582292E-008  0.3744079E+03  0.7957747E-01  0.3475875E+00
         13   -1    0    0    0    0  0.00000000000E+00  0.00000000000E+00  0.14999999963E+04  0.15000000000E+04  0.10566000000E+00 0. -1.
        994   -1    0    0    0    0 -0.00000000000E+00 -0.00000000000E+00  0.11368683772E-12  0.17120000000E+03  0.17120000000E+03 0.  0.
         13    1    1    2    0    0  0.61037120996E+02 -0.45407739777E+01  0.12295498016E+03  0.13734659470E+03  0.10566000000E+00 0. -1.
        994    1    1    2    0    0 -0.68243345945E+02 -0.94580326613E+01  0.30341187252E+02  0.18702041678E+03  0.17120000000E+03 0.  0.
        998    1    1    2    0    0  0.72062249496E+01  0.13998806639E+02  0.13467038289E+04  0.13468329885E+04  0.10000000000E+02 0. -1.
</event>
<event>
 5    1  0.1582292E-008  0.3859371E+03  0.7957747E-01  0.3425708E+00
         13   -1    0    0    0    0  0.00000000000E+00  0.00000000000E+00  0.14999999963E+04  0.15000000000E+04  0.10566000000E+00 0.  1.
        994   -1    0    0    0    0 -0.00000000000E+00 -0.00000000000E+00  0.11368683772E-12  0.17120000000E+03  0.17120000000E+03 0.  0.
         13    1    1    2    0    0 -0.60691569300E+01  0.85852415240E+01  0.50804452634E+02  0.51881062146E+02  0.10566000000E+00 0.  1.
        994    1    1    2    0    0  0.67651678057E+01  0.67164070254E+01  0.14636246526E+01  0.17147145481E+03  0.17120000000E+03 0.  0.
        998    1    1    2    0    0 -0.69601087571E+00 -0.15301648549E+02  0.14477319190E+04  0.14478474830E+04  0.10000000000E+02 0.  1.
</event>
<event>
 5    1  0.1582292E-008  0.3827280E+03  0.7957747E-01  0.3439366E+00
         13   -1    0    0    0    0  0.00000000000E+00  0.00000000000E+00  0.14999999963E+04  0.15000000000E+04  0.10566000000E+00 0.  1.
        994   -1    0    0    0    0 -0.00000000000E+00 -0.00000000000E+00  0.11368683772E-12  0.17120000000E+03  0.17120000000E+03 0.  0.
         13    1    1    2    0    0  0.12289508840E+02 -0.12725206186E+02  0.53916204897E+02  0.56744437741E+02  0.10566000000E+00 0.  1.
        994    1    1    2    0    0 -0.14062346164E+02  0.12925457590E+02  0.39719649975E+01  0.17230796134E+03  0.17120000000E+03 0.  0.
        998    1    1    2    0    0  0.17728373236E+01 -0.20025140416E+00  0.14421118264E+04  0.14421476009E+04  0.10000000000E+02 0.  1.
</event>
<event>
 5    1  0.1582292E-008  0.4059952E+03  0.7957747E-01  0.3345234E+00
         13   -1    0    0    0    0  0.00000000000E+00  0.00000000000E+00  0.14999999963E+04  0.15000000000E+04  0.10566000000E+00 0.  1.
        994   -1    0    0    0    0 -0.00000000000E+00 -0.00000000000E+00  0.11368683772E-12  0.17120000000E+03  0.17120000000E+03 0.  0.
         13    1    1    2    0    0 -0.22270889113E+02  0.40650000387E+01 -0.55651194793E+01  0.23313053126E+02  0.10566000000E+00 0.  1.
        994    1    1    2    0    0  0.30091709588E+02 -0.28150201391E+01  0.35085976232E+02  0.17735247687E+03  0.17120000000E+03 0.  0.
        998    1    1    2    0    0 -0.78208204743E+01 -0.12499798996E+01  0.14704791395E+04  0.14705344700E+04  0.10000000000E+02 0.  1.
</event>
<event>
 5    1  0.1582292E-008  0.3857894E+03  0.7957747E-01  0.3426331E+00
         13   -1    0    0    0    0  0.00000000000E+00  0.00000000000E+00  0.14999999963E+04  0.15000000000E+04  0.10566000000E+00 0.  1.
        994   -1    0    0    0    0 -0.00000000000E+00 -0.00000000000E+00  0.11368683772E-12  0.17120000000E+03  0.17120000000E+03 0.  0.
         13    1    1    2    0    0  0.11794206170E+02  0.10153503644E+01  0.54020033363E+02  0.55301983727E+02  0.10566000000E+00 0.  1.
        994    1    1    2    0    0 -0.17608679492E+02  0.11984060063E+02  0.27283362105E+01  0.17254149387E+03  0.17120000000E+03 0.  0.
        998    1    1    2    0    0  0.58144733223E+01 -0.12999410428E+02  0.14432516267E+04  0.14433565224E+04  0.10000000000E+02 0.  1.
</event>
<event>
 5    1  0.1582292E-008  0.3752929E+03  0.7957747E-01  0.3471914E+00
         13   -1    0    0    0    0  0.00000000000E+00  0.00000000000E+00  0.14999999963E+04  0.15000000000E+04  0.10566000000E+00 0. -1.
        994   -1    0    0    0    0 -0.00000000000E+00 -0.00000000000E+00  0.11368683772E-12  0.17120000000E+03  0.17120000000E+03 0.  0.
         13    1    1    2    0    0  0.48450367151E+02 -0.15107561664E+03  0.87159563161E+03  0.88591773671E+03  0.10566000000E+00 0. -1.
        994    1    1    2    0    0 -0.41987226761E+02  0.14263276969E+03  0.85738642421E+02  0.24242027350E+03  0.17120000000E+03 0.  0.
        998    1    1    2    0    0 -0.64631403896E+01  0.84428469526E+01  0.54266572225E+03  0.54286198978E+03  0.10000000000E+02 0.  0.
</event>
<event>
 5    1  0.1582292E-008  0.3791007E+03  0.7957747E-01  0.3455084E+00
         13   -1    0    0    0    0  0.00000000000E+00  0.00000000000E+00  0.14999999963E+04  0.15000000000E+04  0.10566000000E+00 0.  1.
        994   -1    0    0    0    0 -0.00000000000E+00 -0.00000000000E+00  0.11368683772E-12  0.17120000000E+03  0.17120000000E+03 0.  0.
         13    1    1    2    0    0  0.97338582395E+01  0.11378332757E+02  0.22488948047E+02  0.27018112460E+02  0.10566000000E+00 0.  1.
        994    1    1    2    0    0 -0.20960995965E+01 -0.12732245430E+02  0.51462587423E+01  0.17176270750E+03  0.17120000000E+03 0.  0.
        998    1    1    2    0    0 -0.76377586430E+01  0.13539126728E+01  0.14723647895E+04  0.14724191800E+04  0.10000000000E+02 0.  1.
</event>
<event>
 5    1  0.1582292E-008  0.3756926E+03  0.7957747E-01  0.3470131E+00
         13   -1    0    0    0    0  0.00000000000E+00  0.00000000000E+00  0.14999999963E+04  0.15000000000E+04  0.10566000000E+00 0.  1.
        994   -1    0    0    0    0 -0.00000000000E+00 -0.00000000000E+00  0.11368683772E-12  0.17120000000E+03  0.17120000000E+03 0.  0.
         13    1    1    2    0    0  0.30417618304E+02 -0.30639685459E+02  0.12590261433E+03  0.13309959161E+03  0.10566000000E+00 0.  1.
        994    1    1    2    0    0 -0.31718162218E+02  0.47060567813E+02  0.17325268498E+02  0.18119145616E+03  0.17120000000E+03 0.  0.
        998    1    1    2    0    0  0.13005439146E+01 -0.16420882354E+02  0.13567721135E+04  0.13569089522E+04  0.10000000000E+02 0.  1.
</event>
<event>
 5    1  0.1582292E-008  0.3816341E+03  0.7957747E-01  0.3444074E+00
         13   -1    0    0    0    0  0.00000000000E+00  0.00000000000E+00  0.14999999963E+04  0.15000000000E+04  0.10566000000E+00 0.  1.
        994   -1    0    0    0    0 -0.00000000000E+00 -0.00000000000E+00  0.11368683772E-12  0.17120000000E+03  0.17120000000E+03 0.  0.
         13    1    1    2    0    0 -0.19689317133E+02 -0.16991192925E+02  0.10249436425E+03  0.10574249719E+03  0.10566000000E+00 0.  1.
        994    1    1    2    0    0  0.16664684950E+02  0.14565343325E+01  0.42415115460E+01  0.17206761356E+03  0.17120000000E+03 0.  0.
        998    1    1    2    0    0  0.30246321832E+01  0.15534658592E+02  0.13932641205E+04  0.13933898892E+04  0.10000000000E+02 0.  1.
</event>
<event>
 5    1  0.1582292E-008  0.3805301E+03  0.7957747E-01  0.3448854E+00
         13   -1    0    0    0    0  0.00000000000E+00  0.00000000000E+00  0.14999999963E+04  0.15000000000E+04  0.10566000000E+00 0. -1.
        994   -1    0    0    0    0 -0.00000000000E+00 -0.00000000000E+00  0.11368683772E-12  0.17120000000E+03  0.17120000000E+03 0.  0.
         13    1    1    2    0    0  0.19292502083E+00 -0.16444354236E+02  0.33189620387E+02  0.37040735302E+02  0.10566000000E+00 0. -1.
        994    1    1    2    0    0  0.34021401480E+01  0.13874860248E+02  0.45471613573E+01  0.17185518026E+03  0.17120000000E+03 0.  0.
        998    1    1    2    0    0 -0.35950651688E+01  0.25694939871E+01  0.14622632145E+04  0.14623040844E+04  0.10000000000E+02 0. -1.
</event>
<event>
 5    1  0.1582292E-008  0.3848201E+03  0.7957747E-01  0.3430436E+00
         13   -1    0    0    0    0  0.00000000000E+00  0.00000000000E+00  0.14999999963E+04  0.15000000000E+04  0.10566000000E+00 0. -1.
        994   -1    0    0    0    0 -0.00000000000E+00 -0.00000000000E+00  0.11368683772E-12  0.17120000000E+03  0.17120000000E+03 0.  0.
         13    1    1    2    0    0  0.27733619952E+01  0.11168710903E+02  0.39056304134E+02  0.40716553104E+02  0.10566000000E+00 0. -1.
        994    1    1    2    0    0 -0.20777529654E-01 -0.37978788661E+01  0.17669605483E+01  0.17125123785E+03  0.17120000000E+03 0.  0.
        998    1    1    2    0    0 -0.27525844656E+01 -0.73708320371E+01  0.14591767316E+04  0.14592322090E+04  0.10000000000E+02 0. -1.
</event>
<event>
 5    1  0.1582292E-008  0.3790884E+03  0.7957747E-01  0.3455138E+00
         13   -1    0    0    0    0  0.00000000000E+00  0.00000000000E+00  0.14999999963E+04  0.15000000000E+04  0.10566000000E+00 0. -1.
        994   -1    0    0    0    0 -0.00000000000E+00 -0.00000000000E+00  0.11368683772E-12  0.17120000000E+03  0.17120000000E+03 0.  0.
         13    1    1    2    0    0 -0.23604694912E+02  0.25279994638E+02  0.15910158263E+03  0.16281764189E+03  0.10566000000E+00 0. -1.
        994    1    1    2    0    0 -0.17048825170E+02  0.11064377613E+01  0.55733356830E+01  0.17214060740E+03  0.17120000000E+03 0.  0.
        998    1    1    2    0    0  0.40653520082E+02 -0.26386432399E+02  0.13353250780E+04  0.13362417507E+04  0.10000000000E+02 0. -1.
</event>
<event>
 5    1  0.1582292E-008  0.3845317E+03  0.7957747E-01  0.3431661E+00
         13   -1    0    0    0    0  0.00000000000E+00  0.00000000000E+00  0.14999999963E+04  0.15000000000E+04  0.10566000000E+00 0.  1.
        994   -1    0    0    0    0 -0.00000000000E+00 -0.00000000000E+00  0.11368683772E-12  0.17120000000E+03  0.17120000000E+03 0.  0.
         13    1    1    2    0    0 -0.46833455978E+02 -0.11262393312E+01  0.24939217152E+03  0.25375402932E+03  0.10566000000E+00 0.  1.
        994    1    1    2    0    0  0.11216153590E+03 -0.20292962447E+02  0.45894972351E+02  0.21073158982E+03  0.17120000000E+03 0.  0.
        998    1    1    2    0    0 -0.65328079926E+02  0.21419201778E+02  0.12047128524E+04  0.12067143809E+04  0.10000000000E+02 0.  1.
</event>
<event>
 5    1  0.3389709E-008  0.3865171E+03  0.7957747E-01  0.3423264E+00
         13   -1    0    0    0    0  0.00000000000E+00  0.00000000000E+00  0.14999999963E+04  0.15000000000E+04  0.10566000000E+00 0.  1.
        994   -1    0    0    0    0 -0.00000000000E+00 -0.00000000000E+00  0.11368683772E-12  0.17120000000E+03  0.17120000000E+03 0.  0.
         13    1    1    2    0    0  0.10001618655E+02 -0.23363659823E+01  0.59954920866E+02  0.60828403578E+02  0.10566000000E+00 0.  1.
        994    1    1    2    0    0 -0.10619128871E+02 -0.24799231383E+01  0.12680600662E+01  0.17155163623E+03  0.17120000000E+03 0.  0.
        998    1    1    2    0    0  0.61751021662E+00  0.48162891206E+01  0.14387770153E+04  0.14388199602E+04  0.10000000000E+02 0.  1.
</event>
<event>
 5    1  0.1582292E-008  0.3841133E+03  0.7957747E-01  0.3433441E+00
         13   -1    0    0    0    0  0.00000000000E+00  0.00000000000E+00  0.14999999963E+04  0.15000000000E+04  0.10566000000E+00 0. -1.
        994   -1    0    0    0    0 -0.00000000000E+00 -0.00000000000E+00  0.11368683772E-12  0.17120000000E+03  0.17120000000E+03 0.  0.
         13    1    1    2    0    0  0.14819992114E+02  0.12259804678E+02  0.98367179015E+02  0.10022997580E+03  0.10566000000E+00 0. -1.
        994    1    1    2    0    0 -0.44918066043E+01  0.83983871685E+01  0.23702183763E+01  0.17148109858E+03  0.17120000000E+03 0.  0.
        998    1    1    2    0    0 -0.10328185510E+02 -0.20658191847E+02  0.13992625989E+04  0.13994889256E+04  0.10000000000E+02 0. -1.
</event>
<event>
 5    1  0.1582292E-008  0.3689598E+03  0.7957747E-01  0.3500685E+00
         13   -1    0    0    0    0  0.00000000000E+00  0.00000000000E+00  0.14999999963E+04  0.15000000000E+04  0.10566000000E+00 0.  1.
        994   -1    0    0    0    0 -0.00000000000E+00 -0.00000000000E+00  0.11368683772E-12  0.17120000000E+03  0.17120000000E+03 0.  0.
         13    1    1    2    0    0 -0.12485260622E+01 -0.81413655876E+02  0.39876773465E+03  0.40699565052E+03  0.10566000000E+00 0.  1.
        994    1    1    2    0    0  0.45640820887E+02  0.27178725303E+02  0.19670343255E+02  0.18032784046E+03  0.17120000000E+03 0.  0.
        998    1    1    2    0    0 -0.44392294825E+02  0.54234930573E+02  0.10815619184E+04  0.10838765090E+04  0.10000000000E+02 0.  1.
</event>
<event>
 5    1  0.1582292E-008  0.3703939E+03  0.7957747E-01  0.3494082E+00
         13   -1    0    0    0    0  0.00000000000E+00  0.00000000000E+00  0.14999999963E+04  0.15000000000E+04  0.10566000000E+00 0.  1.
        994   -1    0    0    0    0 -0.00000000000E+00 -0.00000000000E+00  0.11368683772E-12  0.17120000000E+03  0.17120000000E+03 0.  0.
         13    1    1    2    0    0 -0.89407185895E+00  0.14180543252E+02  0.69670700127E+01  0.15825245654E+02  0.10566000000E+00 0.  1.
        994    1    1    2    0    0  0.36512680586E+01 -0.13678831949E+02  0.97557277303E+01  0.17206119965E+03  0.17120000000E+03 0.  0.
        998    1    1    2    0    0 -0.27571961997E+01 -0.50171130333E+00  0.14832771985E+04  0.14833135547E+04  0.10000000000E+02 0.  1.
</event>
<event>
 5    1  0.1582292E-008  0.3685536E+03  0.7957747E-01  0.3502565E+00
         13   -1    0    0    0    0  0.00000000000E+00  0.00000000000E+00  0.14999999963E+04  0.15000000000E+04  0.10566000000E+00 0.  1.
        994   -1    0    0    0    0 -0.00000000000E+00 -0.00000000000E+00  0.11368683772E-12  0.17120000000E+03  0.17120000000E+03 0.  0.
         13    1    1    2    0    0  0.67442811555E+01  0.63943716978E+02  0.24726223643E+03  0.25548563364E+03  0.10566000000E+00 0.  1.
        994    1    1    2    0    0  0.67807859402E+01 -0.45190766232E+01  0.10257876967E+02  0.17170051005E+03  0.17120000000E+03 0.  0.
        998    1    1    2    0    0 -0.13525067096E+02 -0.59424640354E+02  0.12424798829E+04  0.12440138563E+04  0.10000000000E+02 0.  1.
</event>
<event>
 5    1  0.1582292E-008  0.3780748E+03  0.7957747E-01  0.3459584E+00
         13   -1    0    0    0    0  0.00000000000E+00  0.00000000000E+00  0.14999999963E+04  0.15000000000E+04  0.10566000000E+00 0. -1.
        994   -1    0    0    0    0 -0.00000000000E+00 -0.00000000000E+00  0.11368683772E-12  0.17120000000E+03  0.17120000000E+03 0.  0.
         13    1    1    2    0    0  0.32486546474E+02 -0.13902437077E+02  0.15192843840E+03  0.15598370112E+03  0.10566000000E+00 0. -1.
        994    1    1    2    0    0  0.40258593434E+01 -0.33228409363E+02  0.88865311061E+01  0.17466752751E+03  0.17120000000E+03 0.  0.
        998    1    1    2    0    0 -0.36512405817E+02  0.47130846441E+02  0.13391850268E+04  0.13405487714E+04  0.10000000000E+02 0. -1.
</event>
<event>
 5    1  0.1582292E-008  0.3845469E+03  0.7957747E-01  0.3431596E+00
         13   -1    0    0    0    0  0.00000000000E+00  0.00000000000E+00  0.14999999963E+04  0.15000000000E+04  0.10566000000E+00 0.  1.
        994   -1    0    0    0    0 -0.00000000000E+00 -0.00000000000E+00  0.11368683772E-12  0.17120000000E+03  0.17120000000E+03 0.  0.
         13    1    1    2    0    0 -0.10988858395E+02 -0.10170474780E+02  0.62841018977E+02  0.64600297183E+02  0.10566000000E+00 0.  1.
        994    1    1    2    0    0  0.83329458250E+01 -0.50412935960E+01  0.21676976566E+01  0.17149049985E+03  0.17120000000E+03 0.  0.
        998    1    1    2    0    0  0.26559125703E+01  0.15211768376E+02  0.14349912796E+04  0.14351092030E+04  0.10000000000E+02 0.  1.
</event>
<event>
 5    1  0.1582292E-008  0.3819802E+03  0.7957747E-01  0.3442581E+00
         13   -1    0    0    0    0  0.00000000000E+00  0.00000000000E+00  0.14999999963E+04  0.15000000000E+04  0.10566000000E+00 0. -1.
        994   -1    0    0    0    0 -0.00000000000E+00 -0.00000000000E+00  0.11368683772E-12  0.17120000000E+03  0.17120000000E+03 0.  0.
         13    1    1    2    0    0  0.22735325355E+02 -0.10985672843E+02  0.11869238566E+03  0.12134856243E+03  0.10566000000E+00 0. -1.
        994    1    1    2    0    0  0.18182306229E+02  0.16246270459E+02  0.51139614016E+01  0.17300326634E+03  0.17120000000E+03 0.  0.
        998    1    1    2    0    0 -0.40917631584E+02 -0.52605976166E+01  0.13761936492E+04  0.13768481712E+04  0.10000000000E+02 0. -1.
</event>
<event>
 5    1  0.1582292E-008  0.4009672E+03  0.7957747E-01  0.3364653E+00
         13   -1    0    0    0    0  0.00000000000E+00  0.00000000000E+00  0.14999999963E+04  0.15000000000E+04  0.10566000000E+00 0.  1.
        994   -1    0    0    0    0 -0.00000000000E+00 -0.00000000000E+00  0.11368683772E-12  0.17120000000E+03  0.17120000000E+03 0.  0.
         13    1    1    2    0    0  0.11408875890E+03 -0.56848577596E+02  0.30834828520E+03  0.33365653273E+03  0.10566000000E+00 0.  1.
        994    1    1    2    0    0 -0.18263569019E+02  0.98784993921E+02  0.69245425942E+02  0.21022940325E+03  0.17120000000E+03 0.  0.
        998    1    1    2    0    0 -0.95825189878E+02 -0.41936416325E+02  0.11224062851E+04  0.11273140640E+04  0.10000000000E+02 0.  1.
</event>
<event>
 5    1  0.1582292E-008  0.3822759E+03  0.7957747E-01  0.3441308E+00
         13   -1    0    0    0    0  0.00000000000E+00  0.00000000000E+00  0.14999999963E+04  0.15000000000E+04  0.10566000000E+00 0. -1.
        994   -1    0    0    0    0 -0.00000000000E+00 -0.00000000000E+00  0.11368683772E-12  0.17120000000E+03  0.17120000000E+03 0.  0.
         13    1    1    2    0    0 -0.11905335586E+02 -0.17915175401E+01  0.23302865444E+02  0.26229396723E+02  0.10566000000E+00 0. -1.
        994    1    1    2    0    0  0.63056625783E+01 -0.32141593490E+01  0.31548771187E+01  0.17137527666E+03  0.17120000000E+03 0.  0.
        998    1    1    2    0    0  0.55996730080E+01  0.50056768891E+01  0.14735422537E+04  0.14735953266E+04  0.10000000000E+02 0. -1.
</event>
<event>
 5    1  0.1582292E-008  0.3733447E+03  0.7957747E-01  0.3480659E+00
         13   -1    0    0    0    0  0.00000000000E+00  0.00000000000E+00  0.14999999963E+04  0.15000000000E+04  0.10566000000E+00 0.  1.
        994   -1    0    0    0    0 -0.00000000000E+00 -0.00000000000E+00  0.11368683772E-12  0.17120000000E+03  0.17120000000E+03 0.  0.
         13    1    1    2    0    0 -0.97102007849E+01  0.90789068622E+01  0.82022636422E+01  0.15620590321E+02  0.10566000000E+00 0.  1.
        994    1    1    2    0    0  0.54159259845E+01 -0.17330333892E+02  0.86589587257E+01  0.17237775464E+03  0.17120000000E+03 0.  0.
        998    1    1    2    0    0  0.42942748004E+01  0.82514270303E+01  0.14831387739E+04  0.14832016550E+04  0.10000000000E+02 0.  1.
</event>
<event>
 5    1  0.1582292E-008  0.3789206E+03  0.7957747E-01  0.3455872E+00
         13   -1    0    0    0    0  0.00000000000E+00  0.00000000000E+00  0.14999999963E+04  0.15000000000E+04  0.10566000000E+00 0. -1.
        994   -1    0    0    0    0 -0.00000000000E+00 -0.00000000000E+00  0.11368683772E-12  0.17120000000E+03  0.17120000000E+03 0.  0.
         13    1    1    2    0    0  0.61420599595E+01 -0.13583453105E+02  0.21799555383E+02  0.26409598212E+02  0.10566000000E+00 0. -1.
        994    1    1    2    0    0 -0.26399012581E+01  0.10066841704E+02  0.50424818539E+01  0.17159014250E+03  0.17120000000E+03 0.  0.
        998    1    1    2    0    0 -0.35021587014E+01  0.35166114007E+01  0.14731579590E+04  0.14732002593E+04  0.10000000000E+02 0. -1.
</event>
<event>
 5    1  0.1582292E-008  0.3847619E+03  0.7957747E-01  0.3430682E+00
         13   -1    0    0    0    0  0.00000000000E+00  0.00000000000E+00  0.14999999963E+04  0.15000000000E+04  0.10566000000E+00 0.  1.
        994   -1    0    0    0    0 -0.00000000000E+00 -0.00000000000E+00  0.11368683772E-12  0.17120000000E+03  0.17120000000E+03 0.  0.
         13    1    1    2    0    0 -0.21638442912E+02 -0.10077748859E+01  0.12603701411E+03  0.12788501832E+03  0.10566000000E+00 0.  1.
        994    1    1    2    0    0  0.20436850469E+02  0.12827973896E+02  0.36669281657E+01  0.17293093458E+03  0.17120000000E+03 0.  0.
        998    1    1    2    0    0  0.12015924429E+01 -0.11820199011E+02  0.13702960540E+04  0.13703840471E+04  0.10000000000E+02 0.  1.
</event>
<event>
 5    1  0.1582292E-008  0.3839401E+03  0.7957747E-01  0.3434180E+00
         13   -1    0    0    0    0  0.00000000000E+00  0.00000000000E+00  0.14999999963E+04  0.15000000000E+04  0.10566000000E+00 0. -1.
        994   -1    0    0    0    0 -0.00000000000E+00 -0.00000000000E+00  0.11368683772E-12  0.17120000000E+03  0.17120000000E+03 0.  0.
         13    1    1    2    0    0  0.13824977463E+01 -0.15349785436E+02  0.53635595710E+02  0.55806052576E+02  0.10566000000E+00 0. -1.
        994    1    1    2    0    0  0.16570576261E+01  0.13811019663E+02  0.27960350783E+01  0.17178692592E+03  0.17120000000E+03 0.  0.
        998    1    1    2    0    0 -0.30395553724E+01  0.15387657730E+01  0.14435683655E+04  0.14436070215E+04  0.10000000000E+02 0. -1.
</event>
<event>
 5    1  0.1582292E-008  0.3698791E+03  0.7957747E-01  0.3496447E+00
         13   -1    0    0    0    0  0.00000000000E+00  0.00000000000E+00  0.14999999963E+04  0.15000000000E+04  0.10566000000E+00 0. -1.
        994   -1    0    0    0    0 -0.00000000000E+00 -0.00000000000E+00  0.11368683772E-12  0.17120000000E+03  0.17120000000E+03 0.  0.
         13    1    1    2    0    0 -0.17533603837E+02 -0.15907033438E+02  0.20815130242E+02  0.31523670271E+02  0.10566000000E+00 0. -1.
        994    1    1    2    0    0  0.19083566699E+02  0.15233450543E+02  0.12961240777E+02  0.17341762971E+03  0.17120000000E+03 0.  0.
        998    1    1    2    0    0 -0.15499628627E+01  0.67358289528E+00  0.14662236253E+04  0.14662587000E+04  0.10000000000E+02 0. -1.
</event>
<event>
 5    1  0.1582292E-008  0.3831723E+03  0.7957747E-01  0.3437461E+00
         13   -1    0    0    0    0  0.00000000000E+00  0.00000000000E+00  0.14999999963E+04  0.15000000000E+04  0.10566000000E+00 0.  1.
        994   -1    0    0    0    0 -0.00000000000E+00 -0.00000000000E+00  0.11368683772E-12  0.17120000000E+03  0.17120000000E+03 0.  0.
         13    1    1    2    0    0 -0.11681060150E+02 -0.14546190777E+02  0.64341033990E+02  0.66991183384E+02  0.10566000000E+00 0.  1.
        994    1    1    2    0    0  0.16685148735E+02  0.15171609734E+02  0.42245544025E+01  0.17273059599E+03  0.17120000000E+03 0.  0.
        998    1    1    2    0    0 -0.50040885854E+01 -0.62541895682E+00  0.14314344079E+04  0.14314782206E+04  0.10000000000E+02 0.  1.
</event>
<event>
 5    1  0.1582292E-008  0.3846310E+03  0.7957747E-01  0.3431239E+00
         13   -1    0    0    0    0  0.00000000000E+00  0.00000000000E+00  0.14999999963E+04  0.15000000000E+04  0.10566000000E+00 0.  1.
        994   -1    0    0    0    0 -0.00000000000E+00 -0.00000000000E+00  0.11368683772E-12  0.17120000000E+03  0.17120000000E+03 0.  0.
         13    1    1    2    0    0 -0.27939945567E+01 -0.12673823850E+02  0.45821281493E+02  0.47623872357E+02  0.10566000000E+00 0.  1.
        994    1    1    2    0    0  0.13171793270E+01  0.10241189500E+02  0.21645674053E+01  0.17152475703E+03  0.17120000000E+03 0.  0.
        998    1    1    2    0    0  0.14768152297E+01  0.24326343502E+01  0.14520141474E+04  0.14520513706E+04  0.10000000000E+02 0.  1.
</event>
<event>
 5    1  0.1582292E-008  0.3814989E+03  0.7957747E-01  0.3444658E+00
         13   -1    0    0    0    0  0.00000000000E+00  0.00000000000E+00  0.14999999963E+04  0.15000000000E+04  0.10566000000E+00 0. -1.
        994   -1    0    0    0    0 -0.00000000000E+00 -0.00000000000E+00  0.11368683772E-12  0.17120000000E+03  0.17120000000E+03 0.  0.
         13    1    1    2    0    0 -0.74446193398E+01 -0.20895920952E+02  0.75725185102E+02  0.78907393141E+02  0.10566000000E+00 0. -1.
        994    1    1    2    0    0  0.15523313385E+02 -0.22494892962E+01  0.41972753386E+01  0.17196828365E+03  0.17120000000E+03 0.  0.
        998    1    1    2    0    0 -0.80786940451E+01  0.23145410248E+02  0.14200775358E+04  0.14203243232E+04  0.10000000000E+02 0. -1.
</event>
<event>
 5    1  0.1582292E-008  0.3841444E+03  0.7957747E-01  0.3433309E+00
         13   -1    0    0    0    0  0.00000000000E+00  0.00000000000E+00  0.14999999963E+04  0.15000000000E+04  0.10566000000E+00 0. -1.
        994   -1    0    0    0    0 -0.00000000000E+00 -0.00000000000E+00  0.11368683772E-12  0.17120000000E+03  0.17120000000E+03 0.  0.
         13    1    1    2    0    0  0.10400507852E+02 -0.10388460880E+02  0.50116190045E+02  0.52227716318E+02  0.10566000000E+00 0. -1.
        994    1    1    2    0    0 -0.80146805592E+01  0.17081960957E+02  0.32304938590E+01  0.17226695732E+03  0.17120000000E+03 0.  0.
        998    1    1    2    0    0 -0.23858272924E+01 -0.66935000763E+01  0.14466533124E+04  0.14467053264E+04  0.10000000000E+02 0. -1.
</event>
<event>
 5    1  0.1582292E-008  0.3855809E+03  0.7957747E-01  0.3427212E+00
         13   -1    0    0    0    0  0.00000000000E+00  0.00000000000E+00  0.14999999963E+04  0.15000000000E+04  0.10566000000E+00 0.  1.
        994   -1    0    0    0    0 -0.00000000000E+00 -0.00000000000E+00  0.11368683772E-12  0.17120000000E+03  0.17120000000E+03 0.  0.
         13    1    1    2    0    0 -0.57636468801E+01  0.99289344596E+01  0.50986993555E+02  0.52263639757E+02  0.10566000000E+00 0.  1.
        994    1    1    2    0    0  0.10904968044E+02  0.32496737359E+01  0.17671553655E+01  0.17158683383E+03  0.17120000000E+03 0.  0.
        998    1    1    2    0    0 -0.51413211636E+01 -0.13178608195E+02  0.14472458474E+04  0.14473495264E+04  0.10000000000E+02 0.  1.
</event>
<event>
 5    1  0.1582292E-008  0.3782647E+03  0.7957747E-01  0.3458749E+00
         13   -1    0    0    0    0  0.00000000000E+00  0.00000000000E+00  0.14999999963E+04  0.15000000000E+04  0.10566000000E+00 0.  1.
        994   -1    0    0    0    0 -0.00000000000E+00 -0.00000000000E+00  0.11368683772E-12  0.17120000000E+03  0.17120000000E+03 0.  0.
         13    1    1    2    0    0  0.12493367240E+02 -0.27213371673E+02  0.82548277690E+02  0.87811623014E+02  0.10566000000E+00 0.  1.
        994    1    1    2    0    0  0.65728526547E+00  0.36080996815E+02  0.94026798354E+01  0.17521449924E+03  0.17120000000E+03 0.  0.
        998    1    1    2    0    0 -0.13150652506E+02 -0.88676251421E+01  0.14080490388E+04  0.14081738777E+04  0.10000000000E+02 0.  1.
</event>
<event>
 5    1  0.1582292E-008  0.3803216E+03  0.7957747E-01  0.3449760E+00
         13   -1    0    0    0    0  0.00000000000E+00  0.00000000000E+00  0.14999999963E+04  0.15000000000E+04  0.10566000000E+00 0.  1.
        994   -1    0    0    0    0 -0.00000000000E+00 -0.00000000000E+00  0.11368683772E-12  0.17120000000E+03  0.17120000000E+03 0.  0.
         13    1    1    2    0    0  0.49480651024E+01 -0.11697840736E+02  0.18525048886E+02  0.22461331804E+02  0.10566000000E+00 0.  1.
        994    1    1    2    0    0  0.37392238921E+01  0.14092212063E+02  0.46810906993E+01  0.17188346298E+03  0.17120000000E+03 0.  0.
        998    1    1    2    0    0 -0.86872889946E+01 -0.23943713272E+01  0.14767938567E+04  0.14768552052E+04  0.10000000000E+02 0.  1.
</event>
<event>
 5    1  0.1582292E-008  0.3766249E+03  0.7957747E-01  0.3465987E+00
         13   -1    0    0    0    0  0.00000000000E+00  0.00000000000E+00  0.14999999963E+04  0.15000000000E+04  0.10566000000E+00 0.  1.
        994   -1    0    0    0    0 -0.00000000000E+00 -0.00000000000E+00  0.11368683772E-12  0.17120000000E+03  0.17120000000E+03 0.  0.
         13    1    1    2    0    0 -0.18518102855E+02 -0.22679257108E+02  0.73309732003E+02  0.78940463685E+02  0.10566000000E+00 0.  1.
        994    1    1    2    0    0  0.20735414511E+02 -0.29413572199E+01  0.73308489124E+01  0.17263195053E+03  0.17120000000E+03 0.  0.
        998    1    1    2    0    0 -0.22173116551E+01  0.25620614328E+02  0.14193594154E+04  0.14196275858E+04  0.10000000000E+02 0.  1.
</event>
<event>
 5    1  0.1582292E-008  0.3836968E+03  0.7957747E-01  0.3435218E+00
         13   -1    0    0    0    0  0.00000000000E+00  0.00000000000E+00  0.14999999963E+04  0.15000000000E+04  0.10566000000E+00 0.  1.
        994   -1    0    0    0    0 -0.00000000000E+00 -0.00000000000E+00  0.11368683772E-12  0.17120000000E+03  0.17120000000E+03 0.  0.
         13    1    1    2    0    0 -0.22891398718E+02  0.19375533809E+01  0.13550381531E+03  0.13743749625E+03  0.10566000000E+00 0.  1.
        994    1    1    2    0    0 -0.62075015290E+01 -0.47957330611E+01  0.24817671820E+01  0.17139758254E+03  0.17120000000E+03 0.  0.
        998    1    1    2    0    0  0.29098900247E+02  0.28581796802E+01  0.13620144138E+04  0.13623649212E+04  0.10000000000E+02 0.  1.
</event>
<event>
 5    1  0.1582292E-008  0.3761520E+03  0.7957747E-01  0.3468086E+00
         13   -1    0    0    0    0  0.00000000000E+00  0.00000000000E+00  0.14999999963E+04  0.15000000000E+04  0.10566000000E+00 0.  1.
        994   -1    0    0    0    0 -0.00000000000E+00 -0.00000000000E+00  0.11368683772E-12  0.17120000000E+03  0.17120000000E+03 0.  0.
         13    1    1    2    0    0 -0.70126253360E+01 -0.17304702476E+02  0.29592517564E+02  0.34990825965E+02  0.10566000000E+00 0.  1.
        994    1    1    2    0    0  0.40471965561E+02 -0.54325576809E+02  0.21789360613E+02  0.18540082127E+03  0.17120000000E+03 0.  0.
        998    1    1    2    0    0 -0.33459340225E+02  0.71630279285E+02  0.14486181181E+04  0.14508083528E+04  0.10000000000E+02 0.  1.
</event>
<event>
 5    1  0.1582292E-008  0.3903025E+03  0.7957747E-01  0.3407490E+00
         13   -1    0    0    0    0  0.00000000000E+00  0.00000000000E+00  0.14999999963E+04  0.15000000000E+04  0.10566000000E+00 0.  1.
        994   -1    0    0    0    0 -0.00000000000E+00 -0.00000000000E+00  0.11368683772E-12  0.17120000000E+03  0.17120000000E+03 0.  0.
         13    1    1    2    0    0 -0.70862450429E+02 -0.71022825752E+01  0.10035849485E+03  0.12306001768E+03  0.10566000000E+00 0.  1.
        994    1    1    2    0    0  0.70598415483E+02  0.21051916213E+02  0.42850618607E+02  0.19124051600E+03  0.17120000000E+03 0.  0.
        998    1    1    2    0    0  0.26403494591E+00 -0.13949633638E+02  0.13567908828E+04  0.13568994663E+04  0.10000000000E+02 0.  1.
</event>
<event>
 5    1  0.1582292E-008  0.3813408E+03  0.7957747E-01  0.3445341E+00
         13   -1    0    0    0    0  0.00000000000E+00  0.00000000000E+00  0.14999999963E+04  0.15000000000E+04  0.10566000000E+00 0. -1.
        994   -1    0    0    0    0 -0.00000000000E+00 -0.00000000000E+00  0.11368683772E-12  0.17120000000E+03  0.17120000000E+03 0.  0.
         13    1    1    2    0    0  0.56678649815E+01  0.11438213380E+02  0.23167604123E+02  0.26451965212E+02  0.10566000000E+00 0. -1.
        994    1    1    2    0    0 -0.79419918626E+01  0.10322760744E+02  0.40226396800E+01  0.17174183024E+03  0.17120000000E+03 0.  0.
        998    1    1    2    0    0  0.22741268811E+01 -0.21760974124E+02  0.14728097525E+04  0.14730062045E+04  0.10000000000E+02 0. -1.
</event>
<event>
 5    1  0.1582292E-008  0.3805148E+03  0.7957747E-01  0.3448920E+00
         13   -1    0    0    0    0  0.00000000000E+00  0.00000000000E+00  0.14999999963E+04  0.15000000000E+04  0.10566000000E+00 0.  1.
        994   -1    0    0    0    0 -0.00000000000E+00 -0.00000000000E+00  0.11368683772E-12  0.17120000000E+03  0.17120000000E+03 0.  0.
         13    1    1    2    0    0  0.35633801035E+02  0.11305983142E+02  0.14299034309E+03  0.14779662517E+03  0.10566000000E+00 0.  1.
        994    1    1    2    0    0 -0.52644473074E+02 -0.28093314436E+02  0.15849082677E+02  0.18199260502E+03  0.17120000000E+03 0.  0.
        998    1    1    2    0    0  0.17010672039E+02  0.16787331295E+02  0.13411605705E+04  0.13414107698E+04  0.10000000000E+02 0.  1.
</event>
<event>
 5    1  0.1582292E-008  0.3843861E+03  0.7957747E-01  0.3432280E+00
         13   -1    0    0    0    0  0.00000000000E+00  0.00000000000E+00  0.14999999963E+04  0.15000000000E+04  0.10566000000E+00 0. -1.
        994   -1    0    0    0    0 -0.00000000000E+00 -0.00000000000E+00  0.11368683772E-12  0.17120000000E+03  0.17120000000E+03 0.  0.
         13    1    1    2    0    0 -0.58488120970E+01 -0.82759012280E+01  0.26215327756E+02  0.28106115303E+02  0.10566000000E+00 0. -1.
        994    1    1    2    0    0  0.64708824586E+01  0.17267935125E+01  0.20830724787E+01  0.17134361186E+03  0.17120000000E+03 0.  0.
        998    1    1    2    0    0 -0.62207036165E+00  0.65491077155E+01  0.14717015960E+04  0.14717502728E+04  0.10000000000E+02 0. -1.
</event>
<event>
 5    1  0.1582292E-008  0.3757507E+03  0.7957747E-01  0.3469872E+00
         13   -1    0    0    0    0  0.00000000000E+00  0.00000000000E+00  0.14999999963E+04  0.15000000000E+04  0.10566000000E+00 0. -1.
        994   -1    0    0    0    0 -0.00000000000E+00 -0.00000000000E+00  0.11368683772E-12  0.17120000000E+03  0.17120000000E+03 0.  0.
         13    1    1    2    0    0  0.61066028613E+02 -0.41094899347E+01  0.25393435073E+03  0.26120607459E+03  0.10566000000E+00 0. -1.
        994    1    1    2    0    0 -0.56745439117E+02  0.75891663655E+01  0.17489072247E+02  0.18136413084E+03  0.17120000000E+03 0.  0.
        998    1    1    2    0    0 -0.43205894960E+01 -0.34796764309E+01  0.12285765733E+04  0.12286297946E+04  0.10000000000E+02 0. -1.
</event>
<event>
 5    1  0.1582292E-008  0.2826694E+03  0.7957747E-01  0.4028080E+00
         13   -1    0    0    0    0  0.00000000000E+00  0.00000000000E+00  0.14999999963E+04  0.15000000000E+04  0.10566000000E+00 0. -1.
        994   -1    0    0    0    0 -0.00000000000E+00 -0.00000000000E+00  0.11368683772E-12  0.17120000000E+03  0.17120000000E+03 0.  0.
         13    1    1    2    0    0 -0.67111377568E+02  0.14371254601E+03  0.59673293389E+03  0.61745237746E+03  0.10566000000E+00 0. -1.
        994    1    1    2    0    0  0.61325496264E+02 -0.11128082056E+03  0.76869427309E+02  0.22663315374E+03  0.17120000000E+03 0.  0.
        998    1    1    2    0    0  0.57858813042E+01 -0.32431725443E+02  0.82639763508E+03  0.82711446881E+03  0.10000000000E+02 0. -1.
</event>
<event>
 5    1  0.1582292E-008  0.3825673E+03  0.7957747E-01  0.3440056E+00
         13   -1    0    0    0    0  0.00000000000E+00  0.00000000000E+00  0.14999999963E+04  0.15000000000E+04  0.10566000000E+00 0.  1.
        994   -1    0    0    0    0 -0.00000000000E+00 -0.00000000000E+00  0.11368683772E-12  0.17120000000E+03  0.17120000000E+03 0.  0.
         13    1    1    2    0    0  0.64702646296E+01 -0.14081028093E+02  0.41645394296E+02  0.44435230466E+02  0.10566000000E+00 0.  1.
        994    1    1    2    0    0 -0.52149438534E+01  0.66782452815E+01  0.30807951881E+01  0.17143723603E+03  0.17120000000E+03 0.  0.
        998    1    1    2    0    0 -0.12553207762E+01  0.74027828111E+01  0.14552738068E+04  0.14553275335E+04  0.10000000000E+02 0.  1.
</event>
<event>
 5    1  0.1582292E-008  0.3789155E+03  0.7957747E-01  0.3455894E+00
         13   -1    0    0    0    0  0.00000000000E+00  0.00000000000E+00  0.14999999963E+04  0.15000000000E+04  0.10566000000E+00 0.  1.
        994   -1    0    0    0    0 -0.00000000000E+00 -0.00000000000E+00  0.11368683772E-12  0.17120000000E+03  0.17120000000E+03 0.  0.
         13    1    1    2    0    0 -0.26479346928E+02  0.14347007991E+01  0.71228738657E+02  0.76004990329E+02  0.10566000000E+00 0.  1.
        994    1    1    2    0    0  0.23577084041E+02 -0.64745087703E+01  0.66897332166E+01  0.17306643431E+03  0.17120000000E+03 0.  0.
        998    1    1    2    0    0  0.29022628865E+01  0.50398079713E+01  0.14220815244E+04  0.14221285754E+04  0.10000000000E+02 0.  1.
</event>
<event>
 5    1  0.1582292E-008  0.3803926E+03  0.7957747E-01  0.3449451E+00
         13   -1    0    0    0    0  0.00000000000E+00  0.00000000000E+00  0.14999999963E+04  0.15000000000E+04  0.10566000000E+00 0.  1.
        994   -1    0    0    0    0 -0.00000000000E+00 -0.00000000000E+00  0.11368683772E-12  0.17120000000E+03  0.17120000000E+03 0.  0.
         13    1    1    2    0    0  0.24629105311E+02 -0.32562075952E+02  0.24205389299E+03  0.24547297182E+03  0.10566000000E+00 0.  1.
        994    1    1    2    0    0 -0.15983004883E+02 -0.25090804297E+01  0.48094449979E+01  0.17203000521E+03  0.17120000000E+03 0.  0.
        998    1    1    2    0    0 -0.86461004286E+01  0.35071156382E+02  0.12531366583E+04  0.12536970230E+04  0.10000000000E+02 0.  1.
</event>
<event>
 5    1  0.1582292E-008  0.3796424E+03  0.7957747E-01  0.3452717E+00
         13   -1    0    0    0    0  0.00000000000E+00  0.00000000000E+00  0.14999999963E+04  0.15000000000E+04  0.10566000000E+00 0. -1.
        994   -1    0    0    0    0 -0.00000000000E+00 -0.00000000000E+00  0.11368683772E-12  0.17120000000E+03  0.17120000000E+03 0.  0.
         13    1    1    2    0    0 -0.24250420017E+02 -0.42740179501E+01  0.67220647971E+02  0.71588943128E+02  0.10566000000E+00 0. -1.
        994    1    1    2    0    0  0.21880002136E+02 -0.39836297024E+01  0.59708994771E+01  0.17274170151E+03  0.17120000000E+03 0.  0.
        998    1    1    2    0    0  0.23704178817E+01  0.82576476525E+01  0.14268084488E+04  0.14268693554E+04  0.10000000000E+02 0. -1.
</event>
<event>
 5    1  0.1582292E-008  0.3831536E+03  0.7957747E-01  0.3437541E+00
         13   -1    0    0    0    0  0.00000000000E+00  0.00000000000E+00  0.14999999963E+04  0.15000000000E+04  0.10566000000E+00 0. -1.
        994   -1    0    0    0    0 -0.00000000000E+00 -0.00000000000E+00  0.11368683772E-12  0.17120000000E+03  0.17120000000E+03 0.  0.
         13    1    1    2    0    0 -0.13603754674E+02 -0.68662464088E+00  0.35272484517E+02  0.37811280363E+02  0.10566000000E+00 0. -1.
        994    1    1    2    0    0  0.11347749408E+02  0.13118940165E+01  0.29814616009E+01  0.17160658960E+03  0.17120000000E+03 0.  0.
        998    1    1    2    0    0  0.22560052665E+01 -0.62526937567E+00  0.14617460502E+04  0.14617821300E+04  0.10000000000E+02 0. -1.
</event>
<event>
 5    1  0.1582292E-008  0.3709954E+03  0.7957747E-01  0.3491329E+00
         13   -1    0    0    0    0  0.00000000000E+00  0.00000000000E+00  0.14999999963E+04  0.15000000000E+04  0.10566000000E+00 0.  1.
        994   -1    0    0    0    0 -0.00000000000E+00 -0.00000000000E+00  0.11368683772E-12  0.17120000000E+03  0.17120000000E+03 0.  0.
         13    1    1    2    0    0  0.51983867461E+01 -0.23075987372E+02  0.22851690999E+02  0.32889745568E+02  0.10566000000E+00 0.  1.
        994    1    1    2    0    0  0.33173159904E+02 -0.48095824705E+02  0.23539971529E+02  0.18242049543E+03  0.17120000000E+03 0.  0.
        998    1    1    2    0    0 -0.38371546650E+02  0.71171812077E+02  0.14536083338E+04  0.14558897590E+04  0.10000000000E+02 0.  1.
</event>
<event>
 5    1  0.1582292E-008  0.3837891E+03  0.7957747E-01  0.3434824E+00
         13   -1    0    0    0    0  0.00000000000E+00  0.00000000000E+00  0.14999999963E+04  0.15000000000E+04  0.10566000000E+00 0. -1.
        994   -1    0    0    0    0 -0.00000000000E+00 -0.00000000000E+00  0.11368683772E-12  0.17120000000E+03  0.17120000000E+03 0.  0.
         13    1    1    2    0    0 -0.21281974427E+02 -0.44305772321E+01  0.97409575323E+02  0.99805756240E+02  0.10566000000E+00 0. -1.
        994    1    1    2    0    0  0.24978766413E+02  0.47225443296E+01  0.43690868626E+01  0.17313223304E+03  0.17120000000E+03 0.  0.
        998    1    1    2    0    0 -0.36967919861E+01 -0.29196709743E+00  0.13982213341E+04  0.13982620107E+04  0.10000000000E+02 0. -1.
</event>
<event>
 5    1  0.1582292E-008  0.3856259E+03  0.7957747E-01  0.3427022E+00
         13   -1    0    0    0    0  0.00000000000E+00  0.00000000000E+00  0.14999999963E+04  0.15000000000E+04  0.10566000000E+00 0.  1.
        994   -1    0    0    0    0 -0.00000000000E+00 -0.00000000000E+00  0.11368683772E-12  0.17120000000E+03  0.17120000000E+03 0.  0.
         13    1    1    2    0    0 -0.92751312488E+01 -0.70184355248E+01  0.51682773419E+02  0.52975529533E+02  0.10566000000E+00 0.  1.
        994    1    1    2    0    0  0.65107776320E+01  0.37552238068E+01  0.15051500761E+01  0.17137151866E+03  0.17120000000E+03 0.  0.
        998    1    1    2    0    0  0.27643536167E+01  0.32632117180E+01  0.14468120728E+04  0.14468529518E+04  0.10000000000E+02 0.  1.
</event>
<event>
 5    1  0.1582292E-008  0.3801727E+03  0.7957747E-01  0.3450407E+00
         13   -1    0    0    0    0  0.00000000000E+00  0.00000000000E+00  0.14999999963E+04  0.15000000000E+04  0.10566000000E+00 0. -1.
        994   -1    0    0    0    0 -0.00000000000E+00 -0.00000000000E+00  0.11368683772E-12  0.17120000000E+03  0.17120000000E+03 0.  0.
         13    1    1    2    0    0 -0.25803983469E+02 -0.12723771875E+02  0.10209637733E+03  0.10607271733E+03  0.10566000000E+00 0. -1.
        994    1    1    2    0    0  0.16206222293E+02  0.16753737785E+01  0.49333642801E+01  0.17204425768E+03  0.17120000000E+03 0.  0.
        998    1    1    2    0    0  0.95977611763E+01  0.11048398097E+02  0.13929702547E+04  0.13930830250E+04  0.10000000000E+02 0. -1.
</event>
<event>
 5    1  0.1582292E-008  0.3850607E+03  0.7957747E-01  0.3429415E+00
         13   -1    0    0    0    0  0.00000000000E+00  0.00000000000E+00  0.14999999963E+04  0.15000000000E+04  0.10566000000E+00 0.  1.
        994   -1    0    0    0    0 -0.00000000000E+00 -0.00000000000E+00  0.11368683772E-12  0.17120000000E+03  0.17120000000E+03 0.  0.
         13    1    1    2    0    0 -0.96263505063E+01  0.17876743032E+02  0.12044951822E+03  0.12214885250E+03  0.10566000000E+00 0.  1.
        994    1    1    2    0    0  0.19667660135E+02 -0.13079144067E+02  0.34364678677E+01  0.17285580747E+03  0.17120000000E+03 0.  0.
        998    1    1    2    0    0 -0.10041309629E+02 -0.47975989643E+01  0.13761140102E+04  0.13761953400E+04  0.10000000000E+02 0.  1.
</event>
<event>
 5    1  0.1582292E-008  0.3816366E+03  0.7957747E-01  0.3444063E+00
         13   -1    0    0    0    0  0.00000000000E+00  0.00000000000E+00  0.14999999963E+04  0.15000000000E+04  0.10566000000E+00 0.  1.
        994   -1    0    0    0    0 -0.00000000000E+00 -0.00000000000E+00  0.11368683772E-12  0.17120000000E+03  0.17120000000E+03 0.  0.
         13    1    1    2    0    0  0.11714711564E+02  0.15911049585E+01  0.20238532820E+02  0.23438759710E+02  0.10566000000E+00 0.  1.
        994    1    1    2    0    0 -0.10691066348E+01  0.40920343072E+01  0.33687709213E+01  0.17128536526E+03  0.17120000000E+03 0.  0.
        998    1    1    2    0    0 -0.10645604929E+02 -0.56831392657E+01  0.14763926925E+04  0.14764758750E+04  0.10000000000E+02 0.  1.
</event>
<event>
 5    1  0.1582292E-008  0.3814267E+03  0.7957747E-01  0.3444970E+00
         13   -1    0    0    0    0  0.00000000000E+00  0.00000000000E+00  0.14999999963E+04  0.15000000000E+04  0.10566000000E+00 0.  1.
        994   -1    0    0    0    0 -0.00000000000E+00 -0.00000000000E+00  0.11368683772E-12  0.17120000000E+03  0.17120000000E+03 0.  0.
         13    1    1    2    0    0 -0.16830697767E+02  0.44441837412E+01  0.44206042003E+02  0.47510088087E+02  0.10566000000E+00 0.  1.
        994    1    1    2    0    0  0.58615857436E+01  0.18517810129E+01  0.35404476630E+01  0.17134690557E+03  0.17120000000E+03 0.  0.
        998    1    1    2    0    0  0.10969112023E+02 -0.62959647541E+01  0.14522535066E+04  0.14523430063E+04  0.10000000000E+02 0.  1.
</event>
<event>
 5    1  0.1582292E-008  0.3737858E+03  0.7957747E-01  0.3478671E+00
         13   -1    0    0    0    0  0.00000000000E+00  0.00000000000E+00  0.14999999963E+04  0.15000000000E+04  0.10566000000E+00 0. -1.
        994   -1    0    0    0    0 -0.00000000000E+00 -0.00000000000E+00  0.11368683772E-12  0.17120000000E+03  0.17120000000E+03 0.  0.
         13    1    1    2    0    0 -0.73314159597E+01 -0.17429907378E+02  0.83266681694E+01  0.20661459242E+02  0.10566000000E+00 0. -1.
        994    1    1    2    0    0  0.93368283950E+01 -0.20707687291E+01  0.13278899324E+02  0.17198032915E+03  0.17120000000E+03 0.  0.
        998    1    1    2    0    0 -0.20054124353E+01  0.19500676107E+02  0.14783944288E+04  0.14785582116E+04  0.10000000000E+02 0. -1.
</event>
<event>
 5    1  0.1582292E-008  0.3812514E+03  0.7957747E-01  0.3445727E+00
         13   -1    0    0    0    0  0.00000000000E+00  0.00000000000E+00  0.14999999963E+04  0.15000000000E+04  0.10566000000E+00 0. -1.
        994   -1    0    0    0    0 -0.00000000000E+00 -0.00000000000E+00  0.11368683772E-12  0.17120000000E+03  0.17120000000E+03 0.  0.
         13    1    1    2    0    0 -0.31689563171E+02  0.15691213212E+02  0.17890879937E+03  0.18236998723E+03  0.10566000000E+00 0. -1.
        994    1    1    2    0    0  0.18650238940E+02 -0.61291520561E+01  0.47868520087E+01  0.17238837510E+03  0.17120000000E+03 0.  0.
        998    1    1    2    0    0  0.13039324231E+02 -0.95620611562E+01  0.13163043449E+04  0.13164416377E+04  0.10000000000E+02 0. -1.
</event>
<event>
 5    1  0.1582292E-008  0.3845175E+03  0.7957747E-01  0.3431721E+00
         13   -1    0    0    0    0  0.00000000000E+00  0.00000000000E+00  0.14999999963E+04  0.15000000000E+04  0.10566000000E+00 0. -1.
        994   -1    0    0    0    0 -0.00000000000E+00 -0.00000000000E+00  0.11368683772E-12  0.17120000000E+03  0.17120000000E+03 0.  0.
         13    1    1    2    0    0 -0.40226058909E+01 -0.10033169616E+02  0.31646466771E+02  0.33441828207E+02  0.10566000000E+00 0. -1.
        994    1    1    2    0    0 -0.21982796571E+01  0.22935646488E+01  0.19031210411E+01  0.17124005005E+03  0.17120000000E+03 0.  0.
        998    1    1    2    0    0  0.62208855481E+01  0.77396049672E+01  0.14664504085E+04  0.14665181217E+04  0.10000000000E+02 0. -1.
</event>
<event>
 5    1  0.1582292E-008  0.3710412E+03  0.7957747E-01  0.3491119E+00
         13   -1    0    0    0    0  0.00000000000E+00  0.00000000000E+00  0.14999999963E+04  0.15000000000E+04  0.10566000000E+00 0. -1.
        994   -1    0    0    0    0 -0.00000000000E+00 -0.00000000000E+00  0.11368683772E-12  0.17120000000E+03  0.17120000000E+03 0.  0.
         13    1    1    2    0    0  0.44113601426E+02  0.21660198384E+03  0.73838037654E+03  0.77075808193E+03  0.10566000000E+00 0. -1.
        994    1    1    2    0    0 -0.12011356521E+03 -0.23458499877E+03  0.30798341632E+03  0.44002342542E+03  0.17120000000E+03 0.  0.
        998    1    1    2    0    0  0.75999963780E+02  0.17983014925E+02  0.45363620342E+03  0.46041849265E+03  0.10000000000E+02 0. -1.
</event>
<event>
 5    1  0.1582292E-008  0.3809038E+03  0.7957747E-01  0.3447233E+00
         13   -1    0    0    0    0  0.00000000000E+00  0.00000000000E+00  0.14999999963E+04  0.15000000000E+04  0.10566000000E+00 0.  1.
        994   -1    0    0    0    0 -0.00000000000E+00 -0.00000000000E+00  0.11368683772E-12  0.17120000000E+03  0.17120000000E+03 0.  0.
         13    1    1    2    0    0 -0.19683123349E+02 -0.14516374969E+02  0.76124268978E+02  0.79956650620E+02  0.10566000000E+00 0.  1.
        994    1    1    2    0    0  0.22760474914E+02  0.12873879786E+02  0.59599485930E+01  0.17328801743E+03  0.17120000000E+03 0.  0.
        998    1    1    2    0    0 -0.30773515651E+01  0.16424951824E+01  0.14179157787E+04  0.14179553319E+04  0.10000000000E+02 0.  1.
</event>
<event>
 5    1  0.1582292E-008  0.3777717E+03  0.7957747E-01  0.3460919E+00
         13   -1    0    0    0    0  0.00000000000E+00  0.00000000000E+00  0.14999999963E+04  0.15000000000E+04  0.10566000000E+00 0. -1.
        994   -1    0    0    0    0 -0.00000000000E+00 -0.00000000000E+00  0.11368683772E-12  0.17120000000E+03  0.17120000000E+03 0.  0.
         13    1    1    2    0    0 -0.10260477866E+02 -0.14765838305E+02  0.37515371702E+01  0.18368249293E+02  0.10566000000E+00 0. -1.
        994    1    1    2    0    0  0.19639370074E+02  0.16071358808E+02  0.17426570249E+02  0.17394573516E+03  0.17120000000E+03 0.  0.
        998    1    1    2    0    0 -0.93788922074E+01 -0.13055205027E+01  0.14788218889E+04  0.14788860155E+04  0.10000000000E+02 0. -1.
</event>
<event>
 5    1  0.1582292E-008  0.3823299E+03  0.7957747E-01  0.3441076E+00
         13   -1    0    0    0    0  0.00000000000E+00  0.00000000000E+00  0.14999999963E+04  0.15000000000E+04  0.10566000000E+00 0. -1.
        994   -1    0    0    0    0 -0.00000000000E+00 -0.00000000000E+00  0.11368683772E-12  0.17120000000E+03  0.17120000000E+03 0.  0.
         13    1    1    2    0    0  0.21632805815E+02  0.81632815959E+01  0.92405728441E+02  0.95254644331E+02  0.10566000000E+00 0. -1.
        994    1    1    2    0    0 -0.81845081858E+01 -0.23975963439E+01  0.32029518018E+01  0.17144221634E+03  0.17120000000E+03 0.  0.
        998    1    1    2    0    0 -0.13448297629E+02 -0.57656852520E+01  0.14043913160E+04  0.14045031393E+04  0.10000000000E+02 0. -1.
</event>
<event>
 5    1  0.1582292E-008  0.3851513E+03  0.7957747E-01  0.3429031E+00
         13   -1    0    0    0    0  0.00000000000E+00  0.00000000000E+00  0.14999999963E+04  0.15000000000E+04  0.10566000000E+00 0. -1.
        994   -1    0    0    0    0 -0.00000000000E+00 -0.00000000000E+00  0.11368683772E-12  0.17120000000E+03  0.17120000000E+03 0.  0.
         13    1    1    2    0    0 -0.98451629247E+01 -0.15718735815E+02  0.11054108719E+03  0.11208634622E+03  0.10566000000E+00 0. -1.
        994    1    1    2    0    0  0.34416885606E+02 -0.51515904806E+01  0.55460163277E+01  0.17478918501E+03  0.17120000000E+03 0.  0.
        998    1    1    2    0    0 -0.24571722681E+02  0.20870326296E+02  0.13839128928E+04  0.13843244688E+04  0.10000000000E+02 0. -1.
</event>
<event>
 5    1  0.1582292E-008  0.3790039E+03  0.7957747E-01  0.3455507E+00
         13   -1    0    0    0    0  0.00000000000E+00  0.00000000000E+00  0.14999999963E+04  0.15000000000E+04  0.10566000000E+00 0.  1.
        994   -1    0    0    0    0 -0.00000000000E+00 -0.00000000000E+00  0.11368683772E-12  0.17120000000E+03  0.17120000000E+03 0.  0.
         13    1    1    2    0    0  0.30681164537E+02 -0.19714233613E+02  0.13028334793E+03  0.13529134035E+03  0.10566000000E+00 0.  1.
        994    1    1    2    0    0 -0.33507768901E+02  0.16257325800E+02  0.93030849840E+01  0.17545101484E+03  0.17120000000E+03 0.  0.
        998    1    1    2    0    0  0.28266043637E+01  0.34569078131E+01  0.13604135634E+04  0.13604576448E+04  0.10000000000E+02 0.  1.
</event>
<event>
 5    1  0.1582292E-008  0.3823192E+03  0.7957747E-01  0.3441122E+00
         13   -1    0    0    0    0  0.00000000000E+00  0.00000000000E+00  0.14999999963E+04  0.15000000000E+04  0.10566000000E+00 0. -1.
        994   -1    0    0    0    0 -0.00000000000E+00 -0.00000000000E+00  0.11368683772E-12  0.17120000000E+03  0.17120000000E+03 0.  0.
         13    1    1    2    0    0  0.21103444064E+02 -0.38246261619E+01  0.75066115280E+02  0.78069942641E+02  0.10566000000E+00 0. -1.
        994    1    1    2    0    0 -0.15272940445E+02  0.14060903331E+02  0.43980226826E+01  0.17251015714E+03  0.17120000000E+03 0.  0.
        998    1    1    2    0    0 -0.58305036191E+01 -0.10236277169E+02  0.14205358583E+04  0.14206199002E+04  0.10000000000E+02 0. -1.
</event>
<event>
 5    1  0.1582292E-008  0.3754037E+03  0.7957747E-01  0.3471419E+00
         13   -1    0    0    0    0  0.00000000000E+00  0.00000000000E+00  0.14999999963E+04  0.15000000000E+04  0.10566000000E+00 0. -1.
        994   -1    0    0    0    0 -0.00000000000E+00 -0.00000000000E+00  0.11368683772E-12  0.17120000000E+03  0.17120000000E+03 0.  0.
         13    1    1    2    0    0 -0.63723280507E+02  0.29683746251E+02  0.39594850021E+03  0.40214053172E+03  0.10566000000E+00 0. -1.
        994    1    1    2    0    0  0.24544017566E+02 -0.33295512657E+02  0.12301850428E+02  0.17655530433E+03  0.17120000000E+03 0.  0.
        998    1    1    2    0    0  0.39179262941E+02  0.36117664062E+01  0.10917496456E+04  0.10925041640E+04  0.10000000000E+02 0. -1.
</event>
<event>
 5    1  0.1582292E-008  0.3827947E+03  0.7957747E-01  0.3439079E+00
         13   -1    0    0    0    0  0.00000000000E+00  0.00000000000E+00  0.14999999963E+04  0.15000000000E+04  0.10566000000E+00 0. -1.
        994   -1    0    0    0    0 -0.00000000000E+00 -0.00000000000E+00  0.11368683772E-12  0.17120000000E+03  0.17120000000E+03 0.  0.
         13    1    1    2    0    0  0.39385995911E+01 -0.17313446903E+02  0.54210433204E+02  0.57044283172E+02  0.10566000000E+00 0. -1.
        994    1    1    2    0    0 -0.73306289317E+01  0.21166625886E+02  0.43927603778E+01  0.17271508479E+03  0.17120000000E+03 0.  0.
        998    1    1    2    0    0  0.33920293406E+01 -0.38531789823E+01  0.14413968027E+04  0.14414406320E+04  0.10000000000E+02 0. -1.
</event>
<event>
 5    1  0.1582292E-008  0.3733809E+03  0.7957747E-01  0.3480496E+00
         13   -1    0    0    0    0  0.00000000000E+00  0.00000000000E+00  0.14999999963E+04  0.15000000000E+04  0.10566000000E+00 0. -1.
        994   -1    0    0    0    0 -0.00000000000E+00 -0.00000000000E+00  0.11368683772E-12  0.17120000000E+03  0.17120000000E+03 0.  0.
         13    1    1    2    0    0 -0.59995485643E+01 -0.12907331466E+03  0.35810327414E+03  0.38070182723E+03  0.10566000000E+00 0. -1.
        994    1    1    2    0    0 -0.10585554253E+03  0.18288411975E+03  0.19304146024E+03  0.33350628557E+03  0.17120000000E+03 0.  0.
        998    1    1    2    0    0  0.11185509109E+03 -0.53810805096E+02  0.94885526189E+03  0.95699188720E+03  0.10000000000E+02 0. -1.
</event>
<event>
 5    1  0.1582292E-008  0.3832441E+03  0.7957747E-01  0.3437153E+00
         13   -1    0    0    0    0  0.00000000000E+00  0.00000000000E+00  0.14999999963E+04  0.15000000000E+04  0.10566000000E+00 0. -1.
        994   -1    0    0    0    0 -0.00000000000E+00 -0.00000000000E+00  0.11368683772E-12  0.17120000000E+03  0.17120000000E+03 0.  0.
         13    1    1    2    0    0 -0.93949642793E+01  0.66888741246E+01  0.26736729295E+02  0.29118211626E+02  0.10566000000E+00 0. -1.
        994    1    1    2    0    0 -0.12486942915E+02 -0.12040392494E+02  0.35002489077E+01  0.17211213361E+03  0.17120000000E+03 0.  0.
        998    1    1    2    0    0  0.21881907194E+02  0.53515183697E+01  0.14697630181E+04  0.14699696548E+04  0.10000000000E+02 0. -1.
</event>
<event>
 5    1  0.1582292E-008  0.3807018E+03  0.7957747E-01  0.3448108E+00
         13   -1    0    0    0    0  0.00000000000E+00  0.00000000000E+00  0.14999999963E+04  0.15000000000E+04  0.10566000000E+00 0. -1.
        994   -1    0    0    0    0 -0.00000000000E+00 -0.00000000000E+00  0.11368683772E-12  0.17120000000E+03  0.17120000000E+03 0.  0.
         13    1    1    2    0    0  0.33766265843E+02 -0.36429809628E+01  0.15531195481E+03  0.15898190618E+03  0.10566000000E+00 0. -1.
        994    1    1    2    0    0 -0.15706545221E+02  0.46563189086E+01  0.46748826067E+01  0.17204555035E+03  0.17120000000E+03 0.  0.
        998    1    1    2    0    0 -0.18059720622E+02 -0.10133379458E+01  0.13400131589E+04  0.13401725435E+04  0.10000000000E+02 0. -1.
</event>
<event>
 5    1  0.1582292E-008  0.3828881E+03  0.7957747E-01  0.3438678E+00
         13   -1    0    0    0    0  0.00000000000E+00  0.00000000000E+00  0.14999999963E+04  0.15000000000E+04  0.10566000000E+00 0.  1.
        994   -1    0    0    0    0 -0.00000000000E+00 -0.00000000000E+00  0.11368683772E-12  0.17120000000E+03  0.17120000000E+03 0.  0.
         13    1    1    2    0    0 -0.25508239027E+00  0.55627118076E+02  0.74140479958E+02  0.92689067667E+02  0.10566000000E+00 0.  1.
        994    1    1    2    0    0  0.41860768999E+02 -0.64435932479E+02  0.39881370890E+02  0.19184440862E+03  0.17120000000E+03 0.  0.
        998    1    1    2    0    0 -0.41605686609E+02  0.88088144024E+01  0.13859781454E+04  0.13866665237E+04  0.10000000000E+02 0.  1.
</event>
<event>
 5    1  0.1582292E-008  0.3838841E+03  0.7957747E-01  0.3434419E+00
         13   -1    0    0    0    0  0.00000000000E+00  0.00000000000E+00  0.14999999963E+04  0.15000000000E+04  0.10566000000E+00 0. -1.
        994   -1    0    0    0    0 -0.00000000000E+00 -0.00000000000E+00  0.11368683772E-12  0.17120000000E+03  0.17120000000E+03 0.  0.
         13    1    1    2    0    0  0.22142425182E+02  0.48740455210E+01  0.12960686357E+03  0.13157504916E+03  0.10566000000E+00 0. -1.
        994    1    1    2    0    0 -0.95729025080E+01  0.29833522488E+02  0.54320359057E+01  0.17412818997E+03  0.17120000000E+03 0.  0.
        998    1    1    2    0    0 -0.12569522674E+02 -0.34707568009E+02  0.13649610968E+04  0.13654967609E+04  0.10000000000E+02 0. -1.
</event>
<event>
 5    1  0.1582292E-008  0.3777938E+03  0.7957747E-01  0.3460821E+00
         13   -1    0    0    0    0  0.00000000000E+00  0.00000000000E+00  0.14999999963E+04  0.15000000000E+04  0.10566000000E+00 0.  1.
        994   -1    0    0    0    0 -0.00000000000E+00 -0.00000000000E+00  0.11368683772E-12  0.17120000000E+03  0.17120000000E+03 0.  0.
         13    1    1    2    0    0 -0.16273561315E+02  0.24272883866E+02  0.77971092703E+02  0.83267665696E+02  0.10566000000E+00 0.  1.
        994    1    1    2    0    0  0.14504346914E+02 -0.17519452109E+02  0.69949420920E+01  0.17284581712E+03  0.17120000000E+03 0.  0.
        998    1    1    2    0    0  0.17692144013E+01 -0.67534317571E+01  0.14150339615E+04  0.14150865172E+04  0.10000000000E+02 0.  1.
</event>
<event>
 5    1  0.1582292E-008  0.3734304E+03  0.7957747E-01  0.3480272E+00
         13   -1    0    0    0    0  0.00000000000E+00  0.00000000000E+00  0.14999999963E+04  0.15000000000E+04  0.10566000000E+00 0. -1.
        994   -1    0    0    0    0 -0.00000000000E+00 -0.00000000000E+00  0.11368683772E-12  0.17120000000E+03  0.17120000000E+03 0.  0.
         13    1    1    2    0    0 -0.32783050959E+02  0.24841636548E+02  0.58931373878E+02  0.71866218265E+02  0.10566000000E+00 0. -1.
        994    1    1    2    0    0  0.21860761001E+02 -0.42506594639E+02  0.20893019031E+02  0.17897111975E+03  0.17120000000E+03 0.  0.
        998    1    1    2    0    0  0.10922289958E+02  0.17664958091E+02  0.14201756034E+04  0.14203626620E+04  0.10000000000E+02 0. -1.
</event>
<event>
 5    1  0.1582292E-008  0.3826808E+03  0.7957747E-01  0.3439568E+00
         13   -1    0    0    0    0  0.00000000000E+00  0.00000000000E+00  0.14999999963E+04  0.15000000000E+04  0.10566000000E+00 0. -1.
        994   -1    0    0    0    0 -0.00000000000E+00 -0.00000000000E+00  0.11368683772E-12  0.17120000000E+03  0.17120000000E+03 0.  0.
         13    1    1    2    0    0  0.10642892590E+02 -0.20640402844E+02  0.95349349547E+02  0.98136675180E+02  0.10566000000E+00 0. -1.
        994    1    1    2    0    0 -0.13357317183E+00  0.17402549634E+02  0.37901764659E+01  0.17212400185E+03  0.17120000000E+03 0.  0.
        998    1    1    2    0    0 -0.10509319419E+02  0.32378532101E+01  0.14008604703E+04  0.14009393230E+04  0.10000000000E+02 0.  1.
</event>
<event>
 5    1  0.1582292E-008  0.3801269E+03  0.7957747E-01  0.3450606E+00
         13   -1    0    0    0    0  0.00000000000E+00  0.00000000000E+00  0.14999999963E+04  0.15000000000E+04  0.10566000000E+00 0. -1.
        994   -1    0    0    0    0 -0.00000000000E+00 -0.00000000000E+00  0.11368683772E-12  0.17120000000E+03  0.17120000000E+03 0.  0.
         13    1    1    2    0    0  0.13332650204E+02  0.42575182103E+01  0.22107312115E+02  0.26165443542E+02  0.10566000000E+00 0. -1.
        994    1    1    2    0    0 -0.14652736781E+02 -0.15648431570E+01  0.47950458434E+01  0.17189992407E+03  0.17120000000E+03 0.  0.
        998    1    1    2    0    0  0.13200865767E+01 -0.26926750533E+01  0.14730976383E+04  0.14731346324E+04  0.10000000000E+02 0. -1.
</event>
<event>
 5    1  0.1582292E-008  0.3694053E+03  0.7957747E-01  0.3498629E+00
         13   -1    0    0    0    0  0.00000000000E+00  0.00000000000E+00  0.14999999963E+04  0.15000000000E+04  0.10566000000E+00 0. -1.
        994   -1    0    0    0    0 -0.00000000000E+00 -0.00000000000E+00  0.11368683772E-12  0.17120000000E+03  0.17120000000E+03 0.  0.
         13    1    1    2    0    0 -0.11651976405E+02  0.12803101261E+02  0.11334612514E+02  0.20692330969E+02  0.10566000000E+00 0. -1.
        994    1    1    2    0    0 -0.13699980665E+02 -0.31046976804E+02  0.13580753271E+02  0.17505850764E+03  0.17120000000E+03 0.  0.
        998    1    1    2    0    0  0.25351957071E+02  0.18243875543E+02  0.14750846305E+04  0.14754491614E+04  0.10000000000E+02 0. -1.
</event>
<event>
 5    1  0.1582292E-008  0.3845981E+03  0.7957747E-01  0.3431379E+00
         13   -1    0    0    0    0  0.00000000000E+00  0.00000000000E+00  0.14999999963E+04  0.15000000000E+04  0.10566000000E+00 0.  1.
        994   -1    0    0    0    0 -0.00000000000E+00 -0.00000000000E+00  0.11368683772E-12  0.17120000000E+03  0.17120000000E+03 0.  0.
         13    1    1    2    0    0  0.22303036403E+02  0.39251350584E+01  0.11566036800E+03  0.11785653994E+03  0.10566000000E+00 0.  1.
        994    1    1    2    0    0 -0.33978723324E+02 -0.41291254576E+02  0.11303450799E+02  0.17971290811E+03  0.17120000000E+03 0.  0.
        998    1    1    2    0    0  0.11675686920E+02  0.37366119518E+02  0.13730361775E+04  0.13736305519E+04  0.10000000000E+02 0.  1.
</event>
<event>
 5    1  0.1582292E-008  0.3848500E+03  0.7957747E-01  0.3430309E+00
         13   -1    0    0    0    0  0.00000000000E+00  0.00000000000E+00  0.14999999963E+04  0.15000000000E+04  0.10566000000E+00 0.  1.
        994   -1    0    0    0    0 -0.00000000000E+00 -0.00000000000E+00  0.11368683772E-12  0.17120000000E+03  0.17120000000E+03 0.  0.
         13    1    1    2    0    0 -0.11275604686E+02  0.53747542531E+01  0.40084258899E+02  0.41985547749E+02  0.10566000000E+00 0.  1.
        994    1    1    2    0    0  0.23058765580E+02 -0.33536670171E+02  0.71737506984E+01  0.17611734047E+03  0.17120000000E+03 0.  0.
        998    1    1    2    0    0 -0.11783160894E+02  0.28161915918E+02  0.14527419867E+04  0.14530971118E+04  0.10000000000E+02 0.  1.
</event>
<event>
 5    1  0.1582292E-008  0.3402533E+03  0.7957747E-01  0.3644868E+00
         13   -1    0    0    0    0  0.00000000000E+00  0.00000000000E+00  0.14999999963E+04  0.15000000000E+04  0.10566000000E+00 0. -1.
        994   -1    0    0    0    0 -0.00000000000E+00 -0.00000000000E+00  0.11368683772E-12  0.17120000000E+03  0.17120000000E+03 0.  0.
         13    1    1    2    0    0 -0.23998483899E+03 -0.14326952689E+03  0.69519147393E+03  0.74927303226E+03  0.10566000000E+00 0. -1.
        994    1    1    2    0    0  0.23663371835E+03  0.14444871473E+03  0.39530297177E+03  0.51228393234E+03  0.17120000000E+03 0.  0.
        998    1    1    2    0    0  0.33511206374E+01 -0.11791878398E+01  0.40950555058E+03  0.40964303540E+03  0.10000000000E+02 0.  0.
</event>
<event>
 5    1  0.4849360E-008  0.3852980E+03  0.7957747E-01  0.3428409E+00
         13   -1    0    0    0    0  0.00000000000E+00  0.00000000000E+00  0.14999999963E+04  0.15000000000E+04  0.10566000000E+00 0.  1.
        994   -1    0    0    0    0 -0.00000000000E+00 -0.00000000000E+00  0.11368683772E-12  0.17120000000E+03  0.17120000000E+03 0.  0.
         13    1    1    2    0    0 -0.35921224937E+00 -0.10777600378E+02  0.38305566816E+02  0.39794639293E+02  0.10566000000E+00 0.  1.
        994    1    1    2    0    0  0.38732298526E-01  0.11939735094E+02  0.19507519345E+01  0.17162693322E+03  0.17120000000E+03 0.  0.
        998    1    1    2    0    0  0.32047995085E+00 -0.11621347161E+01  0.14597436775E+04  0.14597784275E+04  0.10000000000E+02 0.  1.
</event>
<event>
 5    1  0.1582292E-008  0.3825878E+03  0.7957747E-01  0.3439968E+00
         13   -1    0    0    0    0  0.00000000000E+00  0.00000000000E+00  0.14999999963E+04  0.15000000000E+04  0.10566000000E+00 0.  1.
        994   -1    0    0    0    0 -0.00000000000E+00 -0.00000000000E+00  0.11368683772E-12  0.17120000000E+03  0.17120000000E+03 0.  0.
         13    1    1    2    0    0 -0.22689466920E+01  0.12530273817E+02  0.28010286404E+02  0.30769192213E+02  0.10566000000E+00 0.  1.
        994    1    1    2    0    0 -0.98762597416E+00 -0.47576576982E+01  0.29107828742E+01  0.17129367580E+03  0.17120000000E+03 0.  0.
        998    1    1    2    0    0  0.32565726662E+01 -0.77726161184E+01  0.14690789270E+04  0.14691371320E+04  0.10000000000E+02 0.  1.
</event>
<event>
 5    1  0.1582292E-008  0.3854212E+03  0.7957747E-01  0.3427888E+00
         13   -1    0    0    0    0  0.00000000000E+00  0.00000000000E+00  0.14999999963E+04  0.15000000000E+04  0.10566000000E+00 0. -1.
        994   -1    0    0    0    0 -0.00000000000E+00 -0.00000000000E+00  0.11368683772E-12  0.17120000000E+03  0.17120000000E+03 0.  0.
         13    1    1    2    0    0 -0.13148889866E+02  0.10957461725E+02  0.97797038613E+02  0.99283589770E+02  0.10566000000E+00 0. -1.
        994    1    1    2    0    0  0.16008597443E+02 -0.86951331188E+01  0.25118906038E+01  0.17218487194E+03  0.17120000000E+03 0.  0.
        998    1    1    2    0    0 -0.28597075765E+01 -0.22623286065E+01  0.13996910671E+04  0.13997315383E+04  0.10000000000E+02 0.  1.
</event>
<event>
 5    1  0.1582292E-008  0.3847739E+03  0.7957747E-01  0.3430632E+00
         13   -1    0    0    0    0  0.00000000000E+00  0.00000000000E+00  0.14999999963E+04  0.15000000000E+04  0.10566000000E+00 0. -1.
        994   -1    0    0    0    0 -0.00000000000E+00 -0.00000000000E+00  0.11368683772E-12  0.17120000000E+03  0.17120000000E+03 0.  0.
         13    1    1    2    0    0 -0.38983046457E+02  0.25284956752E+02  0.43724623344E+02  0.63803297717E+02  0.10566000000E+00 0. -1.
        994    1    1    2    0    0  0.91736472591E+02 -0.83234152563E+01  0.50989470280E+02  0.20098314786E+03  0.17120000000E+03 0.  0.
        998    1    1    2    0    0 -0.52753426134E+02 -0.16961541496E+02  0.14052859027E+04  0.14064135544E+04  0.10000000000E+02 0. -1.
</event>
<event>
 5    1  0.1582292E-008  0.3849270E+03  0.7957747E-01  0.3429982E+00
         13   -1    0    0    0    0  0.00000000000E+00  0.00000000000E+00  0.14999999963E+04  0.15000000000E+04  0.10566000000E+00 0.  1.
        994   -1    0    0    0    0 -0.00000000000E+00 -0.00000000000E+00  0.11368683772E-12  0.17120000000E+03  0.17120000000E+03 0.  0.
         13    1    1    2    0    0 -0.57172771203E+01 -0.10108663822E+02  0.40722231411E+02  0.42345999068E+02  0.10566000000E+00 0.  1.
        994    1    1    2    0    0  0.90971552138E+01  0.15721660421E+01  0.19467839411E+01  0.17145979093E+03  0.17120000000E+03 0.  0.
        998    1    1    2    0    0 -0.33798780935E+01  0.85364977802E+01  0.14573309809E+04  0.14573942100E+04  0.10000000000E+02 0.  1.
</event>
<event>
 5    1  0.1582292E-008  0.3734581E+03  0.7957747E-01  0.3480147E+00
         13   -1    0    0    0    0  0.00000000000E+00  0.00000000000E+00  0.14999999963E+04  0.15000000000E+04  0.10566000000E+00 0.  1.
        994   -1    0    0    0    0 -0.00000000000E+00 -0.00000000000E+00  0.11368683772E-12  0.17120000000E+03  0.17120000000E+03 0.  0.
         13    1    1    2    0    0 -0.47130148120E+02  0.19538298930E+02  0.19364816091E+03  0.20025637911E+03  0.10566000000E+00 0.  1.
        994    1    1    2    0    0 -0.40630799989E+00 -0.25036113578E+02  0.96179472105E+01  0.17328853678E+03  0.17120000000E+03 0.  0.
        998    1    1    2    0    0  0.47536456120E+02  0.54978146479E+01  0.12967338882E+04  0.12976550841E+04  0.10000000000E+02 0.  1.
</event>
<event>
 5    1  0.1582292E-008  0.3724901E+03  0.7957747E-01  0.3484524E+00
         13   -1    0    0    0    0  0.00000000000E+00  0.00000000000E+00  0.14999999963E+04  0.15000000000E+04  0.10566000000E+00 0.  1.
        994   -1    0    0    0    0 -0.00000000000E+00 -0.00000000000E+00  0.11368683772E-12  0.17120000000E+03  0.17120000000E+03 0.  0.
         13    1    1    2    0    0  0.13274540573E+03 -0.57371945102E-01  0.72508359164E+03  0.73713470415E+03  0.10566000000E+00 0.  1.
        994    1    1    2    0    0 -0.11343363497E+03  0.14763086795E+02  0.54257379917E+02  0.21292825447E+03  0.17120000000E+03 0.  0.
        998    1    1    2    0    0 -0.19311770759E+02 -0.14705714849E+02  0.72065902472E+03  0.72113704138E+03  0.10000000000E+02 0.  1.
</event>
<event>
 5    1  0.1582292E-008  0.3770241E+03  0.7957747E-01  0.3464220E+00
         13   -1    0    0    0    0  0.00000000000E+00  0.00000000000E+00  0.14999999963E+04  0.15000000000E+04  0.10566000000E+00 0.  1.
        994   -1    0    0    0    0 -0.00000000000E+00 -0.00000000000E+00  0.11368683772E-12  0.17120000000E+03  0.17120000000E+03 0.  0.
         13    1    1    2    0    0 -0.45286324906E+01 -0.12092290201E+02  0.12331775223E+02  0.17855414829E+02  0.10566000000E+00 0.  1.
        994    1    1    2    0    0 -0.25556568614E+01  0.86689555312E+01  0.59188011572E+01  0.17154053276E+03  0.17120000000E+03 0.  0.
        998    1    1    2    0    0  0.70842893520E+01  0.34233346696E+01  0.14817494199E+04  0.14818040524E+04  0.10000000000E+02 0.  1.
</event>
<event>
 5    1  0.1582292E-008  0.3843943E+03  0.7957747E-01  0.3432245E+00
         13   -1    0    0    0    0  0.00000000000E+00  0.00000000000E+00  0.14999999963E+04  0.15000000000E+04  0.10566000000E+00 0. -1.
        994   -1    0    0    0    0 -0.00000000000E+00 -0.00000000000E+00  0.11368683772E-12  0.17120000000E+03  0.17120000000E+03 0.  0.
         13    1    1    2    0    0 -0.15934585181E+02  0.28165477159E+01  0.70861788606E+02  0.72685955964E+02  0.10566000000E+00 0. -1.
        994    1    1    2    0    0  0.32851763021E+01  0.29113779192E+01  0.19946292896E+01  0.17126788097E+03  0.17120000000E+03 0.  0.
        998    1    1    2    0    0  0.12649408878E+02 -0.57279256350E+01  0.14271435784E+04  0.14272461631E+04  0.10000000000E+02 0. -1.
</event>
<event>
 5    1  0.1582292E-008  0.3728284E+03  0.7957747E-01  0.3482992E+00
         13   -1    0    0    0    0  0.00000000000E+00  0.00000000000E+00  0.14999999963E+04  0.15000000000E+04  0.10566000000E+00 0. -1.
        994   -1    0    0    0    0 -0.00000000000E+00 -0.00000000000E+00  0.11368683772E-12  0.17120000000E+03  0.17120000000E+03 0.  0.
         13    1    1    2    0    0 -0.56041126093E+02 -0.81857123778E+02  0.44530036604E+03  0.45621664118E+03  0.10566000000E+00 0. -1.
        994    1    1    2    0    0  0.68151229346E+01  0.45681144414E+02  0.20012879239E+02  0.17844654155E+03  0.17120000000E+03 0.  0.
        998    1    1    2    0    0  0.49226003158E+02  0.36175979364E+02  0.10346867510E+04  0.10365368173E+04  0.10000000000E+02 0. -1.
</event>
<event>
 5    1  0.1582292E-008  0.4287511E+03  0.7957747E-01  0.3262968E+00
         13   -1    0    0    0    0  0.00000000000E+00  0.00000000000E+00  0.14999999963E+04  0.15000000000E+04  0.10566000000E+00 0.  1.
        994   -1    0    0    0    0 -0.00000000000E+00 -0.00000000000E+00  0.11368683772E-12  0.17120000000E+03  0.17120000000E+03 0.  0.
         13    1    1    2    0    0 -0.80612447292E+02  0.12232865679E+03  0.35342995079E+03  0.38259039221E+03  0.10566000000E+00 0.  1.
        994    1    1    2    0    0 -0.40150945342E+02 -0.16303056483E+02  0.54621123943E+02  0.18485344261E+03  0.17120000000E+03 0.  0.
        998    1    1    2    0    0  0.12076339263E+03 -0.10602560031E+03  0.10919489215E+04  0.11037561652E+04  0.10000000000E+02 0.  1.
</event>
<event>
 5    1  0.1582292E-008  0.3242096E+03  0.7957747E-01  0.3737034E+00
         13   -1    0    0    0    0  0.00000000000E+00  0.00000000000E+00  0.14999999963E+04  0.15000000000E+04  0.10566000000E+00 0.  1.
        994   -1    0    0    0    0 -0.00000000000E+00 -0.00000000000E+00  0.11368683772E-12  0.17120000000E+03  0.17120000000E+03 0.  0.
         13    1    1    2    0    0 -0.36981602366E+02 -0.17023125078E+03  0.88953556152E+03  0.90643248178E+03  0.10566000000E+00 0.  1.
        994    1    1    2    0    0  0.21356272266E+02  0.14098268007E+03  0.85475332384E+02  0.23863712807E+03  0.17120000000E+03 0.  0.
        998    1    1    2    0    0  0.15625330100E+02  0.29248570713E+02  0.52498910238E+03  0.52613039015E+03  0.10000000000E+02 0. -1.
</event>
<event>
 5    1  0.1582292E-008  0.4110211E+03  0.7957747E-01  0.3326293E+00
         13   -1    0    0    0    0  0.00000000000E+00  0.00000000000E+00  0.14999999963E+04  0.15000000000E+04  0.10566000000E+00 0.  1.
        994   -1    0    0    0    0 -0.00000000000E+00 -0.00000000000E+00  0.11368683772E-12  0.17120000000E+03  0.17120000000E+03 0.  0.
         13    1    1    2    0    0  0.75940300009E+02 -0.30697184539E+02  0.81487081856E+02  0.11553961216E+03  0.10566000000E+00 0.  1.
        994    1    1    2    0    0 -0.79829966871E+02  0.25391971799E+02  0.63941581210E+02  0.20103617000E+03  0.17120000000E+03 0.  0.
        998    1    1    2    0    0  0.38896668619E+01  0.53052127398E+01  0.13545713332E+04  0.13546242178E+04  0.10000000000E+02 0.  1.
</event>
<event>
 5    1  0.1582292E-008  0.3850944E+03  0.7957747E-01  0.3429272E+00
         13   -1    0    0    0    0  0.00000000000E+00  0.00000000000E+00  0.14999999963E+04  0.15000000000E+04  0.10566000000E+00 0.  1.
        994   -1    0    0    0    0 -0.00000000000E+00 -0.00000000000E+00  0.11368683772E-12  0.17120000000E+03  0.17120000000E+03 0.  0.
         13    1    1    2    0    0 -0.99365558840E+01  0.41692542873E+01  0.37849766068E+02  0.39353955069E+02  0.10566000000E+00 0.  1.
        994    1    1    2    0    0  0.14144095501E+01  0.25721032400E+01  0.16115848255E+01  0.17123274650E+03  0.17120000000E+03 0.  0.
        998    1    1    2    0    0  0.85221463339E+01 -0.67413575273E+01  0.14605386454E+04  0.14606132984E+04  0.10000000000E+02 0.  1.
</event>
<event>
 5    1  0.1582292E-008  0.3845510E+03  0.7957747E-01  0.3431579E+00
         13   -1    0    0    0    0  0.00000000000E+00  0.00000000000E+00  0.14999999963E+04  0.15000000000E+04  0.10566000000E+00 0. -1.
        994   -1    0    0    0    0 -0.00000000000E+00 -0.00000000000E+00  0.11368683772E-12  0.17120000000E+03  0.17120000000E+03 0.  0.
         13    1    1    2    0    0  0.20682373941E+02  0.12950398531E+01  0.11096082442E+03  0.11287937562E+03  0.10566000000E+00 0. -1.
        994    1    1    2    0    0 -0.18767867789E+02  0.52737231176E+01  0.31058716860E+01  0.17233435948E+03  0.17120000000E+03 0.  0.
        998    1    1    2    0    0 -0.19145061522E+01 -0.65687629707E+01  0.13859333002E+04  0.13859862649E+04  0.10000000000E+02 0. -1.
</event>
<event>
 5    1  0.1582292E-008  0.3817510E+03  0.7957747E-01  0.3443570E+00
         13   -1    0    0    0    0  0.00000000000E+00  0.00000000000E+00  0.14999999963E+04  0.15000000000E+04  0.10566000000E+00 0. -1.
        994   -1    0    0    0    0 -0.00000000000E+00 -0.00000000000E+00  0.11368683772E-12  0.17120000000E+03  0.17120000000E+03 0.  0.
         13    1    1    2    0    0  0.11921619464E+02 -0.39139008197E+01  0.23334683610E+02  0.26494570264E+02  0.10566000000E+00 0. -1.
        994    1    1    2    0    0 -0.19544041575E+01  0.39214716706E+01  0.33156849269E+01  0.17128815313E+03  0.17120000000E+03 0.  0.
        998    1    1    2    0    0 -0.99672153062E+01 -0.75708509461E-02  0.14733496277E+04  0.14734172766E+04  0.10000000000E+02 0. -1.
</event>
<event>
 5    1  0.1582292E-008  0.3857297E+03  0.7957747E-01  0.3426583E+00
         13   -1    0    0    0    0  0.00000000000E+00  0.00000000000E+00  0.14999999963E+04  0.15000000000E+04  0.10566000000E+00 0. -1.
        994   -1    0    0    0    0 -0.00000000000E+00 -0.00000000000E+00  0.11368683772E-12  0.17120000000E+03  0.17120000000E+03 0.  0.
         13    1    1    2    0    0  0.98585856166E+01 -0.86871059330E+01  0.68068960990E+02  0.69325696060E+02  0.10566000000E+00 0. -1.
        994    1    1    2    0    0 -0.31230259460E+01  0.11322182429E+02  0.17210122642E+01  0.17161103400E+03  0.17120000000E+03 0.  0.
        998    1    1    2    0    0 -0.67355596706E+01 -0.26350764955E+01  0.14302100230E+04  0.14302632699E+04  0.10000000000E+02 0. -1.
</event>
<event>
 5    1  0.1582292E-008  0.3731446E+03  0.7957747E-01  0.3481562E+00
         13   -1    0    0    0    0  0.00000000000E+00  0.00000000000E+00  0.14999999963E+04  0.15000000000E+04  0.10566000000E+00 0. -1.
        994   -1    0    0    0    0 -0.00000000000E+00 -0.00000000000E+00  0.11368683772E-12  0.17120000000E+03  0.17120000000E+03 0.  0.
         13    1    1    2    0    0 -0.46387212328E+02  0.53015391564E+02  0.32352334519E+03  0.33110386777E+03  0.10566000000E+00 0. -1.
        994    1    1    2    0    0  0.63712312070E+02 -0.15231674369E+01  0.21657737695E+02  0.18395672412E+03  0.17120000000E+03 0.  0.
        998    1    1    2    0    0 -0.17325099742E+02 -0.51492224127E+02  0.11548189134E+04  0.11561394081E+04  0.10000000000E+02 0. -1.
</event>
<event>
 5    1  0.1582292E-008  0.3825024E+03  0.7957747E-01  0.3440334E+00
         13   -1    0    0    0    0  0.00000000000E+00  0.00000000000E+00  0.14999999963E+04  0.15000000000E+04  0.10566000000E+00 0.  1.
        994   -1    0    0    0    0 -0.00000000000E+00 -0.00000000000E+00  0.11368683772E-12  0.17120000000E+03  0.17120000000E+03 0.  0.
         13    1    1    2    0    0 -0.13424003042E+02 -0.43979808671E+01  0.35469772881E+02  0.38179340561E+02  0.10566000000E+00 0.  1.
        994    1    1    2    0    0 -0.47722527324E+01  0.15939826170E+01  0.29592061937E+01  0.17129948067E+03  0.17120000000E+03 0.  0.
        998    1    1    2    0    0  0.18196255775E+02  0.28039982501E+01  0.14615710172E+04  0.14617211788E+04  0.10000000000E+02 0.  1.
</event>
<event>
 5    1  0.1582292E-008  0.3846649E+03  0.7957747E-01  0.3431095E+00
         13   -1    0    0    0    0  0.00000000000E+00  0.00000000000E+00  0.14999999963E+04  0.15000000000E+04  0.10566000000E+00 0.  1.
        994   -1    0    0    0    0 -0.00000000000E+00 -0.00000000000E+00  0.11368683772E-12  0.17120000000E+03  0.17120000000E+03 0.  0.
         13    1    1    2    0    0  0.40355361503E+02 -0.39887706736E+02  0.78067526765E+02  0.96509762459E+02  0.10566000000E+00 0.  1.
        994    1    1    2    0    0  0.23809670083E+02  0.80113206507E+02  0.45147245225E+02  0.19578748683E+03  0.17120000000E+03 0.  0.
        998    1    1    2    0    0 -0.64165031586E+02 -0.40225499771E+02  0.13767852243E+04  0.13789027507E+04  0.10000000000E+02 0.  1.
</event>
<event>
 5    1  0.1582292E-008  0.3851396E+03  0.7957747E-01  0.3429080E+00
         13   -1    0    0    0    0  0.00000000000E+00  0.00000000000E+00  0.14999999963E+04  0.15000000000E+04  0.10566000000E+00 0. -1.
        994   -1    0    0    0    0 -0.00000000000E+00 -0.00000000000E+00  0.11368683772E-12  0.17120000000E+03  0.17120000000E+03 0.  0.
         13    1    1    2    0    0 -0.13230452089E+02 -0.64384146147E+01  0.75921968647E+02  0.77334691650E+02  0.10566000000E+00 0. -1.
        994    1    1    2    0    0  0.11139220881E+01 -0.86198406544E+01  0.18092221734E+01  0.17143003168E+03  0.17120000000E+03 0.  0.
        998    1    1    2    0    0  0.12116530001E+02  0.15058255269E+02  0.14222688055E+04  0.14224352767E+04  0.10000000000E+02 0. -1.
</event>
<event>
 5    1  0.1582292E-008  0.3747949E+03  0.7957747E-01  0.3474140E+00
         13   -1    0    0    0    0  0.00000000000E+00  0.00000000000E+00  0.14999999963E+04  0.15000000000E+04  0.10566000000E+00 0.  1.
        994   -1    0    0    0    0 -0.00000000000E+00 -0.00000000000E+00  0.11368683772E-12  0.17120000000E+03  0.17120000000E+03 0.  0.
         13    1    1    2    0    0  0.22038577107E+02  0.39380531644E+02  0.16340934554E+03  0.16952625321E+03  0.10566000000E+00 0.  1.
        994    1    1    2    0    0  0.59244132404E+02 -0.48011584168E+02  0.26828785623E+02  0.18932565377E+03  0.17120000000E+03 0.  0.
        998    1    1    2    0    0 -0.81282709512E+02  0.86310525243E+01  0.13097618651E+04  0.13123480930E+04  0.10000000000E+02 0.  1.
</event>
<event>
 5    1  0.1582292E-008  0.3836921E+03  0.7957747E-01  0.3435238E+00
         13   -1    0    0    0    0  0.00000000000E+00  0.00000000000E+00  0.14999999963E+04  0.15000000000E+04  0.10566000000E+00 0.  1.
        994   -1    0    0    0    0 -0.00000000000E+00 -0.00000000000E+00  0.11368683772E-12  0.17120000000E+03  0.17120000000E+03 0.  0.
         13    1    1    2    0    0 -0.10982535445E+02 -0.70238902957E+00  0.26368649779E+02  0.28573174313E+02  0.10566000000E+00 0.  1.
        994    1    1    2    0    0  0.20442829882E+01 -0.27129074614E+01  0.23190159667E+01  0.17124939940E+03  0.17120000000E+03 0.  0.
        998    1    1    2    0    0  0.89382524566E+01  0.34152964910E+01  0.14713123305E+04  0.14713774263E+04  0.10000000000E+02 0.  1.
</event>
<event>
 5    1  0.1582292E-008  0.3734101E+03  0.7957747E-01  0.3480364E+00
         13   -1    0    0    0    0  0.00000000000E+00  0.00000000000E+00  0.14999999963E+04  0.15000000000E+04  0.10566000000E+00 0. -1.
        994   -1    0    0    0    0 -0.00000000000E+00 -0.00000000000E+00  0.11368683772E-12  0.17120000000E+03  0.17120000000E+03 0.  0.
         13    1    1    2    0    0 -0.16261107943E+02  0.40871363815E+01  0.15094615603E+02  0.22560738010E+02  0.10566000000E+00 0. -1.
        994    1    1    2    0    0  0.22755814588E+02 -0.18187488869E+01  0.92804923734E+01  0.17296445439E+03  0.17120000000E+03 0.  0.
        998    1    1    2    0    0 -0.64947066457E+01 -0.22683874946E+01  0.14756248883E+04  0.14756748076E+04  0.10000000000E+02 0. -1.
</event>
<event>
 5    1  0.1582292E-008  0.3780948E+03  0.7957747E-01  0.3459496E+00
         13   -1    0    0    0    0  0.00000000000E+00  0.00000000000E+00  0.14999999963E+04  0.15000000000E+04  0.10566000000E+00 0. -1.
        994   -1    0    0    0    0 -0.00000000000E+00 -0.00000000000E+00  0.11368683772E-12  0.17120000000E+03  0.17120000000E+03 0.  0.
         13    1    1    2    0    0 -0.40195309354E+02 -0.93788516595E+01  0.14898566434E+03  0.15459742914E+03  0.10566000000E+00 0. -1.
        994    1    1    2    0    0  0.40968754551E+02  0.11875012329E+02  0.11243334984E+02  0.17679170611E+03  0.17120000000E+03 0.  0.
        998    1    1    2    0    0 -0.77344519726E+00 -0.24961606698E+01  0.13397709970E+04  0.13398108648E+04  0.10000000000E+02 0. -1.
</event>
<event>
 5    1  0.1582292E-008  0.3890511E+03  0.7957747E-01  0.3412671E+00
         13   -1    0    0    0    0  0.00000000000E+00  0.00000000000E+00  0.14999999963E+04  0.15000000000E+04  0.10566000000E+00 0. -1.
        994   -1    0    0    0    0 -0.00000000000E+00 -0.00000000000E+00  0.11368683772E-12  0.17120000000E+03  0.17120000000E+03 0.  0.
         13    1    1    2    0    0  0.85556835298E+02  0.34505435571E+02  0.24998349737E+03  0.26646267520E+03  0.10566000000E+00 0. -1.
        994    1    1    2    0    0  0.14619470510E+02 -0.35031773281E+02  0.26810867263E+02  0.17739565006E+03  0.17120000000E+03 0.  0.
        998    1    1    2    0    0 -0.10017630581E+03  0.52633770949E+00  0.12232056316E+04  0.12273416747E+04  0.10000000000E+02 0. -1.
</event>
<event>
 5    1  0.1582292E-008  0.3842935E+03  0.7957747E-01  0.3432674E+00
         13   -1    0    0    0    0  0.00000000000E+00  0.00000000000E+00  0.14999999963E+04  0.15000000000E+04  0.10566000000E+00 0.  1.
        994   -1    0    0    0    0 -0.00000000000E+00 -0.00000000000E+00  0.11368683772E-12  0.17120000000E+03  0.17120000000E+03 0.  0.
         13    1    1    2    0    0 -0.27550061511E+02  0.22085666694E+03  0.12294468777E+04  0.12494303940E+04  0.10566000000E+00 0.  1.
        994    1    1    2    0    0  0.22515115393E+02 -0.22022364791E+03  0.18496563035E+03  0.33545060729E+03  0.17120000000E+03 0.  0.
        998    1    1    2    0    0  0.50349461183E+01 -0.63301902904E+00  0.85587488265E+02  0.86318998738E+02  0.10000000000E+02 0.  1.
</event>
<event>
 5    1  0.1582292E-008  0.3840397E+03  0.7957747E-01  0.3433755E+00
         13   -1    0    0    0    0  0.00000000000E+00  0.00000000000E+00  0.14999999963E+04  0.15000000000E+04  0.10566000000E+00 0.  1.
        994   -1    0    0    0    0 -0.00000000000E+00 -0.00000000000E+00  0.11368683772E-12  0.17120000000E+03  0.17120000000E+03 0.  0.
         13    1    1    2    0    0  0.11921094867E+02  0.17655546587E+01  0.34747822214E+02  0.36778417566E+02  0.10566000000E+00 0.  1.
        994    1    1    2    0    0 -0.24876478512E+01  0.46209109380E+00  0.21287999519E+01  0.17123192958E+03  0.17120000000E+03 0.  0.
        998    1    1    2    0    0 -0.94334470153E+01 -0.22276457525E+01  0.14631233741E+04  0.14631896528E+04  0.10000000000E+02 0.  1.
</event>
<event>
 5    1  0.1582292E-008  0.3764517E+03  0.7957747E-01  0.3466755E+00
         13   -1    0    0    0    0  0.00000000000E+00  0.00000000000E+00  0.14999999963E+04  0.15000000000E+04  0.10566000000E+00 0.  1.
        994   -1    0    0    0    0 -0.00000000000E+00 -0.00000000000E+00  0.11368683772E-12  0.17120000000E+03  0.17120000000E+03 0.  0.
         13    1    1    2    0    0 -0.84038291315E+02  0.94628859445E+02  0.71227818625E+03  0.72343436552E+03  0.10566000000E+00 0.  1.
        994    1    1    2    0    0  0.86341501686E+02 -0.87579668747E+02  0.58943314025E+02  0.21888080674E+03  0.17120000000E+03 0.  0.
        998    1    1    2    0    0 -0.23032103709E+01 -0.70491906980E+01  0.72877849601E+03  0.72888482774E+03  0.10000000000E+02 0.  1.
</event>
<event>
 5    1  0.1582292E-008  0.3819382E+03  0.7957747E-01  0.3442763E+00
         13   -1    0    0    0    0  0.00000000000E+00  0.00000000000E+00  0.14999999963E+04  0.15000000000E+04  0.10566000000E+00 0.  1.
        994   -1    0    0    0    0 -0.00000000000E+00 -0.00000000000E+00  0.11368683772E-12  0.17120000000E+03  0.17120000000E+03 0.  0.
         13    1    1    2    0    0 -0.10462976699E+02  0.74796258669E+01  0.24449922763E+02  0.27626591749E+02  0.10566000000E+00 0.  1.
        994    1    1    2    0    0  0.12428453013E+02 -0.97321311315E+01  0.39860885494E+01  0.17197240977E+03  0.17120000000E+03 0.  0.
        998    1    1    2    0    0 -0.19654763143E+01  0.22525052647E+01  0.14715639850E+04  0.14716009985E+04  0.10000000000E+02 0.  1.
</event>
<event>
 5    1  0.1582292E-008  0.3817359E+03  0.7957747E-01  0.3443635E+00
         13   -1    0    0    0    0  0.00000000000E+00  0.00000000000E+00  0.14999999963E+04  0.15000000000E+04  0.10566000000E+00 0.  1.
        994   -1    0    0    0    0 -0.00000000000E+00 -0.00000000000E+00  0.11368683772E-12  0.17120000000E+03  0.17120000000E+03 0.  0.
         13    1    1    2    0    0 -0.18618559383E+02  0.16238548527E+02  0.99379314089E+02  0.10240410365E+03  0.10566000000E+00 0.  1.
        994    1    1    2    0    0  0.26093885180E+01 -0.13709310971E+01  0.32883021606E+01  0.17125694524E+03  0.17120000000E+03 0.  0.
        998    1    1    2    0    0  0.16009170865E+02 -0.14867617430E+02  0.13973323800E+04  0.13975389511E+04  0.10000000000E+02 0.  1.
</event>
<event>
 5    1  0.1582292E-008  0.3826844E+03  0.7957747E-01  0.3439553E+00
         13   -1    0    0    0    0  0.00000000000E+00  0.00000000000E+00  0.14999999963E+04  0.15000000000E+04  0.10566000000E+00 0.  1.
        994   -1    0    0    0    0 -0.00000000000E+00 -0.00000000000E+00  0.11368683772E-12  0.17120000000E+03  0.17120000000E+03 0.  0.
         13    1    1    2    0    0 -0.10894753181E+02  0.22336493762E+02  0.11717186164E+03  0.11977842429E+03  0.10566000000E+00 0.  1.
        994    1    1    2    0    0  0.88644816155E+01 -0.22848596475E+01  0.30618866336E+01  0.17147190664E+03  0.17120000000E+03 0.  0.
        998    1    1    2    0    0  0.20302715657E+01 -0.20051634114E+02  0.13797662480E+04  0.13799496691E+04  0.10000000000E+02 0.  1.
</event>
<event>
 5    1  0.1582292E-008  0.3800390E+03  0.7957747E-01  0.3450989E+00
         13   -1    0    0    0    0  0.00000000000E+00  0.00000000000E+00  0.14999999963E+04  0.15000000000E+04  0.10566000000E+00 0.  1.
        994   -1    0    0    0    0 -0.00000000000E+00 -0.00000000000E+00  0.11368683772E-12  0.17120000000E+03  0.17120000000E+03 0.  0.
         13    1    1    2    0    0 -0.22747860395E+02  0.42644821508E+02  0.22990184023E+03  0.23492746382E+03  0.10566000000E+00 0.  1.
        994    1    1    2    0    0  0.42412909387E+02 -0.39526662547E+02  0.15431195935E+02  0.18140775546E+03  0.17120000000E+03 0.  0.
        998    1    1    2    0    0 -0.19665048992E+02 -0.31181589610E+01  0.12546669601E+04  0.12548647807E+04  0.10000000000E+02 0.  1.
</event>
<event>
 5    1  0.1598297E-008  0.3863965E+03  0.7957747E-01  0.3423771E+00
         13   -1    0    0    0    0  0.00000000000E+00  0.00000000000E+00  0.14999999963E+04  0.15000000000E+04  0.10566000000E+00 0. -1.
        994   -1    0    0    0    0 -0.00000000000E+00 -0.00000000000E+00  0.11368683772E-12  0.17120000000E+03  0.17120000000E+03 0.  0.
         13    1    1    2    0    0  0.44634834353E+00  0.12470925964E+02  0.75484838137E+02  0.76509444998E+02  0.10566000000E+00 0. -1.
        994    1    1    2    0    0  0.77619361889E+01 -0.21612473063E+02  0.26667113835E+01  0.17275386535E+03  0.17120000000E+03 0.  0.
        998    1    1    2    0    0 -0.82082845324E+01  0.91415470982E+01  0.14218484468E+04  0.14219366896E+04  0.10000000000E+02 0. -1.
</event>
<event>
 5    1  0.1582292E-008  0.3846081E+03  0.7957747E-01  0.3431336E+00
         13   -1    0    0    0    0  0.00000000000E+00  0.00000000000E+00  0.14999999963E+04  0.15000000000E+04  0.10566000000E+00 0.  1.
        994   -1    0    0    0    0 -0.00000000000E+00 -0.00000000000E+00  0.11368683772E-12  0.17120000000E+03  0.17120000000E+03 0.  0.
         13    1    1    2    0    0 -0.83193894113E+01  0.78909552495E+01  0.35853360103E+02  0.37642449570E+02  0.10566000000E+00 0.  1.
        994    1    1    2    0    0  0.33290708856E+01 -0.63800913965E+01  0.19953795956E+01  0.17136280174E+03  0.17120000000E+03 0.  0.
        998    1    1    2    0    0  0.49903185257E+01 -0.15108638530E+01  0.14621512566E+04  0.14621947487E+04  0.10000000000E+02 0.  1.
</event>
<event>
 5    1  0.1582292E-008  0.3778560E+03  0.7957747E-01  0.3460547E+00
         13   -1    0    0    0    0  0.00000000000E+00  0.00000000000E+00  0.14999999963E+04  0.15000000000E+04  0.10566000000E+00 0. -1.
        994   -1    0    0    0    0 -0.00000000000E+00 -0.00000000000E+00  0.11368683772E-12  0.17120000000E+03  0.17120000000E+03 0.  0.
         13    1    1    2    0    0 -0.70852085333E+00  0.17349973058E+02  0.27231387754E+02  0.32296798758E+02  0.10566000000E+00 0. -1.
        994    1    1    2    0    0  0.63885943565E+01 -0.49953233405E+01  0.54407920463E+01  0.17147830653E+03  0.17120000000E+03 0.  0.
        998    1    1    2    0    0 -0.56800735031E+01 -0.12354649718E+02  0.14673278165E+04  0.14674248947E+04  0.10000000000E+02 0. -1.
</event>
<event>
 5    1  0.1582292E-008  0.3855476E+03  0.7957747E-01  0.3427353E+00
         13   -1    0    0    0    0  0.00000000000E+00  0.00000000000E+00  0.14999999963E+04  0.15000000000E+04  0.10566000000E+00 0.  1.
        994   -1    0    0    0    0 -0.00000000000E+00 -0.00000000000E+00  0.11368683772E-12  0.17120000000E+03  0.17120000000E+03 0.  0.
         13    1    1    2    0    0  0.59813868208E+01 -0.84597440225E+01  0.40130865629E+02  0.41446855096E+02  0.10566000000E+00 0.  1.
        994    1    1    2    0    0 -0.48083342781E+01  0.24865174992E+01  0.14547094291E+01  0.17129173660E+03  0.17120000000E+03 0.  0.
        998    1    1    2    0    0 -0.11730525427E+01  0.59732265233E+01  0.14584144212E+04  0.14584614083E+04  0.10000000000E+02 0.  1.
</event>
<event>
 5    1  0.1582292E-008  0.3650016E+03  0.7957747E-01  0.3519183E+00
         13   -1    0    0    0    0  0.00000000000E+00  0.00000000000E+00  0.14999999963E+04  0.15000000000E+04  0.10566000000E+00 0. -1.
        994   -1    0    0    0    0 -0.00000000000E+00 -0.00000000000E+00  0.11368683772E-12  0.17120000000E+03  0.17120000000E+03 0.  0.
         13    1    1    2    0    0 -0.21845878537E+03 -0.10027723680E+03  0.11657534714E+04  0.11902776703E+04  0.10566000000E+00 0. -1.
        994    1    1    2    0    0  0.18192239652E+03  0.87945595538E+02  0.17659750442E+03  0.31831793021E+03  0.17120000000E+03 0.  0.
        998    1    1    2    0    0  0.36536388849E+02  0.12331641266E+02  0.15764902042E+03  0.16260439947E+03  0.10000000000E+02 0.  1.
</event>
<event>
 5    1  0.1582292E-008  0.3819816E+03  0.7957747E-01  0.3442575E+00
         13   -1    0    0    0    0  0.00000000000E+00  0.00000000000E+00  0.14999999963E+04  0.15000000000E+04  0.10566000000E+00 0.  1.
        994   -1    0    0    0    0 -0.00000000000E+00 -0.00000000000E+00  0.11368683772E-12  0.17120000000E+03  0.17120000000E+03 0.  0.
         13    1    1    2    0    0  0.23832901981E+01 -0.10707741117E+02  0.18066337904E+02  0.21136213504E+02  0.10566000000E+00 0.  1.
        994    1    1    2    0    0 -0.64983754813E+01  0.36352096158E+01  0.33203420741E+01  0.17139401479E+03  0.17120000000E+03 0.  0.
        998    1    1    2    0    0  0.41150852831E+01  0.70725315011E+01  0.14786133163E+04  0.14786697717E+04  0.10000000000E+02 0.  1.
</event>
<event>
 5    1  0.1582292E-008  0.3808197E+03  0.7957747E-01  0.3447597E+00
         13   -1    0    0    0    0  0.00000000000E+00  0.00000000000E+00  0.14999999963E+04  0.15000000000E+04  0.10566000000E+00 0.  1.
        994   -1    0    0    0    0 -0.00000000000E+00 -0.00000000000E+00  0.11368683772E-12  0.17120000000E+03  0.17120000000E+03 0.  0.
         13    1    1    2    0    0  0.20587062617E+01  0.14405130429E+02  0.25920428278E+02  0.29725844316E+02  0.10566000000E+00 0.  1.
        994    1    1    2    0    0 -0.47977287719E+01 -0.22888790985E+02  0.55453955406E+01  0.17287887773E+03  0.17120000000E+03 0.  0.
        998    1    1    2    0    0  0.27390225102E+01  0.84836605558E+01  0.14685341725E+04  0.14685952780E+04  0.10000000000E+02 0.  1.
</event>
<event>
 5    1  0.1582292E-008  0.3761143E+03  0.7957747E-01  0.3468254E+00
         13   -1    0    0    0    0  0.00000000000E+00  0.00000000000E+00  0.14999999963E+04  0.15000000000E+04  0.10566000000E+00 0. -1.
        994   -1    0    0    0    0 -0.00000000000E+00 -0.00000000000E+00  0.11368683772E-12  0.17120000000E+03  0.17120000000E+03 0.  0.
         13    1    1    2    0    0 -0.68567052309E+01 -0.57899802566E+02  0.29612069507E+03  0.30180602837E+03  0.10566000000E+00 0. -1.
        994    1    1    2    0    0  0.13744868840E+02  0.23181722473E+02  0.85711519342E+01  0.17352008046E+03  0.17120000000E+03 0.  0.
        998    1    1    2    0    0 -0.68881636088E+01  0.34718080093E+02  0.11953081493E+04  0.11958738912E+04  0.10000000000E+02 0. -1.
</event>
<event>
 5    1  0.1582292E-008  0.3831315E+03  0.7957747E-01  0.3437636E+00
         13   -1    0    0    0    0  0.00000000000E+00  0.00000000000E+00  0.14999999963E+04  0.15000000000E+04  0.10566000000E+00 0. -1.
        994   -1    0    0    0    0 -0.00000000000E+00 -0.00000000000E+00  0.11368683772E-12  0.17120000000E+03  0.17120000000E+03 0.  0.
         13    1    1    2    0    0  0.74095089771E+01 -0.78711644036E+01  0.22334349876E+02  0.24813109454E+02  0.10566000000E+00 0. -1.
        994    1    1    2    0    0 -0.35740732418E+01 -0.13523470985E+01  0.26089918584E+01  0.17126251686E+03  0.17120000000E+03 0.  0.
        998    1    1    2    0    0 -0.38354357353E+01  0.92235115021E+01  0.14750566545E+04  0.14751243737E+04  0.10000000000E+02 0. -1.
</event>
<event>
 5    1  0.1582292E-008  0.3838265E+03  0.7957747E-01  0.3434665E+00
         13   -1    0    0    0    0  0.00000000000E+00  0.00000000000E+00  0.14999999963E+04  0.15000000000E+04  0.10566000000E+00 0. -1.
        994   -1    0    0    0    0 -0.00000000000E+00 -0.00000000000E+00  0.11368683772E-12  0.17120000000E+03  0.17120000000E+03 0.  0.
         13    1    1    2    0    0 -0.62093371589E+00 -0.13843620596E+02  0.42799370944E+02  0.44986983752E+02  0.10566000000E+00 0. -1.
        994    1    1    2    0    0 -0.49948237429E+01  0.95802178938E+01  0.25993376917E+01  0.17156026753E+03  0.17120000000E+03 0.  0.
        998    1    1    2    0    0  0.56157574588E+01  0.42634027023E+01  0.14546012876E+04  0.14546527487E+04  0.10000000000E+02 0. -1.
</event>
<event>
 5    1  0.1582292E-008  0.3827143E+03  0.7957747E-01  0.3439424E+00
         13   -1    0    0    0    0  0.00000000000E+00  0.00000000000E+00  0.14999999963E+04  0.15000000000E+04  0.10566000000E+00 0.  1.
        994   -1    0    0    0    0 -0.00000000000E+00 -0.00000000000E+00  0.11368683772E-12  0.17120000000E+03  0.17120000000E+03 0.  0.
         13    1    1    2    0    0 -0.10390633690E+02  0.70123974049E+01  0.27275125461E+02  0.30018038224E+02  0.10566000000E+00 0.  1.
        994    1    1    2    0    0  0.71558016440E+01 -0.69275411660E+01  0.30979372170E+01  0.17151744383E+03  0.17120000000E+03 0.  0.
        998    1    1    2    0    0  0.32348320463E+01 -0.84856238846E-01  0.14696269336E+04  0.14696645179E+04  0.10000000000E+02 0.  1.
</event>
<event>
 5    1  0.1582292E-008  0.3714467E+03  0.7957747E-01  0.3489268E+00
         13   -1    0    0    0    0  0.00000000000E+00  0.00000000000E+00  0.14999999963E+04  0.15000000000E+04  0.10566000000E+00 0.  1.
        994   -1    0    0    0    0 -0.00000000000E+00 -0.00000000000E+00  0.11368683772E-12  0.17120000000E+03  0.17120000000E+03 0.  0.
         13    1    1    2    0    0  0.22938889990E+03 -0.62431037920E+02  0.12432541133E+04  0.12657794845E+04  0.10566000000E+00 0.  1.
        994    1    1    2    0    0 -0.20305447789E+03  0.41776677117E+02  0.18725157952E+03  0.32764158127E+03  0.17120000000E+03 0.  0.
        998    1    1    2    0    0 -0.26334422007E+02  0.20654360803E+02  0.69494303438E+02  0.77778934250E+02  0.10000000000E+02 0.  1.
</event>
<event>
 5    1  0.2393436E-008  0.3861534E+03  0.7957747E-01  0.3424795E+00
         13   -1    0    0    0    0  0.00000000000E+00  0.00000000000E+00  0.14999999963E+04  0.15000000000E+04  0.10566000000E+00 0. -1.
        994   -1    0    0    0    0 -0.00000000000E+00 -0.00000000000E+00  0.11368683772E-12  0.17120000000E+03  0.17120000000E+03 0.  0.
         13    1    1    2    0    0 -0.49707802476E+01  0.95507088514E+01  0.56122460762E+02  0.57146010025E+02  0.10566000000E+00 0. -1.
        994    1    1    2    0    0  0.21065370920E+01 -0.54641803173E+01  0.11709656706E+01  0.17130413283E+03  0.17120000000E+03 0.  0.
        998    1    1    2    0    0  0.28642431556E+01 -0.40865285341E+01  0.14427065698E+04  0.14427498571E+04  0.10000000000E+02 0. -1.
</event>
<event>
 5    1  0.1582292E-008  0.3797047E+03  0.7957747E-01  0.3452445E+00
         13   -1    0    0    0    0  0.00000000000E+00  0.00000000000E+00  0.14999999963E+04  0.15000000000E+04  0.10566000000E+00 0.  1.
        994   -1    0    0    0    0 -0.00000000000E+00 -0.00000000000E+00  0.11368683772E-12  0.17120000000E+03  0.17120000000E+03 0.  0.
         13    1    1    2    0    0  0.18249489631E+02 -0.43250339025E+01  0.40563368719E+02  0.44689460010E+02  0.10566000000E+00 0.  1.
        994    1    1    2    0    0 -0.35120921683E+01  0.28722511875E+01  0.43511765387E+01  0.17131537396E+03  0.17120000000E+03 0.  0.
        998    1    1    2    0    0 -0.14737397463E+02  0.14527827150E+01  0.14550854510E+04  0.14551951660E+04  0.10000000000E+02 0.  1.
</event>
<event>
 5    1  0.1582292E-008  0.3781646E+03  0.7957747E-01  0.3459189E+00
         13   -1    0    0    0    0  0.00000000000E+00  0.00000000000E+00  0.14999999963E+04  0.15000000000E+04  0.10566000000E+00 0.  1.
        994   -1    0    0    0    0 -0.00000000000E+00 -0.00000000000E+00  0.11368683772E-12  0.17120000000E+03  0.17120000000E+03 0.  0.
         13    1    1    2    0    0 -0.43314650179E+01  0.10716751201E+02  0.10919194017E+02  0.15901267481E+02  0.10566000000E+00 0.  1.
        994    1    1    2    0    0  0.29569025097E+00 -0.98974649267E+01  0.53923579621E+01  0.17157087389E+03  0.17120000000E+03 0.  0.
        998    1    1    2    0    0  0.40357747669E+01 -0.81928627391E+00  0.14836884443E+04  0.14837278586E+04  0.10000000000E+02 0.  1.
</event>
<event>
 5    1  0.1582292E-008  0.3830016E+03  0.7957747E-01  0.3438192E+00
         13   -1    0    0    0    0  0.00000000000E+00  0.00000000000E+00  0.14999999963E+04  0.15000000000E+04  0.10566000000E+00 0.  1.
        994   -1    0    0    0    0 -0.00000000000E+00 -0.00000000000E+00  0.11368683772E-12  0.17120000000E+03  0.17120000000E+03 0.  0.
         13    1    1    2    0    0  0.24598840240E+02 -0.56331436021E+01  0.13227770720E+03  0.13466342575E+03  0.10566000000E+00 0.  1.
        994    1    1    2    0    0  0.14017942255E+01  0.21338566319E+02  0.41407494658E+01  0.17258008357E+03  0.17120000000E+03 0.  0.
        998    1    1    2    0    0 -0.26000634466E+02 -0.15705422717E+02  0.13635815396E+04  0.13639564907E+04  0.10000000000E+02 0.  1.
</event>
<event>
 5    1  0.1582292E-008  0.3850471E+03  0.7957747E-01  0.3429472E+00
         13   -1    0    0    0    0  0.00000000000E+00  0.00000000000E+00  0.14999999963E+04  0.15000000000E+04  0.10566000000E+00 0. -1.
        994   -1    0    0    0    0 -0.00000000000E+00 -0.00000000000E+00  0.11368683772E-12  0.17120000000E+03  0.17120000000E+03 0.  0.
         13    1    1    2    0    0 -0.10409247014E+02 -0.46876623857E+01  0.40657651773E+02  0.42230112642E+02  0.10566000000E+00 0. -1.
        994    1    1    2    0    0  0.76214302413E+01 -0.55933656519E+00  0.17987844149E+01  0.17137991330E+03  0.17120000000E+03 0.  0.
        998    1    1    2    0    0  0.27878167729E+01  0.52469989509E+01  0.14575435601E+04  0.14575899741E+04  0.10000000000E+02 0. -1.
</event>
<event>
 5    1  0.1582292E-008  0.3830350E+03  0.7957747E-01  0.3438049E+00
         13   -1    0    0    0    0  0.00000000000E+00  0.00000000000E+00  0.14999999963E+04  0.15000000000E+04  0.10566000000E+00 0. -1.
        994   -1    0    0    0    0 -0.00000000000E+00 -0.00000000000E+00  0.11368683772E-12  0.17120000000E+03  0.17120000000E+03 0.  0.
         13    1    1    2    0    0  0.65636750492E+01 -0.83604816883E+01  0.20734699599E+02  0.23300609771E+02  0.10566000000E+00 0. -1.
        994    1    1    2    0    0 -0.30111726713E+01  0.62877343625E+01  0.27697725082E+01  0.17136427400E+03  0.17120000000E+03 0.  0.
        998    1    1    2    0    0 -0.35525023779E+01  0.20727473258E+01  0.14764955242E+04  0.14765351162E+04  0.10000000000E+02 0. -1.
</event>
<event>
 5    1  0.1582292E-008  0.3360369E+03  0.7957747E-01  0.3668195E+00
         13   -1    0    0    0    0  0.00000000000E+00  0.00000000000E+00  0.14999999963E+04  0.15000000000E+04  0.10566000000E+00 0. -1.
        994   -1    0    0    0    0 -0.00000000000E+00 -0.00000000000E+00  0.11368683772E-12  0.17120000000E+03  0.17120000000E+03 0.  0.
         13    1    1    2    0    0 -0.18545173818E+03 -0.94292660997E+02  0.90909365702E+03  0.93259570099E+03  0.10566000000E+00 0. -1.
        994    1    1    2    0    0  0.17608636844E+03  0.77534365187E+02  0.15176846650E+03  0.29893326071E+03  0.17120000000E+03 0.  0.
        998    1    1    2    0    0  0.93653697392E+01  0.16758295809E+02  0.43913787275E+03  0.43967103830E+03  0.10000000000E+02 0.  1.
</event>
<event>
 5    1  0.1582292E-008  0.3937893E+03  0.7957747E-01  0.3393230E+00
         13   -1    0    0    0    0  0.00000000000E+00  0.00000000000E+00  0.14999999963E+04  0.15000000000E+04  0.10566000000E+00 0. -1.
        994   -1    0    0    0    0 -0.00000000000E+00 -0.00000000000E+00  0.11368683772E-12  0.17120000000E+03  0.17120000000E+03 0.  0.
         13    1    1    2    0    0 -0.19002887929E+02  0.76332487737E+00 -0.34146367329E+01  0.19322611691E+02  0.10566000000E+00 0. -1.
        994    1    1    2    0    0  0.29395351553E+02 -0.23127503796E+02  0.29477581701E+02  0.17770012928E+03  0.17120000000E+03 0.  0.
        998    1    1    2    0    0 -0.10392463624E+02  0.22364178919E+02  0.14739370513E+04  0.14741772590E+04  0.10000000000E+02 0. -1.
</event>
<event>
 5    1  0.1582292E-008  0.3741278E+03  0.7957747E-01  0.3477133E+00
         13   -1    0    0    0    0  0.00000000000E+00  0.00000000000E+00  0.14999999963E+04  0.15000000000E+04  0.10566000000E+00 0. -1.
        994   -1    0    0    0    0 -0.00000000000E+00 -0.00000000000E+00  0.11368683772E-12  0.17120000000E+03  0.17120000000E+03 0.  0.
         13    1    1    2    0    0 -0.17896444627E+03 -0.25239941221E+03  0.93184772862E+03  0.98187266833E+03  0.10566000000E+00 0. -1.
        994    1    1    2    0    0  0.17437940166E+03  0.25006607527E+03  0.44627399403E+03  0.56693133223E+03  0.17120000000E+03 0.  0.
        998    1    1    2    0    0  0.45850446103E+01  0.23333369383E+01  0.12187827363E+03  0.12239599944E+03  0.10000000000E+02 0.  0.
</event>
<event>
 5    1  0.1582292E-008  0.3799018E+03  0.7957747E-01  0.3451586E+00
         13   -1    0    0    0    0  0.00000000000E+00  0.00000000000E+00  0.14999999963E+04  0.15000000000E+04  0.10566000000E+00 0. -1.
        994   -1    0    0    0    0 -0.00000000000E+00 -0.00000000000E+00  0.11368683772E-12  0.17120000000E+03  0.17120000000E+03 0.  0.
         13    1    1    2    0    0  0.40568882084E+02 -0.25656717280E+02  0.23404516087E+03  0.23891682617E+03  0.10566000000E+00 0. -1.
        994    1    1    2    0    0 -0.42512572956E+02  0.21882185223E+02  0.11865808530E+02  0.17814709176E+03  0.17120000000E+03 0.  0.
        998    1    1    2    0    0  0.19436908720E+01  0.37745320573E+01  0.12540890269E+04  0.12541360821E+04  0.10000000000E+02 0.  0.
</event>
<event>
 5    1  0.1582292E-008  0.3686991E+03  0.7957747E-01  0.3501891E+00
         13   -1    0    0    0    0  0.00000000000E+00  0.00000000000E+00  0.14999999963E+04  0.15000000000E+04  0.10566000000E+00 0.  1.
        994   -1    0    0    0    0 -0.00000000000E+00 -0.00000000000E+00  0.11368683772E-12  0.17120000000E+03  0.17120000000E+03 0.  0.
         13    1    1    2    0    0  0.53088064800E+02  0.31649675300E+00  0.14859441813E+03  0.15779339358E+03  0.10566000000E+00 0.  1.
        994    1    1    2    0    0 -0.16267598304E+02  0.22143010422E+02  0.12577231223E+02  0.17384641040E+03  0.17120000000E+03 0.  0.
        998    1    1    2    0    0 -0.36820466496E+02 -0.22459507175E+02  0.13388283469E+04  0.13395601960E+04  0.10000000000E+02 0.  1.
</event>
<event>
 5    1  0.1582292E-008  0.3763649E+03  0.7957747E-01  0.3467141E+00
         13   -1    0    0    0    0  0.00000000000E+00  0.00000000000E+00  0.14999999963E+04  0.15000000000E+04  0.10566000000E+00 0. -1.
        994   -1    0    0    0    0 -0.00000000000E+00 -0.00000000000E+00  0.11368683772E-12  0.17120000000E+03  0.17120000000E+03 0.  0.
         13    1    1    2    0    0 -0.22208753887E+02  0.11436915371E+02  0.15439444334E+02  0.29366977846E+02  0.10566000000E+00 0. -1.
        994    1    1    2    0    0  0.23209182763E+02 -0.79987278170E+01  0.16502599238E+02  0.17373664436E+03  0.17120000000E+03 0.  0.
        998    1    1    2    0    0 -0.10004288760E+01 -0.34381875539E+01  0.14680579527E+04  0.14680963778E+04  0.10000000000E+02 0. -1.
</event>
<event>
 5    1  0.1582292E-008  0.3809553E+03  0.7957747E-01  0.3447009E+00
         13   -1    0    0    0    0  0.00000000000E+00  0.00000000000E+00  0.14999999963E+04  0.15000000000E+04  0.10566000000E+00 0. -1.
        994   -1    0    0    0    0 -0.00000000000E+00 -0.00000000000E+00  0.11368683772E-12  0.17120000000E+03  0.17120000000E+03 0.  0.
         13    1    1    2    0    0  0.25815350423E+02  0.25046334860E+02  0.18116756045E+03  0.18470367438E+03  0.10566000000E+00 0. -1.
        994    1    1    2    0    0 -0.12275455899E+02 -0.11737607248E+02  0.46135243409E+01  0.17210224533E+03  0.17120000000E+03 0.  0.
        998    1    1    2    0    0 -0.13539894525E+02 -0.13308727612E+02  0.13142189115E+04  0.13143940803E+04  0.10000000000E+02 0. -1.
</event>
<event>
 5    1  0.1582292E-008  0.3850512E+03  0.7957747E-01  0.3429455E+00
         13   -1    0    0    0    0  0.00000000000E+00  0.00000000000E+00  0.14999999963E+04  0.15000000000E+04  0.10566000000E+00 0.  1.
        994   -1    0    0    0    0 -0.00000000000E+00 -0.00000000000E+00  0.11368683772E-12  0.17120000000E+03  0.17120000000E+03 0.  0.
         13    1    1    2    0    0  0.14832677651E+02 -0.67151430427E+01  0.85132678330E+02  0.86675749527E+02  0.10566000000E+00 0.  1.
        994    1    1    2    0    0  0.63978604711E+00  0.18431394267E+02  0.27238671297E+01  0.17221203522E+03  0.17120000000E+03 0.  0.
        998    1    1    2    0    0 -0.15472463698E+02 -0.11716251224E+02  0.14121434508E+04  0.14123122153E+04  0.10000000000E+02 0.  1.
</event>
<event>
 5    1  0.1582292E-008  0.3820152E+03  0.7957747E-01  0.3442430E+00
         13   -1    0    0    0    0  0.00000000000E+00  0.00000000000E+00  0.14999999963E+04  0.15000000000E+04  0.10566000000E+00 0.  1.
        994   -1    0    0    0    0 -0.00000000000E+00 -0.00000000000E+00  0.11368683772E-12  0.17120000000E+03  0.17120000000E+03 0.  0.
         13    1    1    2    0    0 -0.42428347201E+01 -0.25012860894E+02  0.10010573020E+03  0.10327058264E+03  0.10566000000E+00 0.  1.
        994    1    1    2    0    0 -0.83789305195E+01  0.20916175977E+02  0.48070769402E+01  0.17274328028E+03  0.17120000000E+03 0.  0.
        998    1    1    2    0    0  0.12621765240E+02  0.40966849164E+01  0.13950871891E+04  0.13951861371E+04  0.10000000000E+02 0.  1.
</event>
<event>
 5    1  0.1582292E-008  0.3803075E+03  0.7957747E-01  0.3449821E+00
         13   -1    0    0    0    0  0.00000000000E+00  0.00000000000E+00  0.14999999963E+04  0.15000000000E+04  0.10566000000E+00 0.  1.
        994   -1    0    0    0    0 -0.00000000000E+00 -0.00000000000E+00  0.11368683772E-12  0.17120000000E+03  0.17120000000E+03 0.  0.
         13    1    1    2    0    0  0.39724470663E+02 -0.37525371300E+01  0.19778387427E+03  0.20176864769E+03  0.10566000000E+00 0.  1.
        994    1    1    2    0    0 -0.23217762135E+02  0.66776424176E+01  0.59295779053E+01  0.17299784762E+03  0.17120000000E+03 0.  0.
        998    1    1    2    0    0 -0.16506708528E+02 -0.29251052876E+01  0.12962865441E+04  0.12964335047E+04  0.10000000000E+02 0.  1.
</event>
<event>
 5    1  0.1582292E-008  0.3827941E+03  0.7957747E-01  0.3439082E+00
         13   -1    0    0    0    0  0.00000000000E+00  0.00000000000E+00  0.14999999963E+04  0.15000000000E+04  0.10566000000E+00 0. -1.
        994   -1    0    0    0    0 -0.00000000000E+00 -0.00000000000E+00  0.11368683772E-12  0.17120000000E+03  0.17120000000E+03 0.  0.
         13    1    1    2    0    0  0.28983729973E+02  0.18473688132E+02  0.18946310123E+03  0.19255547681E+03  0.10566000000E+00 0. -1.
        994    1    1    2    0    0 -0.33795563195E+02 -0.12803102120E+02  0.70674754922E+01  0.17511552965E+03  0.17120000000E+03 0.  0.
        998    1    1    2    0    0  0.48118332219E+01 -0.56705860121E+01  0.13034694196E+04  0.13035289935E+04  0.10000000000E+02 0. -1.
</event>
<event>
 5    1  0.1582292E-008  0.3856643E+03  0.7957747E-01  0.3426860E+00
         13   -1    0    0    0    0  0.00000000000E+00  0.00000000000E+00  0.14999999963E+04  0.15000000000E+04  0.10566000000E+00 0.  1.
        994   -1    0    0    0    0 -0.00000000000E+00 -0.00000000000E+00  0.11368683772E-12  0.17120000000E+03  0.17120000000E+03 0.  0.
         13    1    1    2    0    0  0.11279762261E+02  0.55482814783E+00  0.51454104781E+02  0.52678998983E+02  0.10566000000E+00 0.  1.
        994    1    1    2    0    0 -0.11546457849E+01  0.29384537636E+01  0.13333732226E+01  0.17123430031E+03  0.17120000000E+03 0.  0.
        998    1    1    2    0    0 -0.10125116476E+02 -0.34932819115E+01  0.14472125183E+04  0.14472867007E+04  0.10000000000E+02 0.  1.
</event>
<event>
 5    1  0.1582292E-008  0.3831112E+03  0.7957747E-01  0.3437723E+00
         13   -1    0    0    0    0  0.00000000000E+00  0.00000000000E+00  0.14999999963E+04  0.15000000000E+04  0.10566000000E+00 0.  1.
        994   -1    0    0    0    0 -0.00000000000E+00 -0.00000000000E+00  0.11368683772E-12  0.17120000000E+03  0.17120000000E+03 0.  0.
         13    1    1    2    0    0 -0.47694622780E+01  0.15756716387E+02  0.51309137749E+02  0.53885625749E+02  0.10566000000E+00 0.  1.
        994    1    1    2    0    0  0.44308100564E+01 -0.12837321364E+02  0.31813157389E+01  0.17176725435E+03  0.17120000000E+03 0.  0.
        998    1    1    2    0    0  0.33865222155E+00 -0.29193950233E+01  0.14455095428E+04  0.14455471199E+04  0.10000000000E+02 0.  1.
</event>
<event>
 5    1  0.1582292E-008  0.4022081E+03  0.7957747E-01  0.3359816E+00
         13   -1    0    0    0    0  0.00000000000E+00  0.00000000000E+00  0.14999999963E+04  0.15000000000E+04  0.10566000000E+00 0.  1.
        994   -1    0    0    0    0 -0.00000000000E+00 -0.00000000000E+00  0.11368683772E-12  0.17120000000E+03  0.17120000000E+03 0.  0.
         13    1    1    2    0    0 -0.49112078826E+02 -0.50361340132E-02  0.30042073429E+02  0.57571986695E+02  0.10566000000E+00 0.  1.
        994    1    1    2    0    0  0.47406766942E+02 -0.28793399885E+00  0.38034700026E+02  0.18166882744E+03  0.17120000000E+03 0.  0.
        998    1    1    2    0    0  0.17053118847E+01  0.29297013287E+00  0.14319232228E+04  0.14319591859E+04  0.10000000000E+02 0.  1.
</event>
<event>
 5    1  0.1582292E-008  0.3685973E+03  0.7957747E-01  0.3502362E+00
         13   -1    0    0    0    0  0.00000000000E+00  0.00000000000E+00  0.14999999963E+04  0.15000000000E+04  0.10566000000E+00 0. -1.
        994   -1    0    0    0    0 -0.00000000000E+00 -0.00000000000E+00  0.11368683772E-12  0.17120000000E+03  0.17120000000E+03 0.  0.
         13    1    1    2    0    0 -0.87369623022E+00  0.32676677688E+02  0.54436364771E+02  0.63496910030E+02  0.10566000000E+00 0. -1.
        994    1    1    2    0    0  0.74161403510E+01  0.10996668918E+02  0.10615590218E+02  0.17204085742E+03  0.17120000000E+03 0.  0.
        998    1    1    2    0    0 -0.65424441208E+01 -0.43673346606E+02  0.14349480413E+04  0.14356622326E+04  0.10000000000E+02 0. -1.
</event>
<event>
 5    1  0.1582292E-008  0.3828526E+03  0.7957747E-01  0.3438831E+00
         13   -1    0    0    0    0  0.00000000000E+00  0.00000000000E+00  0.14999999963E+04  0.15000000000E+04  0.10566000000E+00 0. -1.
        994   -1    0    0    0    0 -0.00000000000E+00 -0.00000000000E+00  0.11368683772E-12  0.17120000000E+03  0.17120000000E+03 0.  0.
         13    1    1    2    0    0 -0.94804430937E+00 -0.34044395333E+02  0.19387117436E+03  0.19683994273E+03  0.10566000000E+00 0. -1.
        994    1    1    2    0    0 -0.11537295864E+02  0.31852324054E+02  0.65101196296E+01  0.17464106448E+03  0.17120000000E+03 0.  0.
        998    1    1    2    0    0  0.12485340173E+02  0.21920712793E+01  0.12996187023E+04  0.12997189928E+04  0.10000000000E+02 0. -1.
</event>
<event>
 5    1  0.1582292E-008  0.3854855E+03  0.7957747E-01  0.3427616E+00
         13   -1    0    0    0    0  0.00000000000E+00  0.00000000000E+00  0.14999999963E+04  0.15000000000E+04  0.10566000000E+00 0.  1.
        994   -1    0    0    0    0 -0.00000000000E+00 -0.00000000000E+00  0.11368683772E-12  0.17120000000E+03  0.17120000000E+03 0.  0.
         13    1    1    2    0    0  0.16509184110E+01 -0.99399478113E+01  0.36895387477E+02  0.38246684500E+02  0.10566000000E+00 0.  1.
        994    1    1    2    0    0 -0.89777102730E+00  0.52527117808E+01  0.14825419672E+01  0.17128933097E+03  0.17120000000E+03 0.  0.
        998    1    1    2    0    0 -0.75314738372E+00  0.46872360305E+01  0.14616220668E+04  0.14616639845E+04  0.10000000000E+02 0.  1.
</event>
<event>
 5    1  0.1582292E-008  0.3687758E+03  0.7957747E-01  0.3501536E+00
         13   -1    0    0    0    0  0.00000000000E+00  0.00000000000E+00  0.14999999963E+04  0.15000000000E+04  0.10566000000E+00 0. -1.
        994   -1    0    0    0    0 -0.00000000000E+00 -0.00000000000E+00  0.11368683772E-12  0.17120000000E+03  0.17120000000E+03 0.  0.
         13    1    1    2    0    0 -0.56295110622E+01  0.62795087987E+02  0.17813036917E+03  0.18895860408E+03  0.10566000000E+00 0. -1.
        994    1    1    2    0    0  0.29996791459E+02 -0.56878170749E+02  0.24408814115E+02  0.18449976697E+03  0.17120000000E+03 0.  0.
        998    1    1    2    0    0 -0.24367280397E+02 -0.59169172378E+01  0.12974608130E+04  0.12977416289E+04  0.10000000000E+02 0. -1.
</event>
<event>
 5    1  0.1582292E-008  0.3854961E+03  0.7957747E-01  0.3427571E+00
         13   -1    0    0    0    0  0.00000000000E+00  0.00000000000E+00  0.14999999963E+04  0.15000000000E+04  0.10566000000E+00 0. -1.
        994   -1    0    0    0    0 -0.00000000000E+00 -0.00000000000E+00  0.11368683772E-12  0.17120000000E+03  0.17120000000E+03 0.  0.
         13    1    1    2    0    0 -0.12168269077E+02  0.74540910141E+01  0.73793593127E+02  0.75160733071E+02  0.10566000000E+00 0. -1.
        994    1    1    2    0    0  0.67364676188E+01 -0.74942855788E+01  0.17175024533E+01  0.17150490992E+03  0.17120000000E+03 0.  0.
        998    1    1    2    0    0  0.54318014586E+01  0.40194564672E-01  0.14244889007E+04  0.14245343570E+04  0.10000000000E+02 0. -1.
</event>
<event>
 5    1  0.1582292E-008  0.3751187E+03  0.7957747E-01  0.3472692E+00
         13   -1    0    0    0    0  0.00000000000E+00  0.00000000000E+00  0.14999999963E+04  0.15000000000E+04  0.10566000000E+00 0.  1.
        994   -1    0    0    0    0 -0.00000000000E+00 -0.00000000000E+00  0.11368683772E-12  0.17120000000E+03  0.17120000000E+03 0.  0.
         13    1    1    2    0    0 -0.20478977520E+02 -0.19538617947E+02  0.23486558758E+02  0.36780099482E+02  0.10566000000E+00 0.  1.
        994    1    1    2    0    0  0.14718106798E+02  0.19127664846E+02  0.15747709179E+02  0.17360852679E+03  0.17120000000E+03 0.  0.
        998    1    1    2    0    0  0.57608707222E+01  0.41095310102E+00  0.14607657283E+04  0.14608113737E+04  0.10000000000E+02 0.  1.
</event>
<event>
 5    1  0.1582292E-008  0.3916200E+03  0.7957747E-01  0.3402072E+00
         13   -1    0    0    0    0  0.00000000000E+00  0.00000000000E+00  0.14999999963E+04  0.15000000000E+04  0.10566000000E+00 0. -1.
        994   -1    0    0    0    0 -0.00000000000E+00 -0.00000000000E+00  0.11368683772E-12  0.17120000000E+03  0.17120000000E+03 0.  0.
         13    1    1    2    0    0 -0.46972673721E+02  0.22656752483E+02  0.50310140552E+02  0.72462969274E+02  0.10566000000E+00 0. -1.
        994    1    1    2    0    0  0.37519332959E+02 -0.29725058972E+02  0.31587770814E+02  0.18055056561E+03  0.17120000000E+03 0.  0.
        998    1    1    2    0    0  0.94533407619E+01  0.70683064884E+01  0.14181020849E+04  0.14181864651E+04  0.10000000000E+02 0. -1.
</event>
<event>
 5    1  0.1582292E-008  0.3780123E+03  0.7957747E-01  0.3459859E+00
         13   -1    0    0    0    0  0.00000000000E+00  0.00000000000E+00  0.14999999963E+04  0.15000000000E+04  0.10566000000E+00 0.  1.
        994   -1    0    0    0    0 -0.00000000000E+00 -0.00000000000E+00  0.11368683772E-12  0.17120000000E+03  0.17120000000E+03 0.  0.
         13    1    1    2    0    0  0.17894806682E+02 -0.13127762527E+02  0.50595068295E+02  0.55248840304E+02  0.10566000000E+00 0.  1.
        994    1    1    2    0    0  0.30016772608E+02  0.18805716763E+02  0.93734983607E+01  0.17507702331E+03  0.17120000000E+03 0.  0.
        998    1    1    2    0    0 -0.47911579289E+02 -0.56779542362E+01  0.14400314296E+04  0.14408741364E+04  0.10000000000E+02 0.  1.
</event>
<event>
 5    1  0.1582292E-008  0.3811649E+03  0.7957747E-01  0.3446102E+00
         13   -1    0    0    0    0  0.00000000000E+00  0.00000000000E+00  0.14999999963E+04  0.15000000000E+04  0.10566000000E+00 0. -1.
        994   -1    0    0    0    0 -0.00000000000E+00 -0.00000000000E+00  0.11368683772E-12  0.17120000000E+03  0.17120000000E+03 0.  0.
         13    1    1    2    0    0 -0.43910637986E+01 -0.17671413212E+02  0.43762813995E+02  0.47399950833E+02  0.10566000000E+00 0. -1.
        994    1    1    2    0    0 -0.58201431476E+00  0.22963847408E+02  0.53054643450E+01  0.17281569657E+03  0.17120000000E+03 0.  0.
        998    1    1    2    0    0  0.49730781134E+01 -0.52924341965E+01  0.14509317179E+04  0.14509843526E+04  0.10000000000E+02 0. -1.
</event>
<event>
 5    1  0.1582292E-008  0.3699662E+03  0.7957747E-01  0.3496046E+00
         13   -1    0    0    0    0  0.00000000000E+00  0.00000000000E+00  0.14999999963E+04  0.15000000000E+04  0.10566000000E+00 0.  1.
        994   -1    0    0    0    0 -0.00000000000E+00 -0.00000000000E+00  0.11368683772E-12  0.17120000000E+03  0.17120000000E+03 0.  0.
         13    1    1    2    0    0 -0.41498668287E+02  0.34931692056E+02  0.11416223647E+03  0.12639378932E+03  0.10566000000E+00 0.  1.
        994    1    1    2    0    0  0.39992449053E+02 -0.61671093803E+02  0.30053226876E+02  0.18872031220E+03  0.17120000000E+03 0.  0.
        998    1    1    2    0    0  0.15062192339E+01  0.26739401747E+02  0.13557845329E+04  0.13560858985E+04  0.10000000000E+02 0.  1.
</event>
<event>
 5    1  0.1582292E-008  0.3855352E+03  0.7957747E-01  0.3427406E+00
         13   -1    0    0    0    0  0.00000000000E+00  0.00000000000E+00  0.14999999963E+04  0.15000000000E+04  0.10566000000E+00 0. -1.
        994   -1    0    0    0    0 -0.00000000000E+00 -0.00000000000E+00  0.11368683772E-12  0.17120000000E+03  0.17120000000E+03 0.  0.
         13    1    1    2    0    0 -0.11340345697E+02 -0.38346391776E+01  0.53272692207E+02  0.54601271021E+02  0.10566000000E+00 0. -1.
        994    1    1    2    0    0  0.62307810040E+01  0.18999597210E+01  0.15039815683E+01  0.17133048310E+03  0.17120000000E+03 0.  0.
        998    1    1    2    0    0  0.51095646926E+01  0.19346794566E+01  0.14452233225E+04  0.14452682459E+04  0.10000000000E+02 0. -1.
</event>
<event>
 5    1  0.1582292E-008  0.3859074E+03  0.7957747E-01  0.3425833E+00
         13   -1    0    0    0    0  0.00000000000E+00  0.00000000000E+00  0.14999999963E+04  0.15000000000E+04  0.10566000000E+00 0. -1.
        994   -1    0    0    0    0 -0.00000000000E+00 -0.00000000000E+00  0.11368683772E-12  0.17120000000E+03  0.17120000000E+03 0.  0.
         13    1    1    2    0    0 -0.42484828299E+00  0.10008018716E+02  0.44885804621E+02  0.45990081052E+02  0.10566000000E+00 0. -1.
        994    1    1    2    0    0 -0.46337178510E+01  0.21924197275E+00  0.12508390734E+01  0.17126740497E+03  0.17120000000E+03 0.  0.
        998    1    1    2    0    0  0.50585661340E+01 -0.10227260689E+02  0.14538633526E+04  0.14539425140E+04  0.10000000000E+02 0. -1.
</event>
<event>
 5    1  0.1582292E-008  0.3687661E+03  0.7957747E-01  0.3501581E+00
         13   -1    0    0    0    0  0.00000000000E+00  0.00000000000E+00  0.14999999963E+04  0.15000000000E+04  0.10566000000E+00 0. -1.
        994   -1    0    0    0    0 -0.00000000000E+00 -0.00000000000E+00  0.11368683772E-12  0.17120000000E+03  0.17120000000E+03 0.  0.
         13    1    1    2    0    0  0.44159598364E+02  0.14258190724E+02  0.98126464060E+02  0.10854575184E+03  0.10566000000E+00 0. -1.
        994    1    1    2    0    0 -0.44868074550E+02 -0.17626260844E+02  0.18028531914E+02  0.17876883718E+03  0.17120000000E+03 0.  0.
        998    1    1    2    0    0  0.70847618660E+00  0.33680701206E+01  0.13838450003E+04  0.13838854110E+04  0.10000000000E+02 0. -1.
</event>
<event>
 5    1  0.1582292E-008  0.3010323E+03  0.7957747E-01  0.3888677E+00
         13   -1    0    0    0    0  0.00000000000E+00  0.00000000000E+00  0.14999999963E+04  0.15000000000E+04  0.10566000000E+00 0.  1.
        994   -1    0    0    0    0 -0.00000000000E+00 -0.00000000000E+00  0.11368683772E-12  0.17120000000E+03  0.17120000000E+03 0.  0.
         13    1    1    2    0    0  0.65721089312E+01  0.18191632244E+03  0.66091663175E+03  0.68552720316E+03  0.10566000000E+00 0.  1.
        994    1    1    2    0    0 -0.51871944364E+01 -0.17650901077E+03  0.13321319749E+03  0.27970973143E+03  0.17120000000E+03 0.  0.
        998    1    1    2    0    0 -0.13849144948E+01 -0.54073116693E+01  0.70587016704E+03  0.70596306541E+03  0.10000000000E+02 0.  0.
</event>
<event>
 5    1  0.1582292E-008  0.3826744E+03  0.7957747E-01  0.3439596E+00
         13   -1    0    0    0    0  0.00000000000E+00  0.00000000000E+00  0.14999999963E+04  0.15000000000E+04  0.10566000000E+00 0.  1.
        994   -1    0    0    0    0 -0.00000000000E+00 -0.00000000000E+00  0.11368683772E-12  0.17120000000E+03  0.17120000000E+03 0.  0.
         13    1    1    2    0    0  0.17959841686E+02  0.95828261940E+01  0.74204024894E+02  0.76945662294E+02  0.10566000000E+00 0.  1.
        994    1    1    2    0    0 -0.10996208678E+02 -0.27691333927E+01  0.32153956322E+01  0.17160525480E+03  0.17120000000E+03 0.  0.
        998    1    1    2    0    0 -0.69636330083E+01 -0.68136928012E+01  0.14225805758E+04  0.14226490829E+04  0.10000000000E+02 0.  1.
</event>
<event>
 5    1  0.1582292E-008  0.3709273E+03  0.7957747E-01  0.3491640E+00
         13   -1    0    0    0    0  0.00000000000E+00  0.00000000000E+00  0.14999999963E+04  0.15000000000E+04  0.10566000000E+00 0.  1.
        994   -1    0    0    0    0 -0.00000000000E+00 -0.00000000000E+00  0.11368683772E-12  0.17120000000E+03  0.17120000000E+03 0.  0.
         13    1    1    2    0    0  0.21922988515E+02 -0.73547700752E+01  0.26466470644E+02  0.35145345363E+02  0.10566000000E+00 0.  1.
        994    1    1    2    0    0 -0.20453253189E+02  0.48168168093E+01  0.10308462356E+02  0.17279248157E+03  0.17120000000E+03 0.  0.
        998    1    1    2    0    0 -0.14697353265E+01  0.25379532659E+01  0.14632250633E+04  0.14632621731E+04  0.10000000000E+02 0.  1.
</event>
<event>
 5    1  0.1582292E-008  0.3819512E+03  0.7957747E-01  0.3442706E+00
         13   -1    0    0    0    0  0.00000000000E+00  0.00000000000E+00  0.14999999963E+04  0.15000000000E+04  0.10566000000E+00 0. -1.
        994   -1    0    0    0    0 -0.00000000000E+00 -0.00000000000E+00  0.11368683772E-12  0.17120000000E+03  0.17120000000E+03 0.  0.
         13    1    1    2    0    0 -0.38598472515E+01 -0.53313082401E+02  0.25513516495E+03  0.26067440751E+03  0.10566000000E+00 0. -1.
        994    1    1    2    0    0  0.29194304521E+02  0.95227834849E+02  0.36834893728E+02  0.20146190047E+03  0.17120000000E+03 0.  0.
        998    1    1    2    0    0 -0.25334457270E+02 -0.41914752448E+02  0.12080299376E+04  0.12090636920E+04  0.10000000000E+02 0. -1.
</event>
<event>
 5    1  0.1582292E-008  0.3707101E+03  0.7957747E-01  0.3492634E+00
         13   -1    0    0    0    0  0.00000000000E+00  0.00000000000E+00  0.14999999963E+04  0.15000000000E+04  0.10566000000E+00 0.  1.
        994   -1    0    0    0    0 -0.00000000000E+00 -0.00000000000E+00  0.11368683772E-12  0.17120000000E+03  0.17120000000E+03 0.  0.
         13    1    1    2    0    0  0.22965260987E+02 -0.57014126750E+02  0.22239886215E+03  0.23073638402E+03  0.10566000000E+00 0.  1.
        994    1    1    2    0    0 -0.29592196144E+02  0.15794258366E+02  0.12789168862E+02  0.17492329608E+03  0.17120000000E+03 0.  0.
        998    1    1    2    0    0  0.66269351573E+01  0.41219868384E+02  0.12648119653E+04  0.12655403199E+04  0.10000000000E+02 0.  1.
</event>
<event>
 5    1  0.1582292E-008  0.3823189E+03  0.7957747E-01  0.3441123E+00
         13   -1    0    0    0    0  0.00000000000E+00  0.00000000000E+00  0.14999999963E+04  0.15000000000E+04  0.10566000000E+00 0.  1.
        994   -1    0    0    0    0 -0.00000000000E+00 -0.00000000000E+00  0.11368683772E-12  0.17120000000E+03  0.17120000000E+03 0.  0.
         13    1    1    2    0    0 -0.23578901229E+02 -0.48130462028E+01  0.10930046667E+03  0.11191842196E+03  0.10566000000E+00 0.  1.
        994    1    1    2    0    0 -0.62030731207E+01  0.83161230457E+01  0.33243052905E+01  0.17154628246E+03  0.17120000000E+03 0.  0.
        998    1    1    2    0    0  0.29781974350E+02 -0.35030768429E+01  0.13873752243E+04  0.13877352956E+04  0.10000000000E+02 0.  1.
</event>
<event>
 5    1  0.1582292E-008  0.3751009E+03  0.7957747E-01  0.3472772E+00
         13   -1    0    0    0    0  0.00000000000E+00  0.00000000000E+00  0.14999999963E+04  0.15000000000E+04  0.10566000000E+00 0. -1.
        994   -1    0    0    0    0 -0.00000000000E+00 -0.00000000000E+00  0.11368683772E-12  0.17120000000E+03  0.17120000000E+03 0.  0.
         13    1    1    2    0    0  0.59279400559E+02 -0.82113731143E+02  0.54002871743E+03  0.54944311715E+03  0.10566000000E+00 0. -1.
        994    1    1    2    0    0 -0.53875272862E+02  0.74767379532E+02  0.36056286572E+02  0.19774276692E+03  0.17120000000E+03 0.  0.
        998    1    1    2    0    0 -0.54041276966E+01  0.73463516113E+01  0.92391499228E+03  0.92401411593E+03  0.10000000000E+02 0.  0.
</event>
<event>
 5    1  0.1582292E-008  0.3835235E+03  0.7957747E-01  0.3435959E+00
         13   -1    0    0    0    0  0.00000000000E+00  0.00000000000E+00  0.14999999963E+04  0.15000000000E+04  0.10566000000E+00 0. -1.
        994   -1    0    0    0    0 -0.00000000000E+00 -0.00000000000E+00  0.11368683772E-12  0.17120000000E+03  0.17120000000E+03 0.  0.
         13    1    1    2    0    0 -0.12388159393E+02 -0.14366064216E+02  0.78010454106E+02  0.80283824075E+02  0.10566000000E+00 0. -1.
        994    1    1    2    0    0 -0.16141151515E+01  0.10100350313E+02  0.27107787863E+01  0.17152670569E+03  0.17120000000E+03 0.  0.
        998    1    1    2    0    0  0.14002274544E+02  0.42657139031E+01  0.14192787634E+04  0.14193894702E+04  0.10000000000E+02 0. -1.
</event>
<event>
 5    1  0.1582292E-008  0.3832599E+03  0.7957747E-01  0.3437086E+00
         13   -1    0    0    0    0  0.00000000000E+00  0.00000000000E+00  0.14999999963E+04  0.15000000000E+04  0.10566000000E+00 0.  1.
        994   -1    0    0    0    0 -0.00000000000E+00 -0.00000000000E+00  0.11368683772E-12  0.17120000000E+03  0.17120000000E+03 0.  0.
         13    1    1    2    0    0 -0.21160111333E+02 -0.20101807111E+02  0.15944068089E+03  0.16209002082E+03  0.10566000000E+00 0.  1.
        994    1    1    2    0    0  0.15967089057E+02  0.19731192167E+02  0.46302282000E+01  0.17313332114E+03  0.17120000000E+03 0.  0.
        998    1    1    2    0    0  0.51930222757E+01  0.37061494438E+00  0.13359290872E+04  0.13359766580E+04  0.10000000000E+02 0.  1.
</event>
<event>
 5    1  0.1582292E-008  0.3775008E+03  0.7957747E-01  0.3462113E+00
         13   -1    0    0    0    0  0.00000000000E+00  0.00000000000E+00  0.14999999963E+04  0.15000000000E+04  0.10566000000E+00 0. -1.
        994   -1    0    0    0    0 -0.00000000000E+00 -0.00000000000E+00  0.11368683772E-12  0.17120000000E+03  0.17120000000E+03 0.  0.
         13    1    1    2    0    0  0.44654082198E+02 -0.42304793426E+01  0.15353687533E+03  0.15995457875E+03  0.10566000000E+00 0. -1.
        994    1    1    2    0    0 -0.57916149404E+02  0.16831252168E+02  0.17761284036E+02  0.18238002802E+03  0.17120000000E+03 0.  0.
        998    1    1    2    0    0  0.13262067206E+02 -0.12600772825E+02  0.13287018369E+04  0.13288653932E+04  0.10000000000E+02 0. -1.
</event>
<event>
 5    1  0.1582292E-008  0.3852903E+03  0.7957747E-01  0.3428442E+00
         13   -1    0    0    0    0  0.00000000000E+00  0.00000000000E+00  0.14999999963E+04  0.15000000000E+04  0.10566000000E+00 0.  1.
        994   -1    0    0    0    0 -0.00000000000E+00 -0.00000000000E+00  0.11368683772E-12  0.17120000000E+03  0.17120000000E+03 0.  0.
         13    1    1    2    0    0 -0.11287083936E+02 -0.81062235656E+01  0.67655726734E+02  0.69068210113E+02  0.10566000000E+00 0.  1.
        994    1    1    2    0    0  0.33644097605E+01  0.15729442161E+01  0.15314008460E+01  0.17124712726E+03  0.17120000000E+03 0.  0.
        998    1    1    2    0    0  0.79226741752E+01  0.65332793495E+01  0.14308128687E+04  0.14308846626E+04  0.10000000000E+02 0.  1.
</event>
<event>
 5    1  0.1582292E-008  0.3858299E+03  0.7957747E-01  0.3426160E+00
         13   -1    0    0    0    0  0.00000000000E+00  0.00000000000E+00  0.14999999963E+04  0.15000000000E+04  0.10566000000E+00 0.  1.
        994   -1    0    0    0    0 -0.00000000000E+00 -0.00000000000E+00  0.11368683772E-12  0.17120000000E+03  0.17120000000E+03 0.  0.
         13    1    1    2    0    0  0.22177057264E+01 -0.11561651347E+02  0.54240680337E+02  0.55503626620E+02  0.10566000000E+00 0.  1.
        994    1    1    2    0    0  0.92147865944E+01  0.18705968980E+02  0.26461130166E+01  0.17248555731E+03  0.17120000000E+03 0.  0.
        998    1    1    2    0    0 -0.11432492321E+02 -0.71443176331E+01  0.14431132029E+04  0.14432108161E+04  0.10000000000E+02 0.  1.
</event>
<event>
 5    1  0.1617724E-008  0.3838833E+03  0.7957747E-01  0.3434422E+00
         13   -1    0    0    0    0  0.00000000000E+00  0.00000000000E+00  0.14999999963E+04  0.15000000000E+04  0.10566000000E+00 0.  1.
        994   -1    0    0    0    0 -0.00000000000E+00 -0.00000000000E+00  0.11368683772E-12  0.17120000000E+03  0.17120000000E+03 0.  0.
         13    1    1    2    0    0 -0.10252507594E+02  0.38222225684E+01  0.26148334028E+02  0.28345543456E+02  0.10566000000E+00 0.  1.
        994    1    1    2    0    0  0.13040583580E+02 -0.37226519461E+01  0.27928423022E+01  0.17175900246E+03  0.17120000000E+03 0.  0.
        998    1    1    2    0    0 -0.27880759864E+01 -0.99570622369E-01  0.14710588199E+04  0.14710954541E+04  0.10000000000E+02 0.  1.
</event>
<event>
 5    1  0.1582292E-008  0.3844286E+03  0.7957747E-01  0.3432099E+00
         13   -1    0    0    0    0  0.00000000000E+00  0.00000000000E+00  0.14999999963E+04  0.15000000000E+04  0.10566000000E+00 0. -1.
        994   -1    0    0    0    0 -0.00000000000E+00 -0.00000000000E+00  0.11368683772E-12  0.17120000000E+03  0.17120000000E+03 0.  0.
         13    1    1    2    0    0 -0.12075830364E+02  0.11899632507E+02  0.90319071889E+02  0.91896533360E+02  0.10566000000E+00 0. -1.
        994    1    1    2    0    0 -0.10755865343E+02  0.10860027653E+02  0.26841954751E+01  0.17190193060E+03  0.17120000000E+03 0.  0.
        998    1    1    2    0    0  0.22831695707E+02 -0.22759660159E+02  0.14069967289E+04  0.14074015360E+04  0.10000000000E+02 0. -1.
</event>
<event>
 5    1  0.1582292E-008  0.3870502E+03  0.7957747E-01  0.3421023E+00
         13   -1    0    0    0    0  0.00000000000E+00  0.00000000000E+00  0.14999999963E+04  0.15000000000E+04  0.10566000000E+00 0. -1.
        994   -1    0    0    0    0 -0.00000000000E+00 -0.00000000000E+00  0.11368683772E-12  0.17120000000E+03  0.17120000000E+03 0.  0.
         13    1    1    2    0    0 -0.37309919013E+02 -0.10663053724E+01  0.26990724328E+02  0.46061669832E+02  0.10566000000E+00 0. -1.
        994    1    1    2    0    0  0.19934322852E+02 -0.65610449875E+01  0.21895099880E+02  0.17386563760E+03  0.17120000000E+03 0.  0.
        998    1    1    2    0    0  0.17375596161E+02  0.76273503599E+01  0.14511141721E+04  0.14512726926E+04  0.10000000000E+02 0. -1.
</event>
<event>
 5    1  0.1582292E-008  0.3685552E+03  0.7957747E-01  0.3502558E+00
         13   -1    0    0    0    0  0.00000000000E+00  0.00000000000E+00  0.14999999963E+04  0.15000000000E+04  0.10566000000E+00 0. -1.
        994   -1    0    0    0    0 -0.00000000000E+00 -0.00000000000E+00  0.11368683772E-12  0.17120000000E+03  0.17120000000E+03 0.  0.
         13    1    1    2    0    0 -0.33177938274E+02  0.73655475671E+02  0.47551185592E+03  0.48232503664E+03  0.10566000000E+00 0. -1.
        994    1    1    2    0    0 -0.96193045087E+02 -0.78207457467E+02  0.65719384625E+02  0.22135488665E+03  0.17120000000E+03 0.  0.
        998    1    1    2    0    0  0.12937098336E+03  0.45519817966E+01  0.95876875573E+03  0.96752007671E+03  0.10000000000E+02 0. -1.
</event>
<event>
 5    1  0.1582292E-008  0.3849158E+03  0.7957747E-01  0.3430029E+00
         13   -1    0    0    0    0  0.00000000000E+00  0.00000000000E+00  0.14999999963E+04  0.15000000000E+04  0.10566000000E+00 0.  1.
        994   -1    0    0    0    0 -0.00000000000E+00 -0.00000000000E+00  0.11368683772E-12  0.17120000000E+03  0.17120000000E+03 0.  0.
         13    1    1    2    0    0 -0.69081593593E+01 -0.15947912749E+02  0.90503146312E+02  0.92156873011E+02  0.10566000000E+00 0.  1.
        994    1    1    2    0    0  0.43519745295E+01  0.10023932316E+02  0.20648786197E+01  0.17156084234E+03  0.17120000000E+03 0.  0.
        998    1    1    2    0    0  0.25561848298E+01  0.59239804333E+01  0.14074319713E+04  0.14074822846E+04  0.10000000000E+02 0.  1.
</event>
<event>
 5    1  0.1582292E-008  0.3767453E+03  0.7957747E-01  0.3465454E+00
         13   -1    0    0    0    0  0.00000000000E+00  0.00000000000E+00  0.14999999963E+04  0.15000000000E+04  0.10566000000E+00 0. -1.
        994   -1    0    0    0    0 -0.00000000000E+00 -0.00000000000E+00  0.11368683772E-12  0.17120000000E+03  0.17120000000E+03 0.  0.
         13    1    1    2    0    0 -0.64266337670E+01 -0.88138758086E+01  0.76006477479E+01  0.13295376586E+02  0.10566000000E+00 0. -1.
        994    1    1    2    0    0  0.14938554719E+01  0.12298102681E+02  0.63040113940E+01  0.17176337064E+03  0.17120000000E+03 0.  0.
        998    1    1    2    0    0  0.49327782951E+01 -0.34842268729E+01  0.14860953371E+04  0.14861412528E+04  0.10000000000E+02 0. -1.
</event>
<event>
 5    1  0.1582292E-008  0.3801600E+03  0.7957747E-01  0.3450462E+00
         13   -1    0    0    0    0  0.00000000000E+00  0.00000000000E+00  0.14999999963E+04  0.15000000000E+04  0.10566000000E+00 0.  1.
        994   -1    0    0    0    0 -0.00000000000E+00 -0.00000000000E+00  0.11368683772E-12  0.17120000000E+03  0.17120000000E+03 0.  0.
         13    1    1    2    0    0 -0.33369893104E+02  0.18702471717E+02  0.18335901534E+03  0.18730689225E+03  0.10566000000E+00 0.  1.
        994    1    1    2    0    0  0.11759590406E+02 -0.18112126442E+02  0.56120600026E+01  0.17264782741E+03  0.17120000000E+03 0.  0.
        998    1    1    2    0    0  0.21610302699E+02 -0.59034527451E+00  0.13110289209E+04  0.13112452803E+04  0.10000000000E+02 0.  1.
</event>
<event>
 5    1  0.1582292E-008  0.3801925E+03  0.7957747E-01  0.3450321E+00
         13   -1    0    0    0    0  0.00000000000E+00  0.00000000000E+00  0.14999999963E+04  0.15000000000E+04  0.10566000000E+00 0.  1.
        994   -1    0    0    0    0 -0.00000000000E+00 -0.00000000000E+00  0.11368683772E-12  0.17120000000E+03  0.17120000000E+03 0.  0.
         13    1    1    2    0    0 -0.19424638877E+02  0.33865457881E+01  0.45184512405E+02  0.49299458549E+02  0.10566000000E+00 0.  1.
        994    1    1    2    0    0  0.21635692573E+02 -0.26890270839E+01  0.56256211507E+01  0.17267432256E+03  0.17120000000E+03 0.  0.
        998    1    1    2    0    0 -0.22110536958E+01 -0.69751870424E+00  0.14491898627E+04  0.14492262189E+04  0.10000000000E+02 0.  1.
</event>
<event>
 5    1  0.1582292E-008  0.3833834E+03  0.7957747E-01  0.3436558E+00
         13   -1    0    0    0    0  0.00000000000E+00  0.00000000000E+00  0.14999999963E+04  0.15000000000E+04  0.10566000000E+00 0. -1.
        994   -1    0    0    0    0 -0.00000000000E+00 -0.00000000000E+00  0.11368683772E-12  0.17120000000E+03  0.17120000000E+03 0.  0.
         13    1    1    2    0    0 -0.29784382067E+01 -0.24941173754E+02  0.12248327761E+03  0.12503238660E+03  0.10566000000E+00 0. -1.
        994    1    1    2    0    0 -0.41788401704E+01  0.23157107455E+02  0.42676014692E+01  0.17286227684E+03  0.17120000000E+03 0.  0.
        998    1    1    2    0    0  0.71572783771E+01  0.17840662995E+01  0.13732491172E+04  0.13733053366E+04  0.10000000000E+02 0. -1.
</event>
<event>
 5    1  0.1582292E-008  0.3798011E+03  0.7957747E-01  0.3452025E+00
         13   -1    0    0    0    0  0.00000000000E+00  0.00000000000E+00  0.14999999963E+04  0.15000000000E+04  0.10566000000E+00 0.  1.
        994   -1    0    0    0    0 -0.00000000000E+00 -0.00000000000E+00  0.11368683772E-12  0.17120000000E+03  0.17120000000E+03 0.  0.
         13    1    1    2    0    0 -0.33351572066E+02 -0.17145347743E+01  0.14544965436E+03  0.14923431276E+03  0.10566000000E+00 0.  1.
        994    1    1    2    0    0  0.16159857402E+01  0.17590053862E+02  0.52780074710E+01  0.17218977544E+03  0.17120000000E+03 0.  0.
        998    1    1    2    0    0  0.31735586325E+02 -0.15875519088E+02  0.13492723344E+04  0.13497759118E+04  0.10000000000E+02 0.  1.
</event>
<event>
 5    1  0.1582292E-008  0.3816238E+03  0.7957747E-01  0.3444119E+00
         13   -1    0    0    0    0  0.00000000000E+00  0.00000000000E+00  0.14999999963E+04  0.15000000000E+04  0.10566000000E+00 0.  1.
        994   -1    0    0    0    0 -0.00000000000E+00 -0.00000000000E+00  0.11368683772E-12  0.17120000000E+03  0.17120000000E+03 0.  0.
         13    1    1    2    0    0  0.29632772891E+01 -0.34478492032E+02  0.16462672859E+03  0.16822460687E+03  0.10566000000E+00 0.  1.
        994    1    1    2    0    0 -0.50680863064E+01  0.31895787328E+02  0.67916075548E+01  0.17435192193E+03  0.17120000000E+03 0.  0.
        998    1    1    2    0    0  0.21048090173E+01  0.25827047038E+01  0.13285816601E+04  0.13286234712E+04  0.10000000000E+02 0.  0.
</event>
<event>
 5    1  0.1582292E-008  0.3926375E+03  0.7957747E-01  0.3397913E+00
         13   -1    0    0    0    0  0.00000000000E+00  0.00000000000E+00  0.14999999963E+04  0.15000000000E+04  0.10566000000E+00 0. -1.
        994   -1    0    0    0    0 -0.00000000000E+00 -0.00000000000E+00  0.11368683772E-12  0.17120000000E+03  0.17120000000E+03 0.  0.
         13    1    1    2    0    0  0.18652193034E+02  0.15325969782E+02  0.22459821808E+01  0.24245520302E+02  0.10566000000E+00 0. -1.
        994    1    1    2    0    0 -0.15624188770E+02 -0.15136317008E+02  0.25250660663E+02  0.17441404540E+03  0.17120000000E+03 0.  0.
        998    1    1    2    0    0 -0.30280042645E+01 -0.18965277418E+00  0.14725033534E+04  0.14725404343E+04  0.10000000000E+02 0. -1.
</event>
<event>
 5    1  0.1582292E-008  0.3793595E+03  0.7957747E-01  0.3453952E+00
         13   -1    0    0    0    0  0.00000000000E+00  0.00000000000E+00  0.14999999963E+04  0.15000000000E+04  0.10566000000E+00 0.  1.
        994   -1    0    0    0    0 -0.00000000000E+00 -0.00000000000E+00  0.11368683772E-12  0.17120000000E+03  0.17120000000E+03 0.  0.
         13    1    1    2    0    0 -0.12933197982E+02 -0.11328138641E+02  0.30775181274E+02  0.35252195415E+02  0.10566000000E+00 0.  1.
        994    1    1    2    0    0  0.13640076586E+02  0.11916949070E+02  0.55565786313E+01  0.17224511874E+03  0.17120000000E+03 0.  0.
        998    1    1    2    0    0 -0.70687860424E+00 -0.58881042955E+00  0.14636682364E+04  0.14637026858E+04  0.10000000000E+02 0.  0.
</event>
<event>
 5    1  0.1582292E-008  0.3815338E+03  0.7957747E-01  0.3444507E+00
         13   -1    0    0    0    0  0.00000000000E+00  0.00000000000E+00  0.14999999963E+04  0.15000000000E+04  0.10566000000E+00 0.  1.
        994   -1    0    0    0    0 -0.00000000000E+00 -0.00000000000E+00  0.11368683772E-12  0.17120000000E+03  0.17120000000E+03 0.  0.
         13    1    1    2    0    0  0.22813366709E+02 -0.25945771014E+01  0.73796139463E+02  0.77285593060E+02  0.10566000000E+00 0.  1.
        994    1    1    2    0    0 -0.23283683967E+02  0.81652017658E+01  0.53884508137E+01  0.17305281235E+03  0.17120000000E+03 0.  0.
        998    1    1    2    0    0  0.47031725769E+00 -0.55706246645E+01  0.14208154060E+04  0.14208615946E+04  0.10000000000E+02 0.  1.
</event>
<event>
 5    1  0.1582292E-008  0.3836379E+03  0.7957747E-01  0.3435470E+00
         13   -1    0    0    0    0  0.00000000000E+00  0.00000000000E+00  0.14999999963E+04  0.15000000000E+04  0.10566000000E+00 0. -1.
        994   -1    0    0    0    0 -0.00000000000E+00 -0.00000000000E+00  0.11368683772E-12  0.17120000000E+03  0.17120000000E+03 0.  0.
         13    1    1    2    0    0 -0.71148140272E+01  0.14382789634E+02  0.55383177444E+02  0.57661015635E+02  0.10566000000E+00 0. -1.
        994    1    1    2    0    0  0.11291278838E+02 -0.55174544252E+01  0.28297792720E+01  0.17168396236E+03  0.17120000000E+03 0.  0.
        998    1    1    2    0    0 -0.41764648108E+01 -0.88653352086E+01  0.14417870396E+04  0.14418550220E+04  0.10000000000E+02 0. -1.
</event>
<event>
 5    1  0.1582292E-008  0.3805712E+03  0.7957747E-01  0.3448675E+00
         13   -1    0    0    0    0  0.00000000000E+00  0.00000000000E+00  0.14999999963E+04  0.15000000000E+04  0.10566000000E+00 0.  1.
        994   -1    0    0    0    0 -0.00000000000E+00 -0.00000000000E+00  0.11368683772E-12  0.17120000000E+03  0.17120000000E+03 0.  0.
         13    1    1    2    0    0 -0.20484008908E+02  0.10760626604E+01  0.56758757544E+02  0.60351638368E+02  0.10566000000E+00 0.  1.
        994    1    1    2    0    0 -0.17830287457E+01  0.36018271163E+01  0.38989876595E+01  0.17129154811E+03  0.17120000000E+03 0.  0.
        998    1    1    2    0    0  0.22267037653E+02 -0.46778897767E+01  0.14393422511E+04  0.14395568135E+04  0.10000000000E+02 0.  1.
</event>
<event>
 5    1  0.1582292E-008  0.3785637E+03  0.7957747E-01  0.3457436E+00
         13   -1    0    0    0    0  0.00000000000E+00  0.00000000000E+00  0.14999999963E+04  0.15000000000E+04  0.10566000000E+00 0.  1.
        994   -1    0    0    0    0 -0.00000000000E+00 -0.00000000000E+00  0.11368683772E-12  0.17120000000E+03  0.17120000000E+03 0.  0.
         13    1    1    2    0    0  0.54658223436E+02 -0.98166216679E+01  0.94736178056E+02  0.10981275903E+03  0.10566000000E+00 0.  1.
        994    1    1    2    0    0 -0.27958330241E+02  0.37356275791E+02  0.23429814446E+02  0.17898479202E+03  0.17120000000E+03 0.  0.
        998    1    1    2    0    0 -0.26699893194E+02 -0.27539654123E+02  0.13818340038E+04  0.13824024489E+04  0.10000000000E+02 0.  1.
</event>
<event>
 5    1  0.1582292E-008  0.3832135E+03  0.7957747E-01  0.3437285E+00
         13   -1    0    0    0    0  0.00000000000E+00  0.00000000000E+00  0.14999999963E+04  0.15000000000E+04  0.10566000000E+00 0.  1.
        994   -1    0    0    0    0 -0.00000000000E+00 -0.00000000000E+00  0.11368683772E-12  0.17120000000E+03  0.17120000000E+03 0.  0.
         13    1    1    2    0    0  0.22431767398E+02  0.26656635637E+01  0.98903892316E+02  0.10145087989E+03  0.10566000000E+00 0.  1.
        994    1    1    2    0    0 -0.15258220537E+02 -0.14392123233E+02  0.39763296424E+01  0.17252593342E+03  0.17120000000E+03 0.  0.
        998    1    1    2    0    0 -0.71735468614E+01  0.11726459669E+02  0.13971197743E+04  0.13972231867E+04  0.10000000000E+02 0.  1.
</event>
<event>
 5    1  0.1582292E-008  0.3834989E+03  0.7957747E-01  0.3436063E+00
         13   -1    0    0    0    0  0.00000000000E+00  0.00000000000E+00  0.14999999963E+04  0.15000000000E+04  0.10566000000E+00 0.  1.
        994   -1    0    0    0    0 -0.00000000000E+00 -0.00000000000E+00  0.11368683772E-12  0.17120000000E+03  0.17120000000E+03 0.  0.
         13    1    1    2    0    0  0.27146901196E+01  0.15543190118E+02  0.53767447103E+02  0.56034898353E+02  0.10566000000E+00 0.  1.
        994    1    1    2    0    0 -0.22790625612E+01 -0.21703833600E+01  0.24099536979E+01  0.17124588336E+03  0.17120000000E+03 0.  0.
        998    1    1    2    0    0 -0.43562755837E+00 -0.13372806758E+02  0.14438225955E+04  0.14439192183E+04  0.10000000000E+02 0.  1.
</event>
<event>
 5    1  0.1665974E-008  0.3862974E+03  0.7957747E-01  0.3424188E+00
         13   -1    0    0    0    0  0.00000000000E+00  0.00000000000E+00  0.14999999963E+04  0.15000000000E+04  0.10566000000E+00 0.  1.
        994   -1    0    0    0    0 -0.00000000000E+00 -0.00000000000E+00  0.11368683772E-12  0.17120000000E+03  0.17120000000E+03 0.  0.
         13    1    1    2    0    0  0.42873006873E+01 -0.95306111450E+01  0.57444148707E+02  0.58387112283E+02  0.10566000000E+00 0.  1.
        994    1    1    2    0    0 -0.34742699408E+01  0.31633165228E+01  0.10596808550E+01  0.17126774374E+03  0.17120000000E+03 0.  0.
        998    1    1    2    0    0 -0.81303074652E+00  0.63672946223E+01  0.14414961667E+04  0.14415451440E+04  0.10000000000E+02 0.  1.
</event>
<event>
 5    1  0.1582292E-008  0.3827457E+03  0.7957747E-01  0.3439290E+00
         13   -1    0    0    0    0  0.00000000000E+00  0.00000000000E+00  0.14999999963E+04  0.15000000000E+04  0.10566000000E+00 0.  1.
        994   -1    0    0    0    0 -0.00000000000E+00 -0.00000000000E+00  0.11368683772E-12  0.17120000000E+03  0.17120000000E+03 0.  0.
         13    1    1    2    0    0  0.16633942550E+02  0.26954746674E+02  0.17161617714E+03  0.17451466939E+03  0.10566000000E+00 0.  1.
        994    1    1    2    0    0 -0.42455620076E+02 -0.58781641967E+01  0.88633394994E+01  0.17670605897E+03  0.17120000000E+03 0.  0.
        998    1    1    2    0    0  0.25821677526E+02 -0.21076582477E+02  0.13195204796E+04  0.13199792716E+04  0.10000000000E+02 0.  1.
</event>
<event>
 5    1  0.1582292E-008  0.3843219E+03  0.7957747E-01  0.3432553E+00
         13   -1    0    0    0    0  0.00000000000E+00  0.00000000000E+00  0.14999999963E+04  0.15000000000E+04  0.10566000000E+00 0. -1.
        994   -1    0    0    0    0 -0.00000000000E+00 -0.00000000000E+00  0.11368683772E-12  0.17120000000E+03  0.17120000000E+03 0.  0.
         13    1    1    2    0    0  0.22040473827E+02 -0.40576327603E+01  0.12017376813E+03  0.12224562398E+03  0.10566000000E+00 0. -1.
        994    1    1    2    0    0 -0.21887143474E+02 -0.12076627941E+01  0.35524572319E+01  0.17263419549E+03  0.17120000000E+03 0.  0.
        998    1    1    2    0    0 -0.15333035342E+00  0.52652955544E+01  0.13762737709E+04  0.13763201805E+04  0.10000000000E+02 0. -1.
</event>
<event>
 5    1  0.1582292E-008  0.3802501E+03  0.7957747E-01  0.3450070E+00
         13   -1    0    0    0    0  0.00000000000E+00  0.00000000000E+00  0.14999999963E+04  0.15000000000E+04  0.10566000000E+00 0.  1.
        994   -1    0    0    0    0 -0.00000000000E+00 -0.00000000000E+00  0.11368683772E-12  0.17120000000E+03  0.17120000000E+03 0.  0.
         13    1    1    2    0    0 -0.12868046134E+02  0.22734203698E+02  0.85668302036E+02  0.89562825808E+02  0.10566000000E+00 0.  1.
        994    1    1    2    0    0  0.62563820351E+01 -0.97047325677E+01  0.44523836388E+01  0.17164669490E+03  0.17120000000E+03 0.  0.
        998    1    1    2    0    0  0.66116640992E+01 -0.13029471130E+02  0.14098793106E+04  0.14099904793E+04  0.10000000000E+02 0.  1.
</event>
<event>
 5    1  0.1582292E-008  0.3793437E+03  0.7957747E-01  0.3454021E+00
         13   -1    0    0    0    0  0.00000000000E+00  0.00000000000E+00  0.14999999963E+04  0.15000000000E+04  0.10566000000E+00 0. -1.
        994   -1    0    0    0    0 -0.00000000000E+00 -0.00000000000E+00  0.11368683772E-12  0.17120000000E+03  0.17120000000E+03 0.  0.
         13    1    1    2    0    0 -0.65990096646E+01 -0.75729642786E+01  0.91776213144E+01  0.13606491596E+02  0.10566000000E+00 0. -1.
        994    1    1    2    0    0  0.14361481059E+02  0.48110761047E+01  0.52337057225E+01  0.17194833604E+03  0.17120000000E+03 0.  0.
        998    1    1    2    0    0 -0.77624713940E+01  0.27618881739E+01  0.14855886692E+04  0.14856451724E+04  0.10000000000E+02 0. -1.
</event>
<event>
 5    1  0.1582292E-008  0.3835894E+03  0.7957747E-01  0.3435677E+00
         13   -1    0    0    0    0  0.00000000000E+00  0.00000000000E+00  0.14999999963E+04  0.15000000000E+04  0.10566000000E+00 0. -1.
        994   -1    0    0    0    0 -0.00000000000E+00 -0.00000000000E+00  0.11368683772E-12  0.17120000000E+03  0.17120000000E+03 0.  0.
         13    1    1    2    0    0 -0.17912676018E+02  0.69556176508E+01  0.84145730342E+02  0.86311990348E+02  0.10566000000E+00 0. -1.
        994    1    1    2    0    0  0.49307889116E+01  0.90994538989E+01  0.26860303681E+01  0.17153357543E+03  0.17120000000E+03 0.  0.
        998    1    1    2    0    0  0.12981887107E+02 -0.16055071550E+02  0.14131682356E+04  0.14133544342E+04  0.10000000000E+02 0. -1.
</event>
<event>
 5    1  0.1582292E-008  0.3776369E+03  0.7957747E-01  0.3461513E+00
         13   -1    0    0    0    0  0.00000000000E+00  0.00000000000E+00  0.14999999963E+04  0.15000000000E+04  0.10566000000E+00 0. -1.
        994   -1    0    0    0    0 -0.00000000000E+00 -0.00000000000E+00  0.11368683772E-12  0.17120000000E+03  0.17120000000E+03 0.  0.
         13    1    1    2    0    0 -0.16875166361E+02 -0.68862029341E+01  0.29314973247E+02  0.34519122977E+02  0.10566000000E+00 0. -1.
        994    1    1    2    0    0  0.49328481301E+01  0.98973000097E+01  0.57429250140E+01  0.17165287858E+03  0.17120000000E+03 0.  0.
        998    1    1    2    0    0  0.11942318231E+02 -0.30110970756E+01  0.14649420980E+04  0.14650279984E+04  0.10000000000E+02 0. -1.
</event>
<event>
 5    1  0.1582292E-008  0.3741460E+03  0.7957747E-01  0.3477051E+00
         13   -1    0    0    0    0  0.00000000000E+00  0.00000000000E+00  0.14999999963E+04  0.15000000000E+04  0.10566000000E+00 0.  1.
        994   -1    0    0    0    0 -0.00000000000E+00 -0.00000000000E+00  0.11368683772E-12  0.17120000000E+03  0.17120000000E+03 0.  0.
         13    1    1    2    0    0 -0.23899517817E+02  0.19014999311E+01  0.37067976337E+02  0.44145766362E+02  0.10566000000E+00 0.  1.
        994    1    1    2    0    0  0.19220835442E+02 -0.15539489112E+02  0.92033587915E+01  0.17321968147E+03  0.17120000000E+03 0.  0.
        998    1    1    2    0    0  0.46786823755E+01  0.13637989181E+02  0.14537286612E+04  0.14538345522E+04  0.10000000000E+02 0.  1.
</event>
<event>
 5    1  0.1582292E-008  0.3831900E+03  0.7957747E-01  0.3437385E+00
         13   -1    0    0    0    0  0.00000000000E+00  0.00000000000E+00  0.14999999963E+04  0.15000000000E+04  0.10566000000E+00 0.  1.
        994   -1    0    0    0    0 -0.00000000000E+00 -0.00000000000E+00  0.11368683772E-12  0.17120000000E+03  0.17120000000E+03 0.  0.
         13    1    1    2    0    0 -0.10334056342E+02  0.52738685278E+01  0.26261900906E+02  0.28710712512E+02  0.10566000000E+00 0.  1.
        994    1    1    2    0    0  0.47113263094E+01  0.48046496288E+01  0.26812398214E+01  0.17135317418E+03  0.17120000000E+03 0.  0.
        998    1    1    2    0    0  0.56227300331E+01 -0.10078518157E+02  0.14710568556E+04  0.14711361133E+04  0.10000000000E+02 0.  1.
</event>
<event>
 5    1  0.1582292E-008  0.3851099E+03  0.7957747E-01  0.3429206E+00
         13   -1    0    0    0    0  0.00000000000E+00  0.00000000000E+00  0.14999999963E+04  0.15000000000E+04  0.10566000000E+00 0. -1.
        994   -1    0    0    0    0 -0.00000000000E+00 -0.00000000000E+00  0.11368683772E-12  0.17120000000E+03  0.17120000000E+03 0.  0.
         13    1    1    2    0    0 -0.17951880124E+02  0.13950393453E+01  0.88772183258E+02  0.90579952634E+02  0.10566000000E+00 0. -1.
        994    1    1    2    0    0  0.31072383849E+02 -0.15292462655E+02  0.55283858461E+01  0.17475513012E+03  0.17120000000E+03 0.  0.
        998    1    1    2    0    0 -0.13120503724E+02  0.13897423310E+02  0.14056994272E+04  0.14058649172E+04  0.10000000000E+02 0. -1.
</event>
<event>
 5    1  0.1582292E-008  0.3855969E+03  0.7957747E-01  0.3427144E+00
         13   -1    0    0    0    0  0.00000000000E+00  0.00000000000E+00  0.14999999963E+04  0.15000000000E+04  0.10566000000E+00 0.  1.
        994   -1    0    0    0    0 -0.00000000000E+00 -0.00000000000E+00  0.11368683772E-12  0.17120000000E+03  0.17120000000E+03 0.  0.
         13    1    1    2    0    0  0.67919170146E+01 -0.91611573041E+01  0.50333428354E+02  0.51609321966E+02  0.10566000000E+00 0.  1.
        994    1    1    2    0    0 -0.96328264079E+01 -0.28150554427E+01  0.16647053648E+01  0.17150197412E+03  0.17120000000E+03 0.  0.
        998    1    1    2    0    0  0.28409093933E+01  0.11976212747E+02  0.14480018626E+04  0.14480887039E+04  0.10000000000E+02 0.  1.
</event>
<event>
 5    1  0.1582292E-008  0.3901361E+03  0.7957747E-01  0.3408177E+00
         13   -1    0    0    0    0  0.00000000000E+00  0.00000000000E+00  0.14999999963E+04  0.15000000000E+04  0.10566000000E+00 0.  1.
        994   -1    0    0    0    0 -0.00000000000E+00 -0.00000000000E+00  0.11368683772E-12  0.17120000000E+03  0.17120000000E+03 0.  0.
         13    1    1    2    0    0  0.11359395249E+02 -0.26218042680E+02  0.72029645676E+01  0.29467193368E+02  0.10566000000E+00 0.  1.
        994    1    1    2    0    0 -0.76117840415E+02  0.53268902570E+02  0.55290781689E+02  0.20247965861E+03  0.17120000000E+03 0.  0.
        998    1    1    2    0    0  0.64758445165E+02 -0.27050859890E+02  0.14375062500E+04  0.14392531480E+04  0.10000000000E+02 0.  1.
</event>
<event>
 5    1  0.1582292E-008  0.3785543E+03  0.7957747E-01  0.3457478E+00
         13   -1    0    0    0    0  0.00000000000E+00  0.00000000000E+00  0.14999999963E+04  0.15000000000E+04  0.10566000000E+00 0.  1.
        994   -1    0    0    0    0 -0.00000000000E+00 -0.00000000000E+00  0.11368683772E-12  0.17120000000E+03  0.17120000000E+03 0.  0.
         13    1    1    2    0    0 -0.34039088448E+02  0.31134393243E+00  0.11167815737E+03  0.11675092494E+03  0.10566000000E+00 0.  1.
        994    1    1    2    0    0  0.30384464609E+02  0.31484243942E+00  0.79723263184E+01  0.17405836033E+03  0.17120000000E+03 0.  0.
        998    1    1    2    0    0  0.36546238388E+01 -0.62618637185E+00  0.13803495126E+04  0.13803907147E+04  0.10000000000E+02 0.  0.
</event>
<event>
 5    1  0.1582292E-008  0.3718383E+03  0.7957747E-01  0.3487485E+00
         13   -1    0    0    0    0  0.00000000000E+00  0.00000000000E+00  0.14999999963E+04  0.15000000000E+04  0.10566000000E+00 0.  1.
        994   -1    0    0    0    0 -0.00000000000E+00 -0.00000000000E+00  0.11368683772E-12  0.17120000000E+03  0.17120000000E+03 0.  0.
         13    1    1    2    0    0  0.23283742356E+02  0.20251947314E+00  0.29014050014E+02  0.37202149594E+02  0.10566000000E+00 0.  1.
        994    1    1    2    0    0 -0.18515337987E+02  0.43979308968E+01  0.95566890564E+01  0.17251936078E+03  0.17120000000E+03 0.  0.
        998    1    1    2    0    0 -0.47684043690E+01 -0.46004503700E+01  0.14614292572E+04  0.14614784896E+04  0.10000000000E+02 0.  1.
</event>
<event>
 5    1  0.1582292E-008  0.3790948E+03  0.7957747E-01  0.3455109E+00
         13   -1    0    0    0    0  0.00000000000E+00  0.00000000000E+00  0.14999999963E+04  0.15000000000E+04  0.10566000000E+00 0.  1.
        994   -1    0    0    0    0 -0.00000000000E+00 -0.00000000000E+00  0.11368683772E-12  0.17120000000E+03  0.17120000000E+03 0.  0.
         13    1    1    2    0    0 -0.53239834912E+02  0.78714951776E+01  0.29550802365E+03  0.30036884603E+03  0.10566000000E+00 0.  1.
        994    1    1    2    0    0  0.34718130411E+02 -0.28280938692E+02  0.11343504623E+02  0.17732251738E+03  0.17120000000E+03 0.  0.
        998    1    1    2    0    0  0.18521704500E+02  0.20409443514E+02  0.11931484680E+04  0.11935086366E+04  0.10000000000E+02 0.  1.
</event>
<event>
 5    1  0.1582292E-008  0.3834106E+03  0.7957747E-01  0.3436441E+00
         13   -1    0    0    0    0  0.00000000000E+00  0.00000000000E+00  0.14999999963E+04  0.15000000000E+04  0.10566000000E+00 0.  1.
        994   -1    0    0    0    0 -0.00000000000E+00 -0.00000000000E+00  0.11368683772E-12  0.17120000000E+03  0.17120000000E+03 0.  0.
         13    1    1    2    0    0 -0.10452574951E+02 -0.23245998064E+00  0.21846096023E+02  0.24219278193E+02  0.10566000000E+00 0.  1.
        994    1    1    2    0    0  0.57058172863E+01 -0.32339795800E+01  0.25635285915E+01  0.17134475963E+03  0.17120000000E+03 0.  0.
        998    1    1    2    0    0  0.47467576642E+01  0.34664395606E+01  0.14755903717E+04  0.14756359622E+04  0.10000000000E+02 0.  1.
</event>
<event>
 5    1  0.1582292E-008  0.3752157E+03  0.7957747E-01  0.3472259E+00
         13   -1    0    0    0    0  0.00000000000E+00  0.00000000000E+00  0.14999999963E+04  0.15000000000E+04  0.10566000000E+00 0.  1.
        994   -1    0    0    0    0 -0.00000000000E+00 -0.00000000000E+00  0.11368683772E-12  0.17120000000E+03  0.17120000000E+03 0.  0.
         13    1    1    2    0    0  0.54040006277E+02 -0.59759177153E+01  0.27800654629E+03  0.28327316289E+03  0.10566000000E+00 0.  1.
        994    1    1    2    0    0 -0.26211163071E+01 -0.65289952521E+01  0.67361650341E+01  0.17147686126E+03  0.17120000000E+03 0.  0.
        998    1    1    2    0    0 -0.51418889970E+02  0.12504912967E+02  0.12152572850E+04  0.12164499758E+04  0.10000000000E+02 0.  1.
</event>
<event>
 5    1  0.1582292E-008  0.3863028E+03  0.7957747E-01  0.3424166E+00
         13   -1    0    0    0    0  0.00000000000E+00  0.00000000000E+00  0.14999999963E+04  0.15000000000E+04  0.10566000000E+00 0.  1.
        994   -1    0    0    0    0 -0.00000000000E+00 -0.00000000000E+00  0.11368683772E-12  0.17120000000E+03  0.17120000000E+03 0.  0.
         13    1    1    2    0    0 -0.70243185065E+01  0.72986939716E+01  0.55080056073E+02  0.56003890268E+02  0.10566000000E+00 0.  1.
        994    1    1    2    0    0  0.30056895870E+01  0.47623188500E+00  0.10150360192E+01  0.17123005363E+03  0.17120000000E+03 0.  0.
        998    1    1    2    0    0  0.40186289195E+01 -0.77749258566E+01  0.14439049042E+04  0.14439660561E+04  0.10000000000E+02 0.  1.
</event>
<event>
 5    1  0.1582292E-008  0.3845968E+03  0.7957747E-01  0.3431384E+00
         13   -1    0    0    0    0  0.00000000000E+00  0.00000000000E+00  0.14999999963E+04  0.15000000000E+04  0.10566000000E+00 0.  1.
        994   -1    0    0    0    0 -0.00000000000E+00 -0.00000000000E+00  0.11368683772E-12  0.17120000000E+03  0.17120000000E+03 0.  0.
         13    1    1    2    0    0  0.46807362636E+01 -0.21773944289E+02  0.13065091732E+03  0.13253560768E+03  0.10566000000E+00 0.  1.
        994    1    1    2    0    0 -0.22008716385E+02  0.14189100189E+02  0.40917528108E+01  0.17323941989E+03  0.17120000000E+03 0.  0.
        998    1    1    2    0    0  0.17327980121E+02  0.75848440997E+01  0.13652573261E+04  0.13654249724E+04  0.10000000000E+02 0.  1.
</event>
<event>
 5    1  0.1582292E-008  0.3764529E+03  0.7957747E-01  0.3466750E+00
         13   -1    0    0    0    0  0.00000000000E+00  0.00000000000E+00  0.14999999963E+04  0.15000000000E+04  0.10566000000E+00 0.  1.
        994   -1    0    0    0    0 -0.00000000000E+00 -0.00000000000E+00  0.11368683772E-12  0.17120000000E+03  0.17120000000E+03 0.  0.
         13    1    1    2    0    0 -0.53609942179E+02 -0.52671886196E+01  0.18459318726E+03  0.19229255088E+03  0.10566000000E+00 0.  1.
        994    1    1    2    0    0  0.75851352406E+02  0.28082142511E+02  0.28394621710E+02  0.19146208223E+03  0.17120000000E+03 0.  0.
        998    1    1    2    0    0 -0.22241410227E+02 -0.22814953891E+02  0.12870121873E+04  0.12874453669E+04  0.10000000000E+02 0.  1.
</event>
<event>
 5    1  0.1582292E-008  0.3717005E+03  0.7957747E-01  0.3488112E+00
         13   -1    0    0    0    0  0.00000000000E+00  0.00000000000E+00  0.14999999963E+04  0.15000000000E+04  0.10566000000E+00 0. -1.
        994   -1    0    0    0    0 -0.00000000000E+00 -0.00000000000E+00  0.11368683772E-12  0.17120000000E+03  0.17120000000E+03 0.  0.
         13    1    1    2    0    0 -0.52310009995E+02  0.75017303350E+02  0.37160841562E+03  0.38269669279E+03  0.10566000000E+00 0. -1.
        994    1    1    2    0    0  0.19915633995E+02 -0.40061515756E+02  0.18913482060E+02  0.17795706596E+03  0.17120000000E+03 0.  0.
        998    1    1    2    0    0  0.32394376000E+02 -0.34955787593E+02  0.11094780986E+04  0.11105462412E+04  0.10000000000E+02 0. -1.
</event>
<event>
 5    1  0.1582292E-008  0.3734857E+03  0.7957747E-01  0.3480023E+00
         13   -1    0    0    0    0  0.00000000000E+00  0.00000000000E+00  0.14999999963E+04  0.15000000000E+04  0.10566000000E+00 0. -1.
        994   -1    0    0    0    0 -0.00000000000E+00 -0.00000000000E+00  0.11368683772E-12  0.17120000000E+03  0.17120000000E+03 0.  0.
         13    1    1    2    0    0 -0.79093437136E+01  0.74876657122E+02  0.39601682547E+03  0.40311091367E+03  0.10566000000E+00 0. -1.
        994    1    1    2    0    0 -0.60174887746E+01 -0.38590599971E+02  0.12688238442E+02  0.17605645677E+03  0.17120000000E+03 0.  0.
        998    1    1    2    0    0  0.13926832488E+02 -0.36286057151E+02  0.10912949324E+04  0.10920326296E+04  0.10000000000E+02 0. -1.
</event>
<event>
 5    1  0.1582292E-008  0.3828108E+03  0.7957747E-01  0.3439010E+00
         13   -1    0    0    0    0  0.00000000000E+00  0.00000000000E+00  0.14999999963E+04  0.15000000000E+04  0.10566000000E+00 0. -1.
        994   -1    0    0    0    0 -0.00000000000E+00 -0.00000000000E+00  0.11368683772E-12  0.17120000000E+03  0.17120000000E+03 0.  0.
         13    1    1    2    0    0 -0.23590437607E+02  0.58702818598E+00  0.89829208878E+02  0.92877076182E+02  0.10566000000E+00 0. -1.
        994    1    1    2    0    0  0.35824512947E+02 -0.25761142785E+01  0.70055087758E+01  0.17506727063E+03  0.17120000000E+03 0.  0.
        998    1    1    2    0    0 -0.12234075340E+02  0.19890860925E+01  0.14031652786E+04  0.14032556532E+04  0.10000000000E+02 0. -1.
</event>
<event>
 5    1  0.1582292E-008  0.3834451E+03  0.7957747E-01  0.3436294E+00
         13   -1    0    0    0    0  0.00000000000E+00  0.00000000000E+00  0.14999999963E+04  0.15000000000E+04  0.10566000000E+00 0. -1.
        994   -1    0    0    0    0 -0.00000000000E+00 -0.00000000000E+00  0.11368683772E-12  0.17120000000E+03  0.17120000000E+03 0.  0.
         13    1    1    2    0    0  0.29565337603E+00  0.10078521043E+02  0.20060053083E+02  0.22451745836E+02  0.10566000000E+00 0. -1.
        994    1    1    2    0    0 -0.66621569035E+01 -0.10459888775E+02  0.29125953073E+01  0.17167328511E+03  0.17120000000E+03 0.  0.
        998    1    1    2    0    0  0.63665035275E+01  0.38136773212E+00  0.14770273479E+04  0.14770749691E+04  0.10000000000E+02 0. -1.
</event>
<event>
 5    1  0.1582292E-008  0.3848442E+03  0.7957747E-01  0.3430333E+00
         13   -1    0    0    0    0  0.00000000000E+00  0.00000000000E+00  0.14999999963E+04  0.15000000000E+04  0.10566000000E+00 0. -1.
        994   -1    0    0    0    0 -0.00000000000E+00 -0.00000000000E+00  0.11368683772E-12  0.17120000000E+03  0.17120000000E+03 0.  0.
         13    1    1    2    0    0  0.11069571351E+02  0.53540450504E+01  0.43955440586E+02  0.45643106045E+02  0.10566000000E+00 0. -1.
        994    1    1    2    0    0 -0.58926097382E+01 -0.83893487147E+01  0.20534137070E+01  0.17151898008E+03  0.17120000000E+03 0.  0.
        998    1    1    2    0    0 -0.51769616125E+01  0.30353036643E+01  0.14539911420E+04  0.14540379139E+04  0.10000000000E+02 0. -1.
</event>
<event>
 5    1  0.1582292E-008  0.3819495E+03  0.7957747E-01  0.3442714E+00
         13   -1    0    0    0    0  0.00000000000E+00  0.00000000000E+00  0.14999999963E+04  0.15000000000E+04  0.10566000000E+00 0.  1.
        994   -1    0    0    0    0 -0.00000000000E+00 -0.00000000000E+00  0.11368683772E-12  0.17120000000E+03  0.17120000000E+03 0.  0.
         13    1    1    2    0    0  0.10850101419E+02 -0.13741981065E+02  0.45956814761E+02  0.49179332360E+02  0.10566000000E+00 0.  1.
        994    1    1    2    0    0 -0.13680628946E+02  0.14645783546E+02  0.44875340402E+01  0.17242748199E+03  0.17120000000E+03 0.  0.
        998    1    1    2    0    0  0.28305275274E+01 -0.90380248152E+00  0.14495556475E+04  0.14495931856E+04  0.10000000000E+02 0.  1.
</event>
<event>
 5    1  0.1582292E-008  0.3853384E+03  0.7957747E-01  0.3428238E+00
         13   -1    0    0    0    0  0.00000000000E+00  0.00000000000E+00  0.14999999963E+04  0.15000000000E+04  0.10566000000E+00 0. -1.
        994   -1    0    0    0    0 -0.00000000000E+00 -0.00000000000E+00  0.11368683772E-12  0.17120000000E+03  0.17120000000E+03 0.  0.
         13    1    1    2    0    0 -0.13526559621E+02  0.12893251891E+02  0.11268389325E+03  0.11422291679E+03  0.10566000000E+00 0. -1.
        994    1    1    2    0    0  0.14672566675E+02 -0.11874570068E+02  0.26335322455E+01  0.17225755461E+03  0.17120000000E+03 0.  0.
        998    1    1    2    0    0 -0.11460070543E+01 -0.10186818229E+01  0.13846825708E+04  0.13847195286E+04  0.10000000000E+02 0. -1.
</event>
<event>
 5    1  0.1582292E-008  0.3836514E+03  0.7957747E-01  0.3435412E+00
         13   -1    0    0    0    0  0.00000000000E+00  0.00000000000E+00  0.14999999963E+04  0.15000000000E+04  0.10566000000E+00 0.  1.
        994   -1    0    0    0    0 -0.00000000000E+00 -0.00000000000E+00  0.11368683772E-12  0.17120000000E+03  0.17120000000E+03 0.  0.
         13    1    1    2    0    0 -0.16466673033E+01 -0.13549822518E+02  0.40701179736E+02  0.42929085705E+02  0.10566000000E+00 0.  1.
        994    1    1    2    0    0 -0.72359955295E+01  0.52687610407E+01  0.25658774501E+01  0.17145303497E+03  0.17120000000E+03 0.  0.
        998    1    1    2    0    0  0.88826628328E+01  0.82810614774E+01  0.14567329391E+04  0.14568178793E+04  0.10000000000E+02 0.  1.
</event>
<event>
 5    1  0.1582292E-008  0.3700290E+03  0.7957747E-01  0.3495758E+00
         13   -1    0    0    0    0  0.00000000000E+00  0.00000000000E+00  0.14999999963E+04  0.15000000000E+04  0.10566000000E+00 0. -1.
        994   -1    0    0    0    0 -0.00000000000E+00 -0.00000000000E+00  0.11368683772E-12  0.17120000000E+03  0.17120000000E+03 0.  0.
         13    1    1    2    0    0  0.81662261839E+02  0.10872334017E+03  0.68231619191E+03  0.69573334448E+03  0.10566000000E+00 0. -1.
        994    1    1    2    0    0 -0.14809031212E+02 -0.12679237830E+03  0.70317932074E+02  0.22483252917E+03  0.17120000000E+03 0.  0.
        998    1    1    2    0    0 -0.66853230627E+02  0.18069038131E+02  0.74736587229E+03  0.75063412636E+03  0.10000000000E+02 0.  1.
</event>
<event>
 5    1  0.1582292E-008  0.3818838E+03  0.7957747E-01  0.3442997E+00
         13   -1    0    0    0    0  0.00000000000E+00  0.00000000000E+00  0.14999999963E+04  0.15000000000E+04  0.10566000000E+00 0.  1.
        994   -1    0    0    0    0 -0.00000000000E+00 -0.00000000000E+00  0.11368683772E-12  0.17120000000E+03  0.17120000000E+03 0.  0.
         13    1    1    2    0    0 -0.13163783280E+02 -0.13775958316E+02  0.54519121652E+02  0.57752991329E+02  0.10566000000E+00 0.  1.
        994    1    1    2    0    0  0.15596733060E+02  0.10321593310E+02  0.43482000574E+01  0.17227344605E+03  0.17120000000E+03 0.  0.
        998    1    1    2    0    0 -0.24329497804E+01  0.34543650058E+01  0.14411326746E+04  0.14411735626E+04  0.10000000000E+02 0.  1.
</event>
<event>
 5    1  0.1582292E-008  0.3851546E+03  0.7957747E-01  0.3429017E+00
         13   -1    0    0    0    0  0.00000000000E+00  0.00000000000E+00  0.14999999963E+04  0.15000000000E+04  0.10566000000E+00 0.  1.
        994   -1    0    0    0    0 -0.00000000000E+00 -0.00000000000E+00  0.11368683772E-12  0.17120000000E+03  0.17120000000E+03 0.  0.
         13    1    1    2    0    0 -0.28545559783E+01 -0.10277990109E+02  0.36724240818E+02  0.38242209641E+02  0.10566000000E+00 0.  1.
        994    1    1    2    0    0  0.73821852506E+01  0.43695593788E+01  0.17953223985E+01  0.17142418992E+03  0.17120000000E+03 0.  0.
        998    1    1    2    0    0 -0.45276292723E+01  0.59084307302E+01  0.14614804331E+04  0.14615336004E+04  0.10000000000E+02 0.  1.
</event>
<event>
 5    1  0.2093863E-008  0.3832375E+03  0.7957747E-01  0.3437182E+00
         13   -1    0    0    0    0  0.00000000000E+00  0.00000000000E+00  0.14999999963E+04  0.15000000000E+04  0.10566000000E+00 0. -1.
        994   -1    0    0    0    0 -0.00000000000E+00 -0.00000000000E+00  0.11368683772E-12  0.17120000000E+03  0.17120000000E+03 0.  0.
         13    1    1    2    0    0  0.32393695199E+01  0.11195707554E+02  0.25860179663E+02  0.28365426821E+02  0.10566000000E+00 0. -1.
        994    1    1    2    0    0 -0.27165569699E+01 -0.11854985175E+02  0.29971039048E+01  0.17165763306E+03  0.17120000000E+03 0.  0.
        998    1    1    2    0    0 -0.52281254995E+00  0.65927762055E+00  0.14711427127E+04  0.14711769401E+04  0.10000000000E+02 0. -1.
</event>
<event>
 5    1  0.1582292E-008  0.3752412E+03  0.7957747E-01  0.3472145E+00
         13   -1    0    0    0    0  0.00000000000E+00  0.00000000000E+00  0.14999999963E+04  0.15000000000E+04  0.10566000000E+00 0. -1.
        994   -1    0    0    0    0 -0.00000000000E+00 -0.00000000000E+00  0.11368683772E-12  0.17120000000E+03  0.17120000000E+03 0.  0.
         13    1    1    2    0    0 -0.17951857368E+02  0.46335255776E+02  0.16336381885E+03  0.17075413197E+03  0.10566000000E+00 0. -1.
        994    1    1    2    0    0  0.25255185673E+02 -0.47680296417E+02  0.16507717413E+02  0.18025864696E+03  0.17120000000E+03 0.  0.
        998    1    1    2    0    0 -0.73033283050E+01  0.13450406409E+01  0.13201284600E+04  0.13201872211E+04  0.10000000000E+02 0. -1.
</event>
<event>
 5    1  0.1582292E-008  0.3789672E+03  0.7957747E-01  0.3455668E+00
         13   -1    0    0    0    0  0.00000000000E+00  0.00000000000E+00  0.14999999963E+04  0.15000000000E+04  0.10566000000E+00 0.  1.
        994   -1    0    0    0    0 -0.00000000000E+00 -0.00000000000E+00  0.11368683772E-12  0.17120000000E+03  0.17120000000E+03 0.  0.
         13    1    1    2    0    0  0.41275477562E+02 -0.37960559768E+02  0.32196166495E+03  0.32680880344E+03  0.10566000000E+00 0.  1.
        994    1    1    2    0    0 -0.38161619096E+02  0.13270293405E+02  0.10150633582E+02  0.17619558797E+03  0.17120000000E+03 0.  0.
        998    1    1    2    0    0 -0.31138584661E+01  0.24690266362E+02  0.11678876977E+04  0.11681956086E+04  0.10000000000E+02 0. -1.
</event>
<event>
 5    1  0.1582292E-008  0.3764131E+03  0.7957747E-01  0.3466927E+00
         13   -1    0    0    0    0  0.00000000000E+00  0.00000000000E+00  0.14999999963E+04  0.15000000000E+04  0.10566000000E+00 0.  1.
        994   -1    0    0    0    0 -0.00000000000E+00 -0.00000000000E+00  0.11368683772E-12  0.17120000000E+03  0.17120000000E+03 0.  0.
         13    1    1    2    0    0 -0.72107686989E+02 -0.11294018028E+02  0.25280462402E+03  0.26312974453E+03  0.10566000000E+00 0.  1.
        994    1    1    2    0    0  0.11956242436E+03  0.62093797611E+02  0.70060584141E+02  0.22884216935E+03  0.17120000000E+03 0.  0.
        998    1    1    2    0    0 -0.47454737374E+02 -0.50799779583E+02  0.11771347881E+04  0.11792280861E+04  0.10000000000E+02 0.  1.
</event>
<event>
 5    1  0.1582292E-008  0.3811047E+03  0.7957747E-01  0.3446363E+00
         13   -1    0    0    0    0  0.00000000000E+00  0.00000000000E+00  0.14999999963E+04  0.15000000000E+04  0.10566000000E+00 0.  1.
        994   -1    0    0    0    0 -0.00000000000E+00 -0.00000000000E+00  0.11368683772E-12  0.17120000000E+03  0.17120000000E+03 0.  0.
         13    1    1    2    0    0 -0.21001223860E+02 -0.15649852104E+02  0.97250182225E+02  0.10071533340E+03  0.10566000000E+00 0.  1.
        994    1    1    2    0    0  0.34086124840E+01  0.14228003794E+02  0.42898388568E+01  0.17187756529E+03  0.17120000000E+03 0.  0.
        998    1    1    2    0    0  0.17592611376E+02  0.14218483095E+01  0.13984599752E+04  0.13986071013E+04  0.10000000000E+02 0.  1.
</event>
<event>
 5    1  0.1582292E-008  0.3832281E+03  0.7957747E-01  0.3437222E+00
         13   -1    0    0    0    0  0.00000000000E+00  0.00000000000E+00  0.14999999963E+04  0.15000000000E+04  0.10566000000E+00 0.  1.
        994   -1    0    0    0    0 -0.00000000000E+00 -0.00000000000E+00  0.11368683772E-12  0.17120000000E+03  0.17120000000E+03 0.  0.
         13    1    1    2    0    0  0.22809726990E+02 -0.70892693576E+01  0.10338049353E+03  0.10610409508E+03  0.10566000000E+00 0.  1.
        994    1    1    2    0    0 -0.16481542373E+02  0.50023798114E+02  0.11742575598E+02  0.17950306320E+03  0.17120000000E+03 0.  0.
        998    1    1    2    0    0 -0.63281846162E+01 -0.42934528756E+02  0.13848769271E+04  0.13855928417E+04  0.10000000000E+02 0.  1.
</event>
<event>
 5    1  0.1582292E-008  0.3696007E+03  0.7957747E-01  0.3497728E+00
         13   -1    0    0    0    0  0.00000000000E+00  0.00000000000E+00  0.14999999963E+04  0.15000000000E+04  0.10566000000E+00 0. -1.
        994   -1    0    0    0    0 -0.00000000000E+00 -0.00000000000E+00  0.11368683772E-12  0.17120000000E+03  0.17120000000E+03 0.  0.
         13    1    1    2    0    0 -0.28157234545E+02  0.31144641091E+02  0.93213170453E+02  0.10223269945E+03  0.10566000000E+00 0. -1.
        994    1    1    2    0    0 -0.45034674084E+01 -0.25277869827E+02  0.11763889780E+02  0.17351392170E+03  0.17120000000E+03 0.  0.
        998    1    1    2    0    0  0.32660701954E+02 -0.58667712642E+01  0.13950229360E+04  0.13954533789E+04  0.10000000000E+02 0. -1.
</event>
<event>
 5    1  0.1582292E-008  0.3812408E+03  0.7957747E-01  0.3445773E+00
         13   -1    0    0    0    0  0.00000000000E+00  0.00000000000E+00  0.14999999963E+04  0.15000000000E+04  0.10566000000E+00 0.  1.
        994   -1    0    0    0    0 -0.00000000000E+00 -0.00000000000E+00  0.11368683772E-12  0.17120000000E+03  0.17120000000E+03 0.  0.
         13    1    1    2    0    0  0.29478166792E+02  0.10590816924E+02  0.15637520098E+03  0.15948147970E+03  0.10566000000E+00 0.  1.
        994    1    1    2    0    0 -0.41775447369E+01  0.66353986360E+01  0.37128102075E+01  0.17141967610E+03  0.17120000000E+03 0.  0.
        998    1    1    2    0    0 -0.25300622055E+02 -0.17226215560E+02  0.13399119851E+04  0.13402988442E+04  0.10000000000E+02 0.  1.
</event>
<event>
 5    1  0.1582292E-008  0.3842392E+03  0.7957747E-01  0.3432905E+00
         13   -1    0    0    0    0  0.00000000000E+00  0.00000000000E+00  0.14999999963E+04  0.15000000000E+04  0.10566000000E+00 0. -1.
        994   -1    0    0    0    0 -0.00000000000E+00 -0.00000000000E+00  0.11368683772E-12  0.17120000000E+03  0.17120000000E+03 0.  0.
         13    1    1    2    0    0 -0.21645394998E+01 -0.12412627902E+02  0.40110038603E+02  0.42042655999E+02  0.10566000000E+00 0. -1.
        994    1    1    2    0    0  0.21095187718E+01  0.25532707745E+01  0.20444879934E+01  0.17124423842E+03  0.17120000000E+03 0.  0.
        998    1    1    2    0    0  0.55020728079E-01  0.98593571274E+01  0.14578454697E+04  0.14579131056E+04  0.10000000000E+02 0. -1.
</event>
<event>
 5    1  0.1582292E-008  0.3817042E+03  0.7957747E-01  0.3443772E+00
         13   -1    0    0    0    0  0.00000000000E+00  0.00000000000E+00  0.14999999963E+04  0.15000000000E+04  0.10566000000E+00 0. -1.
        994   -1    0    0    0    0 -0.00000000000E+00 -0.00000000000E+00  0.11368683772E-12  0.17120000000E+03  0.17120000000E+03 0.  0.
         13    1    1    2    0    0 -0.16951537078E+02 -0.11323659186E+02  0.63816516277E+02  0.66993572680E+02  0.10566000000E+00 0. -1.
        994    1    1    2    0    0  0.12890517194E+02 -0.48033355813E+01  0.39046754325E+01  0.17179616980E+03  0.17120000000E+03 0.  0.
        998    1    1    2    0    0  0.40610198838E+01  0.16126994767E+02  0.14322788046E+04  0.14324102575E+04  0.10000000000E+02 0. -1.
</event>
<event>
 5    1  0.1582292E-008  0.3870461E+03  0.7957747E-01  0.3421040E+00
         13   -1    0    0    0    0  0.00000000000E+00  0.00000000000E+00  0.14999999963E+04  0.15000000000E+04  0.10566000000E+00 0. -1.
        994   -1    0    0    0    0 -0.00000000000E+00 -0.00000000000E+00  0.11368683772E-12  0.17120000000E+03  0.17120000000E+03 0.  0.
         13    1    1    2    0    0  0.57189254366E+02 -0.11155124596E+03  0.33203663817E+03  0.35491214623E+03  0.10566000000E+00 0. -1.
        994    1    1    2    0    0 -0.56535696416E+02  0.85999105219E+02  0.60824715568E+02  0.20880904456E+03  0.17120000000E+03 0.  0.
        998    1    1    2    0    0 -0.65355795046E+00  0.25552140741E+02  0.11071386425E+04  0.11074788092E+04  0.10000000000E+02 0. -1.
</event>
<event>
 5    1  0.1582292E-008  0.3854283E+03  0.7957747E-01  0.3427858E+00
         13   -1    0    0    0    0  0.00000000000E+00  0.00000000000E+00  0.14999999963E+04  0.15000000000E+04  0.10566000000E+00 0.  1.
        994   -1    0    0    0    0 -0.00000000000E+00 -0.00000000000E+00  0.11368683772E-12  0.17120000000E+03  0.17120000000E+03 0.  0.
         13    1    1    2    0    0  0.13274048433E+02 -0.11379049741E+02  0.10248362493E+03  0.10396435773E+03  0.10566000000E+00 0.  1.
        994    1    1    2    0    0 -0.15884851288E+02  0.86226549991E+01  0.24912015883E+01  0.17216946525E+03  0.17120000000E+03 0.  0.
        998    1    1    2    0    0  0.26108028549E+01  0.27563947415E+01  0.13950251698E+04  0.13950661770E+04  0.10000000000E+02 0.  1.
</event>
<event>
 5    1  0.1582292E-008  0.3816355E+03  0.7957747E-01  0.3444068E+00
         13   -1    0    0    0    0  0.00000000000E+00  0.00000000000E+00  0.14999999963E+04  0.15000000000E+04  0.10566000000E+00 0.  1.
        994   -1    0    0    0    0 -0.00000000000E+00 -0.00000000000E+00  0.11368683772E-12  0.17120000000E+03  0.17120000000E+03 0.  0.
         13    1    1    2    0    0  0.58065318684E+01  0.23126288169E+02  0.91318253200E+02  0.94379953106E+02  0.10566000000E+00 0.  1.
        994    1    1    2    0    0  0.94364699235E+01 -0.37849002537E+01  0.36536234486E+01  0.17154055322E+03  0.17120000000E+03 0.  0.
        998    1    1    2    0    0 -0.15243001792E+02 -0.19341387915E+02  0.14050281196E+04  0.14052794937E+04  0.10000000000E+02 0.  1.
</event>
<event>
 5    1  0.1582292E-008  0.3726809E+03  0.7957747E-01  0.3483660E+00
         13   -1    0    0    0    0  0.00000000000E+00  0.00000000000E+00  0.14999999963E+04  0.15000000000E+04  0.10566000000E+00 0. -1.
        994   -1    0    0    0    0 -0.00000000000E+00 -0.00000000000E+00  0.11368683772E-12  0.17120000000E+03  0.17120000000E+03 0.  0.
         13    1    1    2    0    0  0.24418967293E+02 -0.42317780449E+00  0.18862296634E+02  0.30858749836E+02  0.10566000000E+00 0. -1.
        994    1    1    2    0    0 -0.18403745420E+02  0.63309338817E+01  0.13701336360E+02  0.17284659438E+03  0.17120000000E+03 0.  0.
        998    1    1    2    0    0 -0.60152218738E+01 -0.59077560772E+01  0.14674363633E+04  0.14674946558E+04  0.10000000000E+02 0. -1.
</event>
<event>
 5    1  0.1582292E-008  0.3820715E+03  0.7957747E-01  0.3442188E+00
         13   -1    0    0    0    0  0.00000000000E+00  0.00000000000E+00  0.14999999963E+04  0.15000000000E+04  0.10566000000E+00 0. -1.
        994   -1    0    0    0    0 -0.00000000000E+00 -0.00000000000E+00  0.11368683772E-12  0.17120000000E+03  0.17120000000E+03 0.  0.
         13    1    1    2    0    0  0.66390352888E+01  0.20087271182E+02  0.72776560049E+02  0.75789274371E+02  0.10566000000E+00 0. -1.
        994    1    1    2    0    0 -0.65313074276E+01 -0.79751521894E+01  0.34439846162E+01  0.17154463576E+03  0.17120000000E+03 0.  0.
        998    1    1    2    0    0 -0.10772786118E+00 -0.12112118993E+02  0.14237794516E+04  0.14238660899E+04  0.10000000000E+02 0. -1.
</event>
<event>
 5    1  0.1582292E-008  0.3767112E+03  0.7957747E-01  0.3465605E+00
         13   -1    0    0    0    0  0.00000000000E+00  0.00000000000E+00  0.14999999963E+04  0.15000000000E+04  0.10566000000E+00 0. -1.
        994   -1    0    0    0    0 -0.00000000000E+00 -0.00000000000E+00  0.11368683772E-12  0.17120000000E+03  0.17120000000E+03 0.  0.
         13    1    1    2    0    0 -0.98603909714E+02 -0.13122766968E+03  0.82300751170E+03  0.83921678235E+03  0.10566000000E+00 0. -1.
        994    1    1    2    0    0  0.11590743234E+03  0.12574288831E+03  0.11205809407E+03  0.26666882697E+03  0.17120000000E+03 0.  0.
        998    1    1    2    0    0 -0.17303522630E+02  0.54847813657E+01  0.56493439051E+03  0.56531439068E+03  0.10000000000E+02 0. -1.
</event>
<event>
 5    1  0.1582292E-008  0.3834442E+03  0.7957747E-01  0.3436297E+00
         13   -1    0    0    0    0  0.00000000000E+00  0.00000000000E+00  0.14999999963E+04  0.15000000000E+04  0.10566000000E+00 0.  1.
        994   -1    0    0    0    0 -0.00000000000E+00 -0.00000000000E+00  0.11368683772E-12  0.17120000000E+03  0.17120000000E+03 0.  0.
         13    1    1    2    0    0  0.11324626392E+02  0.29621234720E+01  0.28707041084E+02  0.31002043646E+02  0.10566000000E+00 0.  1.
        994    1    1    2    0    0  0.27743208739E+01 -0.46927266636E+01  0.25027811627E+01  0.17130505671E+03  0.17120000000E+03 0.  0.
        998    1    1    2    0    0 -0.14098947266E+02  0.17306031916E+01  0.14687901740E+04  0.14688928996E+04  0.10000000000E+02 0.  1.
</event>
<event>
 5    1  0.1582292E-008  0.3770680E+03  0.7957747E-01  0.3464025E+00
         13   -1    0    0    0    0  0.00000000000E+00  0.00000000000E+00  0.14999999963E+04  0.15000000000E+04  0.10566000000E+00 0. -1.
        994   -1    0    0    0    0 -0.00000000000E+00 -0.00000000000E+00  0.11368683772E-12  0.17120000000E+03  0.17120000000E+03 0.  0.
         13    1    1    2    0    0 -0.15263957268E+03  0.32067665862E+02  0.46305183069E+03  0.48861455505E+03  0.10566000000E+00 0. -1.
        994    1    1    2    0    0  0.17137127772E+03 -0.16988036555E+02  0.13033136389E+03  0.27559465276E+03  0.17120000000E+03 0.  0.
        998    1    1    2    0    0 -0.18731705042E+02 -0.15079629307E+02  0.90661680170E+03  0.90699079219E+03  0.10000000000E+02 0.  1.
</event>
<event>
 5    1  0.1582292E-008  0.3745135E+03  0.7957747E-01  0.3475401E+00
         13   -1    0    0    0    0  0.00000000000E+00  0.00000000000E+00  0.14999999963E+04  0.15000000000E+04  0.10566000000E+00 0. -1.
        994   -1    0    0    0    0 -0.00000000000E+00 -0.00000000000E+00  0.11368683772E-12  0.17120000000E+03  0.17120000000E+03 0.  0.
         13    1    1    2    0    0 -0.11662426657E+02  0.72956594165E+01  0.10346837914E+02  0.17213571992E+02  0.10566000000E+00 0. -1.
        994    1    1    2    0    0  0.13407155122E+02 -0.13411288465E+02  0.81541008873E+01  0.17243997167E+03  0.17120000000E+03 0.  0.
        998    1    1    2    0    0 -0.17447284652E+01  0.61156290483E+01  0.14814990575E+04  0.14815464563E+04  0.10000000000E+02 0. -1.
</event>
<event>
 5    1  0.1582292E-008  0.3852905E+03  0.7957747E-01  0.3428441E+00
         13   -1    0    0    0    0  0.00000000000E+00  0.00000000000E+00  0.14999999963E+04  0.15000000000E+04  0.10566000000E+00 0.  1.
        994   -1    0    0    0    0 -0.00000000000E+00 -0.00000000000E+00  0.11368683772E-12  0.17120000000E+03  0.17120000000E+03 0.  0.
         13    1    1    2    0    0  0.42938149664E+01 -0.13299783344E+02  0.68633871084E+02  0.70042419347E+02  0.10566000000E+00 0.  1.
        994    1    1    2    0    0 -0.60536996563E+01  0.15703764129E+01  0.16145116881E+01  0.17132180249E+03  0.17120000000E+03 0.  0.
        998    1    1    2    0    0  0.17598846899E+01  0.11729406931E+02  0.14297516135E+04  0.14298357782E+04  0.10000000000E+02 0.  1.
</event>
<event>
 5    1  0.1582292E-008  0.3842847E+03  0.7957747E-01  0.3432711E+00
         13   -1    0    0    0    0  0.00000000000E+00  0.00000000000E+00  0.14999999963E+04  0.15000000000E+04  0.10566000000E+00 0.  1.
        994   -1    0    0    0    0 -0.00000000000E+00 -0.00000000000E+00  0.11368683772E-12  0.17120000000E+03  0.17120000000E+03 0.  0.
         13    1    1    2    0    0 -0.17157854885E+02 -0.98584308253E+01  0.10867117393E+03  0.11045820861E+03  0.10566000000E+00 0.  1.
        994    1    1    2    0    0  0.96621044970E+00 -0.30897357797E+01  0.20202189511E+01  0.17124252192E+03  0.17120000000E+03 0.  0.
        998    1    1    2    0    0  0.16191644435E+02  0.12948166605E+02  0.13893086034E+04  0.13894992695E+04  0.10000000000E+02 0.  1.
</event>
<event>
 5    1  0.1582292E-008  0.3800066E+03  0.7957747E-01  0.3451130E+00
         13   -1    0    0    0    0  0.00000000000E+00  0.00000000000E+00  0.14999999963E+04  0.15000000000E+04  0.10566000000E+00 0.  1.
        994   -1    0    0    0    0 -0.00000000000E+00 -0.00000000000E+00  0.11368683772E-12  0.17120000000E+03  0.17120000000E+03 0.  0.
         13    1    1    2    0    0  0.24247533953E+02  0.25572097657E+02  0.15363779623E+03  0.15762759491E+03  0.10566000000E+00 0.  1.
        994    1    1    2    0    0 -0.89047816574E+01 -0.13473596498E+02  0.50021979512E+01  0.17203283095E+03  0.17120000000E+03 0.  0.
        998    1    1    2    0    0 -0.15342752296E+02 -0.12098501159E+02  0.13413600021E+04  0.13415395741E+04  0.10000000000E+02 0.  1.
</event>
<event>
 5    1  0.1582292E-008  0.3827938E+03  0.7957747E-01  0.3439083E+00
         13   -1    0    0    0    0  0.00000000000E+00  0.00000000000E+00  0.14999999963E+04  0.15000000000E+04  0.10566000000E+00 0.  1.
        994   -1    0    0    0    0 -0.00000000000E+00 -0.00000000000E+00  0.11368683772E-12  0.17120000000E+03  0.17120000000E+03 0.  0.
         13    1    1    2    0    0 -0.10296517750E+02  0.90281068274E+01  0.33663942782E+02  0.36342773674E+02  0.10566000000E+00 0.  1.
        994    1    1    2    0    0  0.71090679983E+01 -0.31571569131E+01  0.29299063680E+01  0.17140166522E+03  0.17120000000E+03 0.  0.
        998    1    1    2    0    0  0.31874497517E+01 -0.58709499142E+01  0.14634061471E+04  0.14634555611E+04  0.10000000000E+02 0.  1.
</event>
<event>
 5    1  0.2249806E-008  0.3862030E+03  0.7957747E-01  0.3424586E+00
         13   -1    0    0    0    0  0.00000000000E+00  0.00000000000E+00  0.14999999963E+04  0.15000000000E+04  0.10566000000E+00 0. -1.
        994   -1    0    0    0    0 -0.00000000000E+00 -0.00000000000E+00  0.11368683772E-12  0.17120000000E+03  0.17120000000E+03 0.  0.
         13    1    1    2    0    0  0.41665556232E+01  0.92144904404E+01  0.50961587365E+02  0.51955380574E+02  0.10566000000E+00 0. -1.
        994    1    1    2    0    0 -0.46366138726E+01 -0.30914422296E+01  0.11357847272E+01  0.17129444010E+03  0.17120000000E+03 0.  0.
        998    1    1    2    0    0  0.47005824947E+00 -0.61230482108E+01  0.14479026242E+04  0.14479501793E+04  0.10000000000E+02 0. -1.
</event>
<event>
 5    1  0.1582292E-008  0.3826688E+03  0.7957747E-01  0.3439619E+00
         13   -1    0    0    0    0  0.00000000000E+00  0.00000000000E+00  0.14999999963E+04  0.15000000000E+04  0.10566000000E+00 0. -1.
        994   -1    0    0    0    0 -0.00000000000E+00 -0.00000000000E+00  0.11368683772E-12  0.17120000000E+03  0.17120000000E+03 0.  0.
         13    1    1    2    0    0 -0.69568260845E+01 -0.11470945621E+02  0.31444279802E+02  0.34186750634E+02  0.10566000000E+00 0. -1.
        994    1    1    2    0    0  0.83203981424E-01  0.87548741907E+01  0.30460090221E+01  0.17145078861E+03  0.17120000000E+03 0.  0.
        998    1    1    2    0    0  0.68736221031E+01  0.27160714307E+01  0.14655097075E+04  0.14655624608E+04  0.10000000000E+02 0. -1.
</event>
<event>
 5    1  0.1582292E-008  0.3926672E+03  0.7957747E-01  0.3397792E+00
         13   -1    0    0    0    0  0.00000000000E+00  0.00000000000E+00  0.14999999963E+04  0.15000000000E+04  0.10566000000E+00 0.  1.
        994   -1    0    0    0    0 -0.00000000000E+00 -0.00000000000E+00  0.11368683772E-12  0.17120000000E+03  0.17120000000E+03 0.  0.
         13    1    1    2    0    0  0.15260105190E+02  0.20823803799E+02  0.40530270858E+01  0.26133117067E+02  0.10566000000E+00 0.  1.
        994    1    1    2    0    0 -0.15701918302E+02 -0.19706141568E+02  0.25884030241E+02  0.17496944098E+03  0.17120000000E+03 0.  0.
        998    1    1    2    0    0  0.44181311268E+00 -0.11176622310E+01  0.14700629390E+04  0.14700974420E+04  0.10000000000E+02 0.  1.
</event>
<event>
 5    1  0.1582292E-008  0.3809182E+03  0.7957747E-01  0.3447170E+00
         13   -1    0    0    0    0  0.00000000000E+00  0.00000000000E+00  0.14999999963E+04  0.15000000000E+04  0.10566000000E+00 0. -1.
        994   -1    0    0    0    0 -0.00000000000E+00 -0.00000000000E+00  0.11368683772E-12  0.17120000000E+03  0.17120000000E+03 0.  0.
         13    1    1    2    0    0 -0.20296172965E+02  0.32873207928E+02  0.19204737301E+03  0.19589483678E+03  0.10566000000E+00 0. -1.
        994    1    1    2    0    0  0.15104172299E+02 -0.24880397710E+02  0.64989292487E+01  0.17377815252E+03  0.17120000000E+03 0.  0.
        998    1    1    2    0    0  0.51920006651E+01 -0.79928102180E+01  0.13014536940E+04  0.13015270107E+04  0.10000000000E+02 0. -1.
</event>
<event>
 5    1  0.1582292E-008  0.3735943E+03  0.7957747E-01  0.3479533E+00
         13   -1    0    0    0    0  0.00000000000E+00  0.00000000000E+00  0.14999999963E+04  0.15000000000E+04  0.10566000000E+00 0.  1.
        994   -1    0    0    0    0 -0.00000000000E+00 -0.00000000000E+00  0.11368683772E-12  0.17120000000E+03  0.17120000000E+03 0.  0.
         13    1    1    2    0    0  0.99527768759E+01 -0.70094189297E+01  0.66292067261E+01  0.13861719487E+02  0.10566000000E+00 0.  1.
        994    1    1    2    0    0 -0.76678438681E+01  0.44945145799E+01  0.76722021313E+01  0.17160215376E+03  0.17120000000E+03 0.  0.
        998    1    1    2    0    0 -0.22849330078E+01  0.25149043498E+01  0.14856985874E+04  0.14857361267E+04  0.10000000000E+02 0.  1.
</event>
<event>
 5    1  0.1582292E-008  0.3733305E+03  0.7957747E-01  0.3480723E+00
         13   -1    0    0    0    0  0.00000000000E+00  0.00000000000E+00  0.14999999963E+04  0.15000000000E+04  0.10566000000E+00 0.  1.
        994   -1    0    0    0    0 -0.00000000000E+00 -0.00000000000E+00  0.11368683772E-12  0.17120000000E+03  0.17120000000E+03 0.  0.
         13    1    1    2    0    0  0.26757854878E+01 -0.29344861662E+02  0.55131895032E+02  0.62512540724E+02  0.10566000000E+00 0.  1.
        994    1    1    2    0    0 -0.23054281857E+02  0.14700520298E+02  0.10098462202E+02  0.17366353719E+03  0.17120000000E+03 0.  0.
        998    1    1    2    0    0  0.20378496370E+02  0.14644341364E+02  0.14347696390E+04  0.14350239221E+04  0.10000000000E+02 0.  1.
</event>
<event>
 5    1  0.1582292E-008  0.3864512E+03  0.7957747E-01  0.3423541E+00
         13   -1    0    0    0    0  0.00000000000E+00  0.00000000000E+00  0.14999999963E+04  0.15000000000E+04  0.10566000000E+00 0. -1.
        994   -1    0    0    0    0 -0.00000000000E+00 -0.00000000000E+00  0.11368683772E-12  0.17120000000E+03  0.17120000000E+03 0.  0.
         13    1    1    2    0    0 -0.62698764910E+02  0.46867008623E+02  0.42997983328E+03  0.43704727411E+03  0.10566000000E+00 0. -1.
        994    1    1    2    0    0 -0.95892608144E+02  0.36436839622E+02  0.60120565075E+02  0.20843933871E+03  0.17120000000E+03 0.  0.
        998    1    1    2    0    0  0.15859137305E+03 -0.83303848245E+02  0.10098995979E+04  0.10257133872E+04  0.10000000000E+02 0.  1.
</event>
<event>
 5    1  0.1582292E-008  0.3731316E+03  0.7957747E-01  0.3481621E+00
         13   -1    0    0    0    0  0.00000000000E+00  0.00000000000E+00  0.14999999963E+04  0.15000000000E+04  0.10566000000E+00 0. -1.
        994   -1    0    0    0    0 -0.00000000000E+00 -0.00000000000E+00  0.11368683772E-12  0.17120000000E+03  0.17120000000E+03 0.  0.
         13    1    1    2    0    0 -0.25715294624E+02 -0.14974677395E+03  0.59567993602E+03  0.61475195813E+03  0.10566000000E+00 0. -1.
        994    1    1    2    0    0  0.27943121216E+02  0.13417040220E+03  0.82325798757E+02  0.23424237872E+03  0.17120000000E+03 0.  0.
        998    1    1    2    0    0 -0.22278265922E+01  0.15576371751E+02  0.82199426150E+03  0.82220566315E+03  0.10000000000E+02 0. -1.
</event>
<event>
 5    1  0.1582292E-008  0.3807594E+03  0.7957747E-01  0.3447859E+00
         13   -1    0    0    0    0  0.00000000000E+00  0.00000000000E+00  0.14999999963E+04  0.15000000000E+04  0.10566000000E+00 0.  1.
        994   -1    0    0    0    0 -0.00000000000E+00 -0.00000000000E+00  0.11368683772E-12  0.17120000000E+03  0.17120000000E+03 0.  0.
         13    1    1    2    0    0 -0.79394234554E+01  0.23122988510E+02  0.80780439252E+02  0.84399037745E+02  0.10566000000E+00 0.  1.
        994    1    1    2    0    0  0.49066493140E+01 -0.79162523470E+01  0.40396028376E+01  0.17150073076E+03  0.17120000000E+03 0.  0.
        998    1    1    2    0    0  0.30327741415E+01 -0.15206736163E+02  0.14151799542E+04  0.14153002315E+04  0.10000000000E+02 0.  1.
</event>
<event>
 5    1  0.1582292E-008  0.3812452E+03  0.7957747E-01  0.3445754E+00
         13   -1    0    0    0    0  0.00000000000E+00  0.00000000000E+00  0.14999999963E+04  0.15000000000E+04  0.10566000000E+00 0.  1.
        994   -1    0    0    0    0 -0.00000000000E+00 -0.00000000000E+00  0.11368683772E-12  0.17120000000E+03  0.17120000000E+03 0.  0.
         13    1    1    2    0    0  0.16130003078E+02  0.94643397392E+01  0.49800884269E+02  0.53196710086E+02  0.10566000000E+00 0.  1.
        994    1    1    2    0    0 -0.11081295167E+02  0.63475374517E+01  0.40490305096E+01  0.17172338508E+03  0.17120000000E+03 0.  0.
        998    1    1    2    0    0 -0.50487079101E+01 -0.15811877191E+02  0.14461500815E+04  0.14462799048E+04  0.10000000000E+02 0.  1.
</event>
<event>
 5    1  0.1871544E-008  0.3860057E+03  0.7957747E-01  0.3425418E+00
         13   -1    0    0    0    0  0.00000000000E+00  0.00000000000E+00  0.14999999963E+04  0.15000000000E+04  0.10566000000E+00 0. -1.
        994   -1    0    0    0    0 -0.00000000000E+00 -0.00000000000E+00  0.11368683772E-12  0.17120000000E+03  0.17120000000E+03 0.  0.
         13    1    1    2    0    0  0.71524966556E+01 -0.77918881963E+01  0.50105408242E+02  0.51209714207E+02  0.10566000000E+00 0. -1.
        994    1    1    2    0    0 -0.36944897480E+01  0.58993814129E+01  0.12904894125E+01  0.17134630816E+03  0.17120000000E+03 0.  0.
        998    1    1    2    0    0 -0.34580069075E+01  0.18925067834E+01  0.14486040986E+04  0.14486439776E+04  0.10000000000E+02 0. -1.
</event>
<event>
 5    1  0.1582292E-008  0.3834566E+03  0.7957747E-01  0.3436244E+00
         13   -1    0    0    0    0  0.00000000000E+00  0.00000000000E+00  0.14999999963E+04  0.15000000000E+04  0.10566000000E+00 0. -1.
        994   -1    0    0    0    0 -0.00000000000E+00 -0.00000000000E+00  0.11368683772E-12  0.17120000000E+03  0.17120000000E+03 0.  0.
         13    1    1    2    0    0 -0.13681868427E+02  0.11805385348E+01  0.37945790577E+02  0.40354446861E+02  0.10566000000E+00 0. -1.
        994    1    1    2    0    0  0.12727412578E+02 -0.94634465127E+01  0.32301722918E+01  0.17196342013E+03  0.17120000000E+03 0.  0.
        998    1    1    2    0    0  0.95445584935E+00  0.82829079779E+01  0.14588240334E+04  0.14588821330E+04  0.10000000000E+02 0. -1.
</event>
<event>
 5    1  0.1582292E-008  0.3853522E+03  0.7957747E-01  0.3428180E+00
         13   -1    0    0    0    0  0.00000000000E+00  0.00000000000E+00  0.14999999963E+04  0.15000000000E+04  0.10566000000E+00 0.  1.
        994   -1    0    0    0    0 -0.00000000000E+00 -0.00000000000E+00  0.11368683772E-12  0.17120000000E+03  0.17120000000E+03 0.  0.
         13    1    1    2    0    0 -0.14908622991E+01  0.10042218827E+02  0.38403455706E+02  0.39722857444E+02  0.10566000000E+00 0.  1.
        994    1    1    2    0    0 -0.42315376873E+00  0.86335109001E+01  0.17008616527E+01  0.17142651341E+03  0.17120000000E+03 0.  0.
        998    1    1    2    0    0  0.19140160678E+01 -0.18675729727E+02  0.14598956789E+04  0.14600506291E+04  0.10000000000E+02 0.  1.
</event>
<event>
 5    1  0.1582292E-008  0.3771139E+03  0.7957747E-01  0.3463822E+00
         13   -1    0    0    0    0  0.00000000000E+00  0.00000000000E+00  0.14999999963E+04  0.15000000000E+04  0.10566000000E+00 0.  1.
        994   -1    0    0    0    0 -0.00000000000E+00 -0.00000000000E+00  0.11368683772E-12  0.17120000000E+03  0.17120000000E+03 0.  0.
         13    1    1    2    0    0 -0.21854865619E+02 -0.17028474197E+02  0.63669088034E+02  0.69436071460E+02  0.10566000000E+00 0.  1.
        994    1    1    2    0    0  0.24226824385E+02  0.16560966147E+02  0.85093449247E+01  0.17390530058E+03  0.17120000000E+03 0.  0.
        998    1    1    2    0    0 -0.23719587659E+01  0.46750804957E+00  0.14278215633E+04  0.14278586280E+04  0.10000000000E+02 0.  1.
</event>
<event>
 5    1  0.1582292E-008  0.3827066E+03  0.7957747E-01  0.3439457E+00
         13   -1    0    0    0    0  0.00000000000E+00  0.00000000000E+00  0.14999999963E+04  0.15000000000E+04  0.10566000000E+00 0.  1.
        994   -1    0    0    0    0 -0.00000000000E+00 -0.00000000000E+00  0.11368683772E-12  0.17120000000E+03  0.17120000000E+03 0.  0.
         13    1    1    2    0    0 -0.30104777393E+01 -0.29480224376E+02  0.16512453603E+03  0.16776254102E+03  0.10566000000E+00 0.  1.
        994    1    1    2    0    0  0.22845187228E+02  0.10193430763E+02  0.48492944863E+01  0.17308600252E+03  0.17120000000E+03 0.  0.
        998    1    1    2    0    0 -0.19834709488E+02  0.19286793613E+02  0.13300261658E+04  0.13303514565E+04  0.10000000000E+02 0.  1.
</event>
<event>
 5    1  0.1582292E-008  0.3781058E+03  0.7957747E-01  0.3459448E+00
         13   -1    0    0    0    0  0.00000000000E+00  0.00000000000E+00  0.14999999963E+04  0.15000000000E+04  0.10566000000E+00 0.  1.
        994   -1    0    0    0    0 -0.00000000000E+00 -0.00000000000E+00  0.11368683772E-12  0.17120000000E+03  0.17120000000E+03 0.  0.
         13    1    1    2    0    0  0.23191159700E+03 -0.39504638257E+01  0.10076298532E+04  0.10339809124E+04  0.10566000000E+00 0.  1.
        994    1    1    2    0    0 -0.23564934063E+03 -0.18407310857E+02  0.22451324053E+03  0.36821878823E+03  0.17120000000E+03 0.  0.
        998    1    1    2    0    0  0.37377436329E+01  0.22357774683E+02  0.26785690252E+03  0.26900029933E+03  0.10000000000E+02 0.  1.
</event>
<event>
 5    1  0.1582292E-008  0.3820653E+03  0.7957747E-01  0.3442215E+00
         13   -1    0    0    0    0  0.00000000000E+00  0.00000000000E+00  0.14999999963E+04  0.15000000000E+04  0.10566000000E+00 0.  1.
        994   -1    0    0    0    0 -0.00000000000E+00 -0.00000000000E+00  0.11368683772E-12  0.17120000000E+03  0.17120000000E+03 0.  0.
         13    1    1    2    0    0  0.21147925573E+02 -0.13420720029E+01  0.72457378037E+02  0.75492507637E+02  0.10566000000E+00 0.  1.
        994    1    1    2    0    0 -0.12356326929E+02 -0.17743481377E+02  0.46479880351E+01  0.17262257598E+03  0.17120000000E+03 0.  0.
        998    1    1    2    0    0 -0.87915986446E+01  0.19085553380E+02  0.14228946302E+04  0.14230849164E+04  0.10000000000E+02 0.  1.
</event>
<event>
 5    1  0.1582292E-008  0.3780047E+03  0.7957747E-01  0.3459893E+00
         13   -1    0    0    0    0  0.00000000000E+00  0.00000000000E+00  0.14999999963E+04  0.15000000000E+04  0.10566000000E+00 0. -1.
        994   -1    0    0    0    0 -0.00000000000E+00 -0.00000000000E+00  0.11368683772E-12  0.17120000000E+03  0.17120000000E+03 0.  0.
         13    1    1    2    0    0 -0.12633790190E+02 -0.52580823021E+01  0.15798509152E+02  0.20901295164E+02  0.10566000000E+00 0. -1.
        994    1    1    2    0    0  0.12462501044E+02  0.71774906454E+01  0.58400898432E+01  0.17190223080E+03  0.17120000000E+03 0.  0.
        998    1    1    2    0    0  0.17128914645E+00 -0.19194083433E+01  0.14783613973E+04  0.14783964740E+04  0.10000000000E+02 0. -1.
</event>
<event>
 5    1  0.1582292E-008  0.3860779E+03  0.7957747E-01  0.3425114E+00
         13   -1    0    0    0    0  0.00000000000E+00  0.00000000000E+00  0.14999999963E+04  0.15000000000E+04  0.10566000000E+00 0. -1.
        994   -1    0    0    0    0 -0.00000000000E+00 -0.00000000000E+00  0.11368683772E-12  0.17120000000E+03  0.17120000000E+03 0.  0.
         13    1    1    2    0    0  0.10883711675E+02 -0.20085849740E+01  0.59904310380E+02  0.60918200560E+02  0.10566000000E+00 0. -1.
        994    1    1    2    0    0 -0.63729433422E+00 -0.41818337332E+01  0.11545730775E+01  0.17125614417E+03  0.17120000000E+03 0.  0.
        998    1    1    2    0    0 -0.10246417341E+02  0.61904187072E+01  0.14389411128E+04  0.14390256553E+04  0.10000000000E+02 0. -1.
</event>
<event>
 5    1  0.1582292E-008  0.3699712E+03  0.7957747E-01  0.3496023E+00
         13   -1    0    0    0    0  0.00000000000E+00  0.00000000000E+00  0.14999999963E+04  0.15000000000E+04  0.10566000000E+00 0. -1.
        994   -1    0    0    0    0 -0.00000000000E+00 -0.00000000000E+00  0.11368683772E-12  0.17120000000E+03  0.17120000000E+03 0.  0.
         13    1    1    2    0    0 -0.10875819832E+03  0.17688053225E+02  0.50688439821E+03  0.51872248577E+03  0.10566000000E+00 0. -1.
        994    1    1    2    0    0  0.88509177659E+02 -0.29290533883E+02  0.39970987140E+02  0.19899479822E+03  0.17120000000E+03 0.  0.
        998    1    1    2    0    0  0.20249020660E+02  0.11602480658E+02  0.95314461092E+03  0.95348271601E+03  0.10000000000E+02 0.  1.
</event>
<event>
 5    1  0.1582292E-008  0.3739883E+03  0.7957747E-01  0.3477760E+00
         13   -1    0    0    0    0  0.00000000000E+00  0.00000000000E+00  0.14999999963E+04  0.15000000000E+04  0.10566000000E+00 0. -1.
        994   -1    0    0    0    0 -0.00000000000E+00 -0.00000000000E+00  0.11368683772E-12  0.17120000000E+03  0.17120000000E+03 0.  0.
         13    1    1    2    0    0  0.16787345833E+02 -0.13389642354E+02  0.29176416125E+02  0.36226674211E+02  0.10566000000E+00 0. -1.
        994    1    1    2    0    0 -0.14904708557E+02  0.23302341301E+01  0.79757961444E+01  0.17204834685E+03  0.17120000000E+03 0.  0.
        998    1    1    2    0    0 -0.18826372764E+01  0.11059408224E+02  0.14628477840E+04  0.14629249789E+04  0.10000000000E+02 0. -1.
</event>
<event>
 5    1  0.1582292E-008  0.3791952E+03  0.7957747E-01  0.3454670E+00
         13   -1    0    0    0    0  0.00000000000E+00  0.00000000000E+00  0.14999999963E+04  0.15000000000E+04  0.10566000000E+00 0. -1.
        994   -1    0    0    0    0 -0.00000000000E+00 -0.00000000000E+00  0.11368683772E-12  0.17120000000E+03  0.17120000000E+03 0.  0.
         13    1    1    2    0    0  0.15238213763E+02  0.30867383811E+00  0.23853588342E+02  0.28307300808E+02  0.10566000000E+00 0. -1.
        994    1    1    2    0    0 -0.82244203910E+01 -0.62401018562E+01  0.48972606145E+01  0.17158089382E+03  0.17120000000E+03 0.  0.
        998    1    1    2    0    0 -0.70137933717E+01  0.59314280180E+01  0.14712491473E+04  0.14713118054E+04  0.10000000000E+02 0. -1.
</event>
<event>
 5    1  0.1582292E-008  0.3779060E+03  0.7957747E-01  0.3460327E+00
         13   -1    0    0    0    0  0.00000000000E+00  0.00000000000E+00  0.14999999963E+04  0.15000000000E+04  0.10566000000E+00 0. -1.
        994   -1    0    0    0    0 -0.00000000000E+00 -0.00000000000E+00  0.11368683772E-12  0.17120000000E+03  0.17120000000E+03 0.  0.
         13    1    1    2    0    0 -0.10626949301E+02 -0.10260721464E+02  0.18717753302E+02  0.23844913695E+02  0.10566000000E+00 0. -1.
        994    1    1    2    0    0  0.83657071657E+01  0.84421398748E+01  0.56695685413E+01  0.17170567489E+03  0.17120000000E+03 0.  0.
        998    1    1    2    0    0  0.22612421353E+01  0.18185815894E+01  0.14756126744E+04  0.14756494114E+04  0.10000000000E+02 0. -1.
</event>
<event>
 5    1  0.1582292E-008  0.3782617E+03  0.7957747E-01  0.3458763E+00
         13   -1    0    0    0    0  0.00000000000E+00  0.00000000000E+00  0.14999999963E+04  0.15000000000E+04  0.10566000000E+00 0.  1.
        994   -1    0    0    0    0 -0.00000000000E+00 -0.00000000000E+00  0.11368683772E-12  0.17120000000E+03  0.17120000000E+03 0.  0.
         13    1    1    2    0    0 -0.13366140385E+02 -0.19149299956E+01  0.16052314466E+02  0.20976382658E+02  0.10566000000E+00 0.  1.
        994    1    1    2    0    0  0.71245977166E+01  0.10969008578E+02  0.55886329788E+01  0.17178984795E+03  0.17120000000E+03 0.  0.
        998    1    1    2    0    0  0.62415426684E+01 -0.90540785821E+01  0.14783590488E+04  0.14784337694E+04  0.10000000000E+02 0.  1.
</event>
<event>
 5    1  0.1582292E-008  0.3791628E+03  0.7957747E-01  0.3454812E+00
         13   -1    0    0    0    0  0.00000000000E+00  0.00000000000E+00  0.14999999963E+04  0.15000000000E+04  0.10566000000E+00 0. -1.
        994   -1    0    0    0    0 -0.00000000000E+00 -0.00000000000E+00  0.11368683772E-12  0.17120000000E+03  0.17120000000E+03 0.  0.
         13    1    1    2    0    0  0.33465846612E+01 -0.27379797687E+02  0.82211721918E+02  0.86715807873E+02  0.10566000000E+00 0. -1.
        994    1    1    2    0    0  0.52172728758E+01  0.16958214179E+02  0.56123243484E+01  0.17220841776E+03  0.17120000000E+03 0.  0.
        998    1    1    2    0    0 -0.85638575370E+01  0.10421583508E+02  0.14121759500E+04  0.14122757744E+04  0.10000000000E+02 0. -1.
</event>
<event>
 5    1  0.1582292E-008  0.3830046E+03  0.7957747E-01  0.3438179E+00
         13   -1    0    0    0    0  0.00000000000E+00  0.00000000000E+00  0.14999999963E+04  0.15000000000E+04  0.10566000000E+00 0.  1.
        994   -1    0    0    0    0 -0.00000000000E+00 -0.00000000000E+00  0.11368683772E-12  0.17120000000E+03  0.17120000000E+03 0.  0.
         13    1    1    2    0    0  0.15252563577E+02  0.27704991528E+02  0.18152666940E+03  0.18426109226E+03  0.10566000000E+00 0.  1.
        994    1    1    2    0    0 -0.91419696776E+01 -0.22126393723E+02  0.45235206597E+01  0.17292499862E+03  0.17120000000E+03 0.  0.
        998    1    1    2    0    0 -0.61105938996E+01 -0.55785978053E+01  0.13139498062E+04  0.13140139091E+04  0.10000000000E+02 0.  1.
</event>
<event>
 5    1  0.1582292E-008  0.3826344E+03  0.7957747E-01  0.3439767E+00
         13   -1    0    0    0    0  0.00000000000E+00  0.00000000000E+00  0.14999999963E+04  0.15000000000E+04  0.10566000000E+00 0. -1.
        994   -1    0    0    0    0 -0.00000000000E+00 -0.00000000000E+00  0.11368683772E-12  0.17120000000E+03  0.17120000000E+03 0.  0.
         13    1    1    2    0    0  0.63454307622E+01  0.24995768220E+02  0.12433140186E+03  0.12697779953E+03  0.10566000000E+00 0. -1.
        994    1    1    2    0    0 -0.44924251125E+01 -0.65740256408E+01  0.30193330506E+01  0.17141165675E+03  0.17120000000E+03 0.  0.
        998    1    1    2    0    0 -0.18530056497E+01 -0.18421742579E+02  0.13726492614E+04  0.13728105437E+04  0.10000000000E+02 0. -1.
</event>
<event>
 5    1  0.1582292E-008  0.3797087E+03  0.7957747E-01  0.3452428E+00
         13   -1    0    0    0    0  0.00000000000E+00  0.00000000000E+00  0.14999999963E+04  0.15000000000E+04  0.10566000000E+00 0.  1.
        994   -1    0    0    0    0 -0.00000000000E+00 -0.00000000000E+00  0.11368683772E-12  0.17120000000E+03  0.17120000000E+03 0.  0.
         13    1    1    2    0    0 -0.71863824822E+01 -0.10389418981E+02  0.17475332998E+02  0.21563453976E+02  0.10566000000E+00 0.  1.
        994    1    1    2    0    0  0.16322073830E+01 -0.84104063609E+01  0.45259100801E+01  0.17147397149E+03  0.17120000000E+03 0.  0.
        998    1    1    2    0    0  0.55541750992E+01  0.18799825342E+02  0.14779987532E+04  0.14781625745E+04  0.10000000000E+02 0.  1.
</event>
<event>
 5    1  0.1582292E-008  0.3832737E+03  0.7957747E-01  0.3437027E+00
         13   -1    0    0    0    0  0.00000000000E+00  0.00000000000E+00  0.14999999963E+04  0.15000000000E+04  0.10566000000E+00 0. -1.
        994   -1    0    0    0    0 -0.00000000000E+00 -0.00000000000E+00  0.11368683772E-12  0.17120000000E+03  0.17120000000E+03 0.  0.
         13    1    1    2    0    0 -0.19560468942E+02  0.79702711284E+00  0.74313211453E+02  0.76848628862E+02  0.10566000000E+00 0. -1.
        994    1    1    2    0    0  0.17228534139E+02 -0.94354319506E+00  0.34748636285E+01  0.17210237459E+03  0.17120000000E+03 0.  0.
        998    1    1    2    0    0  0.23319348024E+01  0.14651608222E+00  0.14222119212E+04  0.14222489965E+04  0.10000000000E+02 0. -1.
</event>
<event>
 5    1  0.1582292E-008  0.3529220E+03  0.7957747E-01  0.3578259E+00
         13   -1    0    0    0    0  0.00000000000E+00  0.00000000000E+00  0.14999999963E+04  0.15000000000E+04  0.10566000000E+00 0.  1.
        994   -1    0    0    0    0 -0.00000000000E+00 -0.00000000000E+00  0.11368683772E-12  0.17120000000E+03  0.17120000000E+03 0.  0.
         13    1    1    2    0    0  0.12249565667E+03  0.18348216035E+03  0.11092290564E+04  0.11309553483E+04  0.10566000000E+00 0.  1.
        994    1    1    2    0    0 -0.17308984393E+03 -0.13539128216E+03  0.21829715343E+03  0.35391239107E+03  0.17120000000E+03 0.  0.
        998    1    1    2    0    0  0.50594187251E+02 -0.48090878185E+02  0.17247378643E+03  0.18633226063E+03  0.10000000000E+02 0.  1.
</event>
<event>
 5    1  0.1582292E-008  0.3832630E+03  0.7957747E-01  0.3437073E+00
         13   -1    0    0    0    0  0.00000000000E+00  0.00000000000E+00  0.14999999963E+04  0.15000000000E+04  0.10566000000E+00 0.  1.
        994   -1    0    0    0    0 -0.00000000000E+00 -0.00000000000E+00  0.11368683772E-12  0.17120000000E+03  0.17120000000E+03 0.  0.
         13    1    1    2    0    0  0.17101081025E+02 -0.44131656949E+01  0.66309956785E+02  0.68621749734E+02  0.10566000000E+00 0.  1.
        994    1    1    2    0    0  0.38936822973E+00 -0.52451869081E+01  0.25864915111E+01  0.17130030219E+03  0.17120000000E+03 0.  0.
        998    1    1    2    0    0 -0.17490449255E+02  0.96583526030E+01  0.14311035480E+04  0.14312779481E+04  0.10000000000E+02 0.  1.
</event>
<event>
 5    1  0.1582292E-008  0.3778680E+03  0.7957747E-01  0.3460494E+00
         13   -1    0    0    0    0  0.00000000000E+00  0.00000000000E+00  0.14999999963E+04  0.15000000000E+04  0.10566000000E+00 0. -1.
        994   -1    0    0    0    0 -0.00000000000E+00 -0.00000000000E+00  0.11368683772E-12  0.17120000000E+03  0.17120000000E+03 0.  0.
         13    1    1    2    0    0 -0.12596106678E+03 -0.62970807757E+02  0.67480527818E+03  0.68934293904E+03  0.10566000000E+00 0. -1.
        994    1    1    2    0    0  0.14498786909E+03  0.75447756099E+02  0.10117274873E+03  0.25740864626E+03  0.17120000000E+03 0.  0.
        998    1    1    2    0    0 -0.19026802300E+02 -0.12476948342E+02  0.72402196937E+03  0.72444841471E+03  0.10000000000E+02 0.  1.
</event>
<event>
 5    1  0.1582292E-008  0.3797563E+03  0.7957747E-01  0.3452220E+00
         13   -1    0    0    0    0  0.00000000000E+00  0.00000000000E+00  0.14999999963E+04  0.15000000000E+04  0.10566000000E+00 0.  1.
        994   -1    0    0    0    0 -0.00000000000E+00 -0.00000000000E+00  0.11368683772E-12  0.17120000000E+03  0.17120000000E+03 0.  0.
         13    1    1    2    0    0 -0.18481830672E+01 -0.11440792105E+02  0.13849508910E+02  0.18059002346E+02  0.10566000000E+00 0.  1.
        994    1    1    2    0    0  0.43804063604E+01  0.10245677337E+02  0.46717192799E+01  0.17162583379E+03  0.17120000000E+03 0.  0.
        998    1    1    2    0    0 -0.25322232932E+01  0.11951147683E+01  0.14814787681E+04  0.14815151639E+04  0.10000000000E+02 0.  1.
</event>
<event>
 5    1  0.1582292E-008  0.3850503E+03  0.7957747E-01  0.3429459E+00
         13   -1    0    0    0    0  0.00000000000E+00  0.00000000000E+00  0.14999999963E+04  0.15000000000E+04  0.10566000000E+00 0.  1.
        994   -1    0    0    0    0 -0.00000000000E+00 -0.00000000000E+00  0.11368683772E-12  0.17120000000E+03  0.17120000000E+03 0.  0.
         13    1    1    2    0    0 -0.13377621434E+02  0.61372304462E+01  0.73269462971E+02  0.74733203603E+02  0.10566000000E+00 0.  1.
        994    1    1    2    0    0 -0.49379492524E+01 -0.56538836525E+01  0.17904572719E+01  0.17137384713E+03  0.17120000000E+03 0.  0.
        998    1    1    2    0    0  0.18315570686E+02 -0.48334679363E+00  0.14249400760E+04  0.14250929493E+04  0.10000000000E+02 0.  1.
</event>
<event>
 5    1  0.1582292E-008  0.3839083E+03  0.7957747E-01  0.3434316E+00
         13   -1    0    0    0    0  0.00000000000E+00  0.00000000000E+00  0.14999999963E+04  0.15000000000E+04  0.10566000000E+00 0. -1.
        994   -1    0    0    0    0 -0.00000000000E+00 -0.00000000000E+00  0.11368683772E-12  0.17120000000E+03  0.17120000000E+03 0.  0.
         13    1    1    2    0    0 -0.35544249715E+01 -0.23451127799E+02  0.14071342802E+03  0.14269852599E+03  0.10566000000E+00 0. -1.
        994    1    1    2    0    0  0.13595995058E+01  0.38668271362E+01  0.22285777318E+01  0.17126356128E+03  0.17120000000E+03 0.  0.
        998    1    1    2    0    0  0.21948254657E+01  0.19584300662E+02  0.13570579905E+04  0.13572379127E+04  0.10000000000E+02 0. -1.
</event>
<event>
 5    1  0.1582292E-008  0.3734185E+03  0.7957747E-01  0.3480326E+00
         13   -1    0    0    0    0  0.00000000000E+00  0.00000000000E+00  0.14999999963E+04  0.15000000000E+04  0.10566000000E+00 0.  1.
        994   -1    0    0    0    0 -0.00000000000E+00 -0.00000000000E+00  0.11368683772E-12  0.17120000000E+03  0.17120000000E+03 0.  0.
         13    1    1    2    0    0  0.14985875903E+03  0.92692322726E+02  0.89832761699E+03  0.91544635723E+03  0.10566000000E+00 0.  1.
        994    1    1    2    0    0 -0.14217487295E+03 -0.81713045622E+02  0.10580628835E+03  0.25960571445E+03  0.17120000000E+03 0.  0.
        998    1    1    2    0    0 -0.76838860808E+01 -0.10979277104E+02  0.49586609094E+03  0.49614792831E+03  0.10000000000E+02 0.  0.
</event>
<event>
 5    1  0.1582292E-008  0.3731205E+03  0.7957747E-01  0.3481671E+00
         13   -1    0    0    0    0  0.00000000000E+00  0.00000000000E+00  0.14999999963E+04  0.15000000000E+04  0.10566000000E+00 0.  1.
        994   -1    0    0    0    0 -0.00000000000E+00 -0.00000000000E+00  0.11368683772E-12  0.17120000000E+03  0.17120000000E+03 0.  0.
         13    1    1    2    0    0  0.22733301230E+02 -0.20897840766E+02  0.58602557749E+02  0.66240423249E+02  0.10566000000E+00 0.  1.
        994    1    1    2    0    0 -0.24521859472E+00  0.35838624240E+02  0.12053789793E+02  0.17532598486E+03  0.17120000000E+03 0.  0.
        998    1    1    2    0    0 -0.22488082635E+02 -0.14940783474E+02  0.14293436487E+04  0.14296335919E+04  0.10000000000E+02 0.  1.
</event>
<event>
 5    1  0.1582292E-008  0.3819606E+03  0.7957747E-01  0.3442666E+00
         13   -1    0    0    0    0  0.00000000000E+00  0.00000000000E+00  0.14999999963E+04  0.15000000000E+04  0.10566000000E+00 0.  1.
        994   -1    0    0    0    0 -0.00000000000E+00 -0.00000000000E+00  0.11368683772E-12  0.17120000000E+03  0.17120000000E+03 0.  0.
         13    1    1    2    0    0  0.21023870245E+03 -0.10905933650E+03  0.11260108962E+04  0.11506497297E+04  0.10566000000E+00 0.  1.
        994    1    1    2    0    0 -0.21263783706E+03  0.10238711011E+03  0.21792065793E+03  0.36400113079E+03  0.17120000000E+03 0.  0.
        998    1    1    2    0    0  0.23991346152E+01  0.66722263828E+01  0.15606844217E+03  0.15654913955E+03  0.10000000000E+02 0.  0.
</event>
<event>
 5    1  0.1582292E-008  0.3855328E+03  0.7957747E-01  0.3427416E+00
         13   -1    0    0    0    0  0.00000000000E+00  0.00000000000E+00  0.14999999963E+04  0.15000000000E+04  0.10566000000E+00 0. -1.
        994   -1    0    0    0    0 -0.00000000000E+00 -0.00000000000E+00  0.11368683772E-12  0.17120000000E+03  0.17120000000E+03 0.  0.
         13    1    1    2    0    0 -0.29997953569E+01 -0.16917513761E+02  0.10336193071E+03  0.10478025066E+03  0.10566000000E+00 0. -1.
        994    1    1    2    0    0  0.88228830617E+01  0.15466726761E+02  0.24074383304E+01  0.17214034583E+03  0.17120000000E+03 0.  0.
        998    1    1    2    0    0 -0.58230877048E+01  0.14507869998E+01  0.13942306272E+04  0.13942794035E+04  0.10000000000E+02 0. -1.
</event>
<event>
 5    1  0.1582292E-008  0.3944990E+03  0.7957747E-01  0.3390359E+00
         13   -1    0    0    0    0  0.00000000000E+00  0.00000000000E+00  0.14999999963E+04  0.15000000000E+04  0.10566000000E+00 0. -1.
        994   -1    0    0    0    0 -0.00000000000E+00 -0.00000000000E+00  0.11368683772E-12  0.17120000000E+03  0.17120000000E+03 0.  0.
         13    1    1    2    0    0 -0.43727014880E+02 -0.96441484218E+02  0.20618863336E+03  0.23179036951E+03  0.10566000000E+00 0. -1.
        994    1    1    2    0    0 -0.23282314577E+02  0.10536674711E+03  0.70660811899E+02  0.21435159879E+03  0.17120000000E+03 0.  0.
        998    1    1    2    0    0  0.67009329457E+02 -0.89252628870E+01  0.12231505510E+04  0.12250580317E+04  0.10000000000E+02 0. -1.
</event>
<event>
 5    1  0.1582292E-008  0.3832061E+03  0.7957747E-01  0.3437316E+00
         13   -1    0    0    0    0  0.00000000000E+00  0.00000000000E+00  0.14999999963E+04  0.15000000000E+04  0.10566000000E+00 0. -1.
        994   -1    0    0    0    0 -0.00000000000E+00 -0.00000000000E+00  0.11368683772E-12  0.17120000000E+03  0.17120000000E+03 0.  0.
         13    1    1    2    0    0  0.15886139843E+00 -0.21632837756E+02  0.10113376332E+03  0.10342172960E+03  0.10566000000E+00 0. -1.
        994    1    1    2    0    0 -0.22118132670E+02 -0.40874781605E+00  0.41438707869E+01  0.17267307414E+03  0.17120000000E+03 0.  0.
        998    1    1    2    0    0  0.21959271271E+02  0.22041585573E+02  0.13947223622E+04  0.13951051963E+04  0.10000000000E+02 0. -1.
</event>
<event>
 5    1  0.1582292E-008  0.3832390E+03  0.7957747E-01  0.3437175E+00
         13   -1    0    0    0    0  0.00000000000E+00  0.00000000000E+00  0.14999999963E+04  0.15000000000E+04  0.10566000000E+00 0.  1.
        994   -1    0    0    0    0 -0.00000000000E+00 -0.00000000000E+00  0.11368683772E-12  0.17120000000E+03  0.17120000000E+03 0.  0.
         13    1    1    2    0    0 -0.10709036896E+02  0.65193020689E+01  0.30046230287E+02  0.32557209481E+02  0.10566000000E+00 0.  1.
        994    1    1    2    0    0  0.12061922761E+02 -0.50134973368E+01  0.30715269622E+01  0.17172506927E+03  0.17120000000E+03 0.  0.
        998    1    1    2    0    0 -0.13528858652E+01 -0.15058047321E+01  0.14668822390E+04  0.14669177213E+04  0.10000000000E+02 0.  1.
</event>
<event>
 5    1  0.1582292E-008  0.3806835E+03  0.7957747E-01  0.3448188E+00
         13   -1    0    0    0    0  0.00000000000E+00  0.00000000000E+00  0.14999999963E+04  0.15000000000E+04  0.10566000000E+00 0.  1.
        994   -1    0    0    0    0 -0.00000000000E+00 -0.00000000000E+00  0.11368683772E-12  0.17120000000E+03  0.17120000000E+03 0.  0.
         13    1    1    2    0    0  0.12291627167E+02 -0.54741777029E+00  0.18442164876E+02  0.22169988136E+02  0.10566000000E+00 0.  1.
        994    1    1    2    0    0 -0.76900554760E+01  0.54305628029E+01  0.40841796650E+01  0.17150728407E+03  0.17120000000E+03 0.  0.
        998    1    1    2    0    0 -0.46015716906E+01 -0.48831450326E+01  0.14774736517E+04  0.14775227278E+04  0.10000000000E+02 0.  1.
</event>
<event>
 5    1  0.1582292E-008  0.3838175E+03  0.7957747E-01  0.3434703E+00
         13   -1    0    0    0    0  0.00000000000E+00  0.00000000000E+00  0.14999999963E+04  0.15000000000E+04  0.10566000000E+00 0. -1.
        994   -1    0    0    0    0 -0.00000000000E+00 -0.00000000000E+00  0.11368683772E-12  0.17120000000E+03  0.17120000000E+03 0.  0.
         13    1    1    2    0    0 -0.71038070443E+01 -0.73556776620E+01  0.25642340892E+02  0.27606355769E+02  0.10566000000E+00 0. -1.
        994    1    1    2    0    0 -0.11711061580E+02 -0.22567205689E+02  0.43553362894E+01  0.17313242530E+03  0.17120000000E+03 0.  0.
        998    1    1    2    0    0  0.18814868625E+02  0.29922883351E+02  0.14700023191E+04  0.14704612189E+04  0.10000000000E+02 0. -1.
</event>
<event>
 5    1  0.1582292E-008  0.3826869E+03  0.7957747E-01  0.3439542E+00
         13   -1    0    0    0    0  0.00000000000E+00  0.00000000000E+00  0.14999999963E+04  0.15000000000E+04  0.10566000000E+00 0.  1.
        994   -1    0    0    0    0 -0.00000000000E+00 -0.00000000000E+00  0.11368683772E-12  0.17120000000E+03  0.17120000000E+03 0.  0.
         13    1    1    2    0    0 -0.50349588013E+01 -0.17568043407E+02  0.58532819813E+02  0.61319565544E+02  0.10566000000E+00 0.  1.
        994    1    1    2    0    0  0.13274259763E+01  0.14273092995E+02  0.34640645363E+01  0.17183399834E+03  0.17120000000E+03 0.  0.
        998    1    1    2    0    0  0.37075328250E+01  0.32949504115E+01  0.14380031119E+04  0.14380464361E+04  0.10000000000E+02 0.  1.
</event>
<event>
 5    1  0.1582292E-008  0.3822887E+03  0.7957747E-01  0.3441253E+00
         13   -1    0    0    0    0  0.00000000000E+00  0.00000000000E+00  0.14999999963E+04  0.15000000000E+04  0.10566000000E+00 0. -1.
        994   -1    0    0    0    0 -0.00000000000E+00 -0.00000000000E+00  0.11368683772E-12  0.17120000000E+03  0.17120000000E+03 0.  0.
         13    1    1    2    0    0 -0.64263192607E+01  0.26373953969E+02  0.11654977469E+03  0.11966931173E+03  0.10566000000E+00 0. -1.
        994    1    1    2    0    0  0.82750916166E+01 -0.23084289836E+02  0.49800511719E+01  0.17301908128E+03  0.17120000000E+03 0.  0.
        998    1    1    2    0    0 -0.18487723559E+01 -0.32896641330E+01  0.13784701704E+04  0.13785116070E+04  0.10000000000E+02 0. -1.
</event>
<event>
 5    1  0.1582292E-008  0.3773699E+03  0.7957747E-01  0.3462691E+00
         13   -1    0    0    0    0  0.00000000000E+00  0.00000000000E+00  0.14999999963E+04  0.15000000000E+04  0.10566000000E+00 0.  1.
        994   -1    0    0    0    0 -0.00000000000E+00 -0.00000000000E+00  0.11368683772E-12  0.17120000000E+03  0.17120000000E+03 0.  0.
         13    1    1    2    0    0 -0.14761717852E+02  0.28756612321E+02  0.99916506812E+02  0.10501509684E+03  0.10566000000E+00 0.  1.
        994    1    1    2    0    0  0.60639593768E+01 -0.31997110503E+01  0.56252921236E+01  0.17142955890E+03  0.17120000000E+03 0.  0.
        998    1    1    2    0    0  0.86977584749E+01 -0.25556901271E+02  0.13944581973E+04  0.13947553443E+04  0.10000000000E+02 0.  1.
</event>
<event>
 5    1  0.1582292E-008  0.3843943E+03  0.7957747E-01  0.3432245E+00
         13   -1    0    0    0    0  0.00000000000E+00  0.00000000000E+00  0.14999999963E+04  0.15000000000E+04  0.10566000000E+00 0.  1.
        994   -1    0    0    0    0 -0.00000000000E+00 -0.00000000000E+00  0.11368683772E-12  0.17120000000E+03  0.17120000000E+03 0.  0.
         13    1    1    2    0    0  0.36198176815E+01  0.11316861306E+02  0.35643801611E+02  0.37572146428E+02  0.10566000000E+00 0.  1.
        994    1    1    2    0    0 -0.14740857256E+02 -0.71312341271E+01  0.28152516298E+01  0.17200439824E+03  0.17120000000E+03 0.  0.
        998    1    1    2    0    0  0.11121039575E+02 -0.41856271787E+01  0.14615409430E+04  0.14616234553E+04  0.10000000000E+02 0.  1.
</event>
<event>
 5    1  0.1582292E-008  0.3858406E+03  0.7957747E-01  0.3426115E+00
         13   -1    0    0    0    0  0.00000000000E+00  0.00000000000E+00  0.14999999963E+04  0.15000000000E+04  0.10566000000E+00 0.  1.
        994   -1    0    0    0    0 -0.00000000000E+00 -0.00000000000E+00  0.11368683772E-12  0.17120000000E+03  0.17120000000E+03 0.  0.
         13    1    1    2    0    0 -0.99473556667E+01 -0.24301086973E+01  0.45660358936E+02  0.46794602844E+02  0.10566000000E+00 0.  1.
        994    1    1    2    0    0 -0.20409564552E+01  0.59432505478E+01  0.13429033561E+01  0.17132055078E+03  0.17120000000E+03 0.  0.
        998    1    1    2    0    0  0.11988312122E+02 -0.35131418505E+01  0.14529967340E+04  0.14530848464E+04  0.10000000000E+02 0.  1.
</event>
<event>
 5    1  0.1582292E-008  0.3822456E+03  0.7957747E-01  0.3441439E+00
         13   -1    0    0    0    0  0.00000000000E+00  0.00000000000E+00  0.14999999963E+04  0.15000000000E+04  0.10566000000E+00 0.  1.
        994   -1    0    0    0    0 -0.00000000000E+00 -0.00000000000E+00  0.11368683772E-12  0.17120000000E+03  0.17120000000E+03 0.  0.
         13    1    1    2    0    0 -0.24468009957E+02 -0.27542741172E+02  0.19031602248E+03  0.19384913123E+03  0.10566000000E+00 0.  1.
        994    1    1    2    0    0  0.32225097758E+02  0.27751059905E+02  0.90285913954E+01  0.17663389741E+03  0.17120000000E+03 0.  0.
        998    1    1    2    0    0 -0.77570878010E+01 -0.20831873337E+00  0.13006553824E+04  0.13007169714E+04  0.10000000000E+02 0.  1.
</event>
<event>
 5    1  0.1582292E-008  0.3721486E+03  0.7957747E-01  0.3486074E+00
         13   -1    0    0    0    0  0.00000000000E+00  0.00000000000E+00  0.14999999963E+04  0.15000000000E+04  0.10566000000E+00 0. -1.
        994   -1    0    0    0    0 -0.00000000000E+00 -0.00000000000E+00  0.11368683772E-12  0.17120000000E+03  0.17120000000E+03 0.  0.
         13    1    1    2    0    0 -0.12931939599E+02 -0.17203336245E+02  0.24682131202E+02  0.32747650365E+02  0.10566000000E+00 0. -1.
        994    1    1    2    0    0  0.14183908440E+02  0.14619354747E+02  0.95756632609E+01  0.17267322351E+03  0.17120000000E+03 0.  0.
        998    1    1    2    0    0 -0.12519688409E+01  0.25839814979E+01  0.14657422018E+04  0.14657791261E+04  0.10000000000E+02 0. -1.
</event>
<event>
 5    1  0.1582292E-008  0.3843536E+03  0.7957747E-01  0.3432418E+00
         13   -1    0    0    0    0  0.00000000000E+00  0.00000000000E+00  0.14999999963E+04  0.15000000000E+04  0.10566000000E+00 0. -1.
        994   -1    0    0    0    0 -0.00000000000E+00 -0.00000000000E+00  0.11368683772E-12  0.17120000000E+03  0.17120000000E+03 0.  0.
         13    1    1    2    0    0 -0.18939004945E+02  0.13018589572E+01  0.87540502528E+02  0.89575283935E+02  0.10566000000E+00 0. -1.
        994    1    1    2    0    0  0.20226906671E+02  0.68130204892E+01  0.34541097496E+01  0.17255989069E+03  0.17120000000E+03 0.  0.
        998    1    1    2    0    0 -0.12879017255E+01 -0.81148794463E+01  0.14090053840E+04  0.14090648254E+04  0.10000000000E+02 0. -1.
</event>
<event>
 5    1  0.1582292E-008  0.3773629E+03  0.7957747E-01  0.3462722E+00
         13   -1    0    0    0    0  0.00000000000E+00  0.00000000000E+00  0.14999999963E+04  0.15000000000E+04  0.10566000000E+00 0. -1.
        994   -1    0    0    0    0 -0.00000000000E+00 -0.00000000000E+00  0.11368683772E-12  0.17120000000E+03  0.17120000000E+03 0.  0.
         13    1    1    2    0    0 -0.15089183535E+02  0.46291643051E+00  0.18593424245E+02  0.23950455957E+02  0.10566000000E+00 0. -1.
        994    1    1    2    0    0  0.83879825402E+01  0.36804509680E+01  0.57533217677E+01  0.17154137892E+03  0.17120000000E+03 0.  0.
        998    1    1    2    0    0  0.67012009951E+01 -0.41433673985E+01  0.14756532503E+04  0.14757081651E+04  0.10000000000E+02 0. -1.
</event>
<event>
 5    1  0.1582292E-008  0.3797372E+03  0.7957747E-01  0.3452304E+00
         13   -1    0    0    0    0  0.00000000000E+00  0.00000000000E+00  0.14999999963E+04  0.15000000000E+04  0.10566000000E+00 0.  1.
        994   -1    0    0    0    0 -0.00000000000E+00 -0.00000000000E+00  0.11368683772E-12  0.17120000000E+03  0.17120000000E+03 0.  0.
         13    1    1    2    0    0  0.21426058345E+01 -0.14572166517E+02  0.23362095235E+02  0.27617701833E+02  0.10566000000E+00 0.  1.
        994    1    1    2    0    0 -0.36598656136E+01  0.14591961129E+02  0.50234737263E+01  0.17193311268E+03  0.17120000000E+03 0.  0.
        998    1    1    2    0    0  0.15172597791E+01 -0.19794612407E-01  0.14716144273E+04  0.14716491855E+04  0.10000000000E+02 0.  1.
</event>
<event>
 5    1  0.1582292E-008  0.3815730E+03  0.7957747E-01  0.3444338E+00
         13   -1    0    0    0    0  0.00000000000E+00  0.00000000000E+00  0.14999999963E+04  0.15000000000E+04  0.10566000000E+00 0. -1.
        994   -1    0    0    0    0 -0.00000000000E+00 -0.00000000000E+00  0.11368683772E-12  0.17120000000E+03  0.17120000000E+03 0.  0.
         13    1    1    2    0    0 -0.11511555750E+02 -0.43933327254E+01  0.21415826124E+02  0.24707611395E+02  0.10566000000E+00 0. -1.
        994    1    1    2    0    0  0.71794718869E+01  0.41511995912E+01  0.35699852982E+01  0.17143792483E+03  0.17120000000E+03 0.  0.
        998    1    1    2    0    0  0.43320838633E+01  0.24213313415E+00  0.14750141849E+04  0.14750544638E+04  0.10000000000E+02 0. -1.
</event>
<event>
 5    1  0.1582292E-008  0.3843946E+03  0.7957747E-01  0.3432244E+00
         13   -1    0    0    0    0  0.00000000000E+00  0.00000000000E+00  0.14999999963E+04  0.15000000000E+04  0.10566000000E+00 0.  1.
        994   -1    0    0    0    0 -0.00000000000E+00 -0.00000000000E+00  0.11368683772E-12  0.17120000000E+03  0.17120000000E+03 0.  0.
         13    1    1    2    0    0 -0.51612498080E-01  0.15097085542E+02  0.55489318685E+02  0.57506524046E+02  0.10566000000E+00 0.  1.
        994    1    1    2    0    0 -0.88703856388E+01 -0.20592895664E+02  0.35893792911E+01  0.17269937677E+03  0.17120000000E+03 0.  0.
        998    1    1    2    0    0  0.89219981369E+01  0.54958101222E+01  0.14409212983E+04  0.14409940992E+04  0.10000000000E+02 0.  1.
</event>
<event>
 5    1  0.1582292E-008  0.3798050E+03  0.7957747E-01  0.3452008E+00
         13   -1    0    0    0    0  0.00000000000E+00  0.00000000000E+00  0.14999999963E+04  0.15000000000E+04  0.10566000000E+00 0.  1.
        994   -1    0    0    0    0 -0.00000000000E+00 -0.00000000000E+00  0.11368683772E-12  0.17120000000E+03  0.17120000000E+03 0.  0.
         13    1    1    2    0    0  0.15400918582E+02 -0.81410934950E+01  0.39685397238E+02  0.43340600070E+02  0.10566000000E+00 0.  1.
        994    1    1    2    0    0  0.25298578189E+02 -0.20772901022E+02  0.78242519744E+01  0.17447690505E+03  0.17120000000E+03 0.  0.
        998    1    1    2    0    0 -0.40699496771E+02  0.28913994517E+02  0.14524903471E+04  0.14533824949E+04  0.10000000000E+02 0.  1.
</event>
<event>
 5    1  0.1582292E-008  0.3819284E+03  0.7957747E-01  0.3442805E+00
         13   -1    0    0    0    0  0.00000000000E+00  0.00000000000E+00  0.14999999963E+04  0.15000000000E+04  0.10566000000E+00 0. -1.
        994   -1    0    0    0    0 -0.00000000000E+00 -0.00000000000E+00  0.11368683772E-12  0.17120000000E+03  0.17120000000E+03 0.  0.
         13    1    1    2    0    0  0.14894215877E+02  0.16419003678E+01  0.35039105015E+02  0.38108838184E+02  0.10566000000E+00 0. -1.
        994    1    1    2    0    0 -0.54549973249E+01  0.74165029999E+01  0.34444603187E+01  0.17148196937E+03  0.17120000000E+03 0.  0.
        998    1    1    2    0    0 -0.94392185521E+01 -0.90584033677E+01  0.14615164309E+04  0.14616091924E+04  0.10000000000E+02 0. -1.
</event>
<event>
 5    1  0.1582292E-008  0.3789322E+03  0.7957747E-01  0.3455821E+00
         13   -1    0    0    0    0  0.00000000000E+00  0.00000000000E+00  0.14999999963E+04  0.15000000000E+04  0.10566000000E+00 0.  1.
        994   -1    0    0    0    0 -0.00000000000E+00 -0.00000000000E+00  0.11368683772E-12  0.17120000000E+03  0.17120000000E+03 0.  0.
         13    1    1    2    0    0 -0.12559331629E+02  0.22988119521E+01  0.15597308817E+02  0.20157096857E+02  0.10566000000E+00 0.  1.
        994    1    1    2    0    0  0.61703824087E+01  0.88504409729E+01  0.50637415286E+01  0.17161435081E+03  0.17120000000E+03 0.  0.
        998    1    1    2    0    0  0.63889492200E+01 -0.11149252925E+02  0.14793389459E+04  0.14794285523E+04  0.10000000000E+02 0.  1.
</event>
<event>
 5    1  0.1582292E-008  0.3798185E+03  0.7957747E-01  0.3451949E+00
         13   -1    0    0    0    0  0.00000000000E+00  0.00000000000E+00  0.14999999963E+04  0.15000000000E+04  0.10566000000E+00 0.  1.
        994   -1    0    0    0    0 -0.00000000000E+00 -0.00000000000E+00  0.11368683772E-12  0.17120000000E+03  0.17120000000E+03 0.  0.
         13    1    1    2    0    0  0.31185975509E+02  0.23853701902E+02  0.19928988712E+03  0.20312073857E+03  0.10566000000E+00 0.  1.
        994    1    1    2    0    0 -0.93017836104E+01 -0.39075936820E+01  0.45653788113E+01  0.17155778954E+03  0.17120000000E+03 0.  0.
        998    1    1    2    0    0 -0.21884191899E+02 -0.19946108220E+02  0.12961447303E+04  0.12965214719E+04  0.10000000000E+02 0.  1.
</event>
<event>
 5    1  0.1582292E-008  0.3798577E+03  0.7957747E-01  0.3451778E+00
         13   -1    0    0    0    0  0.00000000000E+00  0.00000000000E+00  0.14999999963E+04  0.15000000000E+04  0.10566000000E+00 0. -1.
        994   -1    0    0    0    0 -0.00000000000E+00 -0.00000000000E+00  0.11368683772E-12  0.17120000000E+03  0.17120000000E+03 0.  0.
         13    1    1    2    0    0 -0.18721161673E+02 -0.17016732907E+02  0.79986936788E+02  0.83892623716E+02  0.10566000000E+00 0. -1.
        994    1    1    2    0    0 -0.14107925539E+02  0.17110539687E+02  0.58515508342E+01  0.17272951334E+03  0.17120000000E+03 0.  0.
        998    1    1    2    0    0  0.32829087211E+02 -0.93806780515E-01  0.14141615087E+04  0.14145778629E+04  0.10000000000E+02 0. -1.
</event>
<event>
 5    1  0.1582292E-008  0.3696141E+03  0.7957747E-01  0.3497666E+00
         13   -1    0    0    0    0  0.00000000000E+00  0.00000000000E+00  0.14999999963E+04  0.15000000000E+04  0.10566000000E+00 0.  1.
        994   -1    0    0    0    0 -0.00000000000E+00 -0.00000000000E+00  0.11368683772E-12  0.17120000000E+03  0.17120000000E+03 0.  0.
         13    1    1    2    0    0 -0.67079098754E+02 -0.34344976336E+02  0.35276008451E+03  0.36071993468E+03  0.10566000000E+00 0.  1.
        994    1    1    2    0    0  0.64045493704E+02 -0.59585713348E+02  0.36452932872E+02  0.19567968421E+03  0.17120000000E+03 0.  0.
        998    1    1    2    0    0  0.30336050508E+01  0.93930689684E+02  0.11107869789E+04  0.11148003811E+04  0.10000000000E+02 0. -1.
</event>
<event>
 5    1  0.1582292E-008  0.3810430E+03  0.7957747E-01  0.3446629E+00
         13   -1    0    0    0    0  0.00000000000E+00  0.00000000000E+00  0.14999999963E+04  0.15000000000E+04  0.10566000000E+00 0. -1.
        994   -1    0    0    0    0 -0.00000000000E+00 -0.00000000000E+00  0.11368683772E-12  0.17120000000E+03  0.17120000000E+03 0.  0.
         13    1    1    2    0    0 -0.13831980605E+02 -0.77721953993E+01  0.31334451067E+02  0.35122495590E+02  0.10566000000E+00 0. -1.
        994    1    1    2    0    0  0.26830690599E+02  0.15979733816E+02  0.68632971713E+01  0.17416022134E+03  0.17120000000E+03 0.  0.
        998    1    1    2    0    0 -0.12998709995E+02 -0.82075384164E+01  0.14618022480E+04  0.14619172831E+04  0.10000000000E+02 0. -1.
</event>
<event>
 5    1  0.1582292E-008  0.3820117E+03  0.7957747E-01  0.3442446E+00
         13   -1    0    0    0    0  0.00000000000E+00  0.00000000000E+00  0.14999999963E+04  0.15000000000E+04  0.10566000000E+00 0. -1.
        994   -1    0    0    0    0 -0.00000000000E+00 -0.00000000000E+00  0.11368683772E-12  0.17120000000E+03  0.17120000000E+03 0.  0.
         13    1    1    2    0    0 -0.28708722529E+01 -0.96443344728E+01  0.16120245506E+02  0.19003383229E+02  0.10566000000E+00 0. -1.
        994    1    1    2    0    0  0.90409772109E+00 -0.22163339125E+02  0.47567479116E+01  0.17269654787E+03  0.17120000000E+03 0.  0.
        998    1    1    2    0    0  0.19667745318E+01  0.31807673597E+02  0.14791230029E+04  0.14795000689E+04  0.10000000000E+02 0. -1.
</event>
<event>
 5    1  0.1582292E-008  0.3837419E+03  0.7957747E-01  0.3435025E+00
         13   -1    0    0    0    0  0.00000000000E+00  0.00000000000E+00  0.14999999963E+04  0.15000000000E+04  0.10566000000E+00 0. -1.
        994   -1    0    0    0    0 -0.00000000000E+00 -0.00000000000E+00  0.11368683772E-12  0.17120000000E+03  0.17120000000E+03 0.  0.
         13    1    1    2    0    0 -0.21894549681E+02  0.25010598126E+02  0.19024213994E+03  0.19312427165E+03  0.10566000000E+00 0. -1.
        994    1    1    2    0    0  0.27963274356E+02 -0.38119266539E+02  0.96715796327E+01  0.17787074702E+03  0.17120000000E+03 0.  0.
        998    1    1    2    0    0 -0.60687246743E+01  0.13108668413E+02  0.13000862767E+04  0.13002049813E+04  0.10000000000E+02 0. -1.
</event>
<event>
 5    1  0.1582292E-008  0.3792750E+03  0.7957747E-01  0.3454322E+00
         13   -1    0    0    0    0  0.00000000000E+00  0.00000000000E+00  0.14999999963E+04  0.15000000000E+04  0.10566000000E+00 0.  1.
        994   -1    0    0    0    0 -0.00000000000E+00 -0.00000000000E+00  0.11368683772E-12  0.17120000000E+03  0.17120000000E+03 0.  0.
         13    1    1    2    0    0  0.17129689323E+02 -0.51709303889E+02  0.28197379758E+03  0.28718724215E+03  0.10566000000E+00 0.  1.
        994    1    1    2    0    0 -0.23283278479E+02  0.43987102948E+02  0.12844945947E+02  0.17874957040E+03  0.17120000000E+03 0.  0.
        998    1    1    2    0    0  0.61535891555E+01  0.77222009409E+01  0.12051812528E+04  0.12052631875E+04  0.10000000000E+02 0.  1.
</event>
<event>
 5    1  0.1582292E-008  0.3798454E+03  0.7957747E-01  0.3451832E+00
         13   -1    0    0    0    0  0.00000000000E+00  0.00000000000E+00  0.14999999963E+04  0.15000000000E+04  0.10566000000E+00 0. -1.
        994   -1    0    0    0    0 -0.00000000000E+00 -0.00000000000E+00  0.11368683772E-12  0.17120000000E+03  0.17120000000E+03 0.  0.
         13    1    1    2    0    0  0.14735218233E+02 -0.76948835115E-01  0.23294361935E+02  0.27563944556E+02  0.10566000000E+00 0. -1.
        994    1    1    2    0    0 -0.21594094101E+02  0.31704717879E+01  0.58060725087E+01  0.17268325706E+03  0.17120000000E+03 0.  0.
        998    1    1    2    0    0  0.68588758682E+01 -0.30935229528E+01  0.14708995618E+04  0.14709527984E+04  0.10000000000E+02 0. -1.
</event>
<event>
 5    1  0.1582292E-008  0.3840235E+03  0.7957747E-01  0.3433824E+00
         13   -1    0    0    0    0  0.00000000000E+00  0.00000000000E+00  0.14999999963E+04  0.15000000000E+04  0.10566000000E+00 0.  1.
        994   -1    0    0    0    0 -0.00000000000E+00 -0.00000000000E+00  0.11368683772E-12  0.17120000000E+03  0.17120000000E+03 0.  0.
         13    1    1    2    0    0 -0.15137428705E+02 -0.12895208279E+02  0.10006588218E+03  0.10202264496E+03  0.10566000000E+00 0.  1.
        994    1    1    2    0    0 -0.10141434114E+01  0.46305017693E+01  0.21898885538E+01  0.17127961246E+03  0.17120000000E+03 0.  0.
        998    1    1    2    0    0  0.16151572117E+02  0.82647065095E+01  0.13977442255E+04  0.13978977426E+04  0.10000000000E+02 0.  1.
</event>
<event>
 5    1  0.1582292E-008  0.4138106E+03  0.7957747E-01  0.3315977E+00
         13   -1    0    0    0    0  0.00000000000E+00  0.00000000000E+00  0.14999999963E+04  0.15000000000E+04  0.10566000000E+00 0. -1.
        994   -1    0    0    0    0 -0.00000000000E+00 -0.00000000000E+00  0.11368683772E-12  0.17120000000E+03  0.17120000000E+03 0.  0.
         13    1    1    2    0    0 -0.93979680466E+02  0.11612419443E+03  0.20331128122E+03  0.25229446507E+03  0.10566000000E+00 0. -1.
        994    1    1    2    0    0  0.13403755913E+03 -0.13193137012E+03  0.20591007932E+03  0.32723134698E+03  0.17120000000E+03 0.  0.
        998    1    1    2    0    0 -0.40057878667E+02  0.15807175696E+02  0.10907786357E+04  0.10916741879E+04  0.10000000000E+02 0. -1.
</event>
<event>
 5    1  0.1582292E-008  0.3843450E+03  0.7957747E-01  0.3432455E+00
         13   -1    0    0    0    0  0.00000000000E+00  0.00000000000E+00  0.14999999963E+04  0.15000000000E+04  0.10566000000E+00 0. -1.
        994   -1    0    0    0    0 -0.00000000000E+00 -0.00000000000E+00  0.11368683772E-12  0.17120000000E+03  0.17120000000E+03 0.  0.
         13    1    1    2    0    0 -0.18334493531E+02  0.77260571312E+00  0.90815603065E+02  0.92651149462E+02  0.10566000000E+00 0. -1.
        994    1    1    2    0    0  0.39844844656E+01  0.78366149722E+01  0.22104204651E+01  0.17143982796E+03  0.17120000000E+03 0.  0.
        998    1    1    2    0    0  0.14350009065E+02 -0.86092206853E+01  0.14069739727E+04  0.14071090226E+04  0.10000000000E+02 0. -1.
</event>
<event>
 5    1  0.1582292E-008  0.3760781E+03  0.7957747E-01  0.3468415E+00
         13   -1    0    0    0    0  0.00000000000E+00  0.00000000000E+00  0.14999999963E+04  0.15000000000E+04  0.10566000000E+00 0.  1.
        994   -1    0    0    0    0 -0.00000000000E+00 -0.00000000000E+00  0.11368683772E-12  0.17120000000E+03  0.17120000000E+03 0.  0.
         13    1    1    2    0    0  0.17737767099E+02 -0.53441478859E+02  0.30855058133E+03  0.31364644498E+03  0.10566000000E+00 0.  1.
        994    1    1    2    0    0  0.12258481193E+02  0.14876188971E+02  0.73856306098E+01  0.17244001536E+03  0.17120000000E+03 0.  0.
        998    1    1    2    0    0 -0.29996248292E+02  0.38565289888E+02  0.11840637843E+04  0.11851135397E+04  0.10000000000E+02 0.  1.
</event>
<event>
 5    1  0.1582292E-008  0.3833965E+03  0.7957747E-01  0.3436501E+00
         13   -1    0    0    0    0  0.00000000000E+00  0.00000000000E+00  0.14999999963E+04  0.15000000000E+04  0.10566000000E+00 0.  1.
        994   -1    0    0    0    0 -0.00000000000E+00 -0.00000000000E+00  0.11368683772E-12  0.17120000000E+03  0.17120000000E+03 0.  0.
         13    1    1    2    0    0 -0.15225453241E+02  0.16072298228E+02  0.10085452630E+03  0.10325589492E+03  0.10566000000E+00 0.  1.
        994    1    1    2    0    0  0.89935723760E+01 -0.92720466614E+01  0.29801264165E+01  0.17171248163E+03  0.17120000000E+03 0.  0.
        998    1    1    2    0    0  0.62318808651E+01 -0.68002515666E+01  0.13961653436E+04  0.13962316234E+04  0.10000000000E+02 0.  1.
</event>
<event>
 5    1  0.1582292E-008  0.3836586E+03  0.7957747E-01  0.3435381E+00
         13   -1    0    0    0    0  0.00000000000E+00  0.00000000000E+00  0.14999999963E+04  0.15000000000E+04  0.10566000000E+00 0. -1.
        994   -1    0    0    0    0 -0.00000000000E+00 -0.00000000000E+00  0.11368683772E-12  0.17120000000E+03  0.17120000000E+03 0.  0.
         13    1    1    2    0    0  0.18846025689E+02 -0.11829382574E+00  0.72020318154E+02  0.74445443573E+02  0.10566000000E+00 0. -1.
        994    1    1    2    0    0 -0.23396921288E+02 -0.79018585879E+00  0.41098400168E+01  0.17284204091E+03  0.17120000000E+03 0.  0.
        998    1    1    2    0    0  0.45508955991E+01  0.90847968453E+00  0.14238698381E+04  0.14239125155E+04  0.10000000000E+02 0. -1.
</event>
<event>
 5    1  0.1582292E-008  0.3804048E+03  0.7957747E-01  0.3449398E+00
         13   -1    0    0    0    0  0.00000000000E+00  0.00000000000E+00  0.14999999963E+04  0.15000000000E+04  0.10566000000E+00 0.  1.
        994   -1    0    0    0    0 -0.00000000000E+00 -0.00000000000E+00  0.11368683772E-12  0.17120000000E+03  0.17120000000E+03 0.  0.
         13    1    1    2    0    0 -0.88315580339E+02 -0.72083979092E+00  0.26920795487E+03  0.28332507032E+03  0.10566000000E+00 0.  1.
        994    1    1    2    0    0  0.24244779956E+02 -0.45506506731E+02  0.26261373740E+02  0.18071455741E+03  0.17120000000E+03 0.  0.
        998    1    1    2    0    0  0.64070800382E+02  0.46227346522E+02  0.12045306677E+04  0.12071603723E+04  0.10000000000E+02 0.  1.
</event>
<event>
 5    1  0.1582292E-008  0.3841227E+03  0.7957747E-01  0.3433401E+00
         13   -1    0    0    0    0  0.00000000000E+00  0.00000000000E+00  0.14999999963E+04  0.15000000000E+04  0.10566000000E+00 0.  1.
        994   -1    0    0    0    0 -0.00000000000E+00 -0.00000000000E+00  0.11368683772E-12  0.17120000000E+03  0.17120000000E+03 0.  0.
         13    1    1    2    0    0  0.17299017312E+02 -0.97302251513E+01  0.87289802837E+02  0.89517898349E+02  0.10566000000E+00 0.  1.
        994    1    1    2    0    0 -0.82922489565E+01  0.39802719414E+02  0.75371553417E+01  0.17612287352E+03  0.17120000000E+03 0.  0.
        998    1    1    2    0    0 -0.90067683556E+01 -0.30072494263E+02  0.14051730381E+04  0.14055592281E+04  0.10000000000E+02 0.  1.
</event>
<event>
 5    1  0.1582292E-008  0.3732150E+03  0.7957747E-01  0.3481244E+00
         13   -1    0    0    0    0  0.00000000000E+00  0.00000000000E+00  0.14999999963E+04  0.15000000000E+04  0.10566000000E+00 0.  1.
        994   -1    0    0    0    0 -0.00000000000E+00 -0.00000000000E+00  0.11368683772E-12  0.17120000000E+03  0.17120000000E+03 0.  0.
         13    1    1    2    0    0 -0.17013657485E+02  0.43753376856E+02  0.79219519066E+02  0.92084558382E+02  0.10566000000E+00 0.  1.
        994    1    1    2    0    0  0.10814574103E+02 -0.43525047791E+02  0.19794959417E+02  0.17808050207E+03  0.17120000000E+03 0.  0.
        998    1    1    2    0    0  0.61990833827E+01 -0.22832906476E+00  0.14009855178E+04  0.14010349396E+04  0.10000000000E+02 0.  1.
</event>
<event>
 5    1  0.1582292E-008  0.3844528E+03  0.7957747E-01  0.3431996E+00
         13   -1    0    0    0    0  0.00000000000E+00  0.00000000000E+00  0.14999999963E+04  0.15000000000E+04  0.10566000000E+00 0. -1.
        994   -1    0    0    0    0 -0.00000000000E+00 -0.00000000000E+00  0.11368683772E-12  0.17120000000E+03  0.17120000000E+03 0.  0.
         13    1    1    2    0    0 -0.63483140519E+01 -0.10796061568E+02  0.43866573922E+02  0.45619551821E+02  0.10566000000E+00 0. -1.
        994    1    1    2    0    0 -0.39492117436E+01 -0.44078394174E+01  0.20174398821E+01  0.17131414240E+03  0.17120000000E+03 0.  0.
        998    1    1    2    0    0  0.10297525795E+02  0.15203900985E+02  0.14541159825E+04  0.14542663058E+04  0.10000000000E+02 0. -1.
</event>
<event>
 5    1  0.1582292E-008  0.3765502E+03  0.7957747E-01  0.3466319E+00
         13   -1    0    0    0    0  0.00000000000E+00  0.00000000000E+00  0.14999999963E+04  0.15000000000E+04  0.10566000000E+00 0.  1.
        994   -1    0    0    0    0 -0.00000000000E+00 -0.00000000000E+00  0.11368683772E-12  0.17120000000E+03  0.17120000000E+03 0.  0.
         13    1    1    2    0    0  0.42949668354E+02 -0.56530465958E+02  0.19281142652E+03  0.20546684636E+03  0.10566000000E+00 0.  1.
        994    1    1    2    0    0  0.11187610603E+02  0.27401344778E+02  0.17585950796E+02  0.17462732315E+03  0.17120000000E+03 0.  0.
        998    1    1    2    0    0 -0.54137278957E+02  0.29129121179E+02  0.12896026190E+04  0.12911058305E+04  0.10000000000E+02 0.  1.
</event>
<event>
 5    1  0.1582292E-008  0.3823457E+03  0.7957747E-01  0.3441008E+00
         13   -1    0    0    0    0  0.00000000000E+00  0.00000000000E+00  0.14999999963E+04  0.15000000000E+04  0.10566000000E+00 0. -1.
        994   -1    0    0    0    0 -0.00000000000E+00 -0.00000000000E+00  0.11368683772E-12  0.17120000000E+03  0.17120000000E+03 0.  0.
         13    1    1    2    0    0  0.11599745648E+02  0.13064511790E+01  0.23290598051E+02  0.26052332628E+02  0.10566000000E+00 0. -1.
        994    1    1    2    0    0  0.10642826593E+02  0.29494114624E+01  0.33584092509E+01  0.17158871670E+03  0.17120000000E+03 0.  0.
        998    1    1    2    0    0 -0.22242572241E+02 -0.42558626415E+01  0.14733509890E+04  0.14735589507E+04  0.10000000000E+02 0. -1.
</event>
<event>
 5    1  0.1582292E-008  0.3834361E+03  0.7957747E-01  0.3436332E+00
         13   -1    0    0    0    0  0.00000000000E+00  0.00000000000E+00  0.14999999963E+04  0.15000000000E+04  0.10566000000E+00 0.  1.
        994   -1    0    0    0    0 -0.00000000000E+00 -0.00000000000E+00  0.11368683772E-12  0.17120000000E+03  0.17120000000E+03 0.  0.
         13    1    1    2    0    0  0.14036741801E+02 -0.11909541522E+02  0.66712174247E+02  0.69205438056E+02  0.10566000000E+00 0.  1.
        994    1    1    2    0    0 -0.19368412498E+02  0.83729613832E+01  0.38816814442E+01  0.17253912407E+03  0.17120000000E+03 0.  0.
        998    1    1    2    0    0  0.53316706967E+01  0.35365801393E+01  0.14294061406E+04  0.14294554379E+04  0.10000000000E+02 0.  1.
</event>
<event>
 5    1  0.1582292E-008  0.3757398E+03  0.7957747E-01  0.3469921E+00
         13   -1    0    0    0    0  0.00000000000E+00  0.00000000000E+00  0.14999999963E+04  0.15000000000E+04  0.10566000000E+00 0.  1.
        994   -1    0    0    0    0 -0.00000000000E+00 -0.00000000000E+00  0.11368683772E-12  0.17120000000E+03  0.17120000000E+03 0.  0.
         13    1    1    2    0    0 -0.32862998507E+01 -0.25576314585E+02  0.43199652492E+02  0.50310722256E+02  0.10566000000E+00 0.  1.
        994    1    1    2    0    0  0.10011932954E+02  0.65120847557E+02  0.21163379342E+02  0.18465722898E+03  0.17120000000E+03 0.  0.
        998    1    1    2    0    0 -0.67256331032E+01 -0.39544532973E+02  0.14356369644E+04  0.14362320488E+04  0.10000000000E+02 0.  1.
</event>
<event>
 5    1  0.1582292E-008  0.3725803E+03  0.7957747E-01  0.3484116E+00
         13   -1    0    0    0    0  0.00000000000E+00  0.00000000000E+00  0.14999999963E+04  0.15000000000E+04  0.10566000000E+00 0.  1.
        994   -1    0    0    0    0 -0.00000000000E+00 -0.00000000000E+00  0.11368683772E-12  0.17120000000E+03  0.17120000000E+03 0.  0.
         13    1    1    2    0    0 -0.36917911262E+02  0.70844494990E+02  0.46285342844E+03  0.46969690442E+03  0.10566000000E+00 0.  1.
        994    1    1    2    0    0  0.21102063559E+02 -0.23688167707E+02  0.11383565007E+02  0.17448625140E+03  0.17120000000E+03 0.  0.
        998    1    1    2    0    0  0.15815847703E+02 -0.47156327282E+02  0.10257630028E+04  0.10270168442E+04  0.10000000000E+02 0.  1.
</event>
<event>
 5    1  0.1582292E-008  0.3784210E+03  0.7957747E-01  0.3458063E+00
         13   -1    0    0    0    0  0.00000000000E+00  0.00000000000E+00  0.14999999963E+04  0.15000000000E+04  0.10566000000E+00 0.  1.
        994   -1    0    0    0    0 -0.00000000000E+00 -0.00000000000E+00  0.11368683772E-12  0.17120000000E+03  0.17120000000E+03 0.  0.
         13    1    1    2    0    0 -0.45918408574E+02 -0.33832868163E+02  0.98116072171E+02  0.11348981451E+03  0.10566000000E+00 0.  1.
        994    1    1    2    0    0  0.33530617597E+02  0.28179019427E+02  0.22405854449E+02  0.17812866632E+03  0.17120000000E+03 0.  0.
        998    1    1    2    0    0  0.12387790978E+02  0.56538487368E+01  0.13794780697E+04  0.13795815192E+04  0.10000000000E+02 0.  1.
</event>
<event>
 5    1  0.1582292E-008  0.3784052E+03  0.7957747E-01  0.3458132E+00
         13   -1    0    0    0    0  0.00000000000E+00  0.00000000000E+00  0.14999999963E+04  0.15000000000E+04  0.10566000000E+00 0.  1.
        994   -1    0    0    0    0 -0.00000000000E+00 -0.00000000000E+00  0.11368683772E-12  0.17120000000E+03  0.17120000000E+03 0.  0.
         13    1    1    2    0    0 -0.39024124383E+02 -0.32067179945E+02  0.20873993190E+03  0.21476395565E+03  0.10566000000E+00 0.  1.
        994    1    1    2    0    0  0.44937011507E+02  0.38923125407E+02  0.16911281627E+02  0.18201586783E+03  0.17120000000E+03 0.  0.
        998    1    1    2    0    0 -0.59128871243E+01 -0.68559454613E+01  0.12743487828E+04  0.12744201765E+04  0.10000000000E+02 0.  1.
</event>
<event>
 5    1  0.1582292E-008  0.3761319E+03  0.7957747E-01  0.3468176E+00
         13   -1    0    0    0    0  0.00000000000E+00  0.00000000000E+00  0.14999999963E+04  0.15000000000E+04  0.10566000000E+00 0. -1.
        994   -1    0    0    0    0 -0.00000000000E+00 -0.00000000000E+00  0.11368683772E-12  0.17120000000E+03  0.17120000000E+03 0.  0.
         13    1    1    2    0    0  0.28185772771E+02 -0.83964938714E+01  0.74091338631E+02  0.79714970490E+02  0.10566000000E+00 0. -1.
        994    1    1    2    0    0 -0.13305417772E+01 -0.88918026735E+01  0.63724120638E+01  0.17155431248E+03  0.17120000000E+03 0.  0.
        998    1    1    2    0    0 -0.26855230994E+02  0.17288296545E+02  0.14195362456E+04  0.14199307170E+04  0.10000000000E+02 0. -1.
</event>
<event>
 5    1  0.1582292E-008  0.3826990E+03  0.7957747E-01  0.3439490E+00
         13   -1    0    0    0    0  0.00000000000E+00  0.00000000000E+00  0.14999999963E+04  0.15000000000E+04  0.10566000000E+00 0.  1.
        994   -1    0    0    0    0 -0.00000000000E+00 -0.00000000000E+00  0.11368683772E-12  0.17120000000E+03  0.17120000000E+03 0.  0.
         13    1    1    2    0    0 -0.25425320777E+02  0.55009094926E+00  0.12941063565E+03  0.13188583441E+03  0.10566000000E+00 0.  1.
        994    1    1    2    0    0 -0.23970239284E+00  0.35632422941E+01  0.28191475812E+01  0.17126045003E+03  0.17120000000E+03 0.  0.
        998    1    1    2    0    0  0.25665023170E+02 -0.41133332434E+01  0.13677702131E+04  0.13680537156E+04  0.10000000000E+02 0.  1.
</event>
<event>
 5    1  0.1582292E-008  0.3721028E+03  0.7957747E-01  0.3486282E+00
         13   -1    0    0    0    0  0.00000000000E+00  0.00000000000E+00  0.14999999963E+04  0.15000000000E+04  0.10566000000E+00 0.  1.
        994   -1    0    0    0    0 -0.00000000000E+00 -0.00000000000E+00  0.11368683772E-12  0.17120000000E+03  0.17120000000E+03 0.  0.
         13    1    1    2    0    0 -0.14827960364E+02 -0.25668695762E+02  0.49114596338E+02  0.57367282384E+02  0.10566000000E+00 0.  1.
        994    1    1    2    0    0  0.10858182970E+02  0.27884881578E+02  0.11254183749E+02  0.17415959178E+03  0.17120000000E+03 0.  0.
        998    1    1    2    0    0  0.39697773947E+01 -0.22161858160E+01  0.14396312162E+04  0.14396731258E+04  0.10000000000E+02 0.  1.
</event>
<event>
 5    1  0.1582292E-008  0.3789550E+03  0.7957747E-01  0.3455721E+00
         13   -1    0    0    0    0  0.00000000000E+00  0.00000000000E+00  0.14999999963E+04  0.15000000000E+04  0.10566000000E+00 0. -1.
        994   -1    0    0    0    0 -0.00000000000E+00 -0.00000000000E+00  0.11368683772E-12  0.17120000000E+03  0.17120000000E+03 0.  0.
         13    1    1    2    0    0 -0.71283274220E+01 -0.44661618971E+02  0.19067232773E+03  0.19596280511E+03  0.10566000000E+00 0. -1.
        994    1    1    2    0    0  0.10229183267E+02  0.44980490111E+02  0.11832888130E+02  0.17770013484E+03  0.17120000000E+03 0.  0.
        998    1    1    2    0    0 -0.31008558450E+01 -0.31887114045E+00  0.12974947804E+04  0.12975370600E+04  0.10000000000E+02 0. -1.
</event>
<event>
 5    1  0.1582292E-008  0.3839788E+03  0.7957747E-01  0.3434015E+00
         13   -1    0    0    0    0  0.00000000000E+00  0.00000000000E+00  0.14999999963E+04  0.15000000000E+04  0.10566000000E+00 0.  1.
        994   -1    0    0    0    0 -0.00000000000E+00 -0.00000000000E+00  0.11368683772E-12  0.17120000000E+03  0.17120000000E+03 0.  0.
         13    1    1    2    0    0 -0.22229827426E+02 -0.12157922315E+02  0.11827415197E+03  0.12095770538E+03  0.10566000000E+00 0.  1.
        994    1    1    2    0    0  0.34823634572E+02  0.37109136034E+02  0.10730431339E+02  0.17892555899E+03  0.17120000000E+03 0.  0.
        998    1    1    2    0    0 -0.12593807146E+02 -0.24951213719E+02  0.13709954130E+04  0.13713167356E+04  0.10000000000E+02 0.  1.
</event>
<event>
 5    1  0.1582292E-008  0.3818786E+03  0.7957747E-01  0.3443019E+00
         13   -1    0    0    0    0  0.00000000000E+00  0.00000000000E+00  0.14999999963E+04  0.15000000000E+04  0.10566000000E+00 0.  1.
        994   -1    0    0    0    0 -0.00000000000E+00 -0.00000000000E+00  0.11368683772E-12  0.17120000000E+03  0.17120000000E+03 0.  0.
         13    1    1    2    0    0  0.49471422561E+01  0.89326650136E+01  0.15837903433E+02  0.18844550139E+02  0.10566000000E+00 0.  1.
        994    1    1    2    0    0 -0.14357770775E+02  0.21913485112E+02  0.54714038926E+01  0.17327931980E+03  0.17120000000E+03 0.  0.
        998    1    1    2    0    0  0.94106285193E+01 -0.30846150125E+02  0.14786906890E+04  0.14790761301E+04  0.10000000000E+02 0.  1.
</event>
<event>
 5    1  0.1582292E-008  0.3830418E+03  0.7957747E-01  0.3438020E+00
         13   -1    0    0    0    0  0.00000000000E+00  0.00000000000E+00  0.14999999963E+04  0.15000000000E+04  0.10566000000E+00 0. -1.
        994   -1    0    0    0    0 -0.00000000000E+00 -0.00000000000E+00  0.11368683772E-12  0.17120000000E+03  0.17120000000E+03 0.  0.
         13    1    1    2    0    0  0.10650650745E+02 -0.88131108577E+01  0.34810461665E+02  0.37455129017E+02  0.10566000000E+00 0. -1.
        994    1    1    2    0    0 -0.93563076228E+01  0.15142923521E+02  0.36548406263E+01  0.17216168704E+03  0.17120000000E+03 0.  0.
        998    1    1    2    0    0 -0.12943431218E+01 -0.63298126630E+01  0.14615346940E+04  0.14615831839E+04  0.10000000000E+02 0. -1.
</event>
<event>
 5    1  0.1582292E-008  0.3714157E+03  0.7957747E-01  0.3489410E+00
         13   -1    0    0    0    0  0.00000000000E+00  0.00000000000E+00  0.14999999963E+04  0.15000000000E+04  0.10566000000E+00 0.  1.
        994   -1    0    0    0    0 -0.00000000000E+00 -0.00000000000E+00  0.11368683772E-12  0.17120000000E+03  0.17120000000E+03 0.  0.
         13    1    1    2    0    0  0.40403137425E+02 -0.62130892237E+01  0.93037352782E+02  0.10162173079E+03  0.10566000000E+00 0.  1.
        994    1    1    2    0    0 -0.29780847173E+02  0.96813344734E+01  0.11912598975E+02  0.17444763429E+03  0.17120000000E+03 0.  0.
        998    1    1    2    0    0 -0.10622290251E+02 -0.34682452497E+01  0.13950500445E+04  0.13951306349E+04  0.10000000000E+02 0.  1.
</event>
<event>
 5    1  0.1582292E-008  0.3821292E+03  0.7957747E-01  0.3441940E+00
         13   -1    0    0    0    0  0.00000000000E+00  0.00000000000E+00  0.14999999963E+04  0.15000000000E+04  0.10566000000E+00 0.  1.
        994   -1    0    0    0    0 -0.00000000000E+00 -0.00000000000E+00  0.11368683772E-12  0.17120000000E+03  0.17120000000E+03 0.  0.
         13    1    1    2    0    0 -0.16061797443E+02  0.15984662025E+02  0.85064361460E+02  0.88030946330E+02  0.10566000000E+00 0.  1.
        994    1    1    2    0    0  0.75037455814E+01 -0.57354178134E+01  0.33583570787E+01  0.17149320621E+03  0.17120000000E+03 0.  0.
        998    1    1    2    0    0  0.85580518614E+01 -0.10249244212E+02  0.14115772777E+04  0.14116758475E+04  0.10000000000E+02 0.  1.
</event>
<event>
 5    1  0.1582292E-008  0.3855404E+03  0.7957747E-01  0.3427384E+00
         13   -1    0    0    0    0  0.00000000000E+00  0.00000000000E+00  0.14999999963E+04  0.15000000000E+04  0.10566000000E+00 0. -1.
        994   -1    0    0    0    0 -0.00000000000E+00 -0.00000000000E+00  0.11368683772E-12  0.17120000000E+03  0.17120000000E+03 0.  0.
         13    1    1    2    0    0  0.72103272076E+01  0.10431247712E+02  0.71287884323E+02  0.72406998022E+02  0.10566000000E+00 0. -1.
        994    1    1    2    0    0  0.32994907509E+02 -0.50116229037E+01  0.50270789929E+01  0.17449496213E+03  0.17120000000E+03 0.  0.
        998    1    1    2    0    0 -0.40205234717E+02 -0.54196248088E+01  0.14236850330E+04  0.14242980398E+04  0.10000000000E+02 0. -1.
</event>
<event>
 5    1  0.1582292E-008  0.3796719E+03  0.7957747E-01  0.3452588E+00
         13   -1    0    0    0    0  0.00000000000E+00  0.00000000000E+00  0.14999999963E+04  0.15000000000E+04  0.10566000000E+00 0. -1.
        994   -1    0    0    0    0 -0.00000000000E+00 -0.00000000000E+00  0.11368683772E-12  0.17120000000E+03  0.17120000000E+03 0.  0.
         13    1    1    2    0    0  0.12882566303E+02 -0.34567773381E+02  0.18471750530E+03  0.18836522875E+03  0.10566000000E+00 0. -1.
        994    1    1    2    0    0 -0.36669270960E+01 -0.28553532611E+01  0.43711246261E+01  0.17131884347E+03  0.17120000000E+03 0.  0.
        998    1    1    2    0    0 -0.92156392070E+01  0.37423126642E+02  0.13109113663E+04  0.13115159278E+04  0.10000000000E+02 0. -1.
</event>
<event>
 5    1  0.1582292E-008  0.3807639E+03  0.7957747E-01  0.3447839E+00
         13   -1    0    0    0    0  0.00000000000E+00  0.00000000000E+00  0.14999999963E+04  0.15000000000E+04  0.10566000000E+00 0.  1.
        994   -1    0    0    0    0 -0.00000000000E+00 -0.00000000000E+00  0.11368683772E-12  0.17120000000E+03  0.17120000000E+03 0.  0.
         13    1    1    2    0    0 -0.58667454144E+02 -0.78825093032E+01  0.34561840765E+03  0.35065096463E+03  0.10566000000E+00 0.  1.
        994    1    1    2    0    0  0.62568919520E+02  0.89643517824E+01  0.17186916928E+02  0.18330318984E+03  0.17120000000E+03 0.  0.
        998    1    1    2    0    0 -0.39014653765E+01 -0.10818424792E+01  0.11371946717E+04  0.11372458455E+04  0.10000000000E+02 0.  0.
</event>
<event>
 5    1  0.1582292E-008  0.3772051E+03  0.7957747E-01  0.3463419E+00
         13   -1    0    0    0    0  0.00000000000E+00  0.00000000000E+00  0.14999999963E+04  0.15000000000E+04  0.10566000000E+00 0. -1.
        994   -1    0    0    0    0 -0.00000000000E+00 -0.00000000000E+00  0.11368683772E-12  0.17120000000E+03  0.17120000000E+03 0.  0.
         13    1    1    2    0    0 -0.22417620258E+02  0.16248984604E+02  0.70596833171E+02  0.75832072479E+02  0.10566000000E+00 0. -1.
        994    1    1    2    0    0 -0.64902334003E+01 -0.16014525550E+02  0.65588087033E+01  0.17219479124E+03  0.17120000000E+03 0.  0.
        998    1    1    2    0    0  0.28907853658E+02 -0.23445905456E+00  0.14228443544E+04  0.14231731363E+04  0.10000000000E+02 0. -1.
</event>
<event>
 5    1  0.1582292E-008  0.3740030E+03  0.7957747E-01  0.3477694E+00
         13   -1    0    0    0    0  0.00000000000E+00  0.00000000000E+00  0.14999999963E+04  0.15000000000E+04  0.10566000000E+00 0.  1.
        994   -1    0    0    0    0 -0.00000000000E+00 -0.00000000000E+00  0.11368683772E-12  0.17120000000E+03  0.17120000000E+03 0.  0.
         13    1    1    2    0    0  0.62303839083E+02  0.26119168217E+02  0.29261524336E+03  0.30031262232E+03  0.10566000000E+00 0.  1.
        994    1    1    2    0    0 -0.48317160258E+02 -0.11683995944E+02  0.15666777021E+02  0.17895796054E+03  0.17120000000E+03 0.  0.
        998    1    1    2    0    0 -0.13986678825E+02 -0.14435172273E+02  0.11917179759E+04  0.11919294171E+04  0.10000000000E+02 0.  1.
</event>
<event>
 5    1  0.1582292E-008  0.3833354E+03  0.7957747E-01  0.3436763E+00
         13   -1    0    0    0    0  0.00000000000E+00  0.00000000000E+00  0.14999999963E+04  0.15000000000E+04  0.10566000000E+00 0. -1.
        994   -1    0    0    0    0 -0.00000000000E+00 -0.00000000000E+00  0.11368683772E-12  0.17120000000E+03  0.17120000000E+03 0.  0.
         13    1    1    2    0    0 -0.11939329801E+02  0.63386102901E+01  0.36104413641E+02  0.38552113105E+02  0.10566000000E+00 0. -1.
        994    1    1    2    0    0  0.13426646947E+02  0.13439035585E+01  0.30611151621E+01  0.17175823518E+03  0.17120000000E+03 0.  0.
        998    1    1    2    0    0 -0.14873171466E+01 -0.76825138486E+01  0.14608344675E+04  0.14608896517E+04  0.10000000000E+02 0. -1.
</event>
<event>
 5    1  0.1582292E-008  0.3821562E+03  0.7957747E-01  0.3441823E+00
         13   -1    0    0    0    0  0.00000000000E+00  0.00000000000E+00  0.14999999963E+04  0.15000000000E+04  0.10566000000E+00 0.  1.
        994   -1    0    0    0    0 -0.00000000000E+00 -0.00000000000E+00  0.11368683772E-12  0.17120000000E+03  0.17120000000E+03 0.  0.
         13    1    1    2    0    0  0.20635967371E+02  0.12095942870E+02  0.11980799484E+03  0.12217250826E+03  0.10566000000E+00 0.  1.
        994    1    1    2    0    0  0.21265479995E+02  0.92558855246E+01  0.48361075958E+01  0.17283147859E+03  0.17120000000E+03 0.  0.
        998    1    1    2    0    0 -0.41901447366E+02 -0.21351828394E+02  0.13753558938E+04  0.13761960131E+04  0.10000000000E+02 0.  1.
</event>
<event>
 5    1  0.1582292E-008  0.3860323E+03  0.7957747E-01  0.3425306E+00
         13   -1    0    0    0    0  0.00000000000E+00  0.00000000000E+00  0.14999999963E+04  0.15000000000E+04  0.10566000000E+00 0. -1.
        994   -1    0    0    0    0 -0.00000000000E+00 -0.00000000000E+00  0.11368683772E-12  0.17120000000E+03  0.17120000000E+03 0.  0.
         13    1    1    2    0    0 -0.10219211007E+02 -0.62563405094E+01  0.63962177972E+02  0.65074921784E+02  0.10566000000E+00 0. -1.
        994    1    1    2    0    0  0.82873949244E+01  0.57411263502E+01  0.14517235355E+01  0.17150273743E+03  0.17120000000E+03 0.  0.
        998    1    1    2    0    0  0.19318160826E+01  0.51521415918E+00  0.14345860948E+04  0.14346223408E+04  0.10000000000E+02 0. -1.
</event>
<event>
 5    1  0.1582292E-008  0.3775579E+03  0.7957747E-01  0.3461861E+00
         13   -1    0    0    0    0  0.00000000000E+00  0.00000000000E+00  0.14999999963E+04  0.15000000000E+04  0.10566000000E+00 0. -1.
        994   -1    0    0    0    0 -0.00000000000E+00 -0.00000000000E+00  0.11368683772E-12  0.17120000000E+03  0.17120000000E+03 0.  0.
         13    1    1    2    0    0  0.38523333958E+01  0.11389410325E+03  0.58109380460E+03  0.59216275477E+03  0.10566000000E+00 0. -1.
        994    1    1    2    0    0  0.41066113810E+01 -0.12940286658E+03  0.64120401917E+02  0.22401524965E+03  0.17120000000E+03 0.  0.
        998    1    1    2    0    0 -0.79589447768E+01  0.15508763325E+02  0.85478578976E+03  0.85502199558E+03  0.10000000000E+02 0. -1.
</event>
<event>
 5    1  0.1582292E-008  0.3849357E+03  0.7957747E-01  0.3429945E+00
         13   -1    0    0    0    0  0.00000000000E+00  0.00000000000E+00  0.14999999963E+04  0.15000000000E+04  0.10566000000E+00 0.  1.
        994   -1    0    0    0    0 -0.00000000000E+00 -0.00000000000E+00  0.11368683772E-12  0.17120000000E+03  0.17120000000E+03 0.  0.
         13    1    1    2    0    0  0.25915332946E+01 -0.10905697706E+02  0.38256978291E+02  0.39865496852E+02  0.10566000000E+00 0.  1.
        994    1    1    2    0    0 -0.17917295303E+01  0.38410798656E+01  0.17211774889E+01  0.17126110662E+03  0.17120000000E+03 0.  0.
        998    1    1    2    0    0 -0.79980376422E+00  0.70646178402E+01  0.14600218405E+04  0.14600733965E+04  0.10000000000E+02 0.  1.
</event>
<event>
 5    1  0.1582292E-008  0.3717375E+03  0.7957747E-01  0.3487943E+00
         13   -1    0    0    0    0  0.00000000000E+00  0.00000000000E+00  0.14999999963E+04  0.15000000000E+04  0.10566000000E+00 0.  1.
        994   -1    0    0    0    0 -0.00000000000E+00 -0.00000000000E+00  0.11368683772E-12  0.17120000000E+03  0.17120000000E+03 0.  0.
         13    1    1    2    0    0  0.17065042095E+02  0.12543145505E+02  0.10817632379E+02  0.23781894272E+02  0.10566000000E+00 0.  1.
        994    1    1    2    0    0 -0.10449034489E+03 -0.23139824244E+02  0.53317252206E+02  0.20882014516E+03  0.17120000000E+03 0.  0.
        998    1    1    2    0    0  0.87425302799E+02  0.10596678739E+02  0.14358651117E+04  0.14385979606E+04  0.10000000000E+02 0.  1.
</event>
<event>
 5    1  0.1582292E-008  0.3847154E+03  0.7957747E-01  0.3430880E+00
         13   -1    0    0    0    0  0.00000000000E+00  0.00000000000E+00  0.14999999963E+04  0.15000000000E+04  0.10566000000E+00 0.  1.
        994   -1    0    0    0    0 -0.00000000000E+00 -0.00000000000E+00  0.11368683772E-12  0.17120000000E+03  0.17120000000E+03 0.  0.
         13    1    1    2    0    0 -0.19502022358E+02 -0.84767288818E+01  0.11306166788E+03  0.11504405989E+03  0.10566000000E+00 0.  1.
        994    1    1    2    0    0  0.25677568291E+02  0.12566452021E+02  0.44662771052E+01  0.17362788043E+03  0.17120000000E+03 0.  0.
        998    1    1    2    0    0 -0.61755459328E+01 -0.40897231393E+01  0.13824720513E+04  0.13825280597E+04  0.10000000000E+02 0.  1.
</event>
<event>
 5    1  0.1582292E-008  0.3786692E+03  0.7957747E-01  0.3456974E+00
         13   -1    0    0    0    0  0.00000000000E+00  0.00000000000E+00  0.14999999963E+04  0.15000000000E+04  0.10566000000E+00 0.  1.
        994   -1    0    0    0    0 -0.00000000000E+00 -0.00000000000E+00  0.11368683772E-12  0.17120000000E+03  0.17120000000E+03 0.  0.
         13    1    1    2    0    0 -0.33776703852E+01 -0.19143138545E+02  0.36681009016E+02  0.41513564013E+02  0.10566000000E+00 0.  1.
        994    1    1    2    0    0  0.21511593846E+01  0.19191567740E+02  0.60596738881E+01  0.17239229509E+03  0.17120000000E+03 0.  0.
        998    1    1    2    0    0  0.12265110005E+01 -0.48429195531E-01  0.14572593134E+04  0.14572941409E+04  0.10000000000E+02 0.  1.
</event>
<event>
 5    1  0.1582292E-008  0.3814490E+03  0.7957747E-01  0.3444873E+00
         13   -1    0    0    0    0  0.00000000000E+00  0.00000000000E+00  0.14999999963E+04  0.15000000000E+04  0.10566000000E+00 0. -1.
        994   -1    0    0    0    0 -0.00000000000E+00 -0.00000000000E+00  0.11368683772E-12  0.17120000000E+03  0.17120000000E+03 0.  0.
         13    1    1    2    0    0 -0.15608999033E+02 -0.32040511153E+02  0.16508706094E+03  0.16889044988E+03  0.10566000000E+00 0. -1.
        994    1    1    2    0    0  0.22097786646E+02  0.30646299865E+02  0.81673674523E+01  0.17550969706E+03  0.17120000000E+03 0.  0.
        998    1    1    2    0    0 -0.64887876124E+01  0.13942112883E+01  0.13267455679E+04  0.13267998531E+04  0.10000000000E+02 0. -1.
</event>
<event>
 5    1  0.1582292E-008  0.3845900E+03  0.7957747E-01  0.3431413E+00
         13   -1    0    0    0    0  0.00000000000E+00  0.00000000000E+00  0.14999999963E+04  0.15000000000E+04  0.10566000000E+00 0.  1.
        994   -1    0    0    0    0 -0.00000000000E+00 -0.00000000000E+00  0.11368683772E-12  0.17120000000E+03  0.17120000000E+03 0.  0.
         13    1    1    2    0    0  0.17079673863E+02  0.11846669800E+01  0.75547187478E+02  0.77462942075E+02  0.10566000000E+00 0.  1.
        994    1    1    2    0    0 -0.19665337251E+02  0.93639122003E+00  0.31112441233E+01  0.17235638125E+03  0.17120000000E+03 0.  0.
        998    1    1    2    0    0  0.25856633874E+01 -0.21210582000E+01  0.14213415647E+04  0.14213806767E+04  0.10000000000E+02 0.  1.
</event>
<event>
 5    1  0.1582292E-008  0.4035908E+03  0.7957747E-01  0.3354460E+00
         13   -1    0    0    0    0  0.00000000000E+00  0.00000000000E+00  0.14999999963E+04  0.15000000000E+04  0.10566000000E+00 0.  1.
        994   -1    0    0    0    0 -0.00000000000E+00 -0.00000000000E+00  0.11368683772E-12  0.17120000000E+03  0.17120000000E+03 0.  0.
         13    1    1    2    0    0 -0.23743824570E+02 -0.28591248689E+02  0.10301050841E+02  0.38566196589E+02  0.10566000000E+00 0.  1.
        994    1    1    2    0    0  0.29702021953E+02  0.39738229306E+02  0.39784308064E+02  0.18262959274E+03  0.17120000000E+03 0.  0.
        998    1    1    2    0    0 -0.59581973834E+01 -0.11146980617E+02  0.14499146374E+04  0.14500042107E+04  0.10000000000E+02 0.  1.
</event>
<event>
 5    1  0.1582292E-008  0.3744496E+03  0.7957747E-01  0.3475688E+00
         13   -1    0    0    0    0  0.00000000000E+00  0.00000000000E+00  0.14999999963E+04  0.15000000000E+04  0.10566000000E+00 0.  1.
        994   -1    0    0    0    0 -0.00000000000E+00 -0.00000000000E+00  0.11368683772E-12  0.17120000000E+03  0.17120000000E+03 0.  0.
         13    1    1    2    0    0 -0.16424790657E+02  0.19189730168E+02  0.18229888555E+02  0.31150593779E+02  0.10566000000E+00 0.  1.
        994    1    1    2    0    0  0.12841542450E+02 -0.17066111594E+02  0.14932832529E+02  0.17317213074E+03  0.17120000000E+03 0.  0.
        998    1    1    2    0    0  0.35832482066E+01 -0.21236185738E+01  0.14668372752E+04  0.14668772755E+04  0.10000000000E+02 0.  1.
</event>
<event>
 5    1  0.1582292E-008  0.3816905E+03  0.7957747E-01  0.3443830E+00
         13   -1    0    0    0    0  0.00000000000E+00  0.00000000000E+00  0.14999999963E+04  0.15000000000E+04  0.10566000000E+00 0.  1.
        994   -1    0    0    0    0 -0.00000000000E+00 -0.00000000000E+00  0.11368683772E-12  0.17120000000E+03  0.17120000000E+03 0.  0.
         13    1    1    2    0    0 -0.16406729940E+02 -0.16843673364E+02  0.83852845472E+02  0.87087318121E+02  0.10566000000E+00 0.  1.
        994    1    1    2    0    0  0.10907878341E+02  0.75882675516E+01  0.38693845006E+01  0.17175848087E+03  0.17120000000E+03 0.  0.
        998    1    1    2    0    0  0.54988515995E+01  0.92554058119E+01  0.14122777663E+04  0.14123542010E+04  0.10000000000E+02 0.  1.
</event>
<event>
 5    1  0.1582292E-008  0.3836769E+03  0.7957747E-01  0.3435303E+00
         13   -1    0    0    0    0  0.00000000000E+00  0.00000000000E+00  0.14999999963E+04  0.15000000000E+04  0.10566000000E+00 0. -1.
        994   -1    0    0    0    0 -0.00000000000E+00 -0.00000000000E+00  0.11368683772E-12  0.17120000000E+03  0.17120000000E+03 0.  0.
         13    1    1    2    0    0 -0.20259649396E+02 -0.34056391050E+00  0.82281177955E+02  0.84739440564E+02  0.10566000000E+00 0. -1.
        994    1    1    2    0    0  0.26514889222E+02 -0.10011864725E+02  0.49460599807E+01  0.17360063449E+03  0.17120000000E+03 0.  0.
        998    1    1    2    0    0 -0.62552398257E+01  0.10352428635E+02  0.14127727583E+04  0.14128599249E+04  0.10000000000E+02 0. -1.
</event>
<event>
 5    1  0.1582292E-008  0.3828635E+03  0.7957747E-01  0.3438784E+00
         13   -1    0    0    0    0  0.00000000000E+00  0.00000000000E+00  0.14999999963E+04  0.15000000000E+04  0.10566000000E+00 0.  1.
        994   -1    0    0    0    0 -0.00000000000E+00 -0.00000000000E+00  0.11368683772E-12  0.17120000000E+03  0.17120000000E+03 0.  0.
         13    1    1    2    0    0 -0.12496181699E+02  0.12065597696E+01  0.27284628310E+02  0.30034520965E+02  0.10566000000E+00 0.  1.
        994    1    1    2    0    0  0.19646516782E+02  0.31570732109E+01  0.40069145680E+01  0.17239909541E+03  0.17120000000E+03 0.  0.
        998    1    1    2    0    0 -0.71503350823E+01 -0.43636329805E+01  0.14687084534E+04  0.14687663836E+04  0.10000000000E+02 0.  1.
</event>
<event>
 5    1  0.1582292E-008  0.3858340E+03  0.7957747E-01  0.3426143E+00
         13   -1    0    0    0    0  0.00000000000E+00  0.00000000000E+00  0.14999999963E+04  0.15000000000E+04  0.10566000000E+00 0.  1.
        994   -1    0    0    0    0 -0.00000000000E+00 -0.00000000000E+00  0.11368683772E-12  0.17120000000E+03  0.17120000000E+03 0.  0.
         13    1    1    2    0    0 -0.82098555995E+01  0.58420371092E+01  0.42535327460E+02  0.43712656894E+02  0.10566000000E+00 0.  1.
        994    1    1    2    0    0  0.74868021671E+01  0.18826045142E+01  0.14121183364E+01  0.17137978435E+03  0.17120000000E+03 0.  0.
        998    1    1    2    0    0  0.72305343246E+00 -0.77246416234E+01  0.14560525505E+04  0.14561075588E+04  0.10000000000E+02 0.  1.
</event>
<event>
 5    1  0.1582292E-008  0.3859031E+03  0.7957747E-01  0.3425851E+00
         13   -1    0    0    0    0  0.00000000000E+00  0.00000000000E+00  0.14999999963E+04  0.15000000000E+04  0.10566000000E+00 0. -1.
        994   -1    0    0    0    0 -0.00000000000E+00 -0.00000000000E+00  0.11368683772E-12  0.17120000000E+03  0.17120000000E+03 0.  0.
         13    1    1    2    0    0  0.94372074745E+01  0.33567031384E+01  0.43186904213E+02  0.44333375694E+02  0.10566000000E+00 0. -1.
        994    1    1    2    0    0 -0.51833367917E+01 -0.15457765709E+01  0.12783555270E+01  0.17129019411E+03  0.17120000000E+03 0.  0.
        998    1    1    2    0    0 -0.42538706827E+01 -0.18109265675E+01  0.14555347365E+04  0.14555764302E+04  0.10000000000E+02 0. -1.
</event>
<event>
 5    1  0.1582292E-008  0.3859896E+03  0.7957747E-01  0.3425486E+00
         13   -1    0    0    0    0  0.00000000000E+00  0.00000000000E+00  0.14999999963E+04  0.15000000000E+04  0.10566000000E+00 0. -1.
        994   -1    0    0    0    0 -0.00000000000E+00 -0.00000000000E+00  0.11368683772E-12  0.17120000000E+03  0.17120000000E+03 0.  0.
         13    1    1    2    0    0  0.20380080765E+01 -0.10335007337E+02  0.51698353635E+02  0.52760750433E+02  0.10566000000E+00 0. -1.
        994    1    1    2    0    0  0.92191449878E+01  0.18644235583E+01  0.14296781105E+01  0.17146414403E+03  0.17120000000E+03 0.  0.
        998    1    1    2    0    0 -0.11257153064E+02  0.84705837789E+01  0.14468719645E+04  0.14469751055E+04  0.10000000000E+02 0. -1.
</event>
<event>
 5    1  0.1582292E-008  0.3797596E+03  0.7957747E-01  0.3452206E+00
         13   -1    0    0    0    0  0.00000000000E+00  0.00000000000E+00  0.14999999963E+04  0.15000000000E+04  0.10566000000E+00 0.  1.
        994   -1    0    0    0    0 -0.00000000000E+00 -0.00000000000E+00  0.11368683772E-12  0.17120000000E+03  0.17120000000E+03 0.  0.
         13    1    1    2    0    0  0.15127172267E+02  0.11261447532E+02  0.38862909668E+02  0.43197088481E+02  0.10566000000E+00 0.  1.
        994    1    1    2    0    0 -0.16376329945E+02 -0.15385744632E+02  0.59455576299E+01  0.17277064269E+03  0.17120000000E+03 0.  0.
        998    1    1    2    0    0  0.12491576774E+01  0.41242971001E+01  0.14551915290E+04  0.14552322688E+04  0.10000000000E+02 0.  1.
</event>
<event>
 5    1  0.1582292E-008  0.3778406E+03  0.7957747E-01  0.3460615E+00
         13   -1    0    0    0    0  0.00000000000E+00  0.00000000000E+00  0.14999999963E+04  0.15000000000E+04  0.10566000000E+00 0.  1.
        994   -1    0    0    0    0 -0.00000000000E+00 -0.00000000000E+00  0.11368683772E-12  0.17120000000E+03  0.17120000000E+03 0.  0.
         13    1    1    2    0    0  0.59537784670E+01 -0.81380752842E+01  0.72774754308E+01  0.12435777420E+02  0.10566000000E+00 0.  1.
        994    1    1    2    0    0 -0.34798962343E+01  0.11598374459E+02  0.57210460472E+01  0.17172303962E+03  0.17120000000E+03 0.  0.
        998    1    1    2    0    0 -0.24738822327E+01 -0.34602991751E+01  0.14870014748E+04  0.14870411830E+04  0.10000000000E+02 0.  1.
</event>
<event>
 5    1  0.1582292E-008  0.3852331E+03  0.7957747E-01  0.3428684E+00
         13   -1    0    0    0    0  0.00000000000E+00  0.00000000000E+00  0.14999999963E+04  0.15000000000E+04  0.10566000000E+00 0.  1.
        994   -1    0    0    0    0 -0.00000000000E+00 -0.00000000000E+00  0.11368683772E-12  0.17120000000E+03  0.17120000000E+03 0.  0.
         13    1    1    2    0    0 -0.14075232051E+02  0.29082582558E+01  0.72880985406E+02  0.74284717952E+02  0.10566000000E+00 0.  1.
        994    1    1    2    0    0 -0.42351289462E+00 -0.38548843275E+01  0.15639026732E+01  0.17125105923E+03  0.17120000000E+03 0.  0.
        998    1    1    2    0    0  0.14498744946E+02  0.94662607175E+00  0.14255551082E+04  0.14256642228E+04  0.10000000000E+02 0.  1.
</event>
<event>
 5    1  0.1582292E-008  0.3834257E+03  0.7957747E-01  0.3436376E+00
         13   -1    0    0    0    0  0.00000000000E+00  0.00000000000E+00  0.14999999963E+04  0.15000000000E+04  0.10566000000E+00 0. -1.
        994   -1    0    0    0    0 -0.00000000000E+00 -0.00000000000E+00  0.11368683772E-12  0.17120000000E+03  0.17120000000E+03 0.  0.
         13    1    1    2    0    0  0.12860184032E+02 -0.28414252627E+02  0.16655089889E+03  0.16944605976E+03  0.10566000000E+00 0. -1.
        994    1    1    2    0    0 -0.18162500811E+02  0.36850359940E+02  0.80129861240E+01  0.17624265491E+03  0.17120000000E+03 0.  0.
        998    1    1    2    0    0  0.53023167790E+01 -0.84361073124E+01  0.13254361113E+04  0.13255112853E+04  0.10000000000E+02 0. -1.
</event>
<event>
 5    1  0.1582292E-008  0.3812436E+03  0.7957747E-01  0.3445761E+00
         13   -1    0    0    0    0  0.00000000000E+00  0.00000000000E+00  0.14999999963E+04  0.15000000000E+04  0.10566000000E+00 0. -1.
        994   -1    0    0    0    0 -0.00000000000E+00 -0.00000000000E+00  0.11368683772E-12  0.17120000000E+03  0.17120000000E+03 0.  0.
         13    1    1    2    0    0  0.79482889227E+01  0.10313218872E+03  0.38791760878E+03  0.40147167523E+03  0.10566000000E+00 0. -1.
        994    1    1    2    0    0 -0.13625462784E+02 -0.24261048474E+02  0.19835390426E+02  0.17457701573E+03  0.17120000000E+03 0.  0.
        998    1    1    2    0    0  0.56771738610E+01 -0.78871140248E+02  0.10922469971E+04  0.10951513090E+04  0.10000000000E+02 0. -1.
</event>
<event>
 5    1  0.1582292E-008  0.3754057E+03  0.7957747E-01  0.3471410E+00
         13   -1    0    0    0    0  0.00000000000E+00  0.00000000000E+00  0.14999999963E+04  0.15000000000E+04  0.10566000000E+00 0. -1.
        994   -1    0    0    0    0 -0.00000000000E+00 -0.00000000000E+00  0.11368683772E-12  0.17120000000E+03  0.17120000000E+03 0.  0.
         13    1    1    2    0    0  0.60412706724E+02  0.85476560945E+02  0.48415571041E+03  0.49534099436E+03  0.10566000000E+00 0. -1.
        994    1    1    2    0    0 -0.72193873484E+02 -0.93182148429E+02  0.55202324507E+02  0.21506186269E+03  0.17120000000E+03 0.  0.
        998    1    1    2    0    0  0.11781166760E+02  0.77055874843E+01  0.96064196136E+03  0.96079714295E+03  0.10000000000E+02 0. -1.
</event>
<event>
 5    1  0.1582292E-008  0.3761643E+03  0.7957747E-01  0.3468032E+00
         13   -1    0    0    0    0  0.00000000000E+00  0.00000000000E+00  0.14999999963E+04  0.15000000000E+04  0.10566000000E+00 0. -1.
        994   -1    0    0    0    0 -0.00000000000E+00 -0.00000000000E+00  0.11368683772E-12  0.17120000000E+03  0.17120000000E+03 0.  0.
         13    1    1    2    0    0 -0.84553285937E+01 -0.46157491936E+02  0.19088591974E+03  0.19656920451E+03  0.10566000000E+00 0. -1.
        994    1    1    2    0    0 -0.42386030366E+00  0.17115086317E+02  0.70751109061E+01  0.17219931194E+03  0.17120000000E+03 0.  0.
        998    1    1    2    0    0  0.88791888973E+01  0.29042405619E+02  0.13020389656E+04  0.13024314836E+04  0.10000000000E+02 0. -1.
</event>
<event>
 5    1  0.1582292E-008  0.3835067E+03  0.7957747E-01  0.3436030E+00
         13   -1    0    0    0    0  0.00000000000E+00  0.00000000000E+00  0.14999999963E+04  0.15000000000E+04  0.10566000000E+00 0.  1.
        994   -1    0    0    0    0 -0.00000000000E+00 -0.00000000000E+00  0.11368683772E-12  0.17120000000E+03  0.17120000000E+03 0.  0.
         13    1    1    2    0    0 -0.17630236066E+02 -0.80679960261E+01  0.79594710903E+02  0.81922200602E+02  0.10566000000E+00 0.  1.
        994    1    1    2    0    0  0.10623871158E+02  0.13900282171E+01  0.27528328857E+01  0.17155703689E+03  0.17120000000E+03 0.  0.
        998    1    1    2    0    0  0.70063649080E+01  0.66779678090E+01  0.14176524525E+04  0.14177207625E+04  0.10000000000E+02 0.  1.
</event>
<event>
 5    1  0.1582292E-008  0.3760967E+03  0.7957747E-01  0.3468332E+00
         13   -1    0    0    0    0  0.00000000000E+00  0.00000000000E+00  0.14999999963E+04  0.15000000000E+04  0.10566000000E+00 0. -1.
        994   -1    0    0    0    0 -0.00000000000E+00 -0.00000000000E+00  0.11368683772E-12  0.17120000000E+03  0.17120000000E+03 0.  0.
         13    1    1    2    0    0 -0.69556198530E+02  0.22773638953E+02  0.36053608901E+03  0.36788991020E+03  0.10566000000E+00 0. -1.
        994    1    1    2    0    0  0.60474489580E+02 -0.20657308254E+02  0.20075129005E+02  0.18383780645E+03  0.17120000000E+03 0.  0.
        998    1    1    2    0    0  0.90817089502E+01 -0.21163306990E+01  0.11193887783E+04  0.11194722834E+04  0.10000000000E+02 0. -1.
</event>
<event>
 5    1  0.1582292E-008  0.3786037E+03  0.7957747E-01  0.3457261E+00
         13   -1    0    0    0    0  0.00000000000E+00  0.00000000000E+00  0.14999999963E+04  0.15000000000E+04  0.10566000000E+00 0. -1.
        994   -1    0    0    0    0 -0.00000000000E+00 -0.00000000000E+00  0.11368683772E-12  0.17120000000E+03  0.17120000000E+03 0.  0.
         13    1    1    2    0    0 -0.10858855753E+02 -0.23715632794E+02  0.14986515590E+02  0.30082433423E+02  0.10566000000E+00 0. -1.
        994    1    1    2    0    0  0.64501605194E+01  0.26917319724E+02  0.18329189106E+02  0.17438906458E+03  0.17120000000E+03 0.  0.
        998    1    1    2    0    0  0.44086952340E+01 -0.32016869293E+01  0.14666842916E+04  0.14667285020E+04  0.10000000000E+02 0. -1.
</event>
<event>
 5    1  0.1582292E-008  0.3736839E+03  0.7957747E-01  0.3479130E+00
         13   -1    0    0    0    0  0.00000000000E+00  0.00000000000E+00  0.14999999963E+04  0.15000000000E+04  0.10566000000E+00 0.  1.
        994   -1    0    0    0    0 -0.00000000000E+00 -0.00000000000E+00  0.11368683772E-12  0.17120000000E+03  0.17120000000E+03 0.  0.
         13    1    1    2    0    0  0.44921103200E+02  0.30980389783E+02  0.19421093744E+03  0.20173147858E+03  0.10566000000E+00 0.  1.
        994    1    1    2    0    0 -0.37133011318E+02 -0.11536383943E+02  0.12536020208E+02  0.17600721714E+03  0.17120000000E+03 0.  0.
        998    1    1    2    0    0 -0.77880918818E+01 -0.19444005840E+02  0.12932530386E+04  0.12934613043E+04  0.10000000000E+02 0.  1.
</event>
<event>
 5    1  0.1582292E-008  0.3821781E+03  0.7957747E-01  0.3441729E+00
         13   -1    0    0    0    0  0.00000000000E+00  0.00000000000E+00  0.14999999963E+04  0.15000000000E+04  0.10566000000E+00 0.  1.
        994   -1    0    0    0    0 -0.00000000000E+00 -0.00000000000E+00  0.11368683772E-12  0.17120000000E+03  0.17120000000E+03 0.  0.
         13    1    1    2    0    0  0.16192076949E+02 -0.43863198962E+01  0.47013009758E+02  0.49916504372E+02  0.10566000000E+00 0.  1.
        994    1    1    2    0    0 -0.26132051428E+01 -0.16109958149E+01  0.30689823787E+01  0.17125502270E+03  0.17120000000E+03 0.  0.
        998    1    1    2    0    0 -0.13578871806E+02  0.59973157111E+01  0.14499180041E+04  0.14500284729E+04  0.10000000000E+02 0.  1.
</event>
<event>
 5    1  0.1582292E-008  0.3805046E+03  0.7957747E-01  0.3448964E+00
         13   -1    0    0    0    0  0.00000000000E+00  0.00000000000E+00  0.14999999963E+04  0.15000000000E+04  0.10566000000E+00 0.  1.
        994   -1    0    0    0    0 -0.00000000000E+00 -0.00000000000E+00  0.11368683772E-12  0.17120000000E+03  0.17120000000E+03 0.  0.
         13    1    1    2    0    0  0.51872646513E+01  0.22456447726E+02  0.66031948387E+02  0.69938752712E+02  0.10566000000E+00 0.  1.
        994    1    1    2    0    0  0.60647615369E+01 -0.20260527579E+02  0.53727826748E+01  0.17258498516E+03  0.17120000000E+03 0.  0.
        998    1    1    2    0    0 -0.11252026188E+02 -0.21959201475E+01  0.14285952652E+04  0.14286762621E+04  0.10000000000E+02 0.  1.
</event>
<event>
 5    1  0.1582292E-008  0.3741651E+03  0.7957747E-01  0.3476965E+00
         13   -1    0    0    0    0  0.00000000000E+00  0.00000000000E+00  0.14999999963E+04  0.15000000000E+04  0.10566000000E+00 0.  1.
        994   -1    0    0    0    0 -0.00000000000E+00 -0.00000000000E+00  0.11368683772E-12  0.17120000000E+03  0.17120000000E+03 0.  0.
         13    1    1    2    0    0 -0.76235181683E+02  0.27359483218E+02  0.32884879022E+03  0.33867666327E+03  0.10566000000E+00 0.  1.
        994    1    1    2    0    0  0.88865456394E+02 -0.22490189243E+02  0.36315670690E+02  0.19756301752E+03  0.17120000000E+03 0.  0.
        998    1    1    2    0    0 -0.12630274710E+02 -0.48692939749E+01  0.11348355354E+04  0.11349603192E+04  0.10000000000E+02 0.  1.
</event>
<event>
 5    1  0.1582292E-008  0.3733864E+03  0.7957747E-01  0.3480471E+00
         13   -1    0    0    0    0  0.00000000000E+00  0.00000000000E+00  0.14999999963E+04  0.15000000000E+04  0.10566000000E+00 0. -1.
        994   -1    0    0    0    0 -0.00000000000E+00 -0.00000000000E+00  0.11368683772E-12  0.17120000000E+03  0.17120000000E+03 0.  0.
         13    1    1    2    0    0  0.14724880232E+02 -0.46707463802E+02  0.16225522729E+03  0.16948504129E+03  0.10566000000E+00 0. -1.
        994    1    1    2    0    0  0.73121768689E+01  0.26321541969E+02  0.10064601100E+02  0.17365778905E+03  0.17120000000E+03 0.  0.
        998    1    1    2    0    0 -0.22037057101E+02  0.20385921833E+02  0.13276801679E+04  0.13280571697E+04  0.10000000000E+02 0. -1.
</event>
<event>
 5    1  0.1582292E-008  0.3856870E+03  0.7957747E-01  0.3426764E+00
         13   -1    0    0    0    0  0.00000000000E+00  0.00000000000E+00  0.14999999963E+04  0.15000000000E+04  0.10566000000E+00 0.  1.
        994   -1    0    0    0    0 -0.00000000000E+00 -0.00000000000E+00  0.11368683772E-12  0.17120000000E+03  0.17120000000E+03 0.  0.
         13    1    1    2    0    0  0.19335632223E+02 -0.10157999985E+02  0.11410959223E+03  0.11618115958E+03  0.10566000000E+00 0.  1.
        994    1    1    2    0    0 -0.75557666084E+02  0.10533977044E+02  0.20625028212E+02  0.18855969178E+03  0.17120000000E+03 0.  0.
        998    1    1    2    0    0  0.56222033861E+02 -0.37597705942E+00  0.13652653758E+04  0.13664591486E+04  0.10000000000E+02 0.  1.
</event>
<event>
 5    1  0.1582292E-008  0.3811348E+03  0.7957747E-01  0.3446232E+00
         13   -1    0    0    0    0  0.00000000000E+00  0.00000000000E+00  0.14999999963E+04  0.15000000000E+04  0.10566000000E+00 0. -1.
        994   -1    0    0    0    0 -0.00000000000E+00 -0.00000000000E+00  0.11368683772E-12  0.17120000000E+03  0.17120000000E+03 0.  0.
         13    1    1    2    0    0  0.25229440657E+02  0.76546492222E+00  0.11208669054E+03  0.11489363765E+03  0.10566000000E+00 0. -1.
        994    1    1    2    0    0  0.23730234144E+02  0.90274976766E+01  0.57112224924E+01  0.17316661858E+03  0.17120000000E+03 0.  0.
        998    1    1    2    0    0 -0.48959674801E+02 -0.97929625989E+01  0.13822020832E+04  0.13831397438E+04  0.10000000000E+02 0. -1.
</event>
<event>
 5    1  0.1582292E-008  0.3843309E+03  0.7957747E-01  0.3432515E+00
         13   -1    0    0    0    0  0.00000000000E+00  0.00000000000E+00  0.14999999963E+04  0.15000000000E+04  0.10566000000E+00 0.  1.
        994   -1    0    0    0    0 -0.00000000000E+00 -0.00000000000E+00  0.11368683772E-12  0.17120000000E+03  0.17120000000E+03 0.  0.
         13    1    1    2    0    0 -0.10328647698E+02 -0.86387681846E+01  0.47234812012E+02  0.49116676484E+02  0.10566000000E+00 0.  1.
        994    1    1    2    0    0  0.18735171298E+01  0.23660750979E+01  0.19927168842E+01  0.17123819462E+03  0.17120000000E+03 0.  0.
        998    1    1    2    0    0  0.84551305680E+01  0.62726930867E+01  0.14507724674E+04  0.14508451289E+04  0.10000000000E+02 0.  1.
</event>
<event>
 5    1  0.1582292E-008  0.3936040E+03  0.7957747E-01  0.3393982E+00
         13   -1    0    0    0    0  0.00000000000E+00  0.00000000000E+00  0.14999999963E+04  0.15000000000E+04  0.10566000000E+00 0.  1.
        994   -1    0    0    0    0 -0.00000000000E+00 -0.00000000000E+00  0.11368683772E-12  0.17120000000E+03  0.17120000000E+03 0.  0.
         13    1    1    2    0    0 -0.66219899805E+02  0.95247237067E+02  0.23519192155E+03  0.26224485205E+03  0.10566000000E+00 0.  1.
        994    1    1    2    0    0  0.70681181976E+02 -0.83268292280E+02  0.71135643467E+02  0.21517239079E+03  0.17120000000E+03 0.  0.
        998    1    1    2    0    0 -0.44612821711E+01 -0.11978944788E+02  0.11936724313E+04  0.11937827572E+04  0.10000000000E+02 0.  1.
</event>
<event>
 5    1  0.1582292E-008  0.3821812E+03  0.7957747E-01  0.3441716E+00
         13   -1    0    0    0    0  0.00000000000E+00  0.00000000000E+00  0.14999999963E+04  0.15000000000E+04  0.10566000000E+00 0. -1.
        994   -1    0    0    0    0 -0.00000000000E+00 -0.00000000000E+00  0.11368683772E-12  0.17120000000E+03  0.17120000000E+03 0.  0.
         13    1    1    2    0    0 -0.39122145361E+02  0.34054118894E+01  0.23075239172E+03  0.23407011030E+03  0.10566000000E+00 0. -1.
        994    1    1    2    0    0  0.32856099809E+02 -0.14221164099E+00  0.66273743489E+01  0.17445029553E+03  0.17120000000E+03 0.  0.
        998    1    1    2    0    0  0.62660455519E+01 -0.32632002484E+01  0.12626202302E+04  0.12626795942E+04  0.10000000000E+02 0. -1.
</event>
<event>
 5    1  0.1582292E-008  0.3720869E+03  0.7957747E-01  0.3486354E+00
         13   -1    0    0    0    0  0.00000000000E+00  0.00000000000E+00  0.14999999963E+04  0.15000000000E+04  0.10566000000E+00 0.  1.
        994   -1    0    0    0    0 -0.00000000000E+00 -0.00000000000E+00  0.11368683772E-12  0.17120000000E+03  0.17120000000E+03 0.  0.
         13    1    1    2    0    0  0.90061452093E+02 -0.87401476701E+02  0.49249297970E+03  0.50823166912E+03  0.10566000000E+00 0.  1.
        994    1    1    2    0    0 -0.18108944473E+03  0.47134175212E+02  0.13997023339E+03  0.28968279842E+03  0.17120000000E+03 0.  0.
        998    1    1    2    0    0  0.91027992637E+02  0.40267301489E+02  0.86753678319E+03  0.87328553246E+03  0.10000000000E+02 0.  1.
</event>
<event>
 5    1  0.1582292E-008  0.3832474E+03  0.7957747E-01  0.3437139E+00
         13   -1    0    0    0    0  0.00000000000E+00  0.00000000000E+00  0.14999999963E+04  0.15000000000E+04  0.10566000000E+00 0. -1.
        994   -1    0    0    0    0 -0.00000000000E+00 -0.00000000000E+00  0.11368683772E-12  0.17120000000E+03  0.17120000000E+03 0.  0.
         13    1    1    2    0    0  0.14645804739E+02  0.98762425983E+00  0.42612387060E+02  0.45069964424E+02  0.10566000000E+00 0. -1.
        994    1    1    2    0    0 -0.82991683716E+01  0.24618571200E+01  0.27506668445E+01  0.17144078600E+03  0.17120000000E+03 0.  0.
        998    1    1    2    0    0 -0.63466363673E+01 -0.34494813798E+01  0.14546369424E+04  0.14546892496E+04  0.10000000000E+02 0. -1.
</event>
<event>
 5    1  0.1582292E-008  0.3808012E+03  0.7957747E-01  0.3447677E+00
         13   -1    0    0    0    0  0.00000000000E+00  0.00000000000E+00  0.14999999963E+04  0.15000000000E+04  0.10566000000E+00 0.  1.
        994   -1    0    0    0    0 -0.00000000000E+00 -0.00000000000E+00  0.11368683772E-12  0.17120000000E+03  0.17120000000E+03 0.  0.
         13    1    1    2    0    0  0.18546566914E+02 -0.27768599708E+02  0.13676499849E+03  0.14078262055E+03  0.10566000000E+00 0.  1.
        994    1    1    2    0    0 -0.11069592698E+02  0.32026889031E+02  0.75671195529E+01  0.17468531364E+03  0.17120000000E+03 0.  0.
        998    1    1    2    0    0 -0.74769742167E+01 -0.42582893233E+01  0.13556678782E+04  0.13557320658E+04  0.10000000000E+02 0.  1.
</event>
<event>
 5    1  0.1582292E-008  0.3729407E+03  0.7957747E-01  0.3482484E+00
         13   -1    0    0    0    0  0.00000000000E+00  0.00000000000E+00  0.14999999963E+04  0.15000000000E+04  0.10566000000E+00 0.  1.
        994   -1    0    0    0    0 -0.00000000000E+00 -0.00000000000E+00  0.11368683772E-12  0.17120000000E+03  0.17120000000E+03 0.  0.
         13    1    1    2    0    0 -0.93791062735E+01  0.19417525424E+02  0.26571139164E+02  0.34220527883E+02  0.10566000000E+00 0.  1.
        994    1    1    2    0    0  0.51790715406E+01 -0.18144460827E+02  0.89596952149E+01  0.17246959262E+03  0.17120000000E+03 0.  0.
        998    1    1    2    0    0  0.42000347329E+01 -0.12730645964E+01  0.14644691619E+04  0.14645098795E+04  0.10000000000E+02 0.  1.
</event>
<event>
 5    1  0.1582292E-008  0.3748665E+03  0.7957747E-01  0.3473820E+00
         13   -1    0    0    0    0  0.00000000000E+00  0.00000000000E+00  0.14999999963E+04  0.15000000000E+04  0.10566000000E+00 0.  1.
        994   -1    0    0    0    0 -0.00000000000E+00 -0.00000000000E+00  0.11368683772E-12  0.17120000000E+03  0.17120000000E+03 0.  0.
         13    1    1    2    0    0  0.23560795442E+02  0.19709320238E+02  0.70386401413E+02  0.76797298481E+02  0.10566000000E+00 0.  1.
        994    1    1    2    0    0 -0.42883018464E+01 -0.66695376244E+01  0.69611602075E+01  0.17152483790E+03  0.17120000000E+03 0.  0.
        998    1    1    2    0    0 -0.19272493596E+02 -0.13039782614E+02  0.14226524347E+04  0.14228778636E+04  0.10000000000E+02 0.  1.
</event>
<event>
 5    1  0.1582292E-008  0.3829599E+03  0.7957747E-01  0.3438371E+00
         13   -1    0    0    0    0  0.00000000000E+00  0.00000000000E+00  0.14999999963E+04  0.15000000000E+04  0.10566000000E+00 0.  1.
        994   -1    0    0    0    0 -0.00000000000E+00 -0.00000000000E+00  0.11368683772E-12  0.17120000000E+03  0.17120000000E+03 0.  0.
         13    1    1    2    0    0 -0.12874259596E+02 -0.71694000720E+01  0.41407952925E+02  0.43951980467E+02  0.10566000000E+00 0.  1.
        994    1    1    2    0    0  0.51791186983E+01 -0.37802426191E+01  0.27825084642E+01  0.17134262709E+03  0.17120000000E+03 0.  0.
        998    1    1    2    0    0  0.76951408972E+01  0.10949642691E+02  0.14558095349E+04  0.14559053924E+04  0.10000000000E+02 0.  1.
</event>
<event>
 5    1  0.1582292E-008  0.3756100E+03  0.7957747E-01  0.3470499E+00
         13   -1    0    0    0    0  0.00000000000E+00  0.00000000000E+00  0.14999999963E+04  0.15000000000E+04  0.10566000000E+00 0.  1.
        994   -1    0    0    0    0 -0.00000000000E+00 -0.00000000000E+00  0.11368683772E-12  0.17120000000E+03  0.17120000000E+03 0.  0.
         13    1    1    2    0    0  0.11262640863E+02 -0.44476057449E+02  0.20085661878E+03  0.20602999597E+03  0.10566000000E+00 0.  1.
        994    1    1    2    0    0 -0.23946252663E+02 -0.11647035739E+02  0.87748765870E+01  0.17348058945E+03  0.17120000000E+03 0.  0.
        998    1    1    2    0    0  0.12683611800E+02  0.56123093188E+02  0.12903685009E+04  0.12916894146E+04  0.10000000000E+02 0.  1.
</event>
<event>
 5    1  0.1582292E-008  0.3846735E+03  0.7957747E-01  0.3431058E+00
         13   -1    0    0    0    0  0.00000000000E+00  0.00000000000E+00  0.14999999963E+04  0.15000000000E+04  0.10566000000E+00 0.  1.
        994   -1    0    0    0    0 -0.00000000000E+00 -0.00000000000E+00  0.11368683772E-12  0.17120000000E+03  0.17120000000E+03 0.  0.
         13    1    1    2    0    0  0.36789153593E+01  0.15305833919E+02  0.82186772674E+02  0.83680820603E+02  0.10566000000E+00 0.  1.
        994    1    1    2    0    0 -0.14773334127E+02  0.18090365571E+02  0.35903105095E+01  0.17282315544E+03  0.17120000000E+03 0.  0.
        998    1    1    2    0    0  0.11094418768E+02 -0.33396199490E+02  0.14142229131E+04  0.14146960240E+04  0.10000000000E+02 0.  1.
</event>
<event>
 5    1  0.1582292E-008  0.3861918E+03  0.7957747E-01  0.3424633E+00
         13   -1    0    0    0    0  0.00000000000E+00  0.00000000000E+00  0.14999999963E+04  0.15000000000E+04  0.10566000000E+00 0. -1.
        994   -1    0    0    0    0 -0.00000000000E+00 -0.00000000000E+00  0.11368683772E-12  0.17120000000E+03  0.17120000000E+03 0.  0.
         13    1    1    2    0    0 -0.71957199631E+01 -0.70850490684E+01  0.50372455432E+02  0.51374816169E+02  0.10566000000E+00 0. -1.
        994    1    1    2    0    0  0.36568655007E+01  0.36224728644E+01  0.11264028468E+01  0.17128106655E+03  0.17120000000E+03 0.  0.
        998    1    1    2    0    0  0.35388544624E+01  0.34625762040E+01  0.14485011380E+04  0.14485441173E+04  0.10000000000E+02 0. -1.
</event>
<event>
 5    1  0.1582292E-008  0.3848889E+03  0.7957747E-01  0.3430144E+00
         13   -1    0    0    0    0  0.00000000000E+00  0.00000000000E+00  0.14999999963E+04  0.15000000000E+04  0.10566000000E+00 0. -1.
        994   -1    0    0    0    0 -0.00000000000E+00 -0.00000000000E+00  0.11368683772E-12  0.17120000000E+03  0.17120000000E+03 0.  0.
         13    1    1    2    0    0 -0.10315233038E+02  0.35973557540E+01  0.39491706452E+02  0.40975005108E+02  0.10566000000E+00 0. -1.
        994    1    1    2    0    0 -0.16417350024E+02  0.33357186324E+00  0.25728877381E+01  0.17200494296E+03  0.17120000000E+03 0.  0.
        998    1    1    2    0    0  0.26732583062E+02 -0.39309276173E+01  0.14579354021E+04  0.14582200519E+04  0.10000000000E+02 0. -1.
</event>
<event>
 5    1  0.1582292E-008  0.3792820E+03  0.7957747E-01  0.3454291E+00
         13   -1    0    0    0    0  0.00000000000E+00  0.00000000000E+00  0.14999999963E+04  0.15000000000E+04  0.10566000000E+00 0.  1.
        994   -1    0    0    0    0 -0.00000000000E+00 -0.00000000000E+00  0.11368683772E-12  0.17120000000E+03  0.17120000000E+03 0.  0.
         13    1    1    2    0    0  0.30313371556E+02  0.59831717180E+02  0.40250270918E+03  0.40805290948E+03  0.10566000000E+00 0.  1.
        994    1    1    2    0    0 -0.37423630811E+02 -0.47225789143E+02  0.16760039132E+02  0.18226667884E+03  0.17120000000E+03 0.  0.
        998    1    1    2    0    0  0.71102592548E+01 -0.12605928037E+02  0.10807372480E+04  0.10808804117E+04  0.10000000000E+02 0.  1.
</event>
<event>
 5    1  0.1582292E-008  0.3797908E+03  0.7957747E-01  0.3452070E+00
         13   -1    0    0    0    0  0.00000000000E+00  0.00000000000E+00  0.14999999963E+04  0.15000000000E+04  0.10566000000E+00 0. -1.
        994   -1    0    0    0    0 -0.00000000000E+00 -0.00000000000E+00  0.11368683772E-12  0.17120000000E+03  0.17120000000E+03 0.  0.
         13    1    1    2    0    0  0.17928515717E+02  0.25783193289E+01  0.28321670857E+01  0.18333350507E+02  0.10566000000E+00 0. -1.
        994    1    1    2    0    0 -0.15720307227E+02 -0.27264609499E+00  0.17107977690E+02  0.17276957283E+03  0.17120000000E+03 0.  0.
        998    1    1    2    0    0 -0.22082084902E+01 -0.23056732339E+01  0.14800598515E+04  0.14800970767E+04  0.10000000000E+02 0. -1.
</event>
<event>
 5    1  0.1582292E-008  0.3481811E+03  0.7957747E-01  0.3602597E+00
         13   -1    0    0    0    0  0.00000000000E+00  0.00000000000E+00  0.14999999963E+04  0.15000000000E+04  0.10566000000E+00 0. -1.
        994   -1    0    0    0    0 -0.00000000000E+00 -0.00000000000E+00  0.11368683772E-12  0.17120000000E+03  0.17120000000E+03 0.  0.
         13    1    1    2    0    0 -0.15759829816E+02  0.25684732788E+03  0.84987722502E+03  0.88798098563E+03  0.10566000000E+00 0. -1.
        994    1    1    2    0    0  0.30060109852E+02 -0.26288405655E+03  0.30822047130E+03  0.44081848455E+03  0.17120000000E+03 0.  0.
        998    1    1    2    0    0 -0.14300280035E+02  0.60367286711E+01  0.34190229997E+03  0.34240052982E+03  0.10000000000E+02 0. -1.
</event>
<event>
 5    1  0.1582292E-008  0.3810497E+03  0.7957747E-01  0.3446601E+00
         13   -1    0    0    0    0  0.00000000000E+00  0.00000000000E+00  0.14999999963E+04  0.15000000000E+04  0.10566000000E+00 0. -1.
        994   -1    0    0    0    0 -0.00000000000E+00 -0.00000000000E+00  0.11368683772E-12  0.17120000000E+03  0.17120000000E+03 0.  0.
         13    1    1    2    0    0  0.46977986620E+02  0.14876498272E+02  0.29270142121E+03  0.29682044163E+03  0.10566000000E+00 0. -1.
        994    1    1    2    0    0 -0.42273419221E+02 -0.70491933348E+01  0.97473446693E+01  0.17675175764E+03  0.17120000000E+03 0.  0.
        998    1    1    2    0    0 -0.47045673985E+01 -0.78273049374E+01  0.11975512304E+04  0.11976278007E+04  0.10000000000E+02 0. -1.
</event>
<event>
 5    1  0.1582292E-008  0.3852697E+03  0.7957747E-01  0.3428529E+00
         13   -1    0    0    0    0  0.00000000000E+00  0.00000000000E+00  0.14999999963E+04  0.15000000000E+04  0.10566000000E+00 0. -1.
        994   -1    0    0    0    0 -0.00000000000E+00 -0.00000000000E+00  0.11368683772E-12  0.17120000000E+03  0.17120000000E+03 0.  0.
         13    1    1    2    0    0 -0.42782730224E+01 -0.16128331802E+02  0.95711477473E+02  0.97155158334E+02  0.10566000000E+00 0. -1.
        994    1    1    2    0    0  0.16717142025E+02  0.38006996540E+01  0.24625866616E+01  0.17207385766E+03  0.17120000000E+03 0.  0.
        998    1    1    2    0    0 -0.12438869002E+02  0.12327632148E+02  0.14018259321E+04  0.14019709840E+04  0.10000000000E+02 0. -1.
</event>
<event>
 5    1  0.1582292E-008  0.3846214E+03  0.7957747E-01  0.3431279E+00
         13   -1    0    0    0    0  0.00000000000E+00  0.00000000000E+00  0.14999999963E+04  0.15000000000E+04  0.10566000000E+00 0.  1.
        994   -1    0    0    0    0 -0.00000000000E+00 -0.00000000000E+00  0.11368683772E-12  0.17120000000E+03  0.17120000000E+03 0.  0.
         13    1    1    2    0    0  0.73286978401E+00  0.18382766174E+02  0.97904751762E+02  0.99618345559E+02  0.10566000000E+00 0.  1.
        994    1    1    2    0    0  0.42908415444E+01 -0.49285072132E+01  0.19588163530E+01  0.17133586451E+03  0.17120000000E+03 0.  0.
        998    1    1    2    0    0 -0.50237113284E+01 -0.13454258960E+02  0.14001364282E+04  0.14002457899E+04  0.10000000000E+02 0.  1.
</event>
<event>
 5    1  0.1582292E-008  0.3789364E+03  0.7957747E-01  0.3455803E+00
         13   -1    0    0    0    0  0.00000000000E+00  0.00000000000E+00  0.14999999963E+04  0.15000000000E+04  0.10566000000E+00 0. -1.
        994   -1    0    0    0    0 -0.00000000000E+00 -0.00000000000E+00  0.11368683772E-12  0.17120000000E+03  0.17120000000E+03 0.  0.
         13    1    1    2    0    0  0.39637589669E+01  0.36676273269E+02  0.16663117969E+03  0.17066581854E+03  0.10566000000E+00 0. -1.
        994    1    1    2    0    0 -0.45275647589E+01  0.12969279873E+01  0.47454131389E+01  0.17133049878E+03  0.17120000000E+03 0.  0.
        998    1    1    2    0    0  0.56380579204E+00 -0.37973201256E+02  0.13286234034E+04  0.13292036827E+04  0.10000000000E+02 0. -1.
</event>
<event>
 5    1  0.1582292E-008  0.3842392E+03  0.7957747E-01  0.3432905E+00
         13   -1    0    0    0    0  0.00000000000E+00  0.00000000000E+00  0.14999999963E+04  0.15000000000E+04  0.10566000000E+00 0. -1.
        994   -1    0    0    0    0 -0.00000000000E+00 -0.00000000000E+00  0.11368683772E-12  0.17120000000E+03  0.17120000000E+03 0.  0.
         13    1    1    2    0    0  0.10026780899E+02  0.39939324816E+01  0.29612899105E+02  0.31518610205E+02  0.10566000000E+00 0. -1.
        994    1    1    2    0    0  0.17086214512E+01  0.20062630786E+01  0.20312401645E+01  0.17123232877E+03  0.17120000000E+03 0.  0.
        998    1    1    2    0    0 -0.11735402350E+02 -0.60001955602E+01  0.14683558570E+04  0.14684490610E+04  0.10000000000E+02 0. -1.
</event>
<event>
 5    1  0.1582292E-008  0.3743675E+03  0.7957747E-01  0.3476056E+00
         13   -1    0    0    0    0  0.00000000000E+00  0.00000000000E+00  0.14999999963E+04  0.15000000000E+04  0.10566000000E+00 0. -1.
        994   -1    0    0    0    0 -0.00000000000E+00 -0.00000000000E+00  0.11368683772E-12  0.17120000000E+03  0.17120000000E+03 0.  0.
         13    1    1    2    0    0 -0.74386661238E+01 -0.25560323784E+02  0.45856934129E+02  0.53023895343E+02  0.10566000000E+00 0. -1.
        994    1    1    2    0    0  0.11520590866E+02  0.29570039419E+02  0.10442261461E+02  0.17442933260E+03  0.17120000000E+03 0.  0.
        998    1    1    2    0    0 -0.40819247418E+01 -0.40097156354E+01  0.14437008007E+04  0.14437467721E+04  0.10000000000E+02 0. -1.
</event>
<event>
 5    1  0.1582292E-008  0.3729031E+03  0.7957747E-01  0.3482654E+00
         13   -1    0    0    0    0  0.00000000000E+00  0.00000000000E+00  0.14999999963E+04  0.15000000000E+04  0.10566000000E+00 0.  1.
        994   -1    0    0    0    0 -0.00000000000E+00 -0.00000000000E+00  0.11368683772E-12  0.17120000000E+03  0.17120000000E+03 0.  0.
         13    1    1    2    0    0  0.14533712443E+02  0.22627060349E+02  0.42294710894E+02  0.50120518663E+02  0.10566000000E+00 0.  1.
        994    1    1    2    0    0 -0.13485007397E+02 -0.24715632795E+02  0.10478054472E+02  0.17381581503E+03  0.17120000000E+03 0.  0.
        998    1    1    2    0    0 -0.10487050457E+01  0.20885724453E+01  0.14472272309E+04  0.14472636663E+04  0.10000000000E+02 0.  1.
</event>
<event>
 5    1  0.1659134E-008  0.3844328E+03  0.7957747E-01  0.3432082E+00
         13   -1    0    0    0    0  0.00000000000E+00  0.00000000000E+00  0.14999999963E+04  0.15000000000E+04  0.10566000000E+00 0. -1.
        994   -1    0    0    0    0 -0.00000000000E+00 -0.00000000000E+00  0.11368683772E-12  0.17120000000E+03  0.17120000000E+03 0.  0.
         13    1    1    2    0    0 -0.61077911376E+01 -0.11037550108E+02  0.40755189037E+02  0.42662972499E+02  0.10566000000E+00 0. -1.
        994    1    1    2    0    0  0.35235333532E+01  0.10731145865E+02  0.23324557958E+01  0.17158803318E+03  0.17120000000E+03 0.  0.
        998    1    1    2    0    0  0.25842577844E+01  0.30640424262E+00  0.14569123514E+04  0.14569489943E+04  0.10000000000E+02 0. -1.
</event>
<event>
 5    1  0.1582292E-008  0.3806578E+03  0.7957747E-01  0.3448299E+00
         13   -1    0    0    0    0  0.00000000000E+00  0.00000000000E+00  0.14999999963E+04  0.15000000000E+04  0.10566000000E+00 0.  1.
        994   -1    0    0    0    0 -0.00000000000E+00 -0.00000000000E+00  0.11368683772E-12  0.17120000000E+03  0.17120000000E+03 0.  0.
         13    1    1    2    0    0 -0.60007597469E+01 -0.27461697575E+02  0.10742390575E+03  0.11104080620E+03  0.10566000000E+00 0.  1.
        994    1    1    2    0    0  0.64686350443E+02 -0.11477537476E+01  0.17891800790E+02  0.18388909105E+03  0.17120000000E+03 0.  0.
        998    1    1    2    0    0 -0.58685590696E+02  0.28609451322E+02  0.13746842897E+04  0.13762701028E+04  0.10000000000E+02 0.  1.
</event>
<event>
 5    1  0.1582292E-008  0.3860750E+03  0.7957747E-01  0.3425126E+00
         13   -1    0    0    0    0  0.00000000000E+00  0.00000000000E+00  0.14999999963E+04  0.15000000000E+04  0.10566000000E+00 0. -1.
        994   -1    0    0    0    0 -0.00000000000E+00 -0.00000000000E+00  0.11368683772E-12  0.17120000000E+03  0.17120000000E+03 0.  0.
         13    1    1    2    0    0 -0.96270901194E+01 -0.48814435936E+01  0.56747067521E+02  0.57764610204E+02  0.10566000000E+00 0. -1.
        994    1    1    2    0    0  0.21072594153E+01 -0.44353664025E+01  0.11763605121E+01  0.17127444889E+03  0.17120000000E+03 0.  0.
        998    1    1    2    0    0  0.75198307041E+01  0.93168099961E+01  0.14420765682E+04  0.14421609409E+04  0.10000000000E+02 0. -1.
</event>
<event>
 5    1  0.1582292E-008  0.3977196E+03  0.7957747E-01  0.3377455E+00
         13   -1    0    0    0    0  0.00000000000E+00  0.00000000000E+00  0.14999999963E+04  0.15000000000E+04  0.10566000000E+00 0. -1.
        994   -1    0    0    0    0 -0.00000000000E+00 -0.00000000000E+00  0.11368683772E-12  0.17120000000E+03  0.17120000000E+03 0.  0.
         13    1    1    2    0    0 -0.12492866180E+03  0.58431372791E+02  0.28004426591E+03  0.31216373572E+03  0.10566000000E+00 0. -1.
        994    1    1    2    0    0  0.11360503628E+03 -0.77760921340E+02  0.10443663678E+03  0.24324743834E+03  0.17120000000E+03 0.  0.
        998    1    1    2    0    0  0.11323625516E+02  0.19329548549E+02  0.11155190936E+04  0.11157888259E+04  0.10000000000E+02 0. -1.
</event>
<event>
 5    1  0.1582292E-008  0.3761751E+03  0.7957747E-01  0.3467984E+00
         13   -1    0    0    0    0  0.00000000000E+00  0.00000000000E+00  0.14999999963E+04  0.15000000000E+04  0.10566000000E+00 0. -1.
        994   -1    0    0    0    0 -0.00000000000E+00 -0.00000000000E+00  0.11368683772E-12  0.17120000000E+03  0.17120000000E+03 0.  0.
         13    1    1    2    0    0 -0.16570278329E+01 -0.30203281265E+02  0.80606529135E+02  0.86095340430E+02  0.10566000000E+00 0. -1.
        994    1    1    2    0    0 -0.43232162217E+01 -0.54025504054E+01  0.62386301100E+01  0.17145331217E+03  0.17120000000E+03 0.  0.
        998    1    1    2    0    0  0.59802440546E+01  0.35605831671E+02  0.14131548370E+04  0.14136513474E+04  0.10000000000E+02 0. -1.
</event>
<event>
 5    1  0.1582292E-008  0.3778715E+03  0.7957747E-01  0.3460479E+00
         13   -1    0    0    0    0  0.00000000000E+00  0.00000000000E+00  0.14999999963E+04  0.15000000000E+04  0.10566000000E+00 0.  1.
        994   -1    0    0    0    0 -0.00000000000E+00 -0.00000000000E+00  0.11368683772E-12  0.17120000000E+03  0.17120000000E+03 0.  0.
         13    1    1    2    0    0 -0.31213922431E+02 -0.18249365296E+01  0.25416724209E+02  0.40294669380E+02  0.10566000000E+00 0.  1.
        994    1    1    2    0    0  0.33531401147E+02  0.51269242609E+01  0.19311174948E+02  0.17559328487E+03  0.17120000000E+03 0.  0.
        998    1    1    2    0    0 -0.23174787157E+01 -0.33019877313E+01  0.14552720971E+04  0.14553120457E+04  0.10000000000E+02 0.  1.
</event>
<event>
 5    1  0.1582292E-008  0.3852720E+03  0.7957747E-01  0.3428520E+00
         13   -1    0    0    0    0  0.00000000000E+00  0.00000000000E+00  0.14999999963E+04  0.15000000000E+04  0.10566000000E+00 0. -1.
        994   -1    0    0    0    0 -0.00000000000E+00 -0.00000000000E+00  0.11368683772E-12  0.17120000000E+03  0.17120000000E+03 0.  0.
         13    1    1    2    0    0  0.11013659923E+02 -0.83038513620E+01  0.63325772612E+02  0.64810641821E+02  0.10566000000E+00 0. -1.
        994    1    1    2    0    0 -0.10741787797E+02  0.28281962030E+01  0.19006903370E+01  0.17157050248E+03  0.17120000000E+03 0.  0.
        998    1    1    2    0    0 -0.27187212586E+00  0.54756551590E+01  0.14347735333E+04  0.14348188557E+04  0.10000000000E+02 0. -1.
</event>
<event>
 5    1  0.1582292E-008  0.3781375E+03  0.7957747E-01  0.3459308E+00
         13   -1    0    0    0    0  0.00000000000E+00  0.00000000000E+00  0.14999999963E+04  0.15000000000E+04  0.10566000000E+00 0.  1.
        994   -1    0    0    0    0 -0.00000000000E+00 -0.00000000000E+00  0.11368683772E-12  0.17120000000E+03  0.17120000000E+03 0.  0.
         13    1    1    2    0    0 -0.96467498713E+00 -0.28347258022E+02  0.73609068112E+02  0.78884749525E+02  0.10566000000E+00 0.  1.
        994    1    1    2    0    0  0.22883560694E+00  0.30015409844E+02  0.81127765302E+01  0.17400067338E+03  0.17120000000E+03 0.  0.
        998    1    1    2    0    0  0.73583938019E+00 -0.16681518218E+01  0.14182781516E+04  0.14183145771E+04  0.10000000000E+02 0.  0.
</event>
<event>
 5    1  0.1582292E-008  0.3809966E+03  0.7957747E-01  0.3446830E+00
         13   -1    0    0    0    0  0.00000000000E+00  0.00000000000E+00  0.14999999963E+04  0.15000000000E+04  0.10566000000E+00 0.  1.
        994   -1    0    0    0    0 -0.00000000000E+00 -0.00000000000E+00  0.11368683772E-12  0.17120000000E+03  0.17120000000E+03 0.  0.
         13    1    1    2    0    0  0.78997226290E+01  0.33952861176E+02  0.20147274447E+03  0.20446633055E+03  0.10566000000E+00 0.  1.
        994    1    1    2    0    0  0.43814143548E+02 -0.10303829013E+02  0.10410538771E+02  0.17732362331E+03  0.17120000000E+03 0.  0.
        998    1    1    2    0    0 -0.51713866177E+02 -0.23649032163E+02  0.12881167130E+04  0.12894100461E+04  0.10000000000E+02 0.  1.
</event>
<event>
 5    1  0.1582292E-008  0.3812012E+03  0.7957747E-01  0.3445945E+00
         13   -1    0    0    0    0  0.00000000000E+00  0.00000000000E+00  0.14999999963E+04  0.15000000000E+04  0.10566000000E+00 0.  1.
        994   -1    0    0    0    0 -0.00000000000E+00 -0.00000000000E+00  0.11368683772E-12  0.17120000000E+03  0.17120000000E+03 0.  0.
         13    1    1    2    0    0  0.56474970275E+02  0.33107383183E+03  0.79195839005E+03  0.86023101962E+03  0.10566000000E+00 0.  1.
        994    1    1    2    0    0 -0.63019428169E+02 -0.33244607655E+03  0.65751881866E+03  0.75903377990E+03  0.17120000000E+03 0.  0.
        998    1    1    2    0    0  0.65444578937E+01  0.13722447236E+01  0.50522787572E+02  0.51935200479E+02  0.10000000000E+02 0. -1.
</event>
<event>
 5    1  0.1582292E-008  0.3856062E+03  0.7957747E-01  0.3427105E+00
         13   -1    0    0    0    0  0.00000000000E+00  0.00000000000E+00  0.14999999963E+04  0.15000000000E+04  0.10566000000E+00 0.  1.
        994   -1    0    0    0    0 -0.00000000000E+00 -0.00000000000E+00  0.11368683772E-12  0.17120000000E+03  0.17120000000E+03 0.  0.
         13    1    1    2    0    0  0.92733567615E+01  0.10396304675E+02  0.72476873361E+02  0.73803703381E+02  0.10566000000E+00 0.  1.
        994    1    1    2    0    0  0.71344498201E+01 -0.21894348988E+02  0.30718546565E+01  0.17276903421E+03  0.17120000000E+03 0.  0.
        998    1    1    2    0    0 -0.16407806582E+02  0.11498044313E+02  0.14244512683E+04  0.14246272624E+04  0.10000000000E+02 0.  1.
</event>
<event>
 5    1  0.1582292E-008  0.3850195E+03  0.7957747E-01  0.3429589E+00
         13   -1    0    0    0    0  0.00000000000E+00  0.00000000000E+00  0.14999999963E+04  0.15000000000E+04  0.10566000000E+00 0. -1.
        994   -1    0    0    0    0 -0.00000000000E+00 -0.00000000000E+00  0.11368683772E-12  0.17120000000E+03  0.17120000000E+03 0.  0.
         13    1    1    2    0    0 -0.13078803299E+02 -0.43248327699E+01  0.57636940587E+02  0.59260335457E+02  0.10566000000E+00 0. -1.
        994    1    1    2    0    0  0.14691552168E+02 -0.65160688689E+01  0.24702994837E+01  0.17197047199E+03  0.17120000000E+03 0.  0.
        998    1    1    2    0    0 -0.16127488686E+01  0.10840901639E+02  0.14398927562E+04  0.14399691925E+04  0.10000000000E+02 0. -1.
</event>
<event>
 5    1  0.1582292E-008  0.3853453E+03  0.7957747E-01  0.3428209E+00
         13   -1    0    0    0    0  0.00000000000E+00  0.00000000000E+00  0.14999999963E+04  0.15000000000E+04  0.10566000000E+00 0.  1.
        994   -1    0    0    0    0 -0.00000000000E+00 -0.00000000000E+00  0.11368683772E-12  0.17120000000E+03  0.17120000000E+03 0.  0.
         13    1    1    2    0    0 -0.23664345940E+01  0.11705881665E+02  0.46623363051E+02  0.48128752576E+02  0.10566000000E+00 0.  1.
        994    1    1    2    0    0 -0.56410303634E+00 -0.17315146098E+02  0.24453448531E+01  0.17209169709E+03  0.17120000000E+03 0.  0.
        998    1    1    2    0    0  0.29305376304E+01  0.56092644324E+01  0.14509312884E+04  0.14509795503E+04  0.10000000000E+02 0.  1.
</event>
<event>
 5    1  0.1582292E-008  0.3818927E+03  0.7957747E-01  0.3442958E+00
         13   -1    0    0    0    0  0.00000000000E+00  0.00000000000E+00  0.14999999963E+04  0.15000000000E+04  0.10566000000E+00 0.  1.
        994   -1    0    0    0    0 -0.00000000000E+00 -0.00000000000E+00  0.11368683772E-12  0.17120000000E+03  0.17120000000E+03 0.  0.
         13    1    1    2    0    0  0.25565540909E+02 -0.14994550588E+02  0.15023189081E+03  0.15312761217E+03  0.10566000000E+00 0.  1.
        994    1    1    2    0    0 -0.18678044385E+02 -0.20035860843E+02  0.56773510324E+01  0.17347039337E+03  0.17120000000E+03 0.  0.
        998    1    1    2    0    0 -0.68874965246E+01  0.35030411431E+02  0.13440907544E+04  0.13446019945E+04  0.10000000000E+02 0.  1.
</event>
<event>
 5    1  0.1582292E-008  0.3846242E+03  0.7957747E-01  0.3431268E+00
         13   -1    0    0    0    0  0.00000000000E+00  0.00000000000E+00  0.14999999963E+04  0.15000000000E+04  0.10566000000E+00 0. -1.
        994   -1    0    0    0    0 -0.00000000000E+00 -0.00000000000E+00  0.11368683772E-12  0.17120000000E+03  0.17120000000E+03 0.  0.
         13    1    1    2    0    0  0.14899792175E+02 -0.62341363094E+00  0.63987402908E+02  0.65702293311E+02  0.10566000000E+00 0. -1.
        994    1    1    2    0    0 -0.17787633208E+01  0.42776963310E+01  0.18874989824E+01  0.17127307242E+03  0.17120000000E+03 0.  0.
        998    1    1    2    0    0 -0.13121028854E+02 -0.36542827001E+01  0.14341250944E+04  0.14342246343E+04  0.10000000000E+02 0. -1.
</event>
<event>
 5    1  0.1582292E-008  0.3692076E+03  0.7957747E-01  0.3499541E+00
         13   -1    0    0    0    0  0.00000000000E+00  0.00000000000E+00  0.14999999963E+04  0.15000000000E+04  0.10566000000E+00 0.  1.
        994   -1    0    0    0    0 -0.00000000000E+00 -0.00000000000E+00  0.11368683772E-12  0.17120000000E+03  0.17120000000E+03 0.  0.
         13    1    1    2    0    0 -0.36099904210E+02  0.26497778315E+02  0.89809568507E+02  0.10035489574E+03  0.10566000000E+00 0.  1.
        994    1    1    2    0    0  0.19470888499E+02 -0.31523301224E+02  0.15321726688E+02  0.17583238987E+03  0.17120000000E+03 0.  0.
        998    1    1    2    0    0  0.16629015710E+02  0.50255229091E+01  0.13948687011E+04  0.13950127144E+04  0.10000000000E+02 0.  1.
</event>
<event>
 5    1  0.1582292E-008  0.3752794E+03  0.7957747E-01  0.3471974E+00
         13   -1    0    0    0    0  0.00000000000E+00  0.00000000000E+00  0.14999999963E+04  0.15000000000E+04  0.10566000000E+00 0.  1.
        994   -1    0    0    0    0 -0.00000000000E+00 -0.00000000000E+00  0.11368683772E-12  0.17120000000E+03  0.17120000000E+03 0.  0.
         13    1    1    2    0    0  0.43012678848E+02 -0.31061248236E+01  0.13140945954E+03  0.13830472073E+03  0.10566000000E+00 0.  1.
        994    1    1    2    0    0 -0.39125442590E+02 -0.16205029816E+01  0.11760619156E+02  0.17601471089E+03  0.17120000000E+03 0.  0.
        998    1    1    2    0    0 -0.38872362577E+01  0.47266278052E+01  0.13568299176E+04  0.13568805684E+04  0.10000000000E+02 0.  0.
</event>
<event>
 5    1  0.1582292E-008  0.3832663E+03  0.7957747E-01  0.3437059E+00
         13   -1    0    0    0    0  0.00000000000E+00  0.00000000000E+00  0.14999999963E+04  0.15000000000E+04  0.10566000000E+00 0.  1.
        994   -1    0    0    0    0 -0.00000000000E+00 -0.00000000000E+00  0.11368683772E-12  0.17120000000E+03  0.17120000000E+03 0.  0.
         13    1    1    2    0    0 -0.21753934223E+02  0.44587899698E+01  0.10780490816E+03  0.11006826904E+03  0.10566000000E+00 0.  1.
        994    1    1    2    0    0 -0.52715381264E+00 -0.31183093539E+01  0.25264329603E+01  0.17124784556E+03  0.17120000000E+03 0.  0.
        998    1    1    2    0    0  0.22281088036E+02 -0.13404806159E+01  0.13896686552E+04  0.13898838854E+04  0.10000000000E+02 0.  1.
</event>
<event>
 5    1  0.1582292E-008  0.3838865E+03  0.7957747E-01  0.3434409E+00
         13   -1    0    0    0    0  0.00000000000E+00  0.00000000000E+00  0.14999999963E+04  0.15000000000E+04  0.10566000000E+00 0. -1.
        994   -1    0    0    0    0 -0.00000000000E+00 -0.00000000000E+00  0.11368683772E-12  0.17120000000E+03  0.17120000000E+03 0.  0.
         13    1    1    2    0    0  0.12803039568E+02  0.28266009736E+01  0.38425874243E+02  0.40601311193E+02  0.10566000000E+00 0. -1.
        994    1    1    2    0    0 -0.11515768841E+02  0.97853876433E+00  0.26249683544E+01  0.17160973437E+03  0.17120000000E+03 0.  0.
        998    1    1    2    0    0 -0.12872707271E+01 -0.38051397379E+01  0.14589491537E+04  0.14589889544E+04  0.10000000000E+02 0. -1.
</event>
<event>
 5    1  0.1582292E-008  0.3753710E+03  0.7957747E-01  0.3471565E+00
         13   -1    0    0    0    0  0.00000000000E+00  0.00000000000E+00  0.14999999963E+04  0.15000000000E+04  0.10566000000E+00 0. -1.
        994   -1    0    0    0    0 -0.00000000000E+00 -0.00000000000E+00  0.11368683772E-12  0.17120000000E+03  0.17120000000E+03 0.  0.
         13    1    1    2    0    0 -0.40122630346E+02 -0.11465238448E+02  0.12395073784E+03  0.13078636678E+03  0.10566000000E+00 0. -1.
        994    1    1    2    0    0  0.36273158214E+02  0.12381320988E+02  0.11491951003E+02  0.17581394727E+03  0.17120000000E+03 0.  0.
        998    1    1    2    0    0  0.38494721323E+01 -0.91608254024E+00  0.13645573074E+04  0.13645996860E+04  0.10000000000E+02 0. -1.
</event>
<event>
 5    1  0.1582292E-008  0.3799743E+03  0.7957747E-01  0.3451270E+00
         13   -1    0    0    0    0  0.00000000000E+00  0.00000000000E+00  0.14999999963E+04  0.15000000000E+04  0.10566000000E+00 0. -1.
        994   -1    0    0    0    0 -0.00000000000E+00 -0.00000000000E+00  0.11368683772E-12  0.17120000000E+03  0.17120000000E+03 0.  0.
         13    1    1    2    0    0  0.12047491750E+02  0.27741017814E+02  0.10842384300E+03  0.11256308019E+03  0.10566000000E+00 0. -1.
        994    1    1    2    0    0  0.85553016131E+01 -0.24783180824E+02  0.64476306425E+01  0.17331592881E+03  0.17120000000E+03 0.  0.
        998    1    1    2    0    0 -0.20602793363E+02 -0.29578369892E+01  0.13851285226E+04  0.13853209910E+04  0.10000000000E+02 0. -1.
</event>
<event>
 5    1  0.1582292E-008  0.3777122E+03  0.7957747E-01  0.3461181E+00
         13   -1    0    0    0    0  0.00000000000E+00  0.00000000000E+00  0.14999999963E+04  0.15000000000E+04  0.10566000000E+00 0.  1.
        994   -1    0    0    0    0 -0.00000000000E+00 -0.00000000000E+00  0.11368683772E-12  0.17120000000E+03  0.17120000000E+03 0.  0.
         13    1    1    2    0    0  0.49417198854E+02  0.14471797424E+03  0.47779579865E+03  0.50167139442E+03  0.10566000000E+00 0.  1.
        994    1    1    2    0    0 -0.63957882012E+02 -0.14272128995E+03  0.10912477874E+03  0.25627648080E+03  0.17120000000E+03 0.  0.
        998    1    1    2    0    0  0.14540683158E+02 -0.19966842895E+01  0.91307941889E+03  0.91325212478E+03  0.10000000000E+02 0.  1.
</event>
<event>
 5    1  0.1582292E-008  0.3850722E+03  0.7957747E-01  0.3429366E+00
         13   -1    0    0    0    0  0.00000000000E+00  0.00000000000E+00  0.14999999963E+04  0.15000000000E+04  0.10566000000E+00 0. -1.
        994   -1    0    0    0    0 -0.00000000000E+00 -0.00000000000E+00  0.11368683772E-12  0.17120000000E+03  0.17120000000E+03 0.  0.
         13    1    1    2    0    0 -0.10949608792E+02  0.54769558074E+01  0.48583957833E+02  0.50102925068E+02  0.10566000000E+00 0. -1.
        994    1    1    2    0    0  0.95312132557E+00 -0.29527146549E+01  0.16259439866E+01  0.17123583345E+03  0.17120000000E+03 0.  0.
        998    1    1    2    0    0  0.99964874663E+01 -0.25242411526E+01  0.14497900945E+04  0.14498612415E+04  0.10000000000E+02 0. -1.
</event>
<event>
 5    1  0.1582292E-008  0.3703784E+03  0.7957747E-01  0.3494154E+00
         13   -1    0    0    0    0  0.00000000000E+00  0.00000000000E+00  0.14999999963E+04  0.15000000000E+04  0.10566000000E+00 0.  1.
        994   -1    0    0    0    0 -0.00000000000E+00 -0.00000000000E+00  0.11368683772E-12  0.17120000000E+03  0.17120000000E+03 0.  0.
         13    1    1    2    0    0  0.41896126556E+02 -0.52105271614E+02  0.27835697058E+03  0.28627409765E+03  0.10566000000E+00 0.  1.
        994    1    1    2    0    0 -0.88121510196E+01 -0.28470220115E+02  0.14254608363E+02  0.17435837031E+03  0.17120000000E+03 0.  0.
        998    1    1    2    0    0 -0.33083975537E+02  0.80575491729E+02  0.12073884173E+04  0.12105675320E+04  0.10000000000E+02 0.  1.
</event>
<event>
 5    1  0.1582292E-008  0.3749337E+03  0.7957747E-01  0.3473520E+00
         13   -1    0    0    0    0  0.00000000000E+00  0.00000000000E+00  0.14999999963E+04  0.15000000000E+04  0.10566000000E+00 0.  1.
        994   -1    0    0    0    0 -0.00000000000E+00 -0.00000000000E+00  0.11368683772E-12  0.17120000000E+03  0.17120000000E+03 0.  0.
         13    1    1    2    0    0 -0.22044402495E+02 -0.45843726009E+02  0.23308179461E+03  0.23856809728E+03  0.10566000000E+00 0.  1.
        994    1    1    2    0    0 -0.42956105541E+01  0.12939279288E+01  0.67812437585E+01  0.17139297473E+03  0.17120000000E+03 0.  0.
        998    1    1    2    0    0  0.26340013049E+02  0.44549798080E+02  0.12601369579E+04  0.12612389280E+04  0.10000000000E+02 0.  1.
</event>
<event>
 5    1  0.1582292E-008  0.3728554E+03  0.7957747E-01  0.3482870E+00
         13   -1    0    0    0    0  0.00000000000E+00  0.00000000000E+00  0.14999999963E+04  0.15000000000E+04  0.10566000000E+00 0.  1.
        994   -1    0    0    0    0 -0.00000000000E+00 -0.00000000000E+00  0.11368683772E-12  0.17120000000E+03  0.17120000000E+03 0.  0.
         13    1    1    2    0    0  0.33159089405E+02  0.64157876117E+02  0.28758468289E+03  0.29651428174E+03  0.10566000000E+00 0.  1.
        994    1    1    2    0    0 -0.26281311161E+02 -0.57240271973E+02  0.21491957273E+02  0.18368042977E+03  0.17120000000E+03 0.  0.
        998    1    1    2    0    0 -0.68777782442E+01 -0.69176041447E+01  0.11909233561E+04  0.11910052885E+04  0.10000000000E+02 0.  1.
</event>
<event>
 5    1  0.1582292E-008  0.3837193E+03  0.7957747E-01  0.3435122E+00
         13   -1    0    0    0    0  0.00000000000E+00  0.00000000000E+00  0.14999999963E+04  0.15000000000E+04  0.10566000000E+00 0. -1.
        994   -1    0    0    0    0 -0.00000000000E+00 -0.00000000000E+00  0.11368683772E-12  0.17120000000E+03  0.17120000000E+03 0.  0.
         13    1    1    2    0    0 -0.32297037420E+01  0.10518311098E+02  0.26328603547E+02  0.28535458352E+02  0.10566000000E+00 0. -1.
        994    1    1    2    0    0  0.30965259771E+01 -0.32026160456E+01  0.23328638515E+01  0.17127383769E+03  0.17120000000E+03 0.  0.
        998    1    1    2    0    0  0.13317776492E+00 -0.73156950529E+01  0.14713385289E+04  0.14713907040E+04  0.10000000000E+02 0. -1.
</event>
<event>
 5    1  0.1582292E-008  0.3848644E+03  0.7957747E-01  0.3430247E+00
         13   -1    0    0    0    0  0.00000000000E+00  0.00000000000E+00  0.14999999963E+04  0.15000000000E+04  0.10566000000E+00 0. -1.
        994   -1    0    0    0    0 -0.00000000000E+00 -0.00000000000E+00  0.11368683772E-12  0.17120000000E+03  0.17120000000E+03 0.  0.
         13    1    1    2    0    0  0.31784051353E+01 -0.10415628686E+02  0.34527328324E+02  0.36204076364E+02  0.10566000000E+00 0. -1.
        994    1    1    2    0    0 -0.56023297303E+01  0.71050710362E+01  0.19668764759E+01  0.17145021649E+03  0.17120000000E+03 0.  0.
        998    1    1    2    0    0  0.24239245950E+01  0.33105576494E+01  0.14635057915E+04  0.14635457071E+04  0.10000000000E+02 0. -1.
</event>
<event>
 5    1  0.1582292E-008  0.3851204E+03  0.7957747E-01  0.3429162E+00
         13   -1    0    0    0    0  0.00000000000E+00  0.00000000000E+00  0.14999999963E+04  0.15000000000E+04  0.10566000000E+00 0.  1.
        994   -1    0    0    0    0 -0.00000000000E+00 -0.00000000000E+00  0.11368683772E-12  0.17120000000E+03  0.17120000000E+03 0.  0.
         13    1    1    2    0    0 -0.24188617226E+01 -0.13227172406E+02  0.63853835610E+02  0.65254367425E+02  0.10566000000E+00 0.  1.
        994    1    1    2    0    0 -0.52720619301E+01 -0.59785404096E+01  0.17792736095E+01  0.17139470061E+03  0.17120000000E+03 0.  0.
        998    1    1    2    0    0  0.76909236527E+01  0.19205712816E+02  0.14343668871E+04  0.14345509320E+04  0.10000000000E+02 0.  1.
</event>
<event>
 5    1  0.1582292E-008  0.3840808E+03  0.7957747E-01  0.3433580E+00
         13   -1    0    0    0    0  0.00000000000E+00  0.00000000000E+00  0.14999999963E+04  0.15000000000E+04  0.10566000000E+00 0. -1.
        994   -1    0    0    0    0 -0.00000000000E+00 -0.00000000000E+00  0.11368683772E-12  0.17120000000E+03  0.17120000000E+03 0.  0.
         13    1    1    2    0    0 -0.68989341709E+01 -0.17090672768E+02  0.93418809516E+02  0.95219596322E+02  0.10566000000E+00 0. -1.
        994    1    1    2    0    0 -0.66245257006E+02  0.24880167970E+02  0.18782778312E+02  0.18619798494E+03  0.17120000000E+03 0.  0.
        998    1    1    2    0    0  0.73144191177E+02 -0.77894952028E+01  0.13877984085E+04  0.13897824187E+04  0.10000000000E+02 0. -1.
</event>
<event>
 5    1  0.1582292E-008  0.3843621E+03  0.7957747E-01  0.3432382E+00
         13   -1    0    0    0    0  0.00000000000E+00  0.00000000000E+00  0.14999999963E+04  0.15000000000E+04  0.10566000000E+00 0.  1.
        994   -1    0    0    0    0 -0.00000000000E+00 -0.00000000000E+00  0.11368683772E-12  0.17120000000E+03  0.17120000000E+03 0.  0.
         13    1    1    2    0    0 -0.75524606044E+01 -0.12818602841E+02  0.55486446700E+02  0.57446611488E+02  0.10566000000E+00 0.  1.
        994    1    1    2    0    0  0.96487389045E+01  0.97449757030E+01  0.25671911722E+01  0.17176755568E+03  0.17120000000E+03 0.  0.
        998    1    1    2    0    0 -0.20962783001E+01  0.30736271382E+01  0.14419463584E+04  0.14419858328E+04  0.10000000000E+02 0.  1.
</event>
<event>
 5    1  0.1582292E-008  0.3819423E+03  0.7957747E-01  0.3442744E+00
         13   -1    0    0    0    0  0.00000000000E+00  0.00000000000E+00  0.14999999963E+04  0.15000000000E+04  0.10566000000E+00 0. -1.
        994   -1    0    0    0    0 -0.00000000000E+00 -0.00000000000E+00  0.11368683772E-12  0.17120000000E+03  0.17120000000E+03 0.  0.
         13    1    1    2    0    0 -0.19002191577E+02  0.29865203675E+02  0.19541133121E+03  0.19859157385E+03  0.10566000000E+00 0. -1.
        994    1    1    2    0    0  0.13119225560E+02 -0.17551731513E+02  0.47524435968E+01  0.17266210667E+03  0.17120000000E+03 0.  0.
        998    1    1    2    0    0  0.58829660175E+01 -0.12313472163E+02  0.12998362215E+04  0.12999463195E+04  0.10000000000E+02 0. -1.
</event>
<event>
 5    1  0.1582292E-008  0.3724106E+03  0.7957747E-01  0.3484885E+00
         13   -1    0    0    0    0  0.00000000000E+00  0.00000000000E+00  0.14999999963E+04  0.15000000000E+04  0.10566000000E+00 0. -1.
        994   -1    0    0    0    0 -0.00000000000E+00 -0.00000000000E+00  0.11368683772E-12  0.17120000000E+03  0.17120000000E+03 0.  0.
         13    1    1    2    0    0 -0.17003206426E+02 -0.47337528315E+02  0.11757809303E+03  0.12788498638E+03  0.10566000000E+00 0. -1.
        994    1    1    2    0    0 -0.45856704991E+02  0.19198811229E+01  0.19683454079E+02  0.17833508264E+03  0.17120000000E+03 0.  0.
        998    1    1    2    0    0  0.62859911417E+02  0.45417647193E+02  0.13627384492E+04  0.13649799310E+04  0.10000000000E+02 0. -1.
</event>
<event>
 5    1  0.1582292E-008  0.2903722E+03  0.7957747E-01  0.3967244E+00
         13   -1    0    0    0    0  0.00000000000E+00  0.00000000000E+00  0.14999999963E+04  0.15000000000E+04  0.10566000000E+00 0.  1.
        994   -1    0    0    0    0 -0.00000000000E+00 -0.00000000000E+00  0.11368683772E-12  0.17120000000E+03  0.17120000000E+03 0.  0.
         13    1    1    2    0    0  0.11378240365E+03 -0.14971395594E+03  0.59651991698E+03  0.62545721396E+03  0.10566000000E+00 0.  1.
        994    1    1    2    0    0 -0.10225037586E+02  0.22485188231E+03  0.24283500556E+03  0.37274817276E+03  0.17120000000E+03 0.  0.
        998    1    1    2    0    0 -0.10355736606E+03 -0.75137926365E+02  0.66064507374E+03  0.67299461328E+03  0.10000000000E+02 0.  1.
</event>
<event>
 5    1  0.1582292E-008  0.3773698E+03  0.7957747E-01  0.3462692E+00
         13   -1    0    0    0    0  0.00000000000E+00  0.00000000000E+00  0.14999999963E+04  0.15000000000E+04  0.10566000000E+00 0. -1.
        994   -1    0    0    0    0 -0.00000000000E+00 -0.00000000000E+00  0.11368683772E-12  0.17120000000E+03  0.17120000000E+03 0.  0.
         13    1    1    2    0    0 -0.24111410213E+02 -0.14674620909E+02  0.17901289540E+02  0.33424122015E+02  0.10566000000E+00 0. -1.
        994    1    1    2    0    0  0.67085918612E+02  0.31643713742E+02  0.34910500775E+02  0.18981577426E+03  0.17120000000E+03 0.  0.
        998    1    1    2    0    0 -0.42974508399E+02 -0.16969092833E+02  0.14471882060E+04  0.14479601037E+04  0.10000000000E+02 0. -1.
</event>
<event>
 5    1  0.1582292E-008  0.3855189E+03  0.7957747E-01  0.3427475E+00
         13   -1    0    0    0    0  0.00000000000E+00  0.00000000000E+00  0.14999999963E+04  0.15000000000E+04  0.10566000000E+00 0.  1.
        994   -1    0    0    0    0 -0.00000000000E+00 -0.00000000000E+00  0.11368683772E-12  0.17120000000E+03  0.17120000000E+03 0.  0.
         13    1    1    2    0    0 -0.83364818002E+00 -0.14367160243E+02  0.76035075737E+02  0.77385103018E+02  0.10566000000E+00 0.  1.
        994    1    1    2    0    0  0.68147365095E+01  0.87736349634E+01  0.17780387518E+01  0.17156928258E+03  0.17120000000E+03 0.  0.
        998    1    1    2    0    0 -0.59810883294E+01  0.55935252797E+01  0.14221868818E+04  0.14222456144E+04  0.10000000000E+02 0.  1.
</event>
<event>
 5    1  0.1582292E-008  0.3713963E+03  0.7957747E-01  0.3489498E+00
         13   -1    0    0    0    0  0.00000000000E+00  0.00000000000E+00  0.14999999963E+04  0.15000000000E+04  0.10566000000E+00 0. -1.
        994   -1    0    0    0    0 -0.00000000000E+00 -0.00000000000E+00  0.11368683772E-12  0.17120000000E+03  0.17120000000E+03 0.  0.
         13    1    1    2    0    0  0.16581078533E+02 -0.27508666584E+02  0.55014511270E+02  0.63704525089E+02  0.10566000000E+00 0. -1.
        994    1    1    2    0    0 -0.29297680362E+02  0.21445350564E+02  0.13090862279E+02  0.17549663191E+03  0.17120000000E+03 0.  0.
        998    1    1    2    0    0  0.12716601829E+02  0.60633160201E+01  0.14318946227E+04  0.14319988430E+04  0.10000000000E+02 0. -1.
</event>
<event>
 5    1  0.1582292E-008  0.3764619E+03  0.7957747E-01  0.3466710E+00
         13   -1    0    0    0    0  0.00000000000E+00  0.00000000000E+00  0.14999999963E+04  0.15000000000E+04  0.10566000000E+00 0.  1.
        994   -1    0    0    0    0 -0.00000000000E+00 -0.00000000000E+00  0.11368683772E-12  0.17120000000E+03  0.17120000000E+03 0.  0.
         13    1    1    2    0    0 -0.92660809974E+01  0.61933328572E+01  0.77876117472E+01  0.13596900003E+02  0.10566000000E+00 0.  1.
        994    1    1    2    0    0  0.10957830292E+02  0.29214771812E+01  0.63650785566E+01  0.17169322438E+03  0.17120000000E+03 0.  0.
        998    1    1    2    0    0 -0.16917492945E+01 -0.91148100384E+01  0.14858473060E+04  0.14859098756E+04  0.10000000000E+02 0.  1.
</event>
<event>
 5    1  0.1582292E-008  0.3824364E+03  0.7957747E-01  0.3440618E+00
         13   -1    0    0    0    0  0.00000000000E+00  0.00000000000E+00  0.14999999963E+04  0.15000000000E+04  0.10566000000E+00 0.  1.
        994   -1    0    0    0    0 -0.00000000000E+00 -0.00000000000E+00  0.11368683772E-12  0.17120000000E+03  0.17120000000E+03 0.  0.
         13    1    1    2    0    0 -0.11433709425E+02  0.25123448310E+02  0.14053788222E+03  0.14322299002E+03  0.10566000000E+00 0.  1.
        994    1    1    2    0    0  0.10431042481E+02 -0.18651578176E+01  0.32807554093E+01  0.17155899515E+03  0.17120000000E+03 0.  0.
        998    1    1    2    0    0  0.10026669442E+01 -0.23258290493E+02  0.13561813586E+04  0.13564180148E+04  0.10000000000E+02 0.  1.
</event>
<event>
 5    1  0.1582292E-008  0.4225622E+03  0.7957747E-01  0.3284480E+00
         13   -1    0    0    0    0  0.00000000000E+00  0.00000000000E+00  0.14999999963E+04  0.15000000000E+04  0.10566000000E+00 0.  1.
        994   -1    0    0    0    0 -0.00000000000E+00 -0.00000000000E+00  0.11368683772E-12  0.17120000000E+03  0.17120000000E+03 0.  0.
         13    1    1    2    0    0 -0.14305140924E+03  0.34027816019E+02  0.32432205212E+03  0.35609886633E+03  0.10566000000E+00 0.  1.
        994    1    1    2    0    0  0.28327103662E+02 -0.28321708396E+02  0.48979510682E+02  0.18251842766E+03  0.17120000000E+03 0.  0.
        998    1    1    2    0    0  0.11472430557E+03 -0.57061076232E+01  0.11266984335E+04  0.11325827060E+04  0.10000000000E+02 0.  1.
</event>
<event>
 5    1  0.1582292E-008  0.3706751E+03  0.7957747E-01  0.3492794E+00
         13   -1    0    0    0    0  0.00000000000E+00  0.00000000000E+00  0.14999999963E+04  0.15000000000E+04  0.10566000000E+00 0.  1.
        994   -1    0    0    0    0 -0.00000000000E+00 -0.00000000000E+00  0.11368683772E-12  0.17120000000E+03  0.17120000000E+03 0.  0.
         13    1    1    2    0    0 -0.31700737983E+02  0.99380174838E+02  0.35374768148E+03  0.36880725217E+03  0.10566000000E+00 0.  1.
        994    1    1    2    0    0  0.37538606615E+02 -0.99785649286E+02  0.52265441533E+02  0.20834452037E+03  0.17120000000E+03 0.  0.
        998    1    1    2    0    0 -0.58378686320E+01  0.40547444788E+00  0.10939868733E+04  0.10940482275E+04  0.10000000000E+02 0.  1.
</event>
<event>
 5    1  0.1582292E-008  0.3701202E+03  0.7957747E-01  0.3495339E+00
         13   -1    0    0    0    0  0.00000000000E+00  0.00000000000E+00  0.14999999963E+04  0.15000000000E+04  0.10566000000E+00 0. -1.
        994   -1    0    0    0    0 -0.00000000000E+00 -0.00000000000E+00  0.11368683772E-12  0.17120000000E+03  0.17120000000E+03 0.  0.
         13    1    1    2    0    0 -0.43957245259E+02 -0.33346630352E+02  0.13761901671E+03  0.14826746808E+03  0.10566000000E+00 0. -1.
        994    1    1    2    0    0  0.16863612328E+02  0.25325285520E+02  0.14246988547E+02  0.17446537820E+03  0.17120000000E+03 0.  0.
        998    1    1    2    0    0  0.27093632931E+02  0.80213448324E+01  0.13481339910E+04  0.13484671537E+04  0.10000000000E+02 0. -1.
</event>
<event>
 5    1  0.1582292E-008  0.3798030E+03  0.7957747E-01  0.3452017E+00
         13   -1    0    0    0    0  0.00000000000E+00  0.00000000000E+00  0.14999999963E+04  0.15000000000E+04  0.10566000000E+00 0. -1.
        994   -1    0    0    0    0 -0.00000000000E+00 -0.00000000000E+00  0.11368683772E-12  0.17120000000E+03  0.17120000000E+03 0.  0.
         13    1    1    2    0    0  0.47967314181E+02  0.48278065608E+01  0.23174266927E+03  0.23670413361E+03  0.10566000000E+00 0. -1.
        994    1    1    2    0    0 -0.50279418068E+02  0.89745319789E+01  0.13008358610E+02  0.17912905822E+03  0.17120000000E+03 0.  0.
        998    1    1    2    0    0  0.23121038868E+01 -0.13802338540E+02  0.12552489684E+04  0.12553668082E+04  0.10000000000E+02 0. -1.
</event>
<event>
 5    1  0.1582292E-008  0.3795981E+03  0.7957747E-01  0.3452910E+00
         13   -1    0    0    0    0  0.00000000000E+00  0.00000000000E+00  0.14999999963E+04  0.15000000000E+04  0.10566000000E+00 0. -1.
        994   -1    0    0    0    0 -0.00000000000E+00 -0.00000000000E+00  0.11368683772E-12  0.17120000000E+03  0.17120000000E+03 0.  0.
         13    1    1    2    0    0 -0.98813458739E+01  0.22005144480E+02  0.61591066709E+02  0.66146338086E+02  0.10566000000E+00 0. -1.
        994    1    1    2    0    0  0.17044828095E+02 -0.26022001516E+02  0.75820876968E+01  0.17416830590E+03  0.17120000000E+03 0.  0.
        998    1    1    2    0    0 -0.71634822215E+01  0.40168570363E+01  0.14308268419E+04  0.14308853560E+04  0.10000000000E+02 0. -1.
</event>
<event>
 5    1  0.1582292E-008  0.3768883E+03  0.7957747E-01  0.3464821E+00
         13   -1    0    0    0    0  0.00000000000E+00  0.00000000000E+00  0.14999999963E+04  0.15000000000E+04  0.10566000000E+00 0. -1.
        994   -1    0    0    0    0 -0.00000000000E+00 -0.00000000000E+00  0.11368683772E-12  0.17120000000E+03  0.17120000000E+03 0.  0.
         13    1    1    2    0    0 -0.26814802104E+02  0.41670254145E+02  0.18554627160E+03  0.19204914413E+03  0.10566000000E+00 0. -1.
        994    1    1    2    0    0  0.40076783520E+02 -0.35789242711E+02  0.15526602661E+02  0.18010423055E+03  0.17120000000E+03 0.  0.
        998    1    1    2    0    0 -0.13261981416E+02 -0.58810114341E+01  0.12989271220E+04  0.12990466253E+04  0.10000000000E+02 0. -1.
</event>
<event>
 5    1  0.1582292E-008  0.3830779E+03  0.7957747E-01  0.3437865E+00
         13   -1    0    0    0    0  0.00000000000E+00  0.00000000000E+00  0.14999999963E+04  0.15000000000E+04  0.10566000000E+00 0. -1.
        994   -1    0    0    0    0 -0.00000000000E+00 -0.00000000000E+00  0.11368683772E-12  0.17120000000E+03  0.17120000000E+03 0.  0.
         13    1    1    2    0    0 -0.15081844727E+02 -0.17552808455E+02  0.95107151309E+02  0.97882299315E+02  0.10566000000E+00 0. -1.
        994    1    1    2    0    0  0.15823351332E+02  0.22075433536E+02  0.50325195315E+01  0.17341415590E+03  0.17120000000E+03 0.  0.
        998    1    1    2    0    0 -0.74150660490E+00 -0.45226250807E+01  0.13998603254E+04  0.13999035448E+04  0.10000000000E+02 0. -1.
</event>
<event>
 5    1  0.1582292E-008  0.3805527E+03  0.7957747E-01  0.3448755E+00
         13   -1    0    0    0    0  0.00000000000E+00  0.00000000000E+00  0.14999999963E+04  0.15000000000E+04  0.10566000000E+00 0.  1.
        994   -1    0    0    0    0 -0.00000000000E+00 -0.00000000000E+00  0.11368683772E-12  0.17120000000E+03  0.17120000000E+03 0.  0.
         13    1    1    2    0    0 -0.14484834606E+02 -0.70409358598E+01  0.31586415726E+02  0.35455578317E+02  0.10566000000E+00 0.  1.
        994    1    1    2    0    0  0.17506060273E+02  0.15634489517E+01  0.48858459571E+01  0.17216915522E+03  0.17120000000E+03 0.  0.
        998    1    1    2    0    0 -0.30212256667E+01  0.54774869081E+01  0.14635277346E+04  0.14635752665E+04  0.10000000000E+02 0.  1.
</event>
<event>
 5    1  0.1582292E-008  0.3831242E+03  0.7957747E-01  0.3437667E+00
         13   -1    0    0    0    0  0.00000000000E+00  0.00000000000E+00  0.14999999963E+04  0.15000000000E+04  0.10566000000E+00 0.  1.
        994   -1    0    0    0    0 -0.00000000000E+00 -0.00000000000E+00  0.11368683772E-12  0.17120000000E+03  0.17120000000E+03 0.  0.
         13    1    1    2    0    0  0.46791271323E+01  0.25723770836E+02  0.14696690136E+03  0.14927453860E+03  0.10566000000E+00 0.  1.
        994    1    1    2    0    0 -0.84840738393E+01 -0.13423864695E+01  0.28084844506E+01  0.17143835363E+03  0.17120000000E+03 0.  0.
        998    1    1    2    0    0  0.38049467070E+01 -0.24381384366E+02  0.13502246105E+04  0.13504871078E+04  0.10000000000E+02 0.  1.
</event>
<event>
 5    1  0.1582292E-008  0.3807191E+03  0.7957747E-01  0.3448033E+00
         13   -1    0    0    0    0  0.00000000000E+00  0.00000000000E+00  0.14999999963E+04  0.15000000000E+04  0.10566000000E+00 0.  1.
        994   -1    0    0    0    0 -0.00000000000E+00 -0.00000000000E+00  0.11368683772E-12  0.17120000000E+03  0.17120000000E+03 0.  0.
         13    1    1    2    0    0  0.49444758127E+01  0.37403111179E+02  0.17802805954E+03  0.18198198184E+03  0.10566000000E+00 0.  1.
        994    1    1    2    0    0 -0.36869123864E+01 -0.28915542917E+02  0.66095216857E+01  0.17378960764E+03  0.17120000000E+03 0.  0.
        998    1    1    2    0    0 -0.12575634262E+01 -0.84875682623E+01  0.13153624151E+04  0.13154284105E+04  0.10000000000E+02 0.  1.
</event>
<event>
 5    1  0.1582292E-008  0.3841126E+03  0.7957747E-01  0.3433444E+00
         13   -1    0    0    0    0  0.00000000000E+00  0.00000000000E+00  0.14999999963E+04  0.15000000000E+04  0.10566000000E+00 0. -1.
        994   -1    0    0    0    0 -0.00000000000E+00 -0.00000000000E+00  0.11368683772E-12  0.17120000000E+03  0.17120000000E+03 0.  0.
         13    1    1    2    0    0 -0.18278465113E+02 -0.41018935315E+00  0.80501276837E+02  0.82551422027E+02  0.10566000000E+00 0. -1.
        994    1    1    2    0    0  0.11345020099E+02  0.50250638996E+00  0.24967857375E+01  0.17159439365E+03  0.17120000000E+03 0.  0.
        998    1    1    2    0    0  0.69334450131E+01 -0.92317036812E-01  0.14170019337E+04  0.14170541843E+04  0.10000000000E+02 0. -1.
</event>
<event>
 5    1  0.1582292E-008  0.3798729E+03  0.7957747E-01  0.3451712E+00
         13   -1    0    0    0    0  0.00000000000E+00  0.00000000000E+00  0.14999999963E+04  0.15000000000E+04  0.10566000000E+00 0. -1.
        994   -1    0    0    0    0 -0.00000000000E+00 -0.00000000000E+00  0.11368683772E-12  0.17120000000E+03  0.17120000000E+03 0.  0.
         13    1    1    2    0    0 -0.69886635832E+01 -0.17737398701E+02  0.40374611918E+02  0.44649492527E+02  0.10566000000E+00 0. -1.
        994    1    1    2    0    0  0.73454384683E+01  0.20783057320E+02  0.58239662404E+01  0.17271146320E+03  0.17120000000E+03 0.  0.
        998    1    1    2    0    0 -0.35677488504E+00 -0.30456586190E+01  0.14538014181E+04  0.14538390443E+04  0.10000000000E+02 0. -1.
</event>
<event>
 5    1  0.1582292E-008  0.3738183E+03  0.7957747E-01  0.3478524E+00
         13   -1    0    0    0    0  0.00000000000E+00  0.00000000000E+00  0.14999999963E+04  0.15000000000E+04  0.10566000000E+00 0. -1.
        994   -1    0    0    0    0 -0.00000000000E+00 -0.00000000000E+00  0.11368683772E-12  0.17120000000E+03  0.17120000000E+03 0.  0.
         13    1    1    2    0    0 -0.38665112118E+02 -0.48694468830E+01  0.10436177231E+03  0.11140059736E+03  0.10566000000E+00 0. -1.
        994    1    1    2    0    0  0.17863202103E+02 -0.11550398966E+01  0.83810930613E+01  0.17233720094E+03  0.17120000000E+03 0.  0.
        998    1    1    2    0    0  0.20801910015E+02  0.60244867796E+01  0.13872571309E+04  0.13874622017E+04  0.10000000000E+02 0. -1.
</event>
<event>
 5    1  0.1582292E-008  0.3757382E+03  0.7957747E-01  0.3469928E+00
         13   -1    0    0    0    0  0.00000000000E+00  0.00000000000E+00  0.14999999963E+04  0.15000000000E+04  0.10566000000E+00 0.  1.
        994   -1    0    0    0    0 -0.00000000000E+00 -0.00000000000E+00  0.11368683772E-12  0.17120000000E+03  0.17120000000E+03 0.  0.
         13    1    1    2    0    0  0.21249127103E+02 -0.60434441961E+02  0.12502927405E+03  0.14048550712E+03  0.10566000000E+00 0.  1.
        994    1    1    2    0    0 -0.22542510847E+02  0.72000890976E+02  0.34605043288E+02  0.19026098422E+03  0.17120000000E+03 0.  0.
        998    1    1    2    0    0  0.12933837442E+01 -0.11566449015E+02  0.13403656789E+04  0.13404535087E+04  0.10000000000E+02 0.  1.
</event>
<event>
 5    1  0.1582292E-008  0.3786200E+03  0.7957747E-01  0.3457189E+00
         13   -1    0    0    0    0  0.00000000000E+00  0.00000000000E+00  0.14999999963E+04  0.15000000000E+04  0.10566000000E+00 0. -1.
        994   -1    0    0    0    0 -0.00000000000E+00 -0.00000000000E+00  0.11368683772E-12  0.17120000000E+03  0.17120000000E+03 0.  0.
         13    1    1    2    0    0  0.63036578324E+01  0.39608800457E+02  0.18570673914E+03  0.18998841360E+03  0.10566000000E+00 0. -1.
        994    1    1    2    0    0 -0.12238148313E+02 -0.39100257095E+01  0.53858855475E+01  0.17176585324E+03  0.17120000000E+03 0.  0.
        998    1    1    2    0    0  0.59344904805E+01 -0.35698774748E+02  0.13089073716E+04  0.13094457332E+04  0.10000000000E+02 0. -1.
</event>
<event>
 5    1  0.1582292E-008  0.3783786E+03  0.7957747E-01  0.3458249E+00
         13   -1    0    0    0    0  0.00000000000E+00  0.00000000000E+00  0.14999999963E+04  0.15000000000E+04  0.10566000000E+00 0.  1.
        994   -1    0    0    0    0 -0.00000000000E+00 -0.00000000000E+00  0.11368683772E-12  0.17120000000E+03  0.17120000000E+03 0.  0.
         13    1    1    2    0    0 -0.38977921443E+02 -0.68924368099E+02  0.46081404185E+03  0.46756757716E+03  0.10566000000E+00 0.  1.
        994    1    1    2    0    0  0.33203204721E+02  0.66786622252E+02  0.23884008938E+02  0.18826256027E+03  0.17120000000E+03 0.  0.
        998    1    1    2    0    0  0.57747167217E+01  0.21377458473E+01  0.10153019455E+04  0.10153698626E+04  0.10000000000E+02 0.  0.
</event>
<event>
 5    1  0.1582292E-008  0.3831047E+03  0.7957747E-01  0.3437750E+00
         13   -1    0    0    0    0  0.00000000000E+00  0.00000000000E+00  0.14999999963E+04  0.15000000000E+04  0.10566000000E+00 0.  1.
        994   -1    0    0    0    0 -0.00000000000E+00 -0.00000000000E+00  0.11368683772E-12  0.17120000000E+03  0.17120000000E+03 0.  0.
         13    1    1    2    0    0  0.10167231075E+02 -0.47615183138E+01  0.23148493742E+02  0.25727583854E+02  0.10566000000E+00 0.  1.
        994    1    1    2    0    0 -0.16015936896E+02 -0.29053010793E+01  0.34512679338E+01  0.17200669248E+03  0.17120000000E+03 0.  0.
        998    1    1    2    0    0  0.58487058208E+01  0.76668193932E+01  0.14734002346E+04  0.14734657237E+04  0.10000000000E+02 0.  1.
</event>
<event>
 5    1  0.1646080E-008  0.3858657E+03  0.7957747E-01  0.3426009E+00
         13   -1    0    0    0    0  0.00000000000E+00  0.00000000000E+00  0.14999999963E+04  0.15000000000E+04  0.10566000000E+00 0.  1.
        994   -1    0    0    0    0 -0.00000000000E+00 -0.00000000000E+00  0.11368683772E-12  0.17120000000E+03  0.17120000000E+03 0.  0.
         13    1    1    2    0    0  0.83442293294E+01  0.68904191732E+01  0.40358219520E+02  0.41783981217E+02  0.10566000000E+00 0.  1.
        994    1    1    2    0    0 -0.36260037816E+02 -0.22816540554E+02  0.72432728738E+01  0.17662754561E+03  0.17120000000E+03 0.  0.
        998    1    1    2    0    0  0.27915808486E+02  0.15926121381E+02  0.14523985039E+04  0.14527884732E+04  0.10000000000E+02 0.  1.
</event>
<event>
 5    1  0.1582292E-008  0.3815447E+03  0.7957747E-01  0.3444460E+00
         13   -1    0    0    0    0  0.00000000000E+00  0.00000000000E+00  0.14999999963E+04  0.15000000000E+04  0.10566000000E+00 0.  1.
        994   -1    0    0    0    0 -0.00000000000E+00 -0.00000000000E+00  0.11368683772E-12  0.17120000000E+03  0.17120000000E+03 0.  0.
         13    1    1    2    0    0  0.75816521331E+01  0.87185404843E+01  0.18440057423E+02  0.21761003631E+02  0.10566000000E+00 0.  1.
        994    1    1    2    0    0 -0.73309836824E+01 -0.66988913538E+01  0.36835108641E+01  0.17152733520E+03  0.17120000000E+03 0.  0.
        998    1    1    2    0    0 -0.25066845066E+00 -0.20196491306E+01  0.14778764280E+04  0.14779116612E+04  0.10000000000E+02 0.  1.
</event>
<event>
 5    1  0.1582292E-008  0.3819819E+03  0.7957747E-01  0.3442574E+00
         13   -1    0    0    0    0  0.00000000000E+00  0.00000000000E+00  0.14999999963E+04  0.15000000000E+04  0.10566000000E+00 0.  1.
        994   -1    0    0    0    0 -0.00000000000E+00 -0.00000000000E+00  0.11368683772E-12  0.17120000000E+03  0.17120000000E+03 0.  0.
         13    1    1    2    0    0  0.16722100570E+02 -0.67063998709E+02  0.14405596489E+03  0.15977903728E+03  0.10566000000E+00 0.  1.
        994    1    1    2    0    0 -0.98892695695E+01  0.17671130023E+02  0.18918317232E+02  0.17342839795E+03  0.17120000000E+03 0.  0.
        998    1    1    2    0    0 -0.68328310003E+01  0.49392868686E+02  0.13370257142E+04  0.13379925648E+04  0.10000000000E+02 0.  1.
</event>
<event>
 5    1  0.1582292E-008  0.3806110E+03  0.7957747E-01  0.3448502E+00
         13   -1    0    0    0    0  0.00000000000E+00  0.00000000000E+00  0.14999999963E+04  0.15000000000E+04  0.10566000000E+00 0. -1.
        994   -1    0    0    0    0 -0.00000000000E+00 -0.00000000000E+00  0.11368683772E-12  0.17120000000E+03  0.17120000000E+03 0.  0.
         13    1    1    2    0    0 -0.21659052647E+02  0.15352522456E+02  0.95137634244E+02  0.98772441100E+02  0.10566000000E+00 0. -1.
        994    1    1    2    0    0  0.20644915540E+01 -0.99820575194E+01  0.41717588399E+01  0.17155391913E+03  0.17120000000E+03 0.  0.
        998    1    1    2    0    0  0.19594561093E+02 -0.53704649364E+01  0.14006906032E+04  0.14008736398E+04  0.10000000000E+02 0. -1.
</event>
<event>
 5    1  0.1582292E-008  0.3759160E+03  0.7957747E-01  0.3469136E+00
         13   -1    0    0    0    0  0.00000000000E+00  0.00000000000E+00  0.14999999963E+04  0.15000000000E+04  0.10566000000E+00 0.  1.
        994   -1    0    0    0    0 -0.00000000000E+00 -0.00000000000E+00  0.11368683772E-12  0.17120000000E+03  0.17120000000E+03 0.  0.
         13    1    1    2    0    0  0.45904363251E+02  0.14038515575E+02  0.16914080102E+03  0.17582068200E+03  0.10566000000E+00 0.  1.
        994    1    1    2    0    0 -0.38777560554E+02 -0.18984574028E+02  0.12552316625E+02  0.17700597139E+03  0.17120000000E+03 0.  0.
        998    1    1    2    0    0 -0.71268026975E+01  0.49460584530E+01  0.13183068786E+04  0.13183733466E+04  0.10000000000E+02 0.  0.
</event>
<event>
 5    1  0.1582292E-008  0.3834871E+03  0.7957747E-01  0.3436114E+00
         13   -1    0    0    0    0  0.00000000000E+00  0.00000000000E+00  0.14999999963E+04  0.15000000000E+04  0.10566000000E+00 0. -1.
        994   -1    0    0    0    0 -0.00000000000E+00 -0.00000000000E+00  0.11368683772E-12  0.17120000000E+03  0.17120000000E+03 0.  0.
         13    1    1    2    0    0  0.29897650021E+01  0.18223146315E+02  0.70863545927E+02  0.73230287871E+02  0.10566000000E+00 0. -1.
        994    1    1    2    0    0 -0.12264871858E+02 -0.10343768573E+02  0.32343219720E+01  0.17198058457E+03  0.17120000000E+03 0.  0.
        998    1    1    2    0    0  0.92751068554E+01 -0.78793777417E+01  0.14259021284E+04  0.14259891276E+04  0.10000000000E+02 0. -1.
</event>
<event>
 5    1  0.1582292E-008  0.3806371E+03  0.7957747E-01  0.3448389E+00
         13   -1    0    0    0    0  0.00000000000E+00  0.00000000000E+00  0.14999999963E+04  0.15000000000E+04  0.10566000000E+00 0. -1.
        994   -1    0    0    0    0 -0.00000000000E+00 -0.00000000000E+00  0.11368683772E-12  0.17120000000E+03  0.17120000000E+03 0.  0.
         13    1    1    2    0    0 -0.17731139296E+02 -0.36085495425E+02  0.18740007464E+03  0.19166469528E+03  0.10566000000E+00 0. -1.
        994    1    1    2    0    0  0.27709298410E+02  0.30550685128E+02  0.95076552677E+01  0.17635471383E+03  0.17120000000E+03 0.  0.
        998    1    1    2    0    0 -0.99781591137E+01  0.55348102973E+01  0.13030922664E+04  0.13031805909E+04  0.10000000000E+02 0. -1.
</event>
<event>
 5    1  0.1582292E-008  0.3750640E+03  0.7957747E-01  0.3472937E+00
         13   -1    0    0    0    0  0.00000000000E+00  0.00000000000E+00  0.14999999963E+04  0.15000000000E+04  0.10566000000E+00 0.  1.
        994   -1    0    0    0    0 -0.00000000000E+00 -0.00000000000E+00  0.11368683772E-12  0.17120000000E+03  0.17120000000E+03 0.  0.
         13    1    1    2    0    0 -0.12789494879E+02  0.33975567559E+02  0.41679912095E+02  0.55273290172E+02  0.10566000000E+00 0.  1.
        994    1    1    2    0    0  0.11760801489E+02 -0.36233079559E+02  0.18824568134E+02  0.17639432211E+03  0.17120000000E+03 0.  0.
        998    1    1    2    0    0  0.10286933904E+01  0.22575120004E+01  0.14394955160E+04  0.14395323877E+04  0.10000000000E+02 0.  1.
</event>
<event>
 5    1  0.1582292E-008  0.3766724E+03  0.7957747E-01  0.3465777E+00
         13   -1    0    0    0    0  0.00000000000E+00  0.00000000000E+00  0.14999999963E+04  0.15000000000E+04  0.10566000000E+00 0. -1.
        994   -1    0    0    0    0 -0.00000000000E+00 -0.00000000000E+00  0.11368683772E-12  0.17120000000E+03  0.17120000000E+03 0.  0.
         13    1    1    2    0    0  0.39297831869E+02 -0.94565779478E+01  0.13886834845E+03  0.14463117168E+03  0.10566000000E+00 0. -1.
        994    1    1    2    0    0 -0.21309306383E+02  0.10594913543E+02  0.77390615584E+01  0.17301928160E+03  0.17120000000E+03 0.  0.
        998    1    1    2    0    0 -0.17988525486E+02 -0.11383355956E+01  0.13533925863E+04  0.13535495467E+04  0.10000000000E+02 0. -1.
</event>
<event>
 5    1  0.1582292E-008  0.3764988E+03  0.7957747E-01  0.3466547E+00
         13   -1    0    0    0    0  0.00000000000E+00  0.00000000000E+00  0.14999999963E+04  0.15000000000E+04  0.10566000000E+00 0.  1.
        994   -1    0    0    0    0 -0.00000000000E+00 -0.00000000000E+00  0.11368683772E-12  0.17120000000E+03  0.17120000000E+03 0.  0.
         13    1    1    2    0    0  0.23579355582E+02 -0.29831451410E+02  0.12951208132E+03  0.13497885714E+03  0.10566000000E+00 0.  1.
        994    1    1    2    0    0 -0.69194465792E+01  0.48495421430E+01  0.61525832689E+01  0.17151877763E+03  0.17120000000E+03 0.  0.
        998    1    1    2    0    0 -0.16659909002E+02  0.24981909267E+02  0.13643353317E+04  0.13647023652E+04  0.10000000000E+02 0.  1.
</event>
<event>
 5    1  0.1582292E-008  0.3789233E+03  0.7957747E-01  0.3455860E+00
         13   -1    0    0    0    0  0.00000000000E+00  0.00000000000E+00  0.14999999963E+04  0.15000000000E+04  0.10566000000E+00 0.  1.
        994   -1    0    0    0    0 -0.00000000000E+00 -0.00000000000E+00  0.11368683772E-12  0.17120000000E+03  0.17120000000E+03 0.  0.
         13    1    1    2    0    0 -0.42948637198E+01  0.29120567578E+02  0.92457536202E+02  0.97030203932E+02  0.10566000000E+00 0.  1.
        994    1    1    2    0    0  0.83236697365E+01 -0.13543441961E+02  0.55258860769E+01  0.17202524151E+03  0.17120000000E+03 0.  0.
        998    1    1    2    0    0 -0.40288060167E+01 -0.15577125617E+02  0.14020165740E+04  0.14021445546E+04  0.10000000000E+02 0.  1.
</event>
<event>
 5    1  0.1582292E-008  0.3764367E+03  0.7957747E-01  0.3466822E+00
         13   -1    0    0    0    0  0.00000000000E+00  0.00000000000E+00  0.14999999963E+04  0.15000000000E+04  0.10566000000E+00 0.  1.
        994   -1    0    0    0    0 -0.00000000000E+00 -0.00000000000E+00  0.11368683772E-12  0.17120000000E+03  0.17120000000E+03 0.  0.
         13    1    1    2    0    0  0.24451433310E+02  0.31151082861E+02  0.12477579228E+03  0.13090940401E+03  0.10566000000E+00 0.  1.
        994    1    1    2    0    0 -0.18948057809E+02 -0.25625801685E+02  0.93864451900E+01  0.17439396767E+03  0.17120000000E+03 0.  0.
        998    1    1    2    0    0 -0.55033755011E+01 -0.55252811766E+01  0.13658377588E+04  0.13658966283E+04  0.10000000000E+02 0.  1.
</event>
<event>
 5    1  0.1582292E-008  0.3691304E+03  0.7957747E-01  0.3499897E+00
         13   -1    0    0    0    0  0.00000000000E+00  0.00000000000E+00  0.14999999963E+04  0.15000000000E+04  0.10566000000E+00 0.  1.
        994   -1    0    0    0    0 -0.00000000000E+00 -0.00000000000E+00  0.11368683772E-12  0.17120000000E+03  0.17120000000E+03 0.  0.
         13    1    1    2    0    0  0.82490100623E+01  0.28138255028E+02  0.34621645322E+02  0.45370442491E+02  0.10566000000E+00 0.  1.
        994    1    1    2    0    0  0.82109765600E+00 -0.46152315933E+02  0.17943104204E+02  0.17821926230E+03  0.17120000000E+03 0.  0.
        998    1    1    2    0    0 -0.90701077183E+01  0.18014060905E+02  0.14474352468E+04  0.14476102952E+04  0.10000000000E+02 0.  1.
</event>
<event>
 5    1  0.1582292E-008  0.3829798E+03  0.7957747E-01  0.3438286E+00
         13   -1    0    0    0    0  0.00000000000E+00  0.00000000000E+00  0.14999999963E+04  0.15000000000E+04  0.10566000000E+00 0. -1.
        994   -1    0    0    0    0 -0.00000000000E+00 -0.00000000000E+00  0.11368683772E-12  0.17120000000E+03  0.17120000000E+03 0.  0.
         13    1    1    2    0    0  0.20589491738E+02  0.32827890364E+01  0.84654870747E+02  0.87184644171E+02  0.10566000000E+00 0. -1.
        994    1    1    2    0    0 -0.44815513414E+01 -0.18485294748E+02  0.38350326370E+01  0.17229607627E+03  0.17120000000E+03 0.  0.
        998    1    1    2    0    0 -0.16107940396E+02  0.15202505712E+02  0.14115100929E+04  0.14117192796E+04  0.10000000000E+02 0. -1.
</event>
<event>
 5    1  0.1582292E-008  0.3751073E+03  0.7957747E-01  0.3472743E+00
         13   -1    0    0    0    0  0.00000000000E+00  0.00000000000E+00  0.14999999963E+04  0.15000000000E+04  0.10566000000E+00 0.  1.
        994   -1    0    0    0    0 -0.00000000000E+00 -0.00000000000E+00  0.11368683772E-12  0.17120000000E+03  0.17120000000E+03 0.  0.
         13    1    1    2    0    0  0.10232626449E+03  0.14658335597E+02  0.36090854102E+03  0.37542045409E+03  0.10566000000E+00 0.  1.
        994    1    1    2    0    0 -0.71039854062E+02 -0.89145558195E+01  0.32145980853E+02  0.18833197884E+03  0.17120000000E+03 0.  0.
        998    1    1    2    0    0 -0.31286410425E+02 -0.57437797776E+01  0.11069454744E+04  0.11074475671E+04  0.10000000000E+02 0.  1.
</event>
<event>
 5    1  0.1582292E-008  0.3829385E+03  0.7957747E-01  0.3438462E+00
         13   -1    0    0    0    0  0.00000000000E+00  0.00000000000E+00  0.14999999963E+04  0.15000000000E+04  0.10566000000E+00 0.  1.
        994   -1    0    0    0    0 -0.00000000000E+00 -0.00000000000E+00  0.11368683772E-12  0.17120000000E+03  0.17120000000E+03 0.  0.
         13    1    1    2    0    0  0.11825725554E+02  0.68739536931E+01  0.35882825551E+02  0.38401658269E+02  0.10566000000E+00 0.  1.
        994    1    1    2    0    0  0.10952625895E+01  0.22412309293E+01  0.26776920988E+01  0.17123910988E+03  0.17120000000E+03 0.  0.
        998    1    1    2    0    0 -0.12920988143E+02 -0.91151846224E+01  0.14614394786E+04  0.14615592319E+04  0.10000000000E+02 0.  1.
</event>
<event>
 5    1  0.1582292E-008  0.3850530E+03  0.7957747E-01  0.3429448E+00
         13   -1    0    0    0    0  0.00000000000E+00  0.00000000000E+00  0.14999999963E+04  0.15000000000E+04  0.10566000000E+00 0.  1.
        994   -1    0    0    0    0 -0.00000000000E+00 -0.00000000000E+00  0.11368683772E-12  0.17120000000E+03  0.17120000000E+03 0.  0.
         13    1    1    2    0    0  0.14963725735E+02 -0.40537434059E+01  0.77848720965E+02  0.79377455511E+02  0.10566000000E+00 0.  1.
        994    1    1    2    0    0 -0.43810303127E+01  0.22482816530E+01  0.16835753883E+01  0.17127907818E+03  0.17120000000E+03 0.  0.
        998    1    1    2    0    0 -0.10582695423E+02  0.18054617529E+01  0.14204676999E+04  0.14205434663E+04  0.10000000000E+02 0.  1.
</event>
<event>
 5    1  0.1582292E-008  0.3705343E+03  0.7957747E-01  0.3493439E+00
         13   -1    0    0    0    0  0.00000000000E+00  0.00000000000E+00  0.14999999963E+04  0.15000000000E+04  0.10566000000E+00 0.  1.
        994   -1    0    0    0    0 -0.00000000000E+00 -0.00000000000E+00  0.11368683772E-12  0.17120000000E+03  0.17120000000E+03 0.  0.
         13    1    1    2    0    0  0.12855348244E+03 -0.76967236058E+01  0.45630480648E+03  0.47413007180E+03  0.10566000000E+00 0.  1.
        994    1    1    2    0    0 -0.13691290740E+03  0.45746495711E+01  0.80180191899E+02  0.23346172021E+03  0.17120000000E+03 0.  0.
        998    1    1    2    0    0  0.83594249625E+01  0.31220740347E+01  0.96351499790E+03  0.96360820799E+03  0.10000000000E+02 0.  0.
</event>
<event>
 5    1  0.1582292E-008  0.4105214E+03  0.7957747E-01  0.3328156E+00
         13   -1    0    0    0    0  0.00000000000E+00  0.00000000000E+00  0.14999999963E+04  0.15000000000E+04  0.10566000000E+00 0. -1.
        994   -1    0    0    0    0 -0.00000000000E+00 -0.00000000000E+00  0.11368683772E-12  0.17120000000E+03  0.17120000000E+03 0.  0.
         13    1    1    2    0    0  0.30114845155E+02 -0.70170780115E+02  0.72054063246E+02  0.10498876833E+03  0.10566000000E+00 0. -1.
        994    1    1    2    0    0 -0.40567491816E+00  0.76028078154E+02  0.58287797556E+02  0.19618190687E+03  0.17120000000E+03 0.  0.
        998    1    1    2    0    0 -0.29709170237E+02 -0.58572980389E+01  0.13696581355E+04  0.13700293248E+04  0.10000000000E+02 0. -1.
</event>
<event>
 5    1  0.1582292E-008  0.3764675E+03  0.7957747E-01  0.3466685E+00
         13   -1    0    0    0    0  0.00000000000E+00  0.00000000000E+00  0.14999999963E+04  0.15000000000E+04  0.10566000000E+00 0. -1.
        994   -1    0    0    0    0 -0.00000000000E+00 -0.00000000000E+00  0.11368683772E-12  0.17120000000E+03  0.17120000000E+03 0.  0.
         13    1    1    2    0    0  0.39701565141E+01  0.13885892215E+02  0.15009025339E+02  0.20829357912E+02  0.10566000000E+00 0. -1.
        994    1    1    2    0    0 -0.83503705880E+01 -0.81574983102E+01  0.63881269419E+01  0.17171639885E+03  0.17120000000E+03 0.  0.
        998    1    1    2    0    0  0.43802140739E+01 -0.57283939052E+01  0.14786028440E+04  0.14786542432E+04  0.10000000000E+02 0. -1.
</event>
<event>
 5    1  0.1582292E-008  0.3774810E+03  0.7957747E-01  0.3462201E+00
         13   -1    0    0    0    0  0.00000000000E+00  0.00000000000E+00  0.14999999963E+04  0.15000000000E+04  0.10566000000E+00 0.  1.
        994   -1    0    0    0    0 -0.00000000000E+00 -0.00000000000E+00  0.11368683772E-12  0.17120000000E+03  0.17120000000E+03 0.  0.
         13    1    1    2    0    0 -0.14812632582E+02  0.16573230522E+02  0.45341918980E+02  0.50497394336E+02  0.10566000000E+00 0.  1.
        994    1    1    2    0    0 -0.45451393353E+01 -0.71877015040E+01  0.56539762272E+01  0.17150431129E+03  0.17120000000E+03 0.  0.
        998    1    1    2    0    0  0.19357771917E+02 -0.93855290180E+01  0.14490041011E+04  0.14491982944E+04  0.10000000000E+02 0.  1.
</event>
<event>
 5    1  0.1582292E-008  0.3854494E+03  0.7957747E-01  0.3427768E+00
         13   -1    0    0    0    0  0.00000000000E+00  0.00000000000E+00  0.14999999963E+04  0.15000000000E+04  0.10566000000E+00 0.  1.
        994   -1    0    0    0    0 -0.00000000000E+00 -0.00000000000E+00  0.11368683772E-12  0.17120000000E+03  0.17120000000E+03 0.  0.
         13    1    1    2    0    0 -0.13456070629E+02 -0.59397128857E+01  0.79647439618E+02  0.80994270339E+02  0.10566000000E+00 0.  1.
        994    1    1    2    0    0  0.14719957937E+01  0.10708756713E+02  0.17909686758E+01  0.17155026031E+03  0.17120000000E+03 0.  0.
        998    1    1    2    0    0  0.11984074835E+02 -0.47690438269E+01  0.14185615880E+04  0.14186554694E+04  0.10000000000E+02 0.  1.
</event>
<event>
 5    1  0.1582292E-008  0.3716999E+03  0.7957747E-01  0.3488115E+00
         13   -1    0    0    0    0  0.00000000000E+00  0.00000000000E+00  0.14999999963E+04  0.15000000000E+04  0.10566000000E+00 0. -1.
        994   -1    0    0    0    0 -0.00000000000E+00 -0.00000000000E+00  0.11368683772E-12  0.17120000000E+03  0.17120000000E+03 0.  0.
         13    1    1    2    0    0 -0.26203045430E+02 -0.20691213843E+02  0.61438586054E+02  0.69924508869E+02  0.10566000000E+00 0. -1.
        994    1    1    2    0    0  0.21291361207E+02  0.23441583507E+02  0.11838271359E+02  0.17450620209E+03  0.17120000000E+03 0.  0.
        998    1    1    2    0    0  0.49116842234E+01 -0.27503696638E+01  0.14267231389E+04  0.14267692890E+04  0.10000000000E+02 0. -1.
</event>
<event>
 5    1  0.1582292E-008  0.3735330E+03  0.7957747E-01  0.3479810E+00
         13   -1    0    0    0    0  0.00000000000E+00  0.00000000000E+00  0.14999999963E+04  0.15000000000E+04  0.10566000000E+00 0. -1.
        994   -1    0    0    0    0 -0.00000000000E+00 -0.00000000000E+00  0.11368683772E-12  0.17120000000E+03  0.17120000000E+03 0.  0.
         13    1    1    2    0    0 -0.31051927421E+02  0.39376812116E+01  0.33448088198E+02  0.45809532830E+02  0.10566000000E+00 0. -1.
        994    1    1    2    0    0  0.17817092338E+02 -0.22720275815E+01  0.13962025634E+02  0.17270491900E+03  0.17120000000E+03 0.  0.
        998    1    1    2    0    0  0.13234835083E+02 -0.16656536301E+01  0.14525898824E+04  0.14526855482E+04  0.10000000000E+02 0. -1.
</event>
<event>
 5    1  0.1582292E-008  0.2931787E+03  0.7957747E-01  0.3945953E+00
         13   -1    0    0    0    0  0.00000000000E+00  0.00000000000E+00  0.14999999963E+04  0.15000000000E+04  0.10566000000E+00 0.  1.
        994   -1    0    0    0    0 -0.00000000000E+00 -0.00000000000E+00  0.11368683772E-12  0.17120000000E+03  0.17120000000E+03 0.  0.
         13    1    1    2    0    0  0.10919337842E+03  0.11220924150E+03  0.66102046486E+03  0.67931007198E+03  0.10566000000E+00 0.  1.
        994    1    1    2    0    0 -0.10659706166E+03 -0.86847593984E+02  0.81961883412E+02  0.23437710739E+03  0.17120000000E+03 0.  0.
        998    1    1    2    0    0 -0.25963167659E+01 -0.25361647514E+02  0.75701764801E+03  0.75751282063E+03  0.10000000000E+02 0.  1.
</event>
<event>
 5    1  0.1582292E-008  0.3714111E+03  0.7957747E-01  0.3489431E+00
         13   -1    0    0    0    0  0.00000000000E+00  0.00000000000E+00  0.14999999963E+04  0.15000000000E+04  0.10566000000E+00 0. -1.
        994   -1    0    0    0    0 -0.00000000000E+00 -0.00000000000E+00  0.11368683772E-12  0.17120000000E+03  0.17120000000E+03 0.  0.
         13    1    1    2    0    0 -0.16210336300E+01 -0.28652866510E+02  0.42398444566E+02  0.51198181363E+02  0.10566000000E+00 0. -1.
        994    1    1    2    0    0  0.21151530450E+01  0.39540099003E+02  0.13947651018E+02  0.17627214831E+03  0.17120000000E+03 0.  0.
        998    1    1    2    0    0 -0.49411941499E+00 -0.10887232493E+02  0.14436539007E+04  0.14437296703E+04  0.10000000000E+02 0. -1.
</event>
<event>
 5    1  0.1582292E-008  0.3858669E+03  0.7957747E-01  0.3426004E+00
         13   -1    0    0    0    0  0.00000000000E+00  0.00000000000E+00  0.14999999963E+04  0.15000000000E+04  0.10566000000E+00 0. -1.
        994   -1    0    0    0    0 -0.00000000000E+00 -0.00000000000E+00  0.11368683772E-12  0.17120000000E+03  0.17120000000E+03 0.  0.
         13    1    1    2    0    0 -0.68205067236E+01 -0.89819502826E+01  0.54046934719E+02  0.55211204111E+02  0.10566000000E+00 0. -1.
        994    1    1    2    0    0 -0.40825013205E+01  0.10838837525E+02  0.16404075822E+01  0.17159917877E+03  0.17120000000E+03 0.  0.
        998    1    1    2    0    0  0.10903008044E+02 -0.18568872424E+01  0.14443126540E+04  0.14443896171E+04  0.10000000000E+02 0. -1.
</event>
<event>
 5    1  0.1582292E-008  0.3850453E+03  0.7957747E-01  0.3429480E+00
         13   -1    0    0    0    0  0.00000000000E+00  0.00000000000E+00  0.14999999963E+04  0.15000000000E+04  0.10566000000E+00 0.  1.
        994   -1    0    0    0    0 -0.00000000000E+00 -0.00000000000E+00  0.11368683772E-12  0.17120000000E+03  0.17120000000E+03 0.  0.
         13    1    1    2    0    0 -0.82198832709E+01  0.85086126465E+01  0.41683683851E+02  0.43330170016E+02  0.10566000000E+00 0.  1.
        994    1    1    2    0    0  0.31826048136E+01 -0.19383428004E+02  0.28774026580E+01  0.17234722423E+03  0.17120000000E+03 0.  0.
        998    1    1    2    0    0  0.50372784573E+01  0.10874815358E+02  0.14554389098E+04  0.14555226058E+04  0.10000000000E+02 0.  1.
</event>
<event>
 5    1  0.1582292E-008  0.3833438E+03  0.7957747E-01  0.3436727E+00
         13   -1    0    0    0    0  0.00000000000E+00  0.00000000000E+00  0.14999999963E+04  0.15000000000E+04  0.10566000000E+00 0.  1.
        994   -1    0    0    0    0 -0.00000000000E+00 -0.00000000000E+00  0.11368683772E-12  0.17120000000E+03  0.17120000000E+03 0.  0.
         13    1    1    2    0    0  0.26552646515E+02  0.17646752812E+01  0.12693972214E+03  0.12969911849E+03  0.10566000000E+00 0.  1.
        994    1    1    2    0    0 -0.33159176785E+02 -0.21959984410E+01  0.61146748082E+01  0.17450267236E+03  0.17120000000E+03 0.  0.
        998    1    1    2    0    0  0.66065302700E+01  0.43132315983E+00  0.13669455993E+04  0.13669982091E+04  0.10000000000E+02 0.  1.
</event>
<event>
 5    1  0.1582292E-008  0.3704217E+03  0.7957747E-01  0.3493955E+00
         13   -1    0    0    0    0  0.00000000000E+00  0.00000000000E+00  0.14999999963E+04  0.15000000000E+04  0.10566000000E+00 0.  1.
        994   -1    0    0    0    0 -0.00000000000E+00 -0.00000000000E+00  0.11368683772E-12  0.17120000000E+03  0.17120000000E+03 0.  0.
         13    1    1    2    0    0  0.46418467173E+02 -0.73422022765E+02  0.37033136760E+03  0.38038243981E+03  0.10566000000E+00 0.  1.
        994    1    1    2    0    0  0.11753900748E+02  0.52060174363E+02  0.21202197076E+02  0.18057516191E+03  0.17120000000E+03 0.  0.
        998    1    1    2    0    0 -0.58172367922E+02  0.21361848402E+02  0.11084664316E+04  0.11102423983E+04  0.10000000000E+02 0. -1.
</event>
<event>
 5    1  0.1582292E-008  0.3734450E+03  0.7957747E-01  0.3480207E+00
         13   -1    0    0    0    0  0.00000000000E+00  0.00000000000E+00  0.14999999963E+04  0.15000000000E+04  0.10566000000E+00 0.  1.
        994   -1    0    0    0    0 -0.00000000000E+00 -0.00000000000E+00  0.11368683772E-12  0.17120000000E+03  0.17120000000E+03 0.  0.
         13    1    1    2    0    0 -0.51471078357E+01  0.27572086445E+02  0.50275694819E+02  0.57570559521E+02  0.10566000000E+00 0.  1.
        994    1    1    2    0    0 -0.52704168772E+01 -0.15902869689E+02  0.84391055143E+01  0.17222467030E+03  0.17120000000E+03 0.  0.
        998    1    1    2    0    0  0.10417524713E+02 -0.11669216756E+02  0.14412851959E+04  0.14414047702E+04  0.10000000000E+02 0.  1.
</event>
<event>
 5    1  0.1582292E-008  0.3843831E+03  0.7957747E-01  0.3432293E+00
         13   -1    0    0    0    0  0.00000000000E+00  0.00000000000E+00  0.14999999963E+04  0.15000000000E+04  0.10566000000E+00 0.  1.
        994   -1    0    0    0    0 -0.00000000000E+00 -0.00000000000E+00  0.11368683772E-12  0.17120000000E+03  0.17120000000E+03 0.  0.
         13    1    1    2    0    0  0.10038987459E+02  0.19399417694E+01  0.26812285825E+02  0.28695896544E+02  0.10566000000E+00 0.  1.
        994    1    1    2    0    0 -0.32672645861E+01 -0.38945102604E+01  0.20218667556E+01  0.17128739058E+03  0.17120000000E+03 0.  0.
        998    1    1    2    0    0 -0.67717228730E+01  0.19545684911E+01  0.14711658437E+04  0.14712167129E+04  0.10000000000E+02 0.  1.
</event>
<event>
 5    1  0.1582292E-008  0.3815546E+03  0.7957747E-01  0.3444417E+00
         13   -1    0    0    0    0  0.00000000000E+00  0.00000000000E+00  0.14999999963E+04  0.15000000000E+04  0.10566000000E+00 0.  1.
        994   -1    0    0    0    0 -0.00000000000E+00 -0.00000000000E+00  0.11368683772E-12  0.17120000000E+03  0.17120000000E+03 0.  0.
         13    1    1    2    0    0 -0.34815636786E+00 -0.11843833764E+02  0.20045180958E+02  0.23285576109E+02  0.10566000000E+00 0.  1.
        994    1    1    2    0    0 -0.36120161835E+01  0.61489170020E+00  0.33951163014E+01  0.17127285707E+03  0.17120000000E+03 0.  0.
        998    1    1    2    0    0  0.39601725514E+01  0.11228942064E+02  0.14765596990E+04  0.14766415668E+04  0.10000000000E+02 0.  1.
</event>
<event>
 5    1  0.1582292E-008  0.3781762E+03  0.7957747E-01  0.3459138E+00
         13   -1    0    0    0    0  0.00000000000E+00  0.00000000000E+00  0.14999999963E+04  0.15000000000E+04  0.10566000000E+00 0. -1.
        994   -1    0    0    0    0 -0.00000000000E+00 -0.00000000000E+00  0.11368683772E-12  0.17120000000E+03  0.17120000000E+03 0.  0.
         13    1    1    2    0    0 -0.26600662962E+02 -0.18804114385E+02  0.11296963845E+03  0.11757270245E+03  0.10566000000E+00 0. -1.
        994    1    1    2    0    0  0.47528453925E+01 -0.36504179593E+01  0.51774212397E+01  0.17138308196E+03  0.17120000000E+03 0.  0.
        998    1    1    2    0    0  0.21847817569E+02  0.22454532344E+02  0.13818529366E+04  0.13822442156E+04  0.10000000000E+02 0. -1.
</event>
<event>
 5    1  0.1582292E-008  0.3818713E+03  0.7957747E-01  0.3443051E+00
         13   -1    0    0    0    0  0.00000000000E+00  0.00000000000E+00  0.14999999963E+04  0.15000000000E+04  0.10566000000E+00 0.  1.
        994   -1    0    0    0    0 -0.00000000000E+00 -0.00000000000E+00  0.11368683772E-12  0.17120000000E+03  0.17120000000E+03 0.  0.
         13    1    1    2    0    0  0.12390694911E+02 -0.66119872417E+01  0.30422390713E+02  0.33507920204E+02  0.10566000000E+00 0.  1.
        994    1    1    2    0    0 -0.90460158608E+01 -0.11344458232E+02  0.38912587753E+01  0.17185781632E+03  0.17120000000E+03 0.  0.
        998    1    1    2    0    0 -0.33446790503E+01  0.17956445473E+02  0.14656863468E+04  0.14658342635E+04  0.10000000000E+02 0.  1.
</event>
<event>
 5    1  0.1582292E-008  0.3814645E+03  0.7957747E-01  0.3444807E+00
         13   -1    0    0    0    0  0.00000000000E+00  0.00000000000E+00  0.14999999963E+04  0.15000000000E+04  0.10566000000E+00 0.  1.
        994   -1    0    0    0    0 -0.00000000000E+00 -0.00000000000E+00  0.11368683772E-12  0.17120000000E+03  0.17120000000E+03 0.  0.
         13    1    1    2    0    0 -0.13207466936E+02 -0.16024890323E+02  0.62953543745E+02  0.66290226481E+02  0.10566000000E+00 0.  1.
        994    1    1    2    0    0  0.27264650351E+00  0.14225661752E+02  0.40695021269E+01  0.17183842596E+03  0.17120000000E+03 0.  0.
        998    1    1    2    0    0  0.12934820433E+02  0.17992285712E+01  0.14329769504E+04  0.14330713476E+04  0.10000000000E+02 0.  1.
</event>
<event>
 5    1  0.1582292E-008  0.3854536E+03  0.7957747E-01  0.3427751E+00
         13   -1    0    0    0    0  0.00000000000E+00  0.00000000000E+00  0.14999999963E+04  0.15000000000E+04  0.10566000000E+00 0.  1.
        994   -1    0    0    0    0 -0.00000000000E+00 -0.00000000000E+00  0.11368683772E-12  0.17120000000E+03  0.17120000000E+03 0.  0.
         13    1    1    2    0    0 -0.10027041399E+02  0.74975153592E+01  0.56583557460E+02  0.57952259961E+02  0.10566000000E+00 0.  1.
        994    1    1    2    0    0  0.75615322523E+01 -0.12346408334E+01  0.15978901736E+01  0.17137880371E+03  0.17120000000E+03 0.  0.
        998    1    1    2    0    0  0.24655091471E+01 -0.62628745258E+01  0.14418185486E+04  0.14418689363E+04  0.10000000000E+02 0.  1.
</event>
<event>
 5    1  0.1582292E-008  0.3312908E+03  0.7957747E-01  0.3695198E+00
         13   -1    0    0    0    0  0.00000000000E+00  0.00000000000E+00  0.14999999963E+04  0.15000000000E+04  0.10566000000E+00 0.  1.
        994   -1    0    0    0    0 -0.00000000000E+00 -0.00000000000E+00  0.11368683772E-12  0.17120000000E+03  0.17120000000E+03 0.  0.
         13    1    1    2    0    0 -0.15246920383E+03  0.14640225706E+03  0.91085088002E+03  0.93505604954E+03  0.10566000000E+00 0.  1.
        994    1    1    2    0    0  0.12565132313E+03 -0.11358277029E+03  0.12759886971E+03  0.27254396391E+03  0.17120000000E+03 0.  0.
        998    1    1    2    0    0  0.26817880697E+02 -0.32819486765E+02  0.46155024655E+03  0.46359998655E+03  0.10000000000E+02 0.  1.
</event>
<event>
 5    1  0.1582292E-008  0.3857792E+03  0.7957747E-01  0.3426374E+00
         13   -1    0    0    0    0  0.00000000000E+00  0.00000000000E+00  0.14999999963E+04  0.15000000000E+04  0.10566000000E+00 0. -1.
        994   -1    0    0    0    0 -0.00000000000E+00 -0.00000000000E+00  0.11368683772E-12  0.17120000000E+03  0.17120000000E+03 0.  0.
         13    1    1    2    0    0 -0.70875775440E+01 -0.96880059291E+01  0.59955203112E+02  0.61145145012E+02  0.10566000000E+00 0. -1.
        994    1    1    2    0    0  0.34393706166E+01  0.27889201519E+01  0.13081071949E+01  0.17126225063E+03  0.17120000000E+03 0.  0.
        998    1    1    2    0    0  0.36482069274E+01  0.68990857773E+01  0.14387366860E+04  0.14387926044E+04  0.10000000000E+02 0. -1.
</event>
<event>
 5    1  0.1582292E-008  0.3762899E+03  0.7957747E-01  0.3467474E+00
         13   -1    0    0    0    0  0.00000000000E+00  0.00000000000E+00  0.14999999963E+04  0.15000000000E+04  0.10566000000E+00 0.  1.
        994   -1    0    0    0    0 -0.00000000000E+00 -0.00000000000E+00  0.11368683772E-12  0.17120000000E+03  0.17120000000E+03 0.  0.
         13    1    1    2    0    0  0.21641313321E+02 -0.37165316519E+02  0.16449840297E+03  0.17002747700E+03  0.10566000000E+00 0.  1.
        994    1    1    2    0    0 -0.82056660557E+01  0.78874253810E+01  0.64563769110E+01  0.17169935713E+03  0.17120000000E+03 0.  0.
        998    1    1    2    0    0 -0.13435647266E+02  0.29277891138E+02  0.13290452164E+04  0.13294731659E+04  0.10000000000E+02 0.  1.
</event>
<event>
 5    1  0.1582292E-008  0.3752451E+03  0.7957747E-01  0.3472127E+00
         13   -1    0    0    0    0  0.00000000000E+00  0.00000000000E+00  0.14999999963E+04  0.15000000000E+04  0.10566000000E+00 0. -1.
        994   -1    0    0    0    0 -0.00000000000E+00 -0.00000000000E+00  0.11368683772E-12  0.17120000000E+03  0.17120000000E+03 0.  0.
         13    1    1    2    0    0  0.24334097069E+02 -0.90494792987E+02  0.46658010641E+03  0.47589753383E+03  0.10566000000E+00 0. -1.
        994    1    1    2    0    0 -0.81924542919E+01  0.32802137069E+01  0.14017007984E+02  0.17199939716E+03  0.17120000000E+03 0.  0.
        998    1    1    2    0    0 -0.16141642777E+02  0.87214579281E+02  0.10194028819E+04  0.10233030690E+04  0.10000000000E+02 0. -1.
</event>
<event>
 5    1  0.1582292E-008  0.3817789E+03  0.7957747E-01  0.3443449E+00
         13   -1    0    0    0    0  0.00000000000E+00  0.00000000000E+00  0.14999999963E+04  0.15000000000E+04  0.10566000000E+00 0. -1.
        994   -1    0    0    0    0 -0.00000000000E+00 -0.00000000000E+00  0.11368683772E-12  0.17120000000E+03  0.17120000000E+03 0.  0.
         13    1    1    2    0    0 -0.13827510573E+02 -0.14521653299E+02  0.64460690220E+02  0.67507556695E+02  0.10566000000E+00 0. -1.
        994    1    1    2    0    0  0.23942969672E+01 -0.80836822448E+00  0.32591014988E+01  0.17124966528E+03  0.17120000000E+03 0.  0.
        998    1    1    2    0    0  0.11433213606E+02  0.15330021523E+02  0.14322802046E+04  0.14324427780E+04  0.10000000000E+02 0. -1.
</event>
<event>
 5    1  0.1582292E-008  0.3761907E+03  0.7957747E-01  0.3467915E+00
         13   -1    0    0    0    0  0.00000000000E+00  0.00000000000E+00  0.14999999963E+04  0.15000000000E+04  0.10566000000E+00 0. -1.
        994   -1    0    0    0    0 -0.00000000000E+00 -0.00000000000E+00  0.11368683772E-12  0.17120000000E+03  0.17120000000E+03 0.  0.
         13    1    1    2    0    0 -0.56471455374E+02 -0.34938088289E+02  0.16222664879E+03  0.17529173406E+03  0.10566000000E+00 0. -1.
        994    1    1    2    0    0  0.26283212102E+01  0.38558542111E+02  0.19607122899E+02  0.17659996747E+03  0.17120000000E+03 0.  0.
        998    1    1    2    0    0  0.53843134164E+02 -0.36204538220E+01  0.13181662246E+04  0.13193082985E+04  0.10000000000E+02 0. -1.
</event>
<event>
 5    1  0.1582292E-008  0.3785359E+03  0.7957747E-01  0.3457558E+00
         13   -1    0    0    0    0  0.00000000000E+00  0.00000000000E+00  0.14999999963E+04  0.15000000000E+04  0.10566000000E+00 0. -1.
        994   -1    0    0    0    0 -0.00000000000E+00 -0.00000000000E+00  0.11368683772E-12  0.17120000000E+03  0.17120000000E+03 0.  0.
         13    1    1    2    0    0 -0.22823418976E+02 -0.87143815923E+01  0.59379655159E+02  0.64209060974E+02  0.10566000000E+00 0. -1.
        994    1    1    2    0    0  0.15864943222E+02  0.26829837566E+01  0.57441671523E+01  0.17205037135E+03  0.17120000000E+03 0.  0.
        998    1    1    2    0    0  0.69584757539E+01  0.60313978357E+01  0.14348761740E+04  0.14349405677E+04  0.10000000000E+02 0. -1.
</event>
<event>
 5    1  0.1582292E-008  0.3834408E+03  0.7957747E-01  0.3436312E+00
         13   -1    0    0    0    0  0.00000000000E+00  0.00000000000E+00  0.14999999963E+04  0.15000000000E+04  0.10566000000E+00 0. -1.
        994   -1    0    0    0    0 -0.00000000000E+00 -0.00000000000E+00  0.11368683772E-12  0.17120000000E+03  0.17120000000E+03 0.  0.
         13    1    1    2    0    0 -0.23043352058E+02  0.85105844409E+01  0.11553890152E+03  0.11812144196E+03  0.10566000000E+00 0. -1.
        994    1    1    2    0    0  0.24839698968E+02 -0.79595344387E+01  0.46583422318E+01  0.17323828961E+03  0.17120000000E+03 0.  0.
        998    1    1    2    0    0 -0.17963469096E+01 -0.55105000222E+00  0.13798027525E+04  0.13798402684E+04  0.10000000000E+02 0. -1.
</event>
<event>
 5    1  0.1582292E-008  0.3790896E+03  0.7957747E-01  0.3455132E+00
         13   -1    0    0    0    0  0.00000000000E+00  0.00000000000E+00  0.14999999963E+04  0.15000000000E+04  0.10566000000E+00 0. -1.
        994   -1    0    0    0    0 -0.00000000000E+00 -0.00000000000E+00  0.11368683772E-12  0.17120000000E+03  0.17120000000E+03 0.  0.
         13    1    1    2    0    0 -0.77990122699E+01  0.12325694681E+02  0.20667414705E+02  0.25296255383E+02  0.10566000000E+00 0. -1.
        994    1    1    2    0    0  0.93992642294E+01 -0.18116338187E+02  0.59913513231E+01  0.17251633015E+03  0.17120000000E+03 0.  0.
        998    1    1    2    0    0 -0.16002519594E+01  0.57906435060E+01  0.14733412303E+04  0.14733874145E+04  0.10000000000E+02 0. -1.
</event>
<event>
 5    1  0.1582292E-008  0.3826758E+03  0.7957747E-01  0.3439590E+00
         13   -1    0    0    0    0  0.00000000000E+00  0.00000000000E+00  0.14999999963E+04  0.15000000000E+04  0.10566000000E+00 0. -1.
        994   -1    0    0    0    0 -0.00000000000E+00 -0.00000000000E+00  0.11368683772E-12  0.17120000000E+03  0.17120000000E+03 0.  0.
         13    1    1    2    0    0 -0.11280120646E+02 -0.82313151192E+01  0.35170608058E+02  0.37841491852E+02  0.10566000000E+00 0. -1.
        994    1    1    2    0    0  0.77728232081E+01 -0.95166284173E+01  0.32889478101E+01  0.17167189687E+03  0.17120000000E+03 0.  0.
        998    1    1    2    0    0  0.35072974384E+01  0.17747943536E+02  0.14615404404E+04  0.14616866113E+04  0.10000000000E+02 0. -1.
</event>
<event>
 5    1  0.1582292E-008  0.3848928E+03  0.7957747E-01  0.3430127E+00
         13   -1    0    0    0    0  0.00000000000E+00  0.00000000000E+00  0.14999999963E+04  0.15000000000E+04  0.10566000000E+00 0. -1.
        994   -1    0    0    0    0 -0.00000000000E+00 -0.00000000000E+00  0.11368683772E-12  0.17120000000E+03  0.17120000000E+03 0.  0.
         13    1    1    2    0    0 -0.14093468584E+02 -0.11592211934E+02  0.94207841362E+02  0.95959021318E+02  0.10566000000E+00 0. -1.
        994    1    1    2    0    0  0.17041944710E+02  0.79830152397E+01  0.28493531342E+01  0.17225479739E+03  0.17120000000E+03 0.  0.
        998    1    1    2    0    0 -0.29484761253E+01  0.36091966938E+01  0.14029428018E+04  0.14029861813E+04  0.10000000000E+02 0. -1.
</event>
<event>
 5    1  0.1582292E-008  0.3854810E+03  0.7957747E-01  0.3427635E+00
         13   -1    0    0    0    0  0.00000000000E+00  0.00000000000E+00  0.14999999963E+04  0.15000000000E+04  0.10566000000E+00 0. -1.
        994   -1    0    0    0    0 -0.00000000000E+00 -0.00000000000E+00  0.11368683772E-12  0.17120000000E+03  0.17120000000E+03 0.  0.
         13    1    1    2    0    0 -0.74562315628E+01  0.14869754799E+02  0.10054271925E+03  0.10190954104E+03  0.10566000000E+00 0. -1.
        994    1    1    2    0    0  0.26338315469E+01 -0.97590211299E+01  0.17270985488E+01  0.17150684660E+03  0.17120000000E+03 0.  0.
        998    1    1    2    0    0  0.48224000159E+01 -0.51107336696E+01  0.13977301785E+04  0.13977836124E+04  0.10000000000E+02 0.  0.
</event>
<event>
 5    1  0.1582292E-008  0.3803279E+03  0.7957747E-01  0.3449732E+00
         13   -1    0    0    0    0  0.00000000000E+00  0.00000000000E+00  0.14999999963E+04  0.15000000000E+04  0.10566000000E+00 0.  1.
        994   -1    0    0    0    0 -0.00000000000E+00 -0.00000000000E+00  0.11368683772E-12  0.17120000000E+03  0.17120000000E+03 0.  0.
         13    1    1    2    0    0 -0.31003955589E+02  0.69167214080E+01  0.11527165577E+03  0.11956860828E+03  0.10566000000E+00 0.  1.
        994    1    1    2    0    0  0.34074660503E+02 -0.69866599152E+01  0.80184575464E+01  0.17488176453E+03  0.17120000000E+03 0.  0.
        998    1    1    2    0    0 -0.30707049143E+01  0.69938507170E-01  0.13767098830E+04  0.13767496272E+04  0.10000000000E+02 0.  1.
</event>
<event>
 5    1  0.1582292E-008  0.3848058E+03  0.7957747E-01  0.3430496E+00
         13   -1    0    0    0    0  0.00000000000E+00  0.00000000000E+00  0.14999999963E+04  0.15000000000E+04  0.10566000000E+00 0.  1.
        994   -1    0    0    0    0 -0.00000000000E+00 -0.00000000000E+00  0.11368683772E-12  0.17120000000E+03  0.17120000000E+03 0.  0.
         13    1    1    2    0    0 -0.14843712166E+02 -0.21905682538E+01  0.63416838945E+02  0.65167791170E+02  0.10566000000E+00 0.  1.
        994    1    1    2    0    0  0.14614449637E+02 -0.15699519664E+01  0.24378731513E+01  0.17184711261E+03  0.17120000000E+03 0.  0.
        998    1    1    2    0    0  0.22926252849E+00  0.37605202202E+01  0.14341452842E+04  0.14341850962E+04  0.10000000000E+02 0.  1.
</event>
<event>
 5    1  0.1582292E-008  0.3712164E+03  0.7957747E-01  0.3490319E+00
         13   -1    0    0    0    0  0.00000000000E+00  0.00000000000E+00  0.14999999963E+04  0.15000000000E+04  0.10566000000E+00 0. -1.
        994   -1    0    0    0    0 -0.00000000000E+00 -0.00000000000E+00  0.11368683772E-12  0.17120000000E+03  0.17120000000E+03 0.  0.
         13    1    1    2    0    0 -0.10191422925E+02 -0.99476684226E+00 -0.10922279770E+01  0.10298484757E+02  0.10566000000E+00 0. -1.
        994    1    1    2    0    0  0.34520524812E+02 -0.30033743451E+02  0.18970635890E+02  0.17822182079E+03  0.17120000000E+03 0.  0.
        998    1    1    2    0    0 -0.24329101887E+02  0.31028510293E+02  0.14821215884E+04  0.14826796945E+04  0.10000000000E+02 0. -1.
</event>
<event>
 5    1  0.1582292E-008  0.3999556E+03  0.7957747E-01  0.3368619E+00
         13   -1    0    0    0    0  0.00000000000E+00  0.00000000000E+00  0.14999999963E+04  0.15000000000E+04  0.10566000000E+00 0. -1.
        994   -1    0    0    0    0 -0.00000000000E+00 -0.00000000000E+00  0.11368683772E-12  0.17120000000E+03  0.17120000000E+03 0.  0.
         13    1    1    2    0    0 -0.35283349334E+02  0.10567564123E+03  0.23884169536E+03  0.26354814075E+03  0.10566000000E+00 0. -1.
        994    1    1    2    0    0  0.22382154278E+02 -0.42430159383E+02  0.36812648333E+02  0.18156511320E+03  0.17120000000E+03 0.  0.
        998    1    1    2    0    0  0.12901195056E+02 -0.63245481848E+02  0.12243456526E+04  0.12260867460E+04  0.10000000000E+02 0. -1.
</event>
<event>
 5    1  0.1582292E-008  0.3863808E+03  0.7957747E-01  0.3423837E+00
         13   -1    0    0    0    0  0.00000000000E+00  0.00000000000E+00  0.14999999963E+04  0.15000000000E+04  0.10566000000E+00 0.  1.
        994   -1    0    0    0    0 -0.00000000000E+00 -0.00000000000E+00  0.11368683772E-12  0.17120000000E+03  0.17120000000E+03 0.  0.
         13    1    1    2    0    0 -0.26280723898E+01 -0.10446223918E+02  0.62891743306E+02  0.63807624143E+02  0.10566000000E+00 0.  1.
        994    1    1    2    0    0 -0.33983002859E+01  0.75114045622E+01  0.11687206324E+01  0.17140237907E+03  0.17120000000E+03 0.  0.
        998    1    1    2    0    0  0.60263726757E+01  0.29348193562E+01  0.14359395323E+04  0.14359899968E+04  0.10000000000E+02 0.  1.
</event>
<event>
 5    1  0.1582292E-008  0.3854254E+03  0.7957747E-01  0.3427870E+00
         13   -1    0    0    0    0  0.00000000000E+00  0.00000000000E+00  0.14999999963E+04  0.15000000000E+04  0.10566000000E+00 0. -1.
        994   -1    0    0    0    0 -0.00000000000E+00 -0.00000000000E+00  0.11368683772E-12  0.17120000000E+03  0.17120000000E+03 0.  0.
         13    1    1    2    0    0  0.26922970037E+01  0.13866660241E+02  0.75073597295E+02  0.76391026333E+02  0.10566000000E+00 0. -1.
        994    1    1    2    0    0 -0.41174091322E+01 -0.19252693835E+00  0.14749048057E+01  0.17125596477E+03  0.17120000000E+03 0.  0.
        998    1    1    2    0    0  0.14251121285E+01 -0.13674133302E+02  0.14234514942E+04  0.14235530089E+04  0.10000000000E+02 0. -1.
</event>
<event>
 5    1  0.2020831E-008  0.3864335E+03  0.7957747E-01  0.3423615E+00
         13   -1    0    0    0    0  0.00000000000E+00  0.00000000000E+00  0.14999999963E+04  0.15000000000E+04  0.10566000000E+00 0. -1.
        994   -1    0    0    0    0 -0.00000000000E+00 -0.00000000000E+00  0.11368683772E-12  0.17120000000E+03  0.17120000000E+03 0.  0.
         13    1    1    2    0    0 -0.50706587900E+01  0.97352989671E+01  0.59453194981E+02  0.60458094446E+02  0.10566000000E+00 0. -1.
        994    1    1    2    0    0 -0.37256746639E+01 -0.27514472160E+02  0.34477671621E+01  0.17347119049E+03  0.17120000000E+03 0.  0.
        998    1    1    2    0    0  0.87963334539E+01  0.17779173192E+02  0.14370990341E+04  0.14372707151E+04  0.10000000000E+02 0. -1.
</event>
<event>
 5    1  0.1582292E-008  0.3813072E+03  0.7957747E-01  0.3445486E+00
         13   -1    0    0    0    0  0.00000000000E+00  0.00000000000E+00  0.14999999963E+04  0.15000000000E+04  0.10566000000E+00 0. -1.
        994   -1    0    0    0    0 -0.00000000000E+00 -0.00000000000E+00  0.11368683772E-12  0.17120000000E+03  0.17120000000E+03 0.  0.
         13    1    1    2    0    0 -0.30342157360E+01 -0.32098668119E+02  0.21775851331E+02  0.38906680986E+02  0.10566000000E+00 0. -1.
        994    1    1    2    0    0  0.50142014499E+01  0.55014426726E+02  0.28243481103E+02  0.18209575390E+03  0.17120000000E+03 0.  0.
        998    1    1    2    0    0 -0.19799857140E+01 -0.22915758608E+02  0.14499806638E+04  0.14501975651E+04  0.10000000000E+02 0. -1.
</event>
<event>
 5    1  0.1582292E-008  0.3849901E+03  0.7957747E-01  0.3429714E+00
         13   -1    0    0    0    0  0.00000000000E+00  0.00000000000E+00  0.14999999963E+04  0.15000000000E+04  0.10566000000E+00 0. -1.
        994   -1    0    0    0    0 -0.00000000000E+00 -0.00000000000E+00  0.11368683772E-12  0.17120000000E+03  0.17120000000E+03 0.  0.
         13    1    1    2    0    0  0.13305833445E+02 -0.91214400205E+01  0.79383752441E+02  0.81006402138E+02  0.10566000000E+00 0. -1.
        994    1    1    2    0    0 -0.44667461325E+01  0.12972065089E+02  0.22543058114E+01  0.17176364047E+03  0.17120000000E+03 0.  0.
        998    1    1    2    0    0 -0.88390873127E+01 -0.38506250682E+01  0.14183619380E+04  0.14184299574E+04  0.10000000000E+02 0. -1.
</event>
<event>
 5    1  0.1582292E-008  0.4082717E+03  0.7957747E-01  0.3336598E+00
         13   -1    0    0    0    0  0.00000000000E+00  0.00000000000E+00  0.14999999963E+04  0.15000000000E+04  0.10566000000E+00 0. -1.
        994   -1    0    0    0    0 -0.00000000000E+00 -0.00000000000E+00  0.11368683772E-12  0.17120000000E+03  0.17120000000E+03 0.  0.
         13    1    1    2    0    0  0.10462211246E+03 -0.26528904513E+02  0.13697420549E+03  0.17438897134E+03  0.10566000000E+00 0. -1.
        994    1    1    2    0    0 -0.13036014235E+03  0.34931995706E+02  0.11132753571E+03  0.24478004666E+03  0.17120000000E+03 0.  0.
        998    1    1    2    0    0  0.25738029884E+02 -0.84030911928E+01  0.12516982551E+04  0.12520309820E+04  0.10000000000E+02 0. -1.
</event>
<event>
 5    1  0.1582292E-008  0.3810786E+03  0.7957747E-01  0.3446476E+00
         13   -1    0    0    0    0  0.00000000000E+00  0.00000000000E+00  0.14999999963E+04  0.15000000000E+04  0.10566000000E+00 0. -1.
        994   -1    0    0    0    0 -0.00000000000E+00 -0.00000000000E+00  0.11368683772E-12  0.17120000000E+03  0.17120000000E+03 0.  0.
         13    1    1    2    0    0 -0.24502535386E+02 -0.48176639580E+01  0.94460774466E+02  0.97705850404E+02  0.10566000000E+00 0. -1.
        994    1    1    2    0    0 -0.23505290201E+01 -0.22444179914E+01  0.36248798090E+01  0.17126920959E+03  0.17120000000E+03 0.  0.
        998    1    1    2    0    0  0.26853064407E+02  0.70620819493E+01  0.14019143420E+04  0.14022249400E+04  0.10000000000E+02 0. -1.
</event>
<event>
 5    1  0.1582292E-008  0.3782922E+03  0.7957747E-01  0.3458628E+00
         13   -1    0    0    0    0  0.00000000000E+00  0.00000000000E+00  0.14999999963E+04  0.15000000000E+04  0.10566000000E+00 0.  1.
        994   -1    0    0    0    0 -0.00000000000E+00 -0.00000000000E+00  0.11368683772E-12  0.17120000000E+03  0.17120000000E+03 0.  0.
         13    1    1    2    0    0  0.12651237832E+02  0.67977941168E+01  0.18351399730E+02  0.23303408756E+02  0.10566000000E+00 0.  1.
        994    1    1    2    0    0 -0.11240527248E+02 -0.72921782119E+01  0.56014839219E+01  0.17181484784E+03  0.17120000000E+03 0.  0.
        998    1    1    2    0    0 -0.14107105843E+01  0.49438409507E+00  0.14760471126E+04  0.14760817434E+04  0.10000000000E+02 0.  1.
</event>
<event>
 5    1  0.1582292E-008  0.3843648E+03  0.7957747E-01  0.3432371E+00
         13   -1    0    0    0    0  0.00000000000E+00  0.00000000000E+00  0.14999999963E+04  0.15000000000E+04  0.10566000000E+00 0.  1.
        994   -1    0    0    0    0 -0.00000000000E+00 -0.00000000000E+00  0.11368683772E-12  0.17120000000E+03  0.17120000000E+03 0.  0.
         13    1    1    2    0    0 -0.17429162927E+02 -0.10377035921E+02  0.10456531315E+03  0.10651466788E+03  0.10566000000E+00 0.  1.
        994    1    1    2    0    0  0.13816952219E+02  0.39814947228E+01  0.26275026070E+01  0.17182288625E+03  0.17120000000E+03 0.  0.
        998    1    1    2    0    0  0.36122107077E+01  0.63955411984E+01  0.13928071805E+04  0.13928624459E+04  0.10000000000E+02 0.  1.
</event>
<event>
 5    1  0.1582292E-008  0.3765810E+03  0.7957747E-01  0.3466182E+00
         13   -1    0    0    0    0  0.00000000000E+00  0.00000000000E+00  0.14999999963E+04  0.15000000000E+04  0.10566000000E+00 0.  1.
        994   -1    0    0    0    0 -0.00000000000E+00 -0.00000000000E+00  0.11368683772E-12  0.17120000000E+03  0.17120000000E+03 0.  0.
         13    1    1    2    0    0  0.53570911464E+01 -0.10724029160E+02  0.96719863307E+01  0.15403301938E+02  0.10566000000E+00 0.  1.
        994    1    1    2    0    0 -0.10063253062E+02  0.10480300363E+01  0.62153017846E+01  0.17161129743E+03  0.17120000000E+03 0.  0.
        998    1    1    2    0    0  0.47061619158E+01  0.96759991236E+01  0.14841127082E+04  0.14841854006E+04  0.10000000000E+02 0.  1.
</event>
<event>
 5    1  0.1582292E-008  0.3801798E+03  0.7957747E-01  0.3450376E+00
         13   -1    0    0    0    0  0.00000000000E+00  0.00000000000E+00  0.14999999963E+04  0.15000000000E+04  0.10566000000E+00 0.  1.
        994   -1    0    0    0    0 -0.00000000000E+00 -0.00000000000E+00  0.11368683772E-12  0.17120000000E+03  0.17120000000E+03 0.  0.
         13    1    1    2    0    0 -0.35987726998E+02  0.19743785315E+02  0.47332709342E+02  0.62652454787E+02  0.10566000000E+00 0.  1.
        994    1    1    2    0    0  0.71878262917E+01 -0.85901105588E+01  0.16881203076E+02  0.17239451808E+03  0.17120000000E+03 0.  0.
        998    1    1    2    0    0  0.28799900707E+02 -0.11153674757E+02  0.14357860839E+04  0.14361530271E+04  0.10000000000E+02 0.  1.
</event>
<event>
 5    1  0.1582292E-008  0.3857117E+03  0.7957747E-01  0.3426659E+00
         13   -1    0    0    0    0  0.00000000000E+00  0.00000000000E+00  0.14999999963E+04  0.15000000000E+04  0.10566000000E+00 0. -1.
        994   -1    0    0    0    0 -0.00000000000E+00 -0.00000000000E+00  0.11368683772E-12  0.17120000000E+03  0.17120000000E+03 0.  0.
         13    1    1    2    0    0  0.89034822231E+00 -0.12419382295E+02  0.62317711216E+02  0.63549524560E+02  0.10566000000E+00 0. -1.
        994    1    1    2    0    0  0.41017714048E+00  0.56442464565E+01  0.13822733489E+01  0.17129908477E+03  0.17120000000E+03 0.  0.
        998    1    1    2    0    0 -0.13005253628E+01  0.67751358383E+01  0.14363000117E+04  0.14363513907E+04  0.10000000000E+02 0. -1.
</event>
<event>
 5    1  0.1582292E-008  0.3858857E+03  0.7957747E-01  0.3425924E+00
         13   -1    0    0    0    0  0.00000000000E+00  0.00000000000E+00  0.14999999963E+04  0.15000000000E+04  0.10566000000E+00 0.  1.
        994   -1    0    0    0    0 -0.00000000000E+00 -0.00000000000E+00  0.11368683772E-12  0.17120000000E+03  0.17120000000E+03 0.  0.
         13    1    1    2    0    0 -0.10611612876E+02 -0.28647025015E+00  0.50802974933E+02  0.51900306542E+02  0.10566000000E+00 0.  1.
        994    1    1    2    0    0 -0.21200888579E+01 -0.24532953240E+01  0.12255093684E+01  0.17123508784E+03  0.17120000000E+03 0.  0.
        998    1    1    2    0    0  0.12731701734E+02  0.27397655741E+01  0.14479715120E+04  0.14480646056E+04  0.10000000000E+02 0.  1.
</event>
<event>
 5    1  0.1582292E-008  0.3743081E+03  0.7957747E-01  0.3476323E+00
         13   -1    0    0    0    0  0.00000000000E+00  0.00000000000E+00  0.14999999963E+04  0.15000000000E+04  0.10566000000E+00 0. -1.
        994   -1    0    0    0    0 -0.00000000000E+00 -0.00000000000E+00  0.11368683772E-12  0.17120000000E+03  0.17120000000E+03 0.  0.
         13    1    1    2    0    0 -0.61775208788E+01  0.18596386700E+02  0.25186490608E+02  0.31911719410E+02  0.10566000000E+00 0. -1.
        994    1    1    2    0    0 -0.20315036103E+02 -0.64671333492E+01  0.85846098859E+01  0.17273580993E+03  0.17120000000E+03 0.  0.
        998    1    1    2    0    0  0.26492556981E+02 -0.12129253351E+02  0.14662288958E+04  0.14665524707E+04  0.10000000000E+02 0. -1.
</event>
<event>
 5    1  0.1582292E-008  0.3824024E+03  0.7957747E-01  0.3440764E+00
         13   -1    0    0    0    0  0.00000000000E+00  0.00000000000E+00  0.14999999963E+04  0.15000000000E+04  0.10566000000E+00 0.  1.
        994   -1    0    0    0    0 -0.00000000000E+00 -0.00000000000E+00  0.11368683772E-12  0.17120000000E+03  0.17120000000E+03 0.  0.
         13    1    1    2    0    0  0.25997566216E+02  0.25365803907E+01  0.12952014054E+03  0.13212791400E+03  0.10566000000E+00 0.  1.
        994    1    1    2    0    0  0.59600420710E+00 -0.26635612524E+01  0.29500491124E+01  0.17124716806E+03  0.17120000000E+03 0.  0.
        998    1    1    2    0    0 -0.26593570423E+02  0.12698086170E+00  0.13675298066E+04  0.13678249179E+04  0.10000000000E+02 0.  1.
</event>
<event>
 5    1  0.1582292E-008  0.3857530E+03  0.7957747E-01  0.3426485E+00
         13   -1    0    0    0    0  0.00000000000E+00  0.00000000000E+00  0.14999999963E+04  0.15000000000E+04  0.10566000000E+00 0. -1.
        994   -1    0    0    0    0 -0.00000000000E+00 -0.00000000000E+00  0.11368683772E-12  0.17120000000E+03  0.17120000000E+03 0.  0.
         13    1    1    2    0    0 -0.91472337540E+01 -0.80455586624E+01  0.62848380075E+02  0.64018223512E+02  0.10566000000E+00 0. -1.
        994    1    1    2    0    0 -0.57922743495E+01  0.75320008469E+01  0.15529921757E+01  0.17147050260E+03  0.17120000000E+03 0.  0.
        998    1    1    2    0    0  0.14939508103E+02  0.51355781552E+00  0.14355986240E+04  0.14357112739E+04  0.10000000000E+02 0. -1.
</event>
<event>
 5    1  0.1582292E-008  0.3813895E+03  0.7957747E-01  0.3445131E+00
         13   -1    0    0    0    0  0.00000000000E+00  0.00000000000E+00  0.14999999963E+04  0.15000000000E+04  0.10566000000E+00 0. -1.
        994   -1    0    0    0    0 -0.00000000000E+00 -0.00000000000E+00  0.11368683772E-12  0.17120000000E+03  0.17120000000E+03 0.  0.
         13    1    1    2    0    0 -0.17414207218E+02 -0.25658265144E+02  0.14128429086E+03  0.14464737534E+03  0.10566000000E+00 0. -1.
        994    1    1    2    0    0 -0.34581582721E+01  0.21867590391E+02  0.50661308978E+01  0.17269990171E+03  0.17120000000E+03 0.  0.
        998    1    1    2    0    0  0.20872365490E+02  0.37906747525E+01  0.13536495745E+04  0.13538527230E+04  0.10000000000E+02 0. -1.
</event>
<event>
 5    1  0.1582292E-008  0.3790924E+03  0.7957747E-01  0.3455120E+00
         13   -1    0    0    0    0  0.00000000000E+00  0.00000000000E+00  0.14999999963E+04  0.15000000000E+04  0.10566000000E+00 0.  1.
        994   -1    0    0    0    0 -0.00000000000E+00 -0.00000000000E+00  0.11368683772E-12  0.17120000000E+03  0.17120000000E+03 0.  0.
         13    1    1    2    0    0 -0.92335510847E+01  0.18733232491E+02  0.44886579561E+02  0.49507662577E+02  0.10566000000E+00 0.  1.
        994    1    1    2    0    0  0.83280209206E+01 -0.17256477883E+02  0.58239552886E+01  0.17236734150E+03  0.17120000000E+03 0.  0.
        998    1    1    2    0    0  0.90553016412E+00 -0.14767546073E+01  0.14492894614E+04  0.14493249959E+04  0.10000000000E+02 0.  1.
</event>
<event>
 5    1  0.1582292E-008  0.3699374E+03  0.7957747E-01  0.3496179E+00
         13   -1    0    0    0    0  0.00000000000E+00  0.00000000000E+00  0.14999999963E+04  0.15000000000E+04  0.10566000000E+00 0. -1.
        994   -1    0    0    0    0 -0.00000000000E+00 -0.00000000000E+00  0.11368683772E-12  0.17120000000E+03  0.17120000000E+03 0.  0.
         13    1    1    2    0    0 -0.56180215277E+02  0.11687896933E+02  0.17282230629E+03  0.18209992927E+03  0.10566000000E+00 0. -1.
        994    1    1    2    0    0  0.15738724997E+01  0.66402765982E+01  0.11068524040E+02  0.17169310578E+03  0.17120000000E+03 0.  0.
        998    1    1    2    0    0  0.54606342777E+02 -0.18328173531E+02  0.13161091659E+04  0.13174069650E+04  0.10000000000E+02 0. -1.
</event>
<event>
 5    1  0.1582292E-008  0.3717690E+03  0.7957747E-01  0.3487800E+00
         13   -1    0    0    0    0  0.00000000000E+00  0.00000000000E+00  0.14999999963E+04  0.15000000000E+04  0.10566000000E+00 0.  1.
        994   -1    0    0    0    0 -0.00000000000E+00 -0.00000000000E+00  0.11368683772E-12  0.17120000000E+03  0.17120000000E+03 0.  0.
         13    1    1    2    0    0 -0.14364299006E+01  0.71386713752E+02  0.32919678213E+03  0.33685109286E+03  0.10566000000E+00 0.  1.
        994    1    1    2    0    0  0.54478547624E+02 -0.32595454031E+02  0.22328301482E+02  0.18395208295E+03  0.17120000000E+03 0.  0.
        998    1    1    2    0    0 -0.53042117724E+02 -0.38791259721E+02  0.11484749127E+04  0.11503968242E+04  0.10000000000E+02 0.  1.
</event>
<event>
 5    1  0.1582292E-008  0.3857647E+03  0.7957747E-01  0.3426436E+00
         13   -1    0    0    0    0  0.00000000000E+00  0.00000000000E+00  0.14999999963E+04  0.15000000000E+04  0.10566000000E+00 0. -1.
        994   -1    0    0    0    0 -0.00000000000E+00 -0.00000000000E+00  0.11368683772E-12  0.17120000000E+03  0.17120000000E+03 0.  0.
         13    1    1    2    0    0 -0.10339502089E+02  0.28936791260E+00  0.43175508918E+02  0.44397350953E+02  0.10566000000E+00 0. -1.
        994    1    1    2    0    0  0.67058012001E+01  0.33204662926E+01  0.14346648146E+01  0.17136945915E+03  0.17120000000E+03 0.  0.
        998    1    1    2    0    0  0.36337008894E+01 -0.36098342051E+01  0.14553898225E+04  0.14554331899E+04  0.10000000000E+02 0. -1.
</event>
<event>
 5    1  0.1582292E-008  0.3853600E+03  0.7957747E-01  0.3428147E+00
         13   -1    0    0    0    0  0.00000000000E+00  0.00000000000E+00  0.14999999963E+04  0.15000000000E+04  0.10566000000E+00 0. -1.
        994   -1    0    0    0    0 -0.00000000000E+00 -0.00000000000E+00  0.11368683772E-12  0.17120000000E+03  0.17120000000E+03 0.  0.
         13    1    1    2    0    0  0.11293534024E+02  0.45523778474E+01  0.54452175868E+02  0.55797120675E+02  0.10566000000E+00 0. -1.
        994    1    1    2    0    0  0.33380099979E+01 -0.37771272310E+01  0.15349688496E+01  0.17128107055E+03  0.17120000000E+03 0.  0.
        998    1    1    2    0    0 -0.14631544022E+02 -0.77525061647E+00  0.14440128516E+04  0.14441218088E+04  0.10000000000E+02 0. -1.
</event>
<event>
 5    1  0.1582292E-008  0.3755936E+03  0.7957747E-01  0.3470572E+00
         13   -1    0    0    0    0  0.00000000000E+00  0.00000000000E+00  0.14999999963E+04  0.15000000000E+04  0.10566000000E+00 0. -1.
        994   -1    0    0    0    0 -0.00000000000E+00 -0.00000000000E+00  0.11368683772E-12  0.17120000000E+03  0.17120000000E+03 0.  0.
         13    1    1    2    0    0 -0.40031268288E+02 -0.57863435227E+02  0.18693426732E+03  0.19973760547E+03  0.10566000000E+00 0. -1.
        994    1    1    2    0    0  0.86999852312E+01  0.25417328970E+02  0.16505468673E+02  0.17407929472E+03  0.17120000000E+03 0.  0.
        998    1    1    2    0    0  0.31331283057E+02  0.32446106257E+02  0.12965602603E+04  0.12973830998E+04  0.10000000000E+02 0. -1.
</event>
<event>
 5    1  0.1582292E-008  0.3853838E+03  0.7957747E-01  0.3428046E+00
         13   -1    0    0    0    0  0.00000000000E+00  0.00000000000E+00  0.14999999963E+04  0.15000000000E+04  0.10566000000E+00 0.  1.
        994   -1    0    0    0    0 -0.00000000000E+00 -0.00000000000E+00  0.11368683772E-12  0.17120000000E+03  0.17120000000E+03 0.  0.
         13    1    1    2    0    0 -0.68304978897E+00 -0.11497265061E+02  0.47536956374E+02  0.48912442653E+02  0.10566000000E+00 0.  1.
        994    1    1    2    0    0 -0.81669327711E+01  0.33422023795E+01  0.16955138280E+01  0.17143565520E+03  0.17120000000E+03 0.  0.
        998    1    1    2    0    0  0.88499825601E+01  0.81550626815E+01  0.14507675261E+04  0.14508519021E+04  0.10000000000E+02 0.  1.
</event>
<event>
 5    1  0.1582292E-008  0.3755894E+03  0.7957747E-01  0.3470591E+00
         13   -1    0    0    0    0  0.00000000000E+00  0.00000000000E+00  0.14999999963E+04  0.15000000000E+04  0.10566000000E+00 0.  1.
        994   -1    0    0    0    0 -0.00000000000E+00 -0.00000000000E+00  0.11368683772E-12  0.17120000000E+03  0.17120000000E+03 0.  0.
         13    1    1    2    0    0 -0.98814699693E+01  0.43870080899E+02  0.64086207061E+02  0.78289721843E+02  0.10566000000E+00 0.  1.
        994    1    1    2    0    0  0.10841951678E+02 -0.47860371202E+02  0.22562759849E+02  0.17951791326E+03  0.17120000000E+03 0.  0.
        998    1    1    2    0    0 -0.96048170839E+00  0.39902903025E+01  0.14133510294E+04  0.14133923649E+04  0.10000000000E+02 0.  1.
</event>
<event>
 5    1  0.1582292E-008  0.3809211E+03  0.7957747E-01  0.3447158E+00
         13   -1    0    0    0    0  0.00000000000E+00  0.00000000000E+00  0.14999999963E+04  0.15000000000E+04  0.10566000000E+00 0.  1.
        994   -1    0    0    0    0 -0.00000000000E+00 -0.00000000000E+00  0.11368683772E-12  0.17120000000E+03  0.17120000000E+03 0.  0.
         13    1    1    2    0    0 -0.30989233014E+01 -0.21811852410E+02  0.60011472797E+02  0.63927679940E+02  0.10566000000E+00 0.  1.
        994    1    1    2    0    0 -0.48240305344E+01  0.33434223188E+02  0.74813453401E+01  0.17466118366E+03  0.17120000000E+03 0.  0.
        998    1    1    2    0    0  0.79229538358E+01 -0.11622370778E+02  0.14325071781E+04  0.14326111364E+04  0.10000000000E+02 0.  1.
</event>
<event>
 5    1  0.1582292E-008  0.3841504E+03  0.7957747E-01  0.3433283E+00
         13   -1    0    0    0    0  0.00000000000E+00  0.00000000000E+00  0.14999999963E+04  0.15000000000E+04  0.10566000000E+00 0. -1.
        994   -1    0    0    0    0 -0.00000000000E+00 -0.00000000000E+00  0.11368683772E-12  0.17120000000E+03  0.17120000000E+03 0.  0.
         13    1    1    2    0    0  0.10849436182E+02 -0.88853518887E+01  0.48825848336E+02  0.50799944620E+02  0.10566000000E+00 0. -1.
        994    1    1    2    0    0 -0.18816069058E+02 -0.16323196723E+02  0.41014206846E+01  0.17305130123E+03  0.17120000000E+03 0.  0.
        998    1    1    2    0    0  0.79666328760E+01  0.25208548612E+02  0.14470727273E+04  0.14473487541E+04  0.10000000000E+02 0. -1.
</event>
<event>
 5    1  0.1582292E-008  0.3813988E+03  0.7957747E-01  0.3445090E+00
         13   -1    0    0    0    0  0.00000000000E+00  0.00000000000E+00  0.14999999963E+04  0.15000000000E+04  0.10566000000E+00 0. -1.
        994   -1    0    0    0    0 -0.00000000000E+00 -0.00000000000E+00  0.11368683772E-12  0.17120000000E+03  0.17120000000E+03 0.  0.
         13    1    1    2    0    0 -0.11917991768E+02 -0.20567943339E+01  0.20250941184E+02  0.23587723790E+02  0.10566000000E+00 0. -1.
        994    1    1    2    0    0  0.15595649545E+01  0.93495932461E+01  0.37277346152E+01  0.17150272051E+03  0.17120000000E+03 0.  0.
        998    1    1    2    0    0  0.10358426813E+02 -0.72927989122E+01  0.14760213205E+04  0.14761095557E+04  0.10000000000E+02 0. -1.
</event>
<event>
 5    1  0.1582292E-008  0.3775769E+03  0.7957747E-01  0.3461778E+00
         13   -1    0    0    0    0  0.00000000000E+00  0.00000000000E+00  0.14999999963E+04  0.15000000000E+04  0.10566000000E+00 0. -1.
        994   -1    0    0    0    0 -0.00000000000E+00 -0.00000000000E+00  0.11368683772E-12  0.17120000000E+03  0.17120000000E+03 0.  0.
         13    1    1    2    0    0  0.33269632995E+02  0.43286771290E+01  0.11652707396E+03  0.12126077707E+03  0.10566000000E+00 0. -1.
        994    1    1    2    0    0  0.46676562187E+01 -0.45569350311E+01  0.55047681823E+01  0.17141264581E+03  0.17120000000E+03 0.  0.
        998    1    1    2    0    0 -0.37937289213E+02  0.22825790214E+00  0.13779681541E+04  0.13785265771E+04  0.10000000000E+02 0. -1.
</event>
<event>
 5    1  0.1755669E-008  0.3812340E+03  0.7957747E-01  0.3445803E+00
         13   -1    0    0    0    0  0.00000000000E+00  0.00000000000E+00  0.14999999963E+04  0.15000000000E+04  0.10566000000E+00 0. -1.
        994   -1    0    0    0    0 -0.00000000000E+00 -0.00000000000E+00  0.11368683772E-12  0.17120000000E+03  0.17120000000E+03 0.  0.
         13    1    1    2    0    0 -0.11675522151E+02  0.62238790419E+00  0.17804803801E+02  0.21300877602E+02  0.10566000000E+00 0. -1.
        994    1    1    2    0    0  0.12650588527E+02 -0.52177078128E+00  0.40454361514E+01  0.17171521537E+03  0.17120000000E+03 0.  0.
        998    1    1    2    0    0 -0.97506637657E+00 -0.10061712291E+00  0.14781497563E+04  0.14781839070E+04  0.10000000000E+02 0. -1.
</event>
<event>
 5    1  0.1582292E-008  0.3843875E+03  0.7957747E-01  0.3432274E+00
         13   -1    0    0    0    0  0.00000000000E+00  0.00000000000E+00  0.14999999963E+04  0.15000000000E+04  0.10566000000E+00 0. -1.
        994   -1    0    0    0    0 -0.00000000000E+00 -0.00000000000E+00  0.11368683772E-12  0.17120000000E+03  0.17120000000E+03 0.  0.
         13    1    1    2    0    0 -0.12590912652E+02  0.77877142485E+01  0.58682291418E+02  0.60521087769E+02  0.10566000000E+00 0. -1.
        994    1    1    2    0    0  0.97529797555E+01  0.10570844768E+02  0.26164867577E+01  0.17182301760E+03  0.17120000000E+03 0.  0.
        998    1    1    2    0    0  0.28379328962E+01 -0.18358559016E+02  0.14387012181E+04  0.14388558946E+04  0.10000000000E+02 0. -1.
</event>
<event>
 5    1  0.1582292E-008  0.3850773E+03  0.7957747E-01  0.3429345E+00
         13   -1    0    0    0    0  0.00000000000E+00  0.00000000000E+00  0.14999999963E+04  0.15000000000E+04  0.10566000000E+00 0. -1.
        994   -1    0    0    0    0 -0.00000000000E+00 -0.00000000000E+00  0.11368683772E-12  0.17120000000E+03  0.17120000000E+03 0.  0.
         13    1    1    2    0    0  0.10262255258E+02  0.67265073857E+01  0.46475823010E+02  0.48068420747E+02  0.10566000000E+00 0. -1.
        994    1    1    2    0    0 -0.50812011598E+01 -0.12959609499E+02  0.22291270522E+01  0.17177944898E+03  0.17120000000E+03 0.  0.
        998    1    1    2    0    0 -0.51810540985E+01  0.62331021137E+01  0.14512950462E+04  0.14513521303E+04  0.10000000000E+02 0. -1.
</event>
<event>
 5    1  0.1582292E-008  0.3778473E+03  0.7957747E-01  0.3460586E+00
         13   -1    0    0    0    0  0.00000000000E+00  0.00000000000E+00  0.14999999963E+04  0.15000000000E+04  0.10566000000E+00 0. -1.
        994   -1    0    0    0    0 -0.00000000000E+00 -0.00000000000E+00  0.11368683772E-12  0.17120000000E+03  0.17120000000E+03 0.  0.
         13    1    1    2    0    0 -0.10506778207E+02  0.47610709637E+01  0.10775217992E+02  0.15785330907E+02  0.10566000000E+00 0. -1.
        994    1    1    2    0    0 -0.13961101790E+01  0.14745729103E+02  0.59627899205E+01  0.17194295715E+03  0.17120000000E+03 0.  0.
        998    1    1    2    0    0  0.11902888386E+02 -0.19506800067E+02  0.14832619884E+04  0.14834717119E+04  0.10000000000E+02 0. -1.
</event>
<event>
 5    1  0.1582292E-008  0.3804478E+03  0.7957747E-01  0.3449211E+00
         13   -1    0    0    0    0  0.00000000000E+00  0.00000000000E+00  0.14999999963E+04  0.15000000000E+04  0.10566000000E+00 0. -1.
        994   -1    0    0    0    0 -0.00000000000E+00 -0.00000000000E+00  0.11368683772E-12  0.17120000000E+03  0.17120000000E+03 0.  0.
         13    1    1    2    0    0  0.45242499138E+01 -0.18130526132E+02  0.43760771319E+02  0.47583622030E+02  0.10566000000E+00 0. -1.
        994    1    1    2    0    0  0.24698799791E+01  0.98324868704E+01  0.42504065081E+01  0.17155256938E+03  0.17120000000E+03 0.  0.
        998    1    1    2    0    0 -0.69941298929E+01  0.82980392611E+01  0.14519888185E+04  0.14520638086E+04  0.10000000000E+02 0. -1.
</event>
<event>
 5    1  0.1582292E-008  0.3768050E+03  0.7957747E-01  0.3465189E+00
         13   -1    0    0    0    0  0.00000000000E+00  0.00000000000E+00  0.14999999963E+04  0.15000000000E+04  0.10566000000E+00 0. -1.
        994   -1    0    0    0    0 -0.00000000000E+00 -0.00000000000E+00  0.11368683772E-12  0.17120000000E+03  0.17120000000E+03 0.  0.
         13    1    1    2    0    0  0.22781629790E+02  0.25908937658E+02  0.99396118502E+02  0.10521347463E+03  0.10566000000E+00 0. -1.
        994    1    1    2    0    0 -0.19487656253E+02 -0.16767990621E+02  0.79910179753E+01  0.17330386789E+03  0.17120000000E+03 0.  0.
        998    1    1    2    0    0 -0.32939735370E+01 -0.91409470365E+01  0.13926128598E+04  0.13926826575E+04  0.10000000000E+02 0. -1.
</event>
<event>
 5    1  0.1582292E-008  0.3895366E+03  0.7957747E-01  0.3410657E+00
         13   -1    0    0    0    0  0.00000000000E+00  0.00000000000E+00  0.14999999963E+04  0.15000000000E+04  0.10566000000E+00 0.  1.
        994   -1    0    0    0    0 -0.00000000000E+00 -0.00000000000E+00  0.11368683772E-12  0.17120000000E+03  0.17120000000E+03 0.  0.
         13    1    1    2    0    0 -0.23304214452E+02  0.80844992128E+02  0.19633863710E+03  0.21360681343E+03  0.10566000000E+00 0.  1.
        994    1    1    2    0    0  0.36737753357E+02  0.14030596915E+02  0.27497457933E+02  0.17779783566E+03  0.17120000000E+03 0.  0.
        998    1    1    2    0    0 -0.13433538906E+02 -0.94875589043E+02  0.12761639012E+04  0.12797953509E+04  0.10000000000E+02 0.  1.
</event>
<event>
 5    1  0.1582292E-008  0.3794725E+03  0.7957747E-01  0.3453459E+00
         13   -1    0    0    0    0  0.00000000000E+00  0.00000000000E+00  0.14999999963E+04  0.15000000000E+04  0.10566000000E+00 0.  1.
        994   -1    0    0    0    0 -0.00000000000E+00 -0.00000000000E+00  0.11368683772E-12  0.17120000000E+03  0.17120000000E+03 0.  0.
         13    1    1    2    0    0  0.15456292786E+02  0.55470260896E+01  0.28352107918E+02  0.32764610063E+02  0.10566000000E+00 0.  1.
        994    1    1    2    0    0 -0.16974975541E+02 -0.41730191691E+01  0.54235767333E+01  0.17217554724E+03  0.17120000000E+03 0.  0.
        998    1    1    2    0    0  0.15186827548E+01 -0.13740069205E+01  0.14662243116E+04  0.14662598427E+04  0.10000000000E+02 0.  1.
</event>
<event>
 5    1  0.1582292E-008  0.3759933E+03  0.7957747E-01  0.3468792E+00
         13   -1    0    0    0    0  0.00000000000E+00  0.00000000000E+00  0.14999999963E+04  0.15000000000E+04  0.10566000000E+00 0.  1.
        994   -1    0    0    0    0 -0.00000000000E+00 -0.00000000000E+00  0.11368683772E-12  0.17120000000E+03  0.17120000000E+03 0.  0.
         13    1    1    2    0    0 -0.18854122732E+02  0.37397769723E+01  0.26161503484E+02  0.32463815309E+02  0.10566000000E+00 0.  1.
        994    1    1    2    0    0  0.30281059155E+02 -0.33103068921E+01  0.93195232810E+01  0.17413843398E+03  0.17120000000E+03 0.  0.
        998    1    1    2    0    0 -0.11426936423E+02 -0.42947008016E+00  0.14645189695E+04  0.14645977507E+04  0.10000000000E+02 0.  1.
</event>
<event>
 5    1  0.1582292E-008  0.3838965E+03  0.7957747E-01  0.3434366E+00
         13   -1    0    0    0    0  0.00000000000E+00  0.00000000000E+00  0.14999999963E+04  0.15000000000E+04  0.10566000000E+00 0.  1.
        994   -1    0    0    0    0 -0.00000000000E+00 -0.00000000000E+00  0.11368683772E-12  0.17120000000E+03  0.17120000000E+03 0.  0.
         13    1    1    2    0    0 -0.14406836577E+02  0.15569766119E+02  0.10143600140E+03  0.10363034353E+03  0.10566000000E+00 0.  1.
        994    1    1    2    0    0  0.64850252235E+01 -0.14741629350E+02  0.30355277003E+01  0.17198263173E+03  0.17120000000E+03 0.  0.
        998    1    1    2    0    0  0.79218113532E+01 -0.82813676834E+00  0.13955284672E+04  0.13955870247E+04  0.10000000000E+02 0.  1.
</event>
<event>
 5    1  0.1582292E-008  0.3697053E+03  0.7957747E-01  0.3497246E+00
         13   -1    0    0    0    0  0.00000000000E+00  0.00000000000E+00  0.14999999963E+04  0.15000000000E+04  0.10566000000E+00 0. -1.
        994   -1    0    0    0    0 -0.00000000000E+00 -0.00000000000E+00  0.11368683772E-12  0.17120000000E+03  0.17120000000E+03 0.  0.
         13    1    1    2    0    0 -0.22470306238E+02  0.11106155142E+03  0.41719362464E+03  0.43230789314E+03  0.10566000000E+00 0. -1.
        994    1    1    2    0    0  0.28711453758E+02 -0.10957966015E+03  0.57045746633E+02  0.21306268257E+03  0.17120000000E+03 0.  0.
        998    1    1    2    0    0 -0.62411475194E+01 -0.14818912663E+01  0.10257606250E+04  0.10258294243E+04  0.10000000000E+02 0. -1.
</event>
<event>
 5    1  0.1582292E-008  0.3771697E+03  0.7957747E-01  0.3463576E+00
         13   -1    0    0    0    0  0.00000000000E+00  0.00000000000E+00  0.14999999963E+04  0.15000000000E+04  0.10566000000E+00 0. -1.
        994   -1    0    0    0    0 -0.00000000000E+00 -0.00000000000E+00  0.11368683772E-12  0.17120000000E+03  0.17120000000E+03 0.  0.
         13    1    1    2    0    0 -0.13019846404E+02  0.37296379459E+02  0.13208405966E+03  0.13786495676E+03  0.10566000000E+00 0. -1.
        994    1    1    2    0    0  0.40487435541E+02 -0.20751789434E+02  0.12585624584E+02  0.17758858958E+03  0.17120000000E+03 0.  0.
        998    1    1    2    0    0 -0.27467589137E+02 -0.16544590025E+02  0.13553303120E+04  0.13557464537E+04  0.10000000000E+02 0. -1.
</event>
<event>
 5    1  0.1582292E-008  0.3814975E+03  0.7957747E-01  0.3444664E+00
         13   -1    0    0    0    0  0.00000000000E+00  0.00000000000E+00  0.14999999963E+04  0.15000000000E+04  0.10566000000E+00 0.  1.
        994   -1    0    0    0    0 -0.00000000000E+00 -0.00000000000E+00  0.11368683772E-12  0.17120000000E+03  0.17120000000E+03 0.  0.
         13    1    1    2    0    0  0.97133380280E+01  0.32566540739E+01  0.14030918404E+02  0.17373329177E+02  0.10566000000E+00 0.  1.
        994    1    1    2    0    0 -0.79155564078E+01 -0.61693613414E+01  0.37142053253E+01  0.17153411431E+03  0.17120000000E+03 0.  0.
        998    1    1    2    0    0 -0.17977816202E+01  0.29127072675E+01  0.14822548725E+04  0.14822925565E+04  0.10000000000E+02 0.  1.
</event>
<event>
 5    1  0.1582292E-008  0.3695816E+03  0.7957747E-01  0.3497816E+00
         13   -1    0    0    0    0  0.00000000000E+00  0.00000000000E+00  0.14999999963E+04  0.15000000000E+04  0.10566000000E+00 0.  1.
        994   -1    0    0    0    0 -0.00000000000E+00 -0.00000000000E+00  0.11368683772E-12  0.17120000000E+03  0.17120000000E+03 0.  0.
         13    1    1    2    0    0 -0.17071345789E+03  0.49752127188E+02  0.74699769063E+03  0.76786972843E+03  0.10566000000E+00 0.  1.
        994    1    1    2    0    0  0.15674088690E+03 -0.58593912063E+02  0.11597267092E+03  0.26600761748E+03  0.17120000000E+03 0.  0.
        998    1    1    2    0    0  0.13972570991E+02  0.88417848751E+01  0.63702963472E+03  0.63732265409E+03  0.10000000000E+02 0.  1.
</event>
<event>
 5    1  0.1582292E-008  0.3846143E+03  0.7957747E-01  0.3431310E+00
         13   -1    0    0    0    0  0.00000000000E+00  0.00000000000E+00  0.14999999963E+04  0.15000000000E+04  0.10566000000E+00 0. -1.
        994   -1    0    0    0    0 -0.00000000000E+00 -0.00000000000E+00  0.11368683772E-12  0.17120000000E+03  0.17120000000E+03 0.  0.
         13    1    1    2    0    0  0.11479904489E+02 -0.43897804257E+01  0.39955564311E+02  0.41803309231E+02  0.10566000000E+00 0. -1.
        994    1    1    2    0    0 -0.26445395976E+01  0.35898414743E+02  0.60998646100E+01  0.17504953047E+03  0.17120000000E+03 0.  0.
        998    1    1    2    0    0 -0.88353648914E+01 -0.31508634317E+02  0.14539445674E+04  0.14543471603E+04  0.10000000000E+02 0. -1.
</event>
<event>
 5    1  0.1582292E-008  0.3820201E+03  0.7957747E-01  0.3442409E+00
         13   -1    0    0    0    0  0.00000000000E+00  0.00000000000E+00  0.14999999963E+04  0.15000000000E+04  0.10566000000E+00 0.  1.
        994   -1    0    0    0    0 -0.00000000000E+00 -0.00000000000E+00  0.11368683772E-12  0.17120000000E+03  0.17120000000E+03 0.  0.
         13    1    1    2    0    0  0.13838304355E+02  0.63609290359E+01  0.37127325454E+02  0.40129908360E+02  0.10566000000E+00 0.  1.
        994    1    1    2    0    0 -0.10468158750E+01 -0.41098254165E+01  0.31765940959E+01  0.17128198165E+03  0.17120000000E+03 0.  0.
        998    1    1    2    0    0 -0.12791488480E+02 -0.22511036193E+01  0.14596960767E+04  0.14597881100E+04  0.10000000000E+02 0.  1.
</event>
<event>
 5    1  0.1582292E-008  0.3808504E+03  0.7957747E-01  0.3447464E+00
         13   -1    0    0    0    0  0.00000000000E+00  0.00000000000E+00  0.14999999963E+04  0.15000000000E+04  0.10566000000E+00 0. -1.
        994   -1    0    0    0    0 -0.00000000000E+00 -0.00000000000E+00  0.11368683772E-12  0.17120000000E+03  0.17120000000E+03 0.  0.
         13    1    1    2    0    0 -0.18315349735E+02 -0.18595797331E+02  0.82682813618E+02  0.86704755038E+02  0.10566000000E+00 0. -1.
        994    1    1    2    0    0  0.33386767855E+02  0.16507833398E+02  0.83426069173E+01  0.17540303282E+03  0.17120000000E+03 0.  0.
        998    1    1    2    0    0 -0.15071418120E+02  0.20879639331E+01  0.14089745757E+04  0.14090922121E+04  0.10000000000E+02 0. -1.
</event>
<event>
 5    1  0.1582292E-008  0.3860235E+03  0.7957747E-01  0.3425343E+00
         13   -1    0    0    0    0  0.00000000000E+00  0.00000000000E+00  0.14999999963E+04  0.15000000000E+04  0.10566000000E+00 0.  1.
        994   -1    0    0    0    0 -0.00000000000E+00 -0.00000000000E+00  0.11368683772E-12  0.17120000000E+03  0.17120000000E+03 0.  0.
         13    1    1    2    0    0 -0.64778166055E+01  0.82503601332E+01  0.50982654978E+02  0.52050675529E+02  0.10566000000E+00 0.  1.
        994    1    1    2    0    0  0.11636276014E+01 -0.28547499198E+01  0.11539979484E+01  0.17123164234E+03  0.17120000000E+03 0.  0.
        998    1    1    2    0    0  0.53141890041E+01 -0.53956102135E+01  0.14478633434E+04  0.14479176821E+04  0.10000000000E+02 0.  1.
</event>
<event>
 5    1  0.1582292E-008  0.3772512E+03  0.7957747E-01  0.3463215E+00
         13   -1    0    0    0    0  0.00000000000E+00  0.00000000000E+00  0.14999999963E+04  0.15000000000E+04  0.10566000000E+00 0.  1.
        994   -1    0    0    0    0 -0.00000000000E+00 -0.00000000000E+00  0.11368683772E-12  0.17120000000E+03  0.17120000000E+03 0.  0.
         13    1    1    2    0    0  0.37394004296E+02  0.38493639293E+02  0.10136690867E+03  0.11469670074E+03  0.10566000000E+00 0.  1.
        994    1    1    2    0    0  0.30905034356E+02 -0.37628687009E+02  0.23380438552E+02  0.17951914701E+03  0.17120000000E+03 0.  0.
        998    1    1    2    0    0 -0.68299038652E+02 -0.86495228325E+00  0.13752526491E+04  0.13769841523E+04  0.10000000000E+02 0.  1.
</event>
<event>
 5    1  0.1582292E-008  0.3838750E+03  0.7957747E-01  0.3434457E+00
         13   -1    0    0    0    0  0.00000000000E+00  0.00000000000E+00  0.14999999963E+04  0.15000000000E+04  0.10566000000E+00 0.  1.
        994   -1    0    0    0    0 -0.00000000000E+00 -0.00000000000E+00  0.11368683772E-12  0.17120000000E+03  0.17120000000E+03 0.  0.
         13    1    1    2    0    0  0.64725891304E+01  0.14163790977E+02  0.63071035288E+02  0.64965175604E+02  0.10566000000E+00 0.  1.
        994    1    1    2    0    0 -0.99679492666E+01  0.20414517337E+02  0.38950744789E+01  0.17274467904E+03  0.17120000000E+03 0.  0.
        998    1    1    2    0    0  0.34953601362E+01 -0.34578308315E+02  0.14330338865E+04  0.14334901454E+04  0.10000000000E+02 0.  1.
</event>
<event>
 5    1  0.1582292E-008  0.3854370E+03  0.7957747E-01  0.3427821E+00
         13   -1    0    0    0    0  0.00000000000E+00  0.00000000000E+00  0.14999999963E+04  0.15000000000E+04  0.10566000000E+00 0.  1.
        994   -1    0    0    0    0 -0.00000000000E+00 -0.00000000000E+00  0.11368683772E-12  0.17120000000E+03  0.17120000000E+03 0.  0.
         13    1    1    2    0    0 -0.10664647804E+02  0.91238765288E+01  0.76607465088E+02  0.77882569982E+02  0.10566000000E+00 0.  1.
        994    1    1    2    0    0 -0.89681402195E+01 -0.64173046398E+01  0.18127862460E+01  0.17156437722E+03  0.17120000000E+03 0.  0.
        998    1    1    2    0    0  0.19632788024E+02 -0.27065718890E+01  0.14215797449E+04  0.14217530528E+04  0.10000000000E+02 0.  1.
</event>
<event>
 5    1  0.1582292E-008  0.3840665E+03  0.7957747E-01  0.3433641E+00
         13   -1    0    0    0    0  0.00000000000E+00  0.00000000000E+00  0.14999999963E+04  0.15000000000E+04  0.10566000000E+00 0.  1.
        994   -1    0    0    0    0 -0.00000000000E+00 -0.00000000000E+00  0.11368683772E-12  0.17120000000E+03  0.17120000000E+03 0.  0.
         13    1    1    2    0    0  0.54367262883E+01 -0.18008613338E+02  0.83619542638E+02  0.85709434849E+02  0.10566000000E+00 0.  1.
        994    1    1    2    0    0 -0.51455532368E+01  0.11912409614E+02  0.26499440209E+01  0.17171151512E+03  0.17120000000E+03 0.  0.
        998    1    1    2    0    0 -0.29117305143E+00  0.60962037241E+01  0.14137305096E+04  0.14137790500E+04  0.10000000000E+02 0.  1.
</event>
<event>
 5    1  0.1582292E-008  0.3823884E+03  0.7957747E-01  0.3440825E+00
         13   -1    0    0    0    0  0.00000000000E+00  0.00000000000E+00  0.14999999963E+04  0.15000000000E+04  0.10566000000E+00 0. -1.
        994   -1    0    0    0    0 -0.00000000000E+00 -0.00000000000E+00  0.11368683772E-12  0.17120000000E+03  0.17120000000E+03 0.  0.
         13    1    1    2    0    0 -0.24135229989E+02  0.29030462575E+01  0.11506018576E+03  0.11760014675E+03  0.10566000000E+00 0. -1.
        994    1    1    2    0    0 -0.59606002029E+01  0.55876652896E+01  0.31537753176E+01  0.17142385207E+03  0.17120000000E+03 0.  0.
        998    1    1    2    0    0  0.30095830192E+02 -0.84907115472E+01  0.13817860352E+04  0.13821760012E+04  0.10000000000E+02 0. -1.
</event>
<event>
 5    1  0.1582292E-008  0.3689788E+03  0.7957747E-01  0.3500597E+00
         13   -1    0    0    0    0  0.00000000000E+00  0.00000000000E+00  0.14999999963E+04  0.15000000000E+04  0.10566000000E+00 0. -1.
        994   -1    0    0    0    0 -0.00000000000E+00 -0.00000000000E+00  0.11368683772E-12  0.17120000000E+03  0.17120000000E+03 0.  0.
         13    1    1    2    0    0 -0.60427665340E+02 -0.10499286923E+03  0.68243556117E+03  0.69310411313E+03  0.10566000000E+00 0. -1.
        994    1    1    2    0    0  0.48595108579E+02  0.64371028040E+02  0.32728276440E+02  0.19205648624E+03  0.17120000000E+03 0.  0.
        998    1    1    2    0    0  0.11832556761E+02  0.40621841193E+02  0.78483615867E+03  0.78603940062E+03  0.10000000000E+02 0.  1.
</event>
<event>
 5    1  0.1582292E-008  0.3806912E+03  0.7957747E-01  0.3448155E+00
         13   -1    0    0    0    0  0.00000000000E+00  0.00000000000E+00  0.14999999963E+04  0.15000000000E+04  0.10566000000E+00 0. -1.
        994   -1    0    0    0    0 -0.00000000000E+00 -0.00000000000E+00  0.11368683772E-12  0.17120000000E+03  0.17120000000E+03 0.  0.
         13    1    1    2    0    0  0.22257288971E+01  0.13757438962E+02  0.24347164829E+02  0.28053816054E+02  0.10566000000E+00 0. -1.
        994    1    1    2    0    0 -0.52693283087E+01 -0.59554425364E+01  0.39955963863E+01  0.17143114626E+03  0.17120000000E+03 0.  0.
        998    1    1    2    0    0  0.30435994116E+01 -0.78019964260E+01  0.14716572351E+04  0.14717150377E+04  0.10000000000E+02 0. -1.
</event>
<event>
 5    1  0.1582292E-008  0.3818778E+03  0.7957747E-01  0.3443023E+00
         13   -1    0    0    0    0  0.00000000000E+00  0.00000000000E+00  0.14999999963E+04  0.15000000000E+04  0.10566000000E+00 0. -1.
        994   -1    0    0    0    0 -0.00000000000E+00 -0.00000000000E+00  0.11368683772E-12  0.17120000000E+03  0.17120000000E+03 0.  0.
         13    1    1    2    0    0 -0.15566027464E+02  0.13674978471E+02  0.68997166401E+02  0.72041143679E+02  0.10566000000E+00 0. -1.
        994    1    1    2    0    0 -0.67466444315E+00 -0.82300171622E+01  0.34148003137E+01  0.17143304587E+03  0.17120000000E+03 0.  0.
        998    1    1    2    0    0  0.16240691908E+02 -0.54449613085E+01  0.14275880296E+04  0.14277258105E+04  0.10000000000E+02 0. -1.
</event>
<event>
 5    1  0.1582292E-008  0.3820301E+03  0.7957747E-01  0.3442366E+00
         13   -1    0    0    0    0  0.00000000000E+00  0.00000000000E+00  0.14999999963E+04  0.15000000000E+04  0.10566000000E+00 0. -1.
        994   -1    0    0    0    0 -0.00000000000E+00 -0.00000000000E+00  0.11368683772E-12  0.17120000000E+03  0.17120000000E+03 0.  0.
         13    1    1    2    0    0 -0.11625005897E+02  0.16939867505E+01  0.20614380485E+02  0.23727077360E+02  0.10566000000E+00 0. -1.
        994    1    1    2    0    0  0.13798339373E+02 -0.66761123543E+00  0.37458303226E+01  0.17179729660E+03  0.17120000000E+03 0.  0.
        998    1    1    2    0    0 -0.21733334763E+01 -0.10263755151E+01  0.14756397855E+04  0.14756756260E+04  0.10000000000E+02 0. -1.
</event>
<event>
 5    1  0.1582292E-008  0.3818799E+03  0.7957747E-01  0.3443014E+00
         13   -1    0    0    0    0  0.00000000000E+00  0.00000000000E+00  0.14999999963E+04  0.15000000000E+04  0.10566000000E+00 0.  1.
        994   -1    0    0    0    0 -0.00000000000E+00 -0.00000000000E+00  0.11368683772E-12  0.17120000000E+03  0.17120000000E+03 0.  0.
         13    1    1    2    0    0  0.24683458564E+02  0.24954761611E+00  0.96797228782E+02  0.99895195403E+02  0.10566000000E+00 0.  1.
        994    1    1    2    0    0 -0.11334636237E+02  0.10761575104E+02  0.39991725308E+01  0.17195848004E+03  0.17120000000E+03 0.  0.
        998    1    1    2    0    0 -0.13348822327E+02 -0.11011122720E+02  0.13992035950E+04  0.13993463246E+04  0.10000000000E+02 0.  1.
</event>
<event>
 5    1  0.1582292E-008  0.3795995E+03  0.7957747E-01  0.3452904E+00
         13   -1    0    0    0    0  0.00000000000E+00  0.00000000000E+00  0.14999999963E+04  0.15000000000E+04  0.10566000000E+00 0.  1.
        994   -1    0    0    0    0 -0.00000000000E+00 -0.00000000000E+00  0.11368683772E-12  0.17120000000E+03  0.17120000000E+03 0.  0.
         13    1    1    2    0    0  0.52557623523E+01 -0.13721791826E+02  0.23199612249E+02  0.27461678415E+02  0.10566000000E+00 0.  1.
        994    1    1    2    0    0 -0.59829673247E+01  0.72007583242E+01  0.46289075172E+01  0.17151826026E+03  0.17120000000E+03 0.  0.
        998    1    1    2    0    0  0.72720497247E+00  0.65210335023E+01  0.14721714765E+04  0.14722200613E+04  0.10000000000E+02 0.  1.
</event>
<event>
 5    1  0.1582292E-008  0.3727204E+03  0.7957747E-01  0.3483481E+00
         13   -1    0    0    0    0  0.00000000000E+00  0.00000000000E+00  0.14999999963E+04  0.15000000000E+04  0.10566000000E+00 0.  1.
        994   -1    0    0    0    0 -0.00000000000E+00 -0.00000000000E+00  0.11368683772E-12  0.17120000000E+03  0.17120000000E+03 0.  0.
         13    1    1    2    0    0  0.98630083757E+01 -0.20406733840E+02  0.28914920141E+02  0.36739590240E+02  0.10566000000E+00 0.  1.
        994    1    1    2    0    0 -0.94205330747E+01  0.20927757523E+02  0.96604303277E+01  0.17300139130E+03  0.17120000000E+03 0.  0.
        998    1    1    2    0    0 -0.44247530100E+00 -0.52102368264E+00  0.14614246458E+04  0.14614590185E+04  0.10000000000E+02 0.  1.
</event>
<event>
 5    1  0.1582292E-008  0.3857249E+03  0.7957747E-01  0.3426604E+00
         13   -1    0    0    0    0  0.00000000000E+00  0.00000000000E+00  0.14999999963E+04  0.15000000000E+04  0.10566000000E+00 0. -1.
        994   -1    0    0    0    0 -0.00000000000E+00 -0.00000000000E+00  0.11368683772E-12  0.17120000000E+03  0.17120000000E+03 0.  0.
         13    1    1    2    0    0  0.10688762402E+02 -0.62207336919E+01  0.61800330762E+02  0.63025702818E+02  0.10566000000E+00 0. -1.
        994    1    1    2    0    0 -0.47356661436E+01  0.29077017734E+01  0.13719797374E+01  0.17129566133E+03  0.17120000000E+03 0.  0.
        998    1    1    2    0    0 -0.59530962582E+01  0.33130319184E+01  0.14368276858E+04  0.14368786358E+04  0.10000000000E+02 0. -1.
</event>
<event>
 5    1  0.1582292E-008  0.3815942E+03  0.7957747E-01  0.3444246E+00
         13   -1    0    0    0    0  0.00000000000E+00  0.00000000000E+00  0.14999999963E+04  0.15000000000E+04  0.10566000000E+00 0.  1.
        994   -1    0    0    0    0 -0.00000000000E+00 -0.00000000000E+00  0.11368683772E-12  0.17120000000E+03  0.17120000000E+03 0.  0.
         13    1    1    2    0    0 -0.14643943902E+02  0.16035268379E+02  0.68611113117E+02  0.71965762222E+02  0.10566000000E+00 0.  1.
        994    1    1    2    0    0  0.84335504958E+01 -0.15408131509E+02  0.43572203996E+01  0.17215388657E+03  0.17120000000E+03 0.  0.
        998    1    1    2    0    0  0.62103934066E+01 -0.62713686922E+00  0.14270316628E+04  0.14270803512E+04  0.10000000000E+02 0.  1.
</event>
<event>
 5    1  0.1582292E-008  0.3833113E+03  0.7957747E-01  0.3436866E+00
         13   -1    0    0    0    0  0.00000000000E+00  0.00000000000E+00  0.14999999963E+04  0.15000000000E+04  0.10566000000E+00 0.  1.
        994   -1    0    0    0    0 -0.00000000000E+00 -0.00000000000E+00  0.11368683772E-12  0.17120000000E+03  0.17120000000E+03 0.  0.
         13    1    1    2    0    0  0.21394759293E+02 -0.21408016236E+02  0.14513272128E+03  0.14825503983E+03  0.10566000000E+00 0.  1.
        994    1    1    2    0    0 -0.34326940153E+02  0.36380122324E+02  0.10788287371E+02  0.17868318126E+03  0.17120000000E+03 0.  0.
        998    1    1    2    0    0  0.12932180860E+02 -0.14972106088E+02  0.13440789876E+04  0.13442617789E+04  0.10000000000E+02 0.  1.
</event>
<event>
 5    1  0.1582292E-008  0.3741968E+03  0.7957747E-01  0.3476823E+00
         13   -1    0    0    0    0  0.00000000000E+00  0.00000000000E+00  0.14999999963E+04  0.15000000000E+04  0.10566000000E+00 0. -1.
        994   -1    0    0    0    0 -0.00000000000E+00 -0.00000000000E+00  0.11368683772E-12  0.17120000000E+03  0.17120000000E+03 0.  0.
         13    1    1    2    0    0  0.74592961176E+01  0.99588126805E+02  0.47005384789E+03  0.48054559324E+03  0.10566000000E+00 0. -1.
        994    1    1    2    0    0 -0.92369094555E+02 -0.10820929747E+03  0.79558804395E+02  0.23639023889E+03  0.17120000000E+03 0.  0.
        998    1    1    2    0    0  0.84909798437E+02  0.86211706652E+01  0.95038734399E+03  0.95426416787E+03  0.10000000000E+02 0.  1.
</event>
<event>
 5    1  0.1582292E-008  0.3833683E+03  0.7957747E-01  0.3436622E+00
         13   -1    0    0    0    0  0.00000000000E+00  0.00000000000E+00  0.14999999963E+04  0.15000000000E+04  0.10566000000E+00 0.  1.
        994   -1    0    0    0    0 -0.00000000000E+00 -0.00000000000E+00  0.11368683772E-12  0.17120000000E+03  0.17120000000E+03 0.  0.
         13    1    1    2    0    0 -0.14655644898E+02 -0.11255677574E+02  0.71397452346E+02  0.73750156411E+02  0.10566000000E+00 0.  1.
        994    1    1    2    0    0  0.52117026242E+01  0.37289294459E+01  0.25781898668E+01  0.17133929445E+03  0.17120000000E+03 0.  0.
        998    1    1    2    0    0  0.94439422738E+01  0.75267481284E+01  0.14260243541E+04  0.14261105491E+04  0.10000000000E+02 0.  1.
</event>
<event>
 5    1  0.2097924E-008  0.3852375E+03  0.7957747E-01  0.3428665E+00
         13   -1    0    0    0    0  0.00000000000E+00  0.00000000000E+00  0.14999999963E+04  0.15000000000E+04  0.10566000000E+00 0.  1.
        994   -1    0    0    0    0 -0.00000000000E+00 -0.00000000000E+00  0.11368683772E-12  0.17120000000E+03  0.17120000000E+03 0.  0.
         13    1    1    2    0    0 -0.12969361989E+02 -0.31587576148E+01  0.56715407588E+02  0.58265175894E+02  0.10566000000E+00 0.  1.
        994    1    1    2    0    0  0.14354292743E+02  0.64040405853E+01  0.23245295548E+01  0.17193574641E+03  0.17120000000E+03 0.  0.
        998    1    1    2    0    0 -0.13849307544E+01 -0.32452829705E+01  0.14409600591E+04  0.14409990777E+04  0.10000000000E+02 0.  1.
</event>
<event>
 5    1  0.1582292E-008  0.3716315E+03  0.7957747E-01  0.3488426E+00
         13   -1    0    0    0    0  0.00000000000E+00  0.00000000000E+00  0.14999999963E+04  0.15000000000E+04  0.10566000000E+00 0.  1.
        994   -1    0    0    0    0 -0.00000000000E+00 -0.00000000000E+00  0.11368683772E-12  0.17120000000E+03  0.17120000000E+03 0.  0.
         13    1    1    2    0    0 -0.17636443205E+02  0.15981838875E+02  0.29893602210E+02  0.38211280008E+02  0.10566000000E+00 0.  1.
        994    1    1    2    0    0  0.14511855334E+02 -0.14116966599E+02  0.98293729849E+01  0.17267292568E+03  0.17120000000E+03 0.  0.
        998    1    1    2    0    0  0.31245878711E+01 -0.18648722758E+01  0.14602770211E+04  0.14603157943E+04  0.10000000000E+02 0.  1.
</event>
<event>
 5    1  0.1582292E-008  0.3810745E+03  0.7957747E-01  0.3446493E+00
         13   -1    0    0    0    0  0.00000000000E+00  0.00000000000E+00  0.14999999963E+04  0.15000000000E+04  0.10566000000E+00 0.  1.
        994   -1    0    0    0    0 -0.00000000000E+00 -0.00000000000E+00  0.11368683772E-12  0.17120000000E+03  0.17120000000E+03 0.  0.
         13    1    1    2    0    0 -0.98708682804E+01  0.24935989326E+01  0.12883757306E+02  0.16421158382E+02  0.10566000000E+00 0.  1.
        994    1    1    2    0    0  0.63956514509E+01 -0.54374759081E+01  0.38264942645E+01  0.17144839620E+03  0.17120000000E+03 0.  0.
        998    1    1    2    0    0  0.34752168295E+01  0.29438769755E+01  0.14832897447E+04  0.14833304454E+04  0.10000000000E+02 0.  1.
</event>
<event>
 5    1  0.1582292E-008  0.3839553E+03  0.7957747E-01  0.3434115E+00
         13   -1    0    0    0    0  0.00000000000E+00  0.00000000000E+00  0.14999999963E+04  0.15000000000E+04  0.10566000000E+00 0. -1.
        994   -1    0    0    0    0 -0.00000000000E+00 -0.00000000000E+00  0.11368683772E-12  0.17120000000E+03  0.17120000000E+03 0.  0.
         13    1    1    2    0    0 -0.44950310580E+01 -0.94914817522E+01  0.26269611235E+02  0.28291291390E+02  0.10566000000E+00 0. -1.
        994    1    1    2    0    0 -0.11290125657E+02 -0.12972782184E+01  0.25760124649E+01  0.17159611216E+03  0.17120000000E+03 0.  0.
        998    1    1    2    0    0  0.15785156715E+02  0.10788759971E+02  0.14711543726E+04  0.14713125965E+04  0.10000000000E+02 0. -1.
</event>
<event>
 5    1  0.1582292E-008  0.3822746E+03  0.7957747E-01  0.3441314E+00
         13   -1    0    0    0    0  0.00000000000E+00  0.00000000000E+00  0.14999999963E+04  0.15000000000E+04  0.10566000000E+00 0.  1.
        994   -1    0    0    0    0 -0.00000000000E+00 -0.00000000000E+00  0.11368683772E-12  0.17120000000E+03  0.17120000000E+03 0.  0.
         13    1    1    2    0    0  0.23870123195E+02 -0.15013132741E+02  0.13151095560E+03  0.13450025853E+03  0.10566000000E+00 0.  1.
        994    1    1    2    0    0 -0.17374338979E+02  0.53473716694E+01  0.40865659197E+01  0.17221092317E+03  0.17120000000E+03 0.  0.
        998    1    1    2    0    0 -0.64957842164E+01  0.96657610717E+01  0.13644024748E+04  0.13644888183E+04  0.10000000000E+02 0. -1.
</event>
<event>
 5    1  0.1582292E-008  0.4258863E+03  0.7957747E-01  0.3272850E+00
         13   -1    0    0    0    0  0.00000000000E+00  0.00000000000E+00  0.14999999963E+04  0.15000000000E+04  0.10566000000E+00 0. -1.
        994   -1    0    0    0    0 -0.00000000000E+00 -0.00000000000E+00  0.11368683772E-12  0.17120000000E+03  0.17120000000E+03 0.  0.
         13    1    1    2    0    0  0.45342211943E+02 -0.88670880197E+02  0.10247301646E+03  0.14289566629E+03  0.10566000000E+00 0. -1.
        994    1    1    2    0    0  0.46836977930E+02  0.93138273152E+02  0.93850829679E+02  0.22132749187E+03  0.17120000000E+03 0.  0.
        998    1    1    2    0    0 -0.92179189873E+02 -0.44673929552E+01  0.13036761501E+04  0.13069768418E+04  0.10000000000E+02 0. -1.
</event>
<event>
 5    1  0.1582292E-008  0.2113247E+03  0.7957747E-01  0.4842991E+00
         13   -1    0    0    0    0  0.00000000000E+00  0.00000000000E+00  0.14999999963E+04  0.15000000000E+04  0.10566000000E+00 0.  1.
        994   -1    0    0    0    0 -0.00000000000E+00 -0.00000000000E+00  0.11368683772E-12  0.17120000000E+03  0.17120000000E+03 0.  0.
         13    1    1    2    0    0 -0.12980789402E+02 -0.44630110408E+02 -0.14155822643E+02  0.48587509993E+02  0.10566000000E+00 0.  1.
        994    1    1    2    0    0  0.15127585261E+02  0.45883981898E+02  0.91721952852E+02  0.20014130075E+03  0.17120000000E+03 0.  0.
        998    1    1    2    0    0 -0.21467958598E+01 -0.12538714901E+01  0.14224338661E+04  0.14224711893E+04  0.10000000000E+02 0.  1.
</event>
<event>
 5    1  0.1582292E-008  0.3830684E+03  0.7957747E-01  0.3437906E+00
         13   -1    0    0    0    0  0.00000000000E+00  0.00000000000E+00  0.14999999963E+04  0.15000000000E+04  0.10566000000E+00 0.  1.
        994   -1    0    0    0    0 -0.00000000000E+00 -0.00000000000E+00  0.11368683772E-12  0.17120000000E+03  0.17120000000E+03 0.  0.
         13    1    1    2    0    0 -0.19672909665E+02 -0.40552965660E+01  0.86367461967E+02  0.88672534957E+02  0.10566000000E+00 0.  1.
        994    1    1    2    0    0 -0.18688552096E+01 -0.19763214558E+02  0.38974282718E+01  0.17239114599E+03  0.17120000000E+03 0.  0.
        998    1    1    2    0    0  0.21541764875E+02  0.23818511124E+02  0.14097351060E+04  0.14101363191E+04  0.10000000000E+02 0.  1.
</event>
<event>
 5    1  0.1582292E-008  0.3816717E+03  0.7957747E-01  0.3443912E+00
         13   -1    0    0    0    0  0.00000000000E+00  0.00000000000E+00  0.14999999963E+04  0.15000000000E+04  0.10566000000E+00 0.  1.
        994   -1    0    0    0    0 -0.00000000000E+00 -0.00000000000E+00  0.11368683772E-12  0.17120000000E+03  0.17120000000E+03 0.  0.
         13    1    1    2    0    0  0.27029214573E+02 -0.51869079120E+01  0.11255828813E+03  0.11587433644E+03  0.10566000000E+00 0.  1.
        994    1    1    2    0    0 -0.15248874614E+02  0.22099509301E+02  0.56920883330E+01  0.17338614811E+03  0.17120000000E+03 0.  0.
        998    1    1    2    0    0 -0.11780339959E+02 -0.16912601389E+02  0.13817496198E+04  0.13819395154E+04  0.10000000000E+02 0.  1.
</event>
<event>
 5    1  0.1582292E-008  0.3717444E+03  0.7957747E-01  0.3487912E+00
         13   -1    0    0    0    0  0.00000000000E+00  0.00000000000E+00  0.14999999963E+04  0.15000000000E+04  0.10566000000E+00 0. -1.
        994   -1    0    0    0    0 -0.00000000000E+00 -0.00000000000E+00  0.11368683772E-12  0.17120000000E+03  0.17120000000E+03 0.  0.
         13    1    1    2    0    0  0.35726677036E+02 -0.90914220311E+01  0.75728301749E+02  0.84224914701E+02  0.10566000000E+00 0. -1.
        994    1    1    2    0    0 -0.30200345096E+02  0.14635756883E+02  0.12240958986E+02  0.17488724167E+03  0.17120000000E+03 0.  0.
        998    1    1    2    0    0 -0.55263319404E+01 -0.55443348521E+01  0.14120307355E+04  0.14120878436E+04  0.10000000000E+02 0. -1.
</event>
<event>
 5    1  0.1582292E-008  0.3829947E+03  0.7957747E-01  0.3438221E+00
         13   -1    0    0    0    0  0.00000000000E+00  0.00000000000E+00  0.14999999963E+04  0.15000000000E+04  0.10566000000E+00 0. -1.
        994   -1    0    0    0    0 -0.00000000000E+00 -0.00000000000E+00  0.11368683772E-12  0.17120000000E+03  0.17120000000E+03 0.  0.
         13    1    1    2    0    0 -0.28287495615E+02  0.16969630296E+02  0.17064772428E+03  0.17380681151E+03  0.10566000000E+00 0. -1.
        994    1    1    2    0    0  0.45154480681E+02 -0.88257244990E+01  0.96678389779E+01  0.17753796115E+03  0.17120000000E+03 0.  0.
        998    1    1    2    0    0 -0.16866985066E+02 -0.81439057974E+01  0.13196844330E+04  0.13198552273E+04  0.10000000000E+02 0. -1.
</event>
<event>
 5    1  0.1582292E-008  0.3788335E+03  0.7957747E-01  0.3456253E+00
         13   -1    0    0    0    0  0.00000000000E+00  0.00000000000E+00  0.14999999963E+04  0.15000000000E+04  0.10566000000E+00 0.  1.
        994   -1    0    0    0    0 -0.00000000000E+00 -0.00000000000E+00  0.11368683772E-12  0.17120000000E+03  0.17120000000E+03 0.  0.
         13    1    1    2    0    0  0.57585407009E+01  0.50925969612E+02  0.22254774616E+03  0.22837277783E+03  0.10566000000E+00 0.  1.
        994    1    1    2    0    0 -0.14237359655E+02 -0.58550832387E+02  0.17006006308E+02  0.18228973266E+03  0.17120000000E+03 0.  0.
        998    1    1    2    0    0  0.84788189540E+01  0.76248627753E+01  0.12604462438E+04  0.12605374895E+04  0.10000000000E+02 0.  1.
</event>
<event>
 5    1  0.1582292E-008  0.3742400E+03  0.7957747E-01  0.3476629E+00
         13   -1    0    0    0    0  0.00000000000E+00  0.00000000000E+00  0.14999999963E+04  0.15000000000E+04  0.10566000000E+00 0.  1.
        994   -1    0    0    0    0 -0.00000000000E+00 -0.00000000000E+00  0.11368683772E-12  0.17120000000E+03  0.17120000000E+03 0.  0.
         13    1    1    2    0    0 -0.10911780225E+03 -0.31202617902E+02  0.68439157240E+03  0.69373779894E+03  0.10566000000E+00 0.  1.
        994    1    1    2    0    0  0.65619578801E+02 -0.55139089126E+02  0.39750314516E+02  0.19553970383E+03  0.17120000000E+03 0.  0.
        998    1    1    2    0    0  0.43498223445E+02  0.86341707028E+02  0.77585810936E+03  0.78192249723E+03  0.10000000000E+02 0. -1.
</event>
<event>
 5    1  0.1582292E-008  0.3829989E+03  0.7957747E-01  0.3438204E+00
         13   -1    0    0    0    0  0.00000000000E+00  0.00000000000E+00  0.14999999963E+04  0.15000000000E+04  0.10566000000E+00 0. -1.
        994   -1    0    0    0    0 -0.00000000000E+00 -0.00000000000E+00  0.11368683772E-12  0.17120000000E+03  0.17120000000E+03 0.  0.
         13    1    1    2    0    0  0.19693958673E+02 -0.11427699586E+02  0.11196691962E+03  0.11425868273E+03  0.10566000000E+00 0. -1.
        994    1    1    2    0    0 -0.19291516934E+01 -0.13922018150E+02  0.32810998925E+01  0.17180730436E+03  0.17120000000E+03 0.  0.
        998    1    1    2    0    0 -0.17764806980E+02  0.25349717735E+02  0.13847519768E+04  0.13851340129E+04  0.10000000000E+02 0. -1.
</event>
<event>
 5    1  0.1582292E-008  0.3825817E+03  0.7957747E-01  0.3439994E+00
         13   -1    0    0    0    0  0.00000000000E+00  0.00000000000E+00  0.14999999963E+04  0.15000000000E+04  0.10566000000E+00 0. -1.
        994   -1    0    0    0    0 -0.00000000000E+00 -0.00000000000E+00  0.11368683772E-12  0.17120000000E+03  0.17120000000E+03 0.  0.
         13    1    1    2    0    0  0.13519839791E+02  0.58218386508E+01  0.39517156564E+02  0.42169855349E+02  0.10566000000E+00 0. -1.
        994    1    1    2    0    0  0.50316538358E+01  0.99957372806E+00  0.29227897348E+01  0.17130177871E+03  0.17120000000E+03 0.  0.
        998    1    1    2    0    0 -0.18551493627E+02 -0.68214123788E+01  0.14575600500E+04  0.14577283659E+04  0.10000000000E+02 0. -1.
</event>
<event>
 5    1  0.1582292E-008  0.3819420E+03  0.7957747E-01  0.3442746E+00
         13   -1    0    0    0    0  0.00000000000E+00  0.00000000000E+00  0.14999999963E+04  0.15000000000E+04  0.10566000000E+00 0.  1.
        994   -1    0    0    0    0 -0.00000000000E+00 -0.00000000000E+00  0.11368683772E-12  0.17120000000E+03  0.17120000000E+03 0.  0.
         13    1    1    2    0    0 -0.12784062840E+02  0.13258972508E+02  0.55103998598E+02  0.58100726676E+02  0.10566000000E+00 0.  1.
        994    1    1    2    0    0 -0.14427165545E+00 -0.25466138537E+01  0.31776478356E+01  0.17124848467E+03  0.17120000000E+03 0.  0.
        998    1    1    2    0    0  0.12928334496E+02 -0.10712358654E+02  0.14417183498E+04  0.14418507887E+04  0.10000000000E+02 0.  1.
</event>
<event>
 5    1  0.1582292E-008  0.3873928E+03  0.7957747E-01  0.3419587E+00
         13   -1    0    0    0    0  0.00000000000E+00  0.00000000000E+00  0.14999999963E+04  0.15000000000E+04  0.10566000000E+00 0.  1.
        994   -1    0    0    0    0 -0.00000000000E+00 -0.00000000000E+00  0.11368683772E-12  0.17120000000E+03  0.17120000000E+03 0.  0.
         13    1    1    2    0    0 -0.11180355932E+02 -0.57248811282E+02  0.63850617329E+02  0.86483173214E+02  0.10566000000E+00 0.  1.
        994    1    1    2    0    0  0.11517520472E+03  0.74301005152E+02  0.94338095513E+02  0.23873643085E+03  0.17120000000E+03 0.  0.
        998    1    1    2    0    0 -0.10399484879E+03 -0.17052193871E+02  0.13418112834E+04  0.13459803959E+04  0.10000000000E+02 0.  1.
</event>
<event>
 5    1  0.1582292E-008  0.3819301E+03  0.7957747E-01  0.3442797E+00
         13   -1    0    0    0    0  0.00000000000E+00  0.00000000000E+00  0.14999999963E+04  0.15000000000E+04  0.10566000000E+00 0. -1.
        994   -1    0    0    0    0 -0.00000000000E+00 -0.00000000000E+00  0.11368683772E-12  0.17120000000E+03  0.17120000000E+03 0.  0.
         13    1    1    2    0    0 -0.12931199081E+02  0.40036888359E+01  0.28076903206E+02  0.31170003074E+02  0.10566000000E+00 0. -1.
        994    1    1    2    0    0  0.30534968303E+01 -0.10949197198E+02  0.35913257582E+01  0.17161452847E+03  0.17120000000E+03 0.  0.
        998    1    1    2    0    0  0.98777022506E+01  0.69455083622E+01  0.14683317673E+04  0.14684154685E+04  0.10000000000E+02 0. -1.
</event>
<event>
 5    1  0.1582292E-008  0.3826364E+03  0.7957747E-01  0.3439759E+00
         13   -1    0    0    0    0  0.00000000000E+00  0.00000000000E+00  0.14999999963E+04  0.15000000000E+04  0.10566000000E+00 0.  1.
        994   -1    0    0    0    0 -0.00000000000E+00 -0.00000000000E+00  0.11368683772E-12  0.17120000000E+03  0.17120000000E+03 0.  0.
         13    1    1    2    0    0 -0.36747900541E+01 -0.13891072815E+02  0.35111257110E+02  0.37937811294E+02  0.10566000000E+00 0.  1.
        994    1    1    2    0    0  0.33556209731E+01  0.14556729306E+02  0.35480875695E+01  0.17188713589E+03  0.17120000000E+03 0.  0.
        998    1    1    2    0    0  0.31916908099E+00 -0.66565649165E+00  0.14613406516E+04  0.14613750528E+04  0.10000000000E+02 0.  1.
</event>
<event>
 5    1  0.1582292E-008  0.3797618E+03  0.7957747E-01  0.3452196E+00
         13   -1    0    0    0    0  0.00000000000E+00  0.00000000000E+00  0.14999999963E+04  0.15000000000E+04  0.10566000000E+00 0.  1.
        994   -1    0    0    0    0 -0.00000000000E+00 -0.00000000000E+00  0.11368683772E-12  0.17120000000E+03  0.17120000000E+03 0.  0.
         13    1    1    2    0    0  0.48445744876E+02  0.28696414596E+02  0.29919992218E+03  0.30445209641E+03  0.10566000000E+00 0.  1.
        994    1    1    2    0    0 -0.48129421661E+02 -0.29209215921E+02  0.14931450521E+02  0.18083696453E+03  0.17120000000E+03 0.  0.
        998    1    1    2    0    0 -0.31632321546E+00  0.51280132501E+00  0.11858686236E+04  0.11859109391E+04  0.10000000000E+02 0.  0.
</event>
<event>
 5    1  0.1582292E-008  0.3832262E+03  0.7957747E-01  0.3437230E+00
         13   -1    0    0    0    0  0.00000000000E+00  0.00000000000E+00  0.14999999963E+04  0.15000000000E+04  0.10566000000E+00 0. -1.
        994   -1    0    0    0    0 -0.00000000000E+00 -0.00000000000E+00  0.11368683772E-12  0.17120000000E+03  0.17120000000E+03 0.  0.
         13    1    1    2    0    0  0.17305847547E+02 -0.20145052665E+02  0.14361270339E+03  0.14604771564E+03  0.10566000000E+00 0. -1.
        994    1    1    2    0    0 -0.79331801123E+01  0.94602661271E+01  0.30177165805E+01  0.17167113501E+03  0.17120000000E+03 0.  0.
        998    1    1    2    0    0 -0.93726674343E+01  0.10684786538E+02  0.13533695763E+04  0.13534811493E+04  0.10000000000E+02 0. -1.
</event>
<event>
 5    1  0.1582292E-008  0.3828956E+03  0.7957747E-01  0.3438647E+00
         13   -1    0    0    0    0  0.00000000000E+00  0.00000000000E+00  0.14999999963E+04  0.15000000000E+04  0.10566000000E+00 0. -1.
        994   -1    0    0    0    0 -0.00000000000E+00 -0.00000000000E+00  0.11368683772E-12  0.17120000000E+03  0.17120000000E+03 0.  0.
         13    1    1    2    0    0 -0.11386045516E+02  0.15213604366E+02  0.69792269438E+02  0.72333034138E+02  0.10566000000E+00 0. -1.
        994    1    1    2    0    0 -0.46923306260E+01 -0.77885504319E+01  0.29523830334E+01  0.17146671995E+03  0.17120000000E+03 0.  0.
        998    1    1    2    0    0  0.16078376142E+02 -0.74250539342E+01  0.14272553438E+04  0.14274002459E+04  0.10000000000E+02 0. -1.
</event>
<event>
 5    1  0.1582292E-008  0.3823828E+03  0.7957747E-01  0.3440848E+00
         13   -1    0    0    0    0  0.00000000000E+00  0.00000000000E+00  0.14999999963E+04  0.15000000000E+04  0.10566000000E+00 0. -1.
        994   -1    0    0    0    0 -0.00000000000E+00 -0.00000000000E+00  0.11368683772E-12  0.17120000000E+03  0.17120000000E+03 0.  0.
         13    1    1    2    0    0  0.59414031387E+01 -0.10843185172E+02  0.24797061119E+02  0.27708849491E+02  0.10566000000E+00 0. -1.
        994    1    1    2    0    0 -0.72801136195E+01  0.79163187692E+01  0.33188595183E+01  0.17156958642E+03  0.17120000000E+03 0.  0.
        998    1    1    2    0    0  0.13387104808E+01  0.29268664026E+01  0.14718840756E+04  0.14719215641E+04  0.10000000000E+02 0. -1.
</event>
<event>
 5    1  0.1582292E-008  0.3824674E+03  0.7957747E-01  0.3440485E+00
         13   -1    0    0    0    0  0.00000000000E+00  0.00000000000E+00  0.14999999963E+04  0.15000000000E+04  0.10566000000E+00 0.  1.
        994   -1    0    0    0    0 -0.00000000000E+00 -0.00000000000E+00  0.11368683772E-12  0.17120000000E+03  0.17120000000E+03 0.  0.
         13    1    1    2    0    0  0.11383146607E+02  0.47589872307E+01  0.26410027489E+02  0.29150037772E+02  0.10566000000E+00 0.  1.
        994    1    1    2    0    0  0.57654307618E+01 -0.63143227476E+00  0.30043379597E+01  0.17132456025E+03  0.17120000000E+03 0.  0.
        998    1    1    2    0    0 -0.17148577369E+02 -0.41275549560E+01  0.14705856308E+04  0.14707254020E+04  0.10000000000E+02 0.  1.
</event>
<event>
 5    1  0.1582292E-008  0.3847601E+03  0.7957747E-01  0.3430690E+00
         13   -1    0    0    0    0  0.00000000000E+00  0.00000000000E+00  0.14999999963E+04  0.15000000000E+04  0.10566000000E+00 0. -1.
        994   -1    0    0    0    0 -0.00000000000E+00 -0.00000000000E+00  0.11368683772E-12  0.17120000000E+03  0.17120000000E+03 0.  0.
         13    1    1    2    0    0  0.10349822410E+02  0.13368772534E+02  0.76729183335E+02  0.78569851993E+02  0.10566000000E+00 0. -1.
        994    1    1    2    0    0 -0.13501889756E+02 -0.15278601944E+02  0.31187688627E+01  0.17243811476E+03  0.17120000000E+03 0.  0.
        998    1    1    2    0    0  0.31520673458E+01  0.19098294097E+01  0.14201520441E+04  0.14201920332E+04  0.10000000000E+02 0. -1.
</event>
<event>
 5    1  0.1582292E-008  0.3849874E+03  0.7957747E-01  0.3429726E+00
         13   -1    0    0    0    0  0.00000000000E+00  0.00000000000E+00  0.14999999963E+04  0.15000000000E+04  0.10566000000E+00 0.  1.
        994   -1    0    0    0    0 -0.00000000000E+00 -0.00000000000E+00  0.11368683772E-12  0.17120000000E+03  0.17120000000E+03 0.  0.
         13    1    1    2    0    0 -0.34976200779E+01 -0.13703663378E+02  0.58240161453E+02  0.59932890021E+02  0.10566000000E+00 0.  1.
        994    1    1    2    0    0 -0.26332106412E+01  0.18740913172E+02  0.28151926872E+01  0.17226584378E+03  0.17120000000E+03 0.  0.
        998    1    1    2    0    0  0.61308307191E+01 -0.50372497947E+01  0.14389446421E+04  0.14390012662E+04  0.10000000000E+02 0.  1.
</event>
<event>
 5    1  0.1582292E-008  0.3700345E+03  0.7957747E-01  0.3495732E+00
         13   -1    0    0    0    0  0.00000000000E+00  0.00000000000E+00  0.14999999963E+04  0.15000000000E+04  0.10566000000E+00 0.  1.
        994   -1    0    0    0    0 -0.00000000000E+00 -0.00000000000E+00  0.11368683772E-12  0.17120000000E+03  0.17120000000E+03 0.  0.
         13    1    1    2    0    0 -0.56332289848E+02  0.17456334747E+02  0.15890164906E+03  0.16949276014E+03  0.10566000000E+00 0.  1.
        994    1    1    2    0    0  0.71407824570E+02 -0.19436982932E+00  0.27092486783E+02  0.18746348452E+03  0.17120000000E+03 0.  0.
        998    1    1    2    0    0 -0.15075534722E+02 -0.17261964918E+02  0.13140058604E+04  0.13142437553E+04  0.10000000000E+02 0.  1.
</event>
<event>
 5    1  0.1582292E-008  0.3858495E+03  0.7957747E-01  0.3426077E+00
         13   -1    0    0    0    0  0.00000000000E+00  0.00000000000E+00  0.14999999963E+04  0.15000000000E+04  0.10566000000E+00 0. -1.
        994   -1    0    0    0    0 -0.00000000000E+00 -0.00000000000E+00  0.11368683772E-12  0.17120000000E+03  0.17120000000E+03 0.  0.
         13    1    1    2    0    0 -0.11773582681E+02 -0.16296845015E+01  0.59832958649E+02  0.61002190333E+02  0.10566000000E+00 0. -1.
        994    1    1    2    0    0  0.51429937664E+01  0.62062950634E+01  0.14220761980E+01  0.17139553899E+03  0.17120000000E+03 0.  0.
        998    1    1    2    0    0  0.66305889145E+01 -0.45766105619E+01  0.14387449614E+04  0.14388022707E+04  0.10000000000E+02 0. -1.
</event>
<event>
 5    1  0.1582292E-008  0.3696180E+03  0.7957747E-01  0.3497648E+00
         13   -1    0    0    0    0  0.00000000000E+00  0.00000000000E+00  0.14999999963E+04  0.15000000000E+04  0.10566000000E+00 0. -1.
        994   -1    0    0    0    0 -0.00000000000E+00 -0.00000000000E+00  0.11368683772E-12  0.17120000000E+03  0.17120000000E+03 0.  0.
         13    1    1    2    0    0  0.25886426139E+02  0.63131547311E+02  0.25340658473E+03  0.26243210107E+03  0.10566000000E+00 0. -1.
        994    1    1    2    0    0 -0.27182196766E+01 -0.34141243928E+02  0.13540931272E+02  0.17511656140E+03  0.17120000000E+03 0.  0.
        998    1    1    2    0    0 -0.23168206463E+02 -0.28990303383E+02  0.12330524803E+04  0.12336513375E+04  0.10000000000E+02 0. -1.
</event>
<event>
 5    1  0.1582292E-008  0.3780646E+03  0.7957747E-01  0.3459629E+00
         13   -1    0    0    0    0  0.00000000000E+00  0.00000000000E+00  0.14999999963E+04  0.15000000000E+04  0.10566000000E+00 0.  1.
        994   -1    0    0    0    0 -0.00000000000E+00 -0.00000000000E+00  0.11368683772E-12  0.17120000000E+03  0.17120000000E+03 0.  0.
         13    1    1    2    0    0 -0.47223313804E+01  0.15116243165E+02  0.22479817995E+02  0.27498265440E+02  0.10566000000E+00 0.  1.
        994    1    1    2    0    0  0.79188274913E+01 -0.72687588649E+01  0.55021346530E+01  0.17162533662E+03  0.17120000000E+03 0.  0.
        998    1    1    2    0    0 -0.31964961109E+01 -0.78474842999E+01  0.14720180436E+04  0.14720763979E+04  0.10000000000E+02 0.  1.
</event>
<event>
 5    1  0.1582292E-008  0.3808908E+03  0.7957747E-01  0.3447289E+00
         13   -1    0    0    0    0  0.00000000000E+00  0.00000000000E+00  0.14999999963E+04  0.15000000000E+04  0.10566000000E+00 0. -1.
        994   -1    0    0    0    0 -0.00000000000E+00 -0.00000000000E+00  0.11368683772E-12  0.17120000000E+03  0.17120000000E+03 0.  0.
         13    1    1    2    0    0  0.15242279954E+02  0.24382638254E+02  0.12497334815E+03  0.12823879701E+03  0.10566000000E+00 0. -1.
        994    1    1    2    0    0  0.89898899330E+01 -0.34271252490E+01  0.39927472391E+01  0.17151660368E+03  0.17120000000E+03 0.  0.
        998    1    1    2    0    0 -0.24232169887E+02 -0.20955513005E+02  0.13710339009E+04  0.13714445993E+04  0.10000000000E+02 0. -1.
</event>
<event>
 5    1  0.1582292E-008  0.3844310E+03  0.7957747E-01  0.3432089E+00
         13   -1    0    0    0    0  0.00000000000E+00  0.00000000000E+00  0.14999999963E+04  0.15000000000E+04  0.10566000000E+00 0. -1.
        994   -1    0    0    0    0 -0.00000000000E+00 -0.00000000000E+00  0.11368683772E-12  0.17120000000E+03  0.17120000000E+03 0.  0.
         13    1    1    2    0    0 -0.14413053587E+02  0.12695728949E+02  0.10655504399E+03  0.10827237049E+03  0.10566000000E+00 0. -1.
        994    1    1    2    0    0  0.89518846028E+00  0.27949255151E+01  0.19412832679E+01  0.17123615726E+03  0.17120000000E+03 0.  0.
        998    1    1    2    0    0  0.13517865127E+02 -0.15490654464E+02  0.13915036690E+04  0.13916914723E+04  0.10000000000E+02 0. -1.
</event>
<event>
 5    1  0.1582292E-008  0.3743001E+03  0.7957747E-01  0.3476359E+00
         13   -1    0    0    0    0  0.00000000000E+00  0.00000000000E+00  0.14999999963E+04  0.15000000000E+04  0.10566000000E+00 0.  1.
        994   -1    0    0    0    0 -0.00000000000E+00 -0.00000000000E+00  0.11368683772E-12  0.17120000000E+03  0.17120000000E+03 0.  0.
         13    1    1    2    0    0 -0.51533009159E+02 -0.28540086519E+02  0.19606331055E+03  0.20472181242E+03  0.10566000000E+00 0.  1.
        994    1    1    2    0    0  0.59593201866E+02  0.43124086262E+02  0.25705219857E+02  0.18809900280E+03  0.17120000000E+03 0.  0.
        998    1    1    2    0    0 -0.80601927073E+01 -0.14583999744E+02  0.12782314659E+04  0.12783791848E+04  0.10000000000E+02 0.  1.
</event>
<event>
 5    1  0.1582292E-008  0.3780451E+03  0.7957747E-01  0.3459715E+00
         13   -1    0    0    0    0  0.00000000000E+00  0.00000000000E+00  0.14999999963E+04  0.15000000000E+04  0.10566000000E+00 0. -1.
        994   -1    0    0    0    0 -0.00000000000E+00 -0.00000000000E+00  0.11368683772E-12  0.17120000000E+03  0.17120000000E+03 0.  0.
         13    1    1    2    0    0 -0.81396892949E+02 -0.60552109400E+02  0.54649501957E+03  0.55583165591E+03  0.10566000000E+00 0. -1.
        994    1    1    2    0    0 -0.56904734828E+01  0.12536236202E+02  0.15939812191E+02  0.17249074271E+03  0.17120000000E+03 0.  0.
        998    1    1    2    0    0  0.87087366432E+02  0.48015873198E+02  0.93756516452E+03  0.94287760139E+03  0.10000000000E+02 0. -1.
</event>
<event>
 5    1  0.1582292E-008  0.3746547E+03  0.7957747E-01  0.3474768E+00
         13   -1    0    0    0    0  0.00000000000E+00  0.00000000000E+00  0.14999999963E+04  0.15000000000E+04  0.10566000000E+00 0.  1.
        994   -1    0    0    0    0 -0.00000000000E+00 -0.00000000000E+00  0.11368683772E-12  0.17120000000E+03  0.17120000000E+03 0.  0.
         13    1    1    2    0    0  0.60358728279E+02  0.11744071368E+02  0.23706505351E+03  0.24491008565E+03  0.10566000000E+00 0.  1.
        994    1    1    2    0    0 -0.57172366748E+02 -0.86168837571E+01  0.18319084526E+02  0.18162587663E+03  0.17120000000E+03 0.  0.
        998    1    1    2    0    0 -0.31863615313E+01 -0.31271876110E+01  0.12446158582E+04  0.12446640377E+04  0.10000000000E+02 0.  1.
</event>
<event>
 5    1  0.1582292E-008  0.3849120E+03  0.7957747E-01  0.3430045E+00
         13   -1    0    0    0    0  0.00000000000E+00  0.00000000000E+00  0.14999999963E+04  0.15000000000E+04  0.10566000000E+00 0. -1.
        994   -1    0    0    0    0 -0.00000000000E+00 -0.00000000000E+00  0.11368683772E-12  0.17120000000E+03  0.17120000000E+03 0.  0.
         13    1    1    2    0    0  0.15327012832E+02 -0.79108602075E+01  0.91421977297E+02  0.93034875872E+02  0.10566000000E+00 0. -1.
        994    1    1    2    0    0 -0.84583866373E+01 -0.40990321308E+00  0.19097675767E+01  0.17141995081E+03  0.17120000000E+03 0.  0.
        998    1    1    2    0    0 -0.68686261943E+01  0.83207634206E+01  0.14066682514E+04  0.14067451733E+04  0.10000000000E+02 0. -1.
</event>
<event>
 5    1  0.1582292E-008  0.3711377E+03  0.7957747E-01  0.3490678E+00
         13   -1    0    0    0    0  0.00000000000E+00  0.00000000000E+00  0.14999999963E+04  0.15000000000E+04  0.10566000000E+00 0. -1.
        994   -1    0    0    0    0 -0.00000000000E+00 -0.00000000000E+00  0.11368683772E-12  0.17120000000E+03  0.17120000000E+03 0.  0.
         13    1    1    2    0    0  0.11771517775E+01  0.17666259994E+02  0.14264462717E+02  0.22736941068E+02  0.10566000000E+00 0. -1.
        994    1    1    2    0    0 -0.14374922291E+01 -0.12790650745E+02  0.92463823205E+01  0.17193197119E+03  0.17120000000E+03 0.  0.
        998    1    1    2    0    0  0.26034045169E+00 -0.48756092490E+01  0.14764891512E+04  0.14765310877E+04  0.10000000000E+02 0. -1.
</event>
<event>
 5    1  0.1582292E-008  0.3811499E+03  0.7957747E-01  0.3446167E+00
         13   -1    0    0    0    0  0.00000000000E+00  0.00000000000E+00  0.14999999963E+04  0.15000000000E+04  0.10566000000E+00 0. -1.
        994   -1    0    0    0    0 -0.00000000000E+00 -0.00000000000E+00  0.11368683772E-12  0.17120000000E+03  0.17120000000E+03 0.  0.
         13    1    1    2    0    0  0.32795364852E+01  0.28380753821E+02  0.12306944248E+03  0.12634208081E+03  0.10566000000E+00 0. -1.
        994    1    1    2    0    0 -0.24364733600E+01 -0.40634272451E+01  0.36285567508E+01  0.17130398205E+03  0.17120000000E+03 0.  0.
        998    1    1    2    0    0 -0.84306312515E+00 -0.24317326576E+02  0.13733019970E+04  0.13735539371E+04  0.10000000000E+02 0. -1.
</event>
<event>
 5    1  0.1582292E-008  0.3796303E+03  0.7957747E-01  0.3452770E+00
         13   -1    0    0    0    0  0.00000000000E+00  0.00000000000E+00  0.14999999963E+04  0.15000000000E+04  0.10566000000E+00 0. -1.
        994   -1    0    0    0    0 -0.00000000000E+00 -0.00000000000E+00  0.11368683772E-12  0.17120000000E+03  0.17120000000E+03 0.  0.
         13    1    1    2    0    0  0.73310609446E+01  0.97747523519E+01  0.15338300326E+02  0.19610325317E+02  0.10566000000E+00 0. -1.
        994    1    1    2    0    0 -0.68860926263E+01 -0.84950329256E+01  0.47202502661E+01  0.17161382409E+03  0.17120000000E+03 0.  0.
        998    1    1    2    0    0 -0.44496831824E+00 -0.12797194263E+01  0.14799414457E+04  0.14799758506E+04  0.10000000000E+02 0. -1.
</event>
<event>
 5    1  0.1582292E-008  0.3859016E+03  0.7957747E-01  0.3425857E+00
         13   -1    0    0    0    0  0.00000000000E+00  0.00000000000E+00  0.14999999963E+04  0.15000000000E+04  0.10566000000E+00 0.  1.
        994   -1    0    0    0    0 -0.00000000000E+00 -0.00000000000E+00  0.11368683772E-12  0.17120000000E+03  0.17120000000E+03 0.  0.
         13    1    1    2    0    0 -0.94769798328E+00 -0.11631782459E+02  0.59407079302E+02  0.60542619119E+02  0.10566000000E+00 0.  1.
        994    1    1    2    0    0  0.85169968495E+00  0.47302485443E+01  0.12589031982E+01  0.17127208027E+03  0.17120000000E+03 0.  0.
        998    1    1    2    0    0  0.95998298329E-01  0.69015339143E+01  0.14393340138E+04  0.14393853006E+04  0.10000000000E+02 0.  1.
</event>
<event>
 5    1  0.1582292E-008  0.3685531E+03  0.7957747E-01  0.3502567E+00
         13   -1    0    0    0    0  0.00000000000E+00  0.00000000000E+00  0.14999999963E+04  0.15000000000E+04  0.10566000000E+00 0.  1.
        994   -1    0    0    0    0 -0.00000000000E+00 -0.00000000000E+00  0.11368683772E-12  0.17120000000E+03  0.17120000000E+03 0.  0.
         13    1    1    2    0    0 -0.48800200070E+02  0.17143325150E+02  0.13979204887E+03  0.14905428949E+03  0.10566000000E+00 0.  1.
        994    1    1    2    0    0  0.97950611712E+01 -0.16346008314E+02  0.11290233405E+02  0.17262689414E+03  0.17120000000E+03 0.  0.
        998    1    1    2    0    0  0.39005138899E+02 -0.79731683651E+00  0.13489177140E+04  0.13495188164E+04  0.10000000000E+02 0.  1.
</event>
<event>
 5    1  0.1582292E-008  0.3792020E+03  0.7957747E-01  0.3454641E+00
         13   -1    0    0    0    0  0.00000000000E+00  0.00000000000E+00  0.14999999963E+04  0.15000000000E+04  0.10566000000E+00 0.  1.
        994   -1    0    0    0    0 -0.00000000000E+00 -0.00000000000E+00  0.11368683772E-12  0.17120000000E+03  0.17120000000E+03 0.  0.
         13    1    1    2    0    0  0.77570837521E+01 -0.77961137990E+01  0.11245491203E+02  0.15729716308E+02  0.10566000000E+00 0.  1.
        994    1    1    2    0    0 -0.84914361612E+01  0.70518534328E+01  0.49449920032E+01  0.17162670559E+03  0.17120000000E+03 0.  0.
        998    1    1    2    0    0  0.73435240912E+00  0.74426036620E+00  0.14838095131E+04  0.14838435781E+04  0.10000000000E+02 0.  1.
</event>
<event>
 5    1  0.1582292E-008  0.3835909E+03  0.7957747E-01  0.3435670E+00
         13   -1    0    0    0    0  0.00000000000E+00  0.00000000000E+00  0.14999999963E+04  0.15000000000E+04  0.10566000000E+00 0.  1.
        994   -1    0    0    0    0 -0.00000000000E+00 -0.00000000000E+00  0.11368683772E-12  0.17120000000E+03  0.17120000000E+03 0.  0.
         13    1    1    2    0    0 -0.46258162697E+01  0.91381557142E+01  0.21881389816E+02  0.24160100379E+02  0.10566000000E+00 0.  1.
        994    1    1    2    0    0  0.43726113332E+01 -0.30603678125E+01  0.24254720744E+01  0.17130034587E+03  0.17120000000E+03 0.  0.
        998    1    1    2    0    0  0.25320493652E+00 -0.60777879016E+01  0.14756931344E+04  0.14757395537E+04  0.10000000000E+02 0.  1.
</event>
<event>
 5    1  0.1582292E-008  0.3323052E+03  0.7957747E-01  0.3689359E+00
         13   -1    0    0    0    0  0.00000000000E+00  0.00000000000E+00  0.14999999963E+04  0.15000000000E+04  0.10566000000E+00 0.  1.
        994   -1    0    0    0    0 -0.00000000000E+00 -0.00000000000E+00  0.11368683772E-12  0.17120000000E+03  0.17120000000E+03 0.  0.
         13    1    1    2    0    0 -0.16748189477E+03  0.68041641039E+02  0.98158694558E+03  0.99809458113E+03  0.10566000000E+00 0.  1.
        994    1    1    2    0    0  0.17769059795E+03  0.16590339123E+02  0.13814498500E+03  0.28327136253E+03  0.17120000000E+03 0.  0.
        998    1    1    2    0    0 -0.10208703177E+02 -0.84631980162E+02  0.38026806570E+03  0.38983405634E+03  0.10000000000E+02 0.  1.
</event>
<event>
 5    1  0.1582292E-008  0.3851029E+03  0.7957747E-01  0.3429236E+00
         13   -1    0    0    0    0  0.00000000000E+00  0.00000000000E+00  0.14999999963E+04  0.15000000000E+04  0.10566000000E+00 0. -1.
        994   -1    0    0    0    0 -0.00000000000E+00 -0.00000000000E+00  0.11368683772E-12  0.17120000000E+03  0.17120000000E+03 0.  0.
         13    1    1    2    0    0  0.14347451806E+02  0.97320469801E+00  0.61086316586E+02  0.62756240636E+02  0.10566000000E+00 0. -1.
        994    1    1    2    0    0 -0.20428897361E+02 -0.95720744859E+01  0.32540999331E+01  0.17271072238E+03  0.17120000000E+03 0.  0.
        998    1    1    2    0    0  0.60814455548E+01  0.85988697879E+01  0.14356595798E+04  0.14357330370E+04  0.10000000000E+02 0. -1.
</event>
<event>
 5    1  0.1582292E-008  0.3811800E+03  0.7957747E-01  0.3446036E+00
         13   -1    0    0    0    0  0.00000000000E+00  0.00000000000E+00  0.14999999963E+04  0.15000000000E+04  0.10566000000E+00 0.  1.
        994   -1    0    0    0    0 -0.00000000000E+00 -0.00000000000E+00  0.11368683772E-12  0.17120000000E+03  0.17120000000E+03 0.  0.
         13    1    1    2    0    0 -0.62483778002E+01  0.22083519996E+02  0.71339453965E+02  0.74940329173E+02  0.10566000000E+00 0.  1.
        994    1    1    2    0    0  0.17054453160E+02 -0.16076990956E+02  0.53700025783E+01  0.17288030813E+03  0.17120000000E+03 0.  0.
        998    1    1    2    0    0 -0.10806075360E+02 -0.60065290403E+01  0.14232905397E+04  0.14233793627E+04  0.10000000000E+02 0.  1.
</event>
<event>
 5    1  0.1582292E-008  0.3699920E+03  0.7957747E-01  0.3495927E+00
         13   -1    0    0    0    0  0.00000000000E+00  0.00000000000E+00  0.14999999963E+04  0.15000000000E+04  0.10566000000E+00 0. -1.
        994   -1    0    0    0    0 -0.00000000000E+00 -0.00000000000E+00  0.11368683772E-12  0.17120000000E+03  0.17120000000E+03 0.  0.
         13    1    1    2    0    0 -0.78411684913E+01 -0.26476545100E+02  0.41925008898E+02  0.50201682231E+02  0.10566000000E+00 0. -1.
        994    1    1    2    0    0  0.29087963819E+02 -0.33959546649E+02  0.16218415101E+02  0.17768465729E+03  0.17120000000E+03 0.  0.
        998    1    1    2    0    0 -0.21246795328E+02  0.60436091749E+02  0.14418565723E+04  0.14433136605E+04  0.10000000000E+02 0. -1.
</event>
<event>
 5    1  0.5926286E-008  0.3864426E+03  0.7957747E-01  0.3423577E+00
         13   -1    0    0    0    0  0.00000000000E+00  0.00000000000E+00  0.14999999963E+04  0.15000000000E+04  0.10566000000E+00 0. -1.
        994   -1    0    0    0    0 -0.00000000000E+00 -0.00000000000E+00  0.11368683772E-12  0.17120000000E+03  0.17120000000E+03 0.  0.
         13    1    1    2    0    0  0.10087324066E+02 -0.14683133012E+01  0.57378871990E+02  0.58277406992E+02  0.10566000000E+00 0. -1.
        994    1    1    2    0    0 -0.77347313735E+01  0.27017255844E+01  0.11353567319E+01  0.17139969202E+03  0.17120000000E+03 0.  0.
        998    1    1    2    0    0 -0.23525926927E+01 -0.12334122832E+01  0.14414857676E+04  0.14415229010E+04  0.10000000000E+02 0. -1.
</event>
<event>
 5    1  0.1582292E-008  0.3834991E+03  0.7957747E-01  0.3436063E+00
         13   -1    0    0    0    0  0.00000000000E+00  0.00000000000E+00  0.14999999963E+04  0.15000000000E+04  0.10566000000E+00 0.  1.
        994   -1    0    0    0    0 -0.00000000000E+00 -0.00000000000E+00  0.11368683772E-12  0.17120000000E+03  0.17120000000E+03 0.  0.
         13    1    1    2    0    0 -0.20311363787E+02 -0.26359415453E+01  0.96053482032E+02  0.98212943450E+02  0.10566000000E+00 0.  1.
        994    1    1    2    0    0 -0.17081411429E+01  0.50104705824E+01  0.24697383026E+01  0.17129962688E+03  0.17120000000E+03 0.  0.
        998    1    1    2    0    0  0.22019504930E+02 -0.23745290371E+01  0.14014767759E+04  0.14016874297E+04  0.10000000000E+02 0.  1.
</event>
<event>
 5    1  0.1582292E-008  0.3696613E+03  0.7957747E-01  0.3497449E+00
         13   -1    0    0    0    0  0.00000000000E+00  0.00000000000E+00  0.14999999963E+04  0.15000000000E+04  0.10566000000E+00 0.  1.
        994   -1    0    0    0    0 -0.00000000000E+00 -0.00000000000E+00  0.11368683772E-12  0.17120000000E+03  0.17120000000E+03 0.  0.
         13    1    1    2    0    0  0.28387875905E+02  0.17733689520E+00  0.34428012883E+02  0.44622888542E+02  0.10566000000E+00 0.  1.
        994    1    1    2    0    0 -0.43132636530E+01  0.40746271172E+01  0.10882785026E+02  0.17164813381E+03  0.17120000000E+03 0.  0.
        998    1    1    2    0    0 -0.24074612252E+02 -0.42519640124E+01  0.14546891984E+04  0.14549289777E+04  0.10000000000E+02 0.  1.
</event>
<event>
 5    1  0.1582292E-008  0.3687322E+03  0.7957747E-01  0.3501738E+00
         13   -1    0    0    0    0  0.00000000000E+00  0.00000000000E+00  0.14999999963E+04  0.15000000000E+04  0.10566000000E+00 0. -1.
        994   -1    0    0    0    0 -0.00000000000E+00 -0.00000000000E+00  0.11368683772E-12  0.17120000000E+03  0.17120000000E+03 0.  0.
         13    1    1    2    0    0 -0.58574770993E+02  0.45795408436E+02  0.23765559972E+03  0.24901489608E+03  0.10566000000E+00 0. -1.
        994    1    1    2    0    0  0.48869135857E+02 -0.41590528430E+02  0.24743213727E+02  0.18449832281E+03  0.17120000000E+03 0.  0.
        998    1    1    2    0    0  0.97056351360E+01 -0.42048800060E+01  0.12376011828E+04  0.12376867811E+04  0.10000000000E+02 0. -1.
</event>
<event>
 5    1  0.1582292E-008  0.3804832E+03  0.7957747E-01  0.3449057E+00
         13   -1    0    0    0    0  0.00000000000E+00  0.00000000000E+00  0.14999999963E+04  0.15000000000E+04  0.10566000000E+00 0. -1.
        994   -1    0    0    0    0 -0.00000000000E+00 -0.00000000000E+00  0.11368683772E-12  0.17120000000E+03  0.17120000000E+03 0.  0.
         13    1    1    2    0    0 -0.20125072176E+02 -0.10335282506E+02  0.65134054935E+02  0.68951380486E+02  0.10566000000E+00 0. -1.
        994    1    1    2    0    0  0.12410667086E+02  0.17290042045E+01  0.44136541392E+01  0.17171468911E+03  0.17120000000E+03 0.  0.
        998    1    1    2    0    0  0.77144050900E+01  0.86062783012E+01  0.14304522872E+04  0.14305339304E+04  0.10000000000E+02 0. -1.
</event>
<event>
 5    1  0.1582292E-008  0.3840983E+03  0.7957747E-01  0.3433506E+00
         13   -1    0    0    0    0  0.00000000000E+00  0.00000000000E+00  0.14999999963E+04  0.15000000000E+04  0.10566000000E+00 0. -1.
        994   -1    0    0    0    0 -0.00000000000E+00 -0.00000000000E+00  0.11368683772E-12  0.17120000000E+03  0.17120000000E+03 0.  0.
         13    1    1    2    0    0 -0.91513846651E+01  0.50188686530E+01  0.25661691301E+02  0.27703256998E+02  0.10566000000E+00 0. -1.
        994    1    1    2    0    0  0.33437342192E+01 -0.76221275107E+01  0.23070209190E+01  0.17141773459E+03  0.17120000000E+03 0.  0.
        998    1    1    2    0    0  0.58076504459E+01  0.26032588577E+01  0.14720312841E+04  0.14720790084E+04  0.10000000000E+02 0. -1.
</event>
<event>
 5    1  0.1582292E-008  0.3786379E+03  0.7957747E-01  0.3457111E+00
         13   -1    0    0    0    0  0.00000000000E+00  0.00000000000E+00  0.14999999963E+04  0.15000000000E+04  0.10566000000E+00 0. -1.
        994   -1    0    0    0    0 -0.00000000000E+00 -0.00000000000E+00  0.11368683772E-12  0.17120000000E+03  0.17120000000E+03 0.  0.
         13    1    1    2    0    0  0.50767049286E+02 -0.11590673347E+02  0.26219258578E+03  0.26731367381E+03  0.10566000000E+00 0. -1.
        994    1    1    2    0    0 -0.38311560098E+02  0.20058696290E+01  0.97806012773E+01  0.17571823841E+03  0.17120000000E+03 0.  0.
        998    1    1    2    0    0 -0.12455489188E+02  0.95848037178E+01  0.12280268092E+04  0.12281680878E+04  0.10000000000E+02 0. -1.
</event>
<event>
 5    1  0.1582292E-008  0.3746373E+03  0.7957747E-01  0.3474846E+00
         13   -1    0    0    0    0  0.00000000000E+00  0.00000000000E+00  0.14999999963E+04  0.15000000000E+04  0.10566000000E+00 0.  1.
        994   -1    0    0    0    0 -0.00000000000E+00 -0.00000000000E+00  0.11368683772E-12  0.17120000000E+03  0.17120000000E+03 0.  0.
         13    1    1    2    0    0 -0.16129646891E+02  0.41010818346E+02  0.64473259046E+02  0.78095230496E+02  0.10566000000E+00 0.  1.
        994    1    1    2    0    0  0.18259229020E+02 -0.42138718515E+02  0.20945261942E+02  0.17848589591E+03  0.17120000000E+03 0.  0.
        998    1    1    2    0    0 -0.21295821294E+01  0.11279001695E+01  0.14145814753E+04  0.14146188736E+04  0.10000000000E+02 0.  0.
</event>
<event>
 5    1  0.1582292E-008  0.3808123E+03  0.7957747E-01  0.3447629E+00
         13   -1    0    0    0    0  0.00000000000E+00  0.00000000000E+00  0.14999999963E+04  0.15000000000E+04  0.10566000000E+00 0. -1.
        994   -1    0    0    0    0 -0.00000000000E+00 -0.00000000000E+00  0.11368683772E-12  0.17120000000E+03  0.17120000000E+03 0.  0.
         13    1    1    2    0    0  0.48464254856E+02 -0.29626866754E+02  0.32983030881E+03  0.33468579146E+03  0.10566000000E+00 0. -1.
        994    1    1    2    0    0 -0.54841609404E+02  0.24625756332E+02  0.15868025109E+02  0.18214078131E+03  0.17120000000E+03 0.  0.
        998    1    1    2    0    0  0.63773545484E+01  0.50011104221E+01  0.11543016624E+04  0.11543734272E+04  0.10000000000E+02 0. -1.
</event>
<event>
 5    1  0.1582292E-008  0.3927322E+03  0.7957747E-01  0.3397526E+00
         13   -1    0    0    0    0  0.00000000000E+00  0.00000000000E+00  0.14999999963E+04  0.15000000000E+04  0.10566000000E+00 0. -1.
        994   -1    0    0    0    0 -0.00000000000E+00 -0.00000000000E+00  0.11368683772E-12  0.17120000000E+03  0.17120000000E+03 0.  0.
         13    1    1    2    0    0  0.10226025087E+03 -0.23535576626E+02  0.24088970577E+03  0.26275262850E+03  0.10566000000E+00 0. -1.
        994    1    1    2    0    0 -0.49329683277E+02  0.22194350030E+02  0.34715817661E+02  0.18286780696E+03  0.17120000000E+03 0.  0.
        998    1    1    2    0    0 -0.52930567596E+02  0.13412265959E+01  0.12243944728E+04  0.12255795645E+04  0.10000000000E+02 0. -1.
</event>
<event>
 5    1  0.1582292E-008  0.3685224E+03  0.7957747E-01  0.3502710E+00
         13   -1    0    0    0    0  0.00000000000E+00  0.00000000000E+00  0.14999999963E+04  0.15000000000E+04  0.10566000000E+00 0. -1.
        994   -1    0    0    0    0 -0.00000000000E+00 -0.00000000000E+00  0.11368683772E-12  0.17120000000E+03  0.17120000000E+03 0.  0.
         13    1    1    2    0    0 -0.16112854815E+02 -0.29982355232E+02  0.53218769635E+02  0.63172892296E+02  0.10566000000E+00 0. -1.
        994    1    1    2    0    0  0.13664667191E+02  0.18023197149E+02  0.11940809015E+02  0.17309991821E+03  0.17120000000E+03 0.  0.
        998    1    1    2    0    0  0.24481876233E+01  0.11959158082E+02  0.14348404176E+04  0.14349271895E+04  0.10000000000E+02 0. -1.
</event>
<event>
 5    1  0.1582292E-008  0.3839642E+03  0.7957747E-01  0.3434077E+00
         13   -1    0    0    0    0  0.00000000000E+00  0.00000000000E+00  0.14999999963E+04  0.15000000000E+04  0.10566000000E+00 0.  1.
        994   -1    0    0    0    0 -0.00000000000E+00 -0.00000000000E+00  0.11368683772E-12  0.17120000000E+03  0.17120000000E+03 0.  0.
         13    1    1    2    0    0 -0.14774923365E+02  0.63855060149E+01  0.59854754828E+02  0.61981254320E+02  0.10566000000E+00 0.  1.
        994    1    1    2    0    0  0.84411543945E+01 -0.76703191471E+01  0.25746244941E+01  0.17159882160E+03  0.17120000000E+03 0.  0.
        998    1    1    2    0    0  0.63337689709E+01  0.12848131322E+01  0.14375706170E+04  0.14376199241E+04  0.10000000000E+02 0.  1.
</event>
<event>
 5    1  0.1582292E-008  0.3805822E+03  0.7957747E-01  0.3448627E+00
         13   -1    0    0    0    0  0.00000000000E+00  0.00000000000E+00  0.14999999963E+04  0.15000000000E+04  0.10566000000E+00 0. -1.
        994   -1    0    0    0    0 -0.00000000000E+00 -0.00000000000E+00  0.11368683772E-12  0.17120000000E+03  0.17120000000E+03 0.  0.
         13    1    1    2    0    0 -0.49587389773E+01  0.25713473910E+02  0.92552706564E+02  0.96186207375E+02  0.10566000000E+00 0. -1.
        994    1    1    2    0    0 -0.20239630785E+02 -0.10708964967E+02  0.55908869093E+01  0.17281499530E+03  0.17120000000E+03 0.  0.
        998    1    1    2    0    0  0.25198369762E+02 -0.15004508943E+02  0.14018564028E+04  0.14021987973E+04  0.10000000000E+02 0. -1.
</event>
<event>
 5    1  0.1582292E-008  0.3703873E+03  0.7957747E-01  0.3494113E+00
         13   -1    0    0    0    0  0.00000000000E+00  0.00000000000E+00  0.14999999963E+04  0.15000000000E+04  0.10566000000E+00 0.  1.
        994   -1    0    0    0    0 -0.00000000000E+00 -0.00000000000E+00  0.11368683772E-12  0.17120000000E+03  0.17120000000E+03 0.  0.
         13    1    1    2    0    0  0.66722761780E+02  0.52276105680E+02  0.30095175808E+03  0.31266066273E+03  0.10566000000E+00 0.  1.
        994    1    1    2    0    0 -0.63574428026E+02 -0.65456285431E+02  0.38392744021E+02  0.19776166462E+03  0.17120000000E+03 0.  0.
        998    1    1    2    0    0 -0.31483337540E+01  0.13180179751E+02  0.11606554942E+04  0.11607776726E+04  0.10000000000E+02 0. -1.
</event>
<event>
 5    1  0.1582292E-008  0.3751035E+03  0.7957747E-01  0.3472760E+00
         13   -1    0    0    0    0  0.00000000000E+00  0.00000000000E+00  0.14999999963E+04  0.15000000000E+04  0.10566000000E+00 0. -1.
        994   -1    0    0    0    0 -0.00000000000E+00 -0.00000000000E+00  0.11368683772E-12  0.17120000000E+03  0.17120000000E+03 0.  0.
         13    1    1    2    0    0 -0.92330160033E+02  0.90558955759E+02  0.64600274157E+03  0.65882117164E+03  0.10566000000E+00 0. -1.
        994    1    1    2    0    0  0.87818427305E+02 -0.18214624975E+02  0.42882325761E+02  0.19797015583E+03  0.17120000000E+03 0.  0.
        998    1    1    2    0    0  0.45117327279E+01 -0.72344330784E+02  0.81111492895E+03  0.81440867253E+03  0.10000000000E+02 0. -1.
</event>
<event>
 5    1  0.1582292E-008  0.2976568E+03  0.7957747E-01  0.3912891E+00
         13   -1    0    0    0    0  0.00000000000E+00  0.00000000000E+00  0.14999999963E+04  0.15000000000E+04  0.10566000000E+00 0.  1.
        994   -1    0    0    0    0 -0.00000000000E+00 -0.00000000000E+00  0.11368683772E-12  0.17120000000E+03  0.17120000000E+03 0.  0.
         13    1    1    2    0    0 -0.43157991236E+02 -0.18501035984E+03  0.89407395994E+03  0.91403484751E+03  0.10566000000E+00 0.  1.
        994    1    1    2    0    0 -0.21787901893E+02  0.56362700907E+02  0.58112965808E+02  0.19062534857E+03  0.17120000000E+03 0.  0.
        998    1    1    2    0    0  0.64945893129E+02  0.12864765893E+03  0.54781307053E+03  0.56653980392E+03  0.10000000000E+02 0. -1.
</event>
<event>
 5    1  0.1582292E-008  0.3822874E+03  0.7957747E-01  0.3441259E+00
         13   -1    0    0    0    0  0.00000000000E+00  0.00000000000E+00  0.14999999963E+04  0.15000000000E+04  0.10566000000E+00 0. -1.
        994   -1    0    0    0    0 -0.00000000000E+00 -0.00000000000E+00  0.11368683772E-12  0.17120000000E+03  0.17120000000E+03 0.  0.
         13    1    1    2    0    0 -0.45178543921E+01  0.27845494361E+02  0.16832547036E+03  0.17067295538E+03  0.10566000000E+00 0. -1.
        994    1    1    2    0    0 -0.85036023871E+01  0.11263748124E+02  0.36440506154E+01  0.17181938884E+03  0.17120000000E+03 0.  0.
        998    1    1    2    0    0  0.13021456779E+02 -0.39109242485E+02  0.13280304753E+04  0.13287076558E+04  0.10000000000E+02 0. -1.
</event>
<event>
 5    1  0.1582292E-008  0.3843051E+03  0.7957747E-01  0.3432625E+00
         13   -1    0    0    0    0  0.00000000000E+00  0.00000000000E+00  0.14999999963E+04  0.15000000000E+04  0.10566000000E+00 0.  1.
        994   -1    0    0    0    0 -0.00000000000E+00 -0.00000000000E+00  0.11368683772E-12  0.17120000000E+03  0.17120000000E+03 0.  0.
         13    1    1    2    0    0 -0.19790302444E+02  0.79258790004E+01  0.11574781647E+03  0.11769470596E+03  0.10566000000E+00 0.  1.
        994    1    1    2    0    0  0.11051449258E+02 -0.49913832169E+01  0.24603795530E+01  0.17164656100E+03  0.17120000000E+03 0.  0.
        998    1    1    2    0    0  0.87388531854E+01 -0.29344957835E+01  0.13817918003E+04  0.13818587330E+04  0.10000000000E+02 0.  1.
</event>
<event>
 5    1  0.1582292E-008  0.3856950E+03  0.7957747E-01  0.3426730E+00
         13   -1    0    0    0    0  0.00000000000E+00  0.00000000000E+00  0.14999999963E+04  0.15000000000E+04  0.10566000000E+00 0.  1.
        994   -1    0    0    0    0 -0.00000000000E+00 -0.00000000000E+00  0.11368683772E-12  0.17120000000E+03  0.17120000000E+03 0.  0.
         13    1    1    2    0    0  0.22895240634E+00  0.10381700707E+02  0.42714032306E+02  0.43958296699E+02  0.10566000000E+00 0.  1.
        994    1    1    2    0    0  0.18700462885E+00 -0.49332538531E+01  0.13654647506E+01  0.17127660803E+03  0.17120000000E+03 0.  0.
        998    1    1    2    0    0 -0.41595703519E+00 -0.54484468535E+01  0.14559204992E+04  0.14559650953E+04  0.10000000000E+02 0.  1.
</event>
<event>
 5    1  0.1582292E-008  0.3888027E+03  0.7957747E-01  0.3413703E+00
         13   -1    0    0    0    0  0.00000000000E+00  0.00000000000E+00  0.14999999963E+04  0.15000000000E+04  0.10566000000E+00 0.  1.
        994   -1    0    0    0    0 -0.00000000000E+00 -0.00000000000E+00  0.11368683772E-12  0.17120000000E+03  0.17120000000E+03 0.  0.
         13    1    1    2    0    0 -0.45642941871E+02 -0.64652602759E+02  0.15435406982E+03  0.17346016033E+03  0.10566000000E+00 0.  1.
        994    1    1    2    0    0  0.10270668252E+02  0.24898186196E+02  0.23970134655E+02  0.17495546193E+03  0.17120000000E+03 0.  0.
        998    1    1    2    0    0  0.35372273619E+02  0.39754416564E+02  0.13216757918E+04  0.13227843777E+04  0.10000000000E+02 0.  1.
</event>
<event>
 5    1  0.1582292E-008  0.3721267E+03  0.7957747E-01  0.3486174E+00
         13   -1    0    0    0    0  0.00000000000E+00  0.00000000000E+00  0.14999999963E+04  0.15000000000E+04  0.10566000000E+00 0. -1.
        994   -1    0    0    0    0 -0.00000000000E+00 -0.00000000000E+00  0.11368683772E-12  0.17120000000E+03  0.17120000000E+03 0.  0.
         13    1    1    2    0    0 -0.28320764729E+01  0.11261809883E+02  0.83679808828E-02  0.11612934730E+02  0.10566000000E+00 0. -1.
        994    1    1    2    0    0 -0.28929287181E+01 -0.59296782387E+01  0.12221153055E+02  0.17176241353E+03  0.17120000000E+03 0.  0.
        998    1    1    2    0    0  0.57250051910E+01 -0.53321316445E+01  0.14877704752E+04  0.14878246517E+04  0.10000000000E+02 0. -1.
</event>
<event>
 5    1  0.1582292E-008  0.3936260E+03  0.7957747E-01  0.3393892E+00
         13   -1    0    0    0    0  0.00000000000E+00  0.00000000000E+00  0.14999999963E+04  0.15000000000E+04  0.10566000000E+00 0. -1.
        994   -1    0    0    0    0 -0.00000000000E+00 -0.00000000000E+00  0.11368683772E-12  0.17120000000E+03  0.17120000000E+03 0.  0.
         13    1    1    2    0    0 -0.42283663046E+02 -0.13573021431E+02  0.33903553624E+02  0.55871255433E+02  0.10566000000E+00 0. -1.
        994    1    1    2    0    0  0.11212731695E+01  0.28766174169E+02  0.27191366260E+02  0.17572011959E+03  0.17120000000E+03 0.  0.
        998    1    1    2    0    0  0.41162389876E+02 -0.15193152738E+02  0.14389050764E+04  0.14396086250E+04  0.10000000000E+02 0. -1.
</event>
<event>
 5    1  0.1582292E-008  0.3827574E+03  0.7957747E-01  0.3439239E+00
         13   -1    0    0    0    0  0.00000000000E+00  0.00000000000E+00  0.14999999963E+04  0.15000000000E+04  0.10566000000E+00 0. -1.
        994   -1    0    0    0    0 -0.00000000000E+00 -0.00000000000E+00  0.11368683772E-12  0.17120000000E+03  0.17120000000E+03 0.  0.
         13    1    1    2    0    0 -0.18821195020E+02  0.90722905033E+01  0.80366698916E+02  0.83038312216E+02  0.10566000000E+00 0. -1.
        994    1    1    2    0    0  0.67664493251E+01 -0.73081205853E+01  0.30763413341E+01  0.17151704679E+03  0.17120000000E+03 0.  0.
        998    1    1    2    0    0  0.12054745695E+02 -0.17641699179E+01  0.14165569560E+04  0.14166446410E+04  0.10000000000E+02 0. -1.
</event>
<event>
 5    1  0.1582292E-008  0.3858308E+03  0.7957747E-01  0.3426156E+00
         13   -1    0    0    0    0  0.00000000000E+00  0.00000000000E+00  0.14999999963E+04  0.15000000000E+04  0.10566000000E+00 0.  1.
        994   -1    0    0    0    0 -0.00000000000E+00 -0.00000000000E+00  0.11368683772E-12  0.17120000000E+03  0.17120000000E+03 0.  0.
         13    1    1    2    0    0  0.88807036560E+01  0.67044206036E+01  0.50532125879E+02  0.51742855187E+02  0.10566000000E+00 0.  1.
        994    1    1    2    0    0 -0.60753124499E+01 -0.81686010374E+01  0.15582007595E+01  0.17150948503E+03  0.17120000000E+03 0.  0.
        998    1    1    2    0    0 -0.28053912061E+01  0.14641804338E+01  0.14479096696E+04  0.14479476598E+04  0.10000000000E+02 0.  1.
</event>
<event>
 5    1  0.1582292E-008  0.3854885E+03  0.7957747E-01  0.3427603E+00
         13   -1    0    0    0    0  0.00000000000E+00  0.00000000000E+00  0.14999999963E+04  0.15000000000E+04  0.10566000000E+00 0. -1.
        994   -1    0    0    0    0 -0.00000000000E+00 -0.00000000000E+00  0.11368683772E-12  0.17120000000E+03  0.17120000000E+03 0.  0.
         13    1    1    2    0    0 -0.41382903301E+01  0.12972479801E+02  0.60709619078E+02  0.62218001347E+02  0.10566000000E+00 0. -1.
        994    1    1    2    0    0  0.91528853073E+01 -0.22816193024E+02  0.33746605260E+01  0.17298896585E+03  0.17120000000E+03 0.  0.
        998    1    1    2    0    0 -0.50145949772E+01  0.98437132233E+01  0.14359157167E+04  0.14359930328E+04  0.10000000000E+02 0. -1.
</event>
<event>
 5    1  0.1582292E-008  0.3841287E+03  0.7957747E-01  0.3433376E+00
         13   -1    0    0    0    0  0.00000000000E+00  0.00000000000E+00  0.14999999963E+04  0.15000000000E+04  0.10566000000E+00 0. -1.
        994   -1    0    0    0    0 -0.00000000000E+00 -0.00000000000E+00  0.11368683772E-12  0.17120000000E+03  0.17120000000E+03 0.  0.
         13    1    1    2    0    0  0.10604507579E+02 -0.25050869126E+02  0.15067631168E+03  0.15311225846E+03  0.10566000000E+00 0. -1.
        994    1    1    2    0    0 -0.11666499199E+02  0.34900941082E+02  0.65422089240E+01  0.17523248383E+03  0.17120000000E+03 0.  0.
        998    1    1    2    0    0  0.10619916205E+01 -0.98500719563E+01  0.13427814757E+04  0.13428552577E+04  0.10000000000E+02 0. -1.
</event>
<event>
 5    1  0.1582292E-008  0.3687215E+03  0.7957747E-01  0.3501788E+00
         13   -1    0    0    0    0  0.00000000000E+00  0.00000000000E+00  0.14999999963E+04  0.15000000000E+04  0.10566000000E+00 0.  1.
        994   -1    0    0    0    0 -0.00000000000E+00 -0.00000000000E+00  0.11368683772E-12  0.17120000000E+03  0.17120000000E+03 0.  0.
         13    1    1    2    0    0 -0.87725816317E+01 -0.63895101394E+01  0.17114748696E+01  0.10987462790E+02  0.10566000000E+00 0.  1.
        994    1    1    2    0    0 -0.16515022946E+03 -0.72115209901E+02  0.13356668166E+03  0.28217849003E+03  0.17120000000E+03 0.  0.
        998    1    1    2    0    0  0.17392281109E+03  0.78504720040E+02  0.13647218397E+04  0.13780340472E+04  0.10000000000E+02 0.  1.
</event>
<event>
 5    1  0.1582292E-008  0.3859136E+03  0.7957747E-01  0.3425807E+00
         13   -1    0    0    0    0  0.00000000000E+00  0.00000000000E+00  0.14999999963E+04  0.15000000000E+04  0.10566000000E+00 0. -1.
        994   -1    0    0    0    0 -0.00000000000E+00 -0.00000000000E+00  0.11368683772E-12  0.17120000000E+03  0.17120000000E+03 0.  0.
         13    1    1    2    0    0  0.89522528150E-01  0.12254701437E+02  0.69281239507E+02  0.70356854913E+02  0.10566000000E+00 0. -1.
        994    1    1    2    0    0 -0.38570761598E+01  0.11780090771E+01  0.12305800772E+01  0.17125191698E+03  0.17120000000E+03 0.  0.
        998    1    1    2    0    0  0.37675536317E+01 -0.13432710514E+02  0.14294881767E+04  0.14295912281E+04  0.10000000000E+02 0. -1.
</event>
<event>
 5    1  0.1582292E-008  0.3841678E+03  0.7957747E-01  0.3433209E+00
         13   -1    0    0    0    0  0.00000000000E+00  0.00000000000E+00  0.14999999963E+04  0.15000000000E+04  0.10566000000E+00 0. -1.
        994   -1    0    0    0    0 -0.00000000000E+00 -0.00000000000E+00  0.11368683772E-12  0.17120000000E+03  0.17120000000E+03 0.  0.
         13    1    1    2    0    0  0.74856511370E+01  0.15404887049E+02  0.70924652595E+02  0.72963436238E+02  0.10566000000E+00 0. -1.
        994    1    1    2    0    0 -0.67588796398E+01 -0.10319796930E+02  0.25458341687E+01  0.17166275640E+03  0.17120000000E+03 0.  0.
        998    1    1    2    0    0 -0.72677149721E+00 -0.50850901185E+01  0.14265295095E+04  0.14265738074E+04  0.10000000000E+02 0. -1.
</event>
<event>
 5    1  0.1582292E-008  0.3815770E+03  0.7957747E-01  0.3444320E+00
         13   -1    0    0    0    0  0.00000000000E+00  0.00000000000E+00  0.14999999963E+04  0.15000000000E+04  0.10566000000E+00 0.  1.
        994   -1    0    0    0    0 -0.00000000000E+00 -0.00000000000E+00  0.11368683772E-12  0.17120000000E+03  0.17120000000E+03 0.  0.
         13    1    1    2    0    0 -0.39749527112E+02  0.80685926956E+01  0.19989584049E+03  0.20396932441E+03  0.10566000000E+00 0.  1.
        994    1    1    2    0    0  0.47849294571E+02 -0.12712367567E+02  0.11533989159E+02  0.17858788365E+03  0.17120000000E+03 0.  0.
        998    1    1    2    0    0 -0.80997674589E+01  0.46437748716E+01  0.12885701666E+04  0.12886427919E+04  0.10000000000E+02 0.  1.
</event>
<event>
 5    1  0.1582292E-008  0.3823947E+03  0.7957747E-01  0.3440797E+00
         13   -1    0    0    0    0  0.00000000000E+00  0.00000000000E+00  0.14999999963E+04  0.15000000000E+04  0.10566000000E+00 0. -1.
        994   -1    0    0    0    0 -0.00000000000E+00 -0.00000000000E+00  0.11368683772E-12  0.17120000000E+03  0.17120000000E+03 0.  0.
         13    1    1    2    0    0 -0.24413855098E+02  0.38094946868E+01  0.10736639022E+03  0.11017305244E+03  0.10566000000E+00 0. -1.
        994    1    1    2    0    0  0.52986771964E+01 -0.31134732368E+02  0.62444067560E+01  0.17420068931E+03  0.17120000000E+03 0.  0.
        998    1    1    2    0    0  0.19115177902E+02  0.27325237681E+02  0.13863891993E+04  0.13868262583E+04  0.10000000000E+02 0. -1.
</event>
<event>
 5    1  0.1582292E-008  0.3732022E+03  0.7957747E-01  0.3481303E+00
         13   -1    0    0    0    0  0.00000000000E+00  0.00000000000E+00  0.14999999963E+04  0.15000000000E+04  0.10566000000E+00 0.  1.
        994   -1    0    0    0    0 -0.00000000000E+00 -0.00000000000E+00  0.11368683772E-12  0.17120000000E+03  0.17120000000E+03 0.  0.
         13    1    1    2    0    0 -0.41318678702E+02  0.72028659061E+02  0.40637293416E+03  0.41477021797E+03  0.10566000000E+00 0.  1.
        994    1    1    2    0    0  0.26829521103E+02  0.21646361450E+02  0.16855464386E+02  0.17544781232E+03  0.17120000000E+03 0.  0.
        998    1    1    2    0    0  0.14489157598E+02 -0.93675020511E+02  0.10767715977E+04  0.10809819697E+04  0.10000000000E+02 0.  1.
</event>
<event>
 5    1  0.1582292E-008  0.3855912E+03  0.7957747E-01  0.3427169E+00
         13   -1    0    0    0    0  0.00000000000E+00  0.00000000000E+00  0.14999999963E+04  0.15000000000E+04  0.10566000000E+00 0. -1.
        994   -1    0    0    0    0 -0.00000000000E+00 -0.00000000000E+00  0.11368683772E-12  0.17120000000E+03  0.17120000000E+03 0.  0.
         13    1    1    2    0    0 -0.13501706506E+02 -0.51178385918E+01  0.87181939540E+02  0.88369622023E+02  0.10566000000E+00 0. -1.
        994    1    1    2    0    0 -0.25456839844E+01 -0.27915957586E+01  0.13837557005E+01  0.17124727237E+03  0.17120000000E+03 0.  0.
        998    1    1    2    0    0  0.16047390490E+02  0.79094343504E+01  0.14114343010E+04  0.14115831056E+04  0.10000000000E+02 0. -1.
</event>
<event>
 5    1  0.1582292E-008  0.3841405E+03  0.7957747E-01  0.3433325E+00
         13   -1    0    0    0    0  0.00000000000E+00  0.00000000000E+00  0.14999999963E+04  0.15000000000E+04  0.10566000000E+00 0. -1.
        994   -1    0    0    0    0 -0.00000000000E+00 -0.00000000000E+00  0.11368683772E-12  0.17120000000E+03  0.17120000000E+03 0.  0.
         13    1    1    2    0    0  0.19150180593E+02 -0.14310005019E+02  0.14040566780E+03  0.14242636124E+03  0.10566000000E+00 0. -1.
        994    1    1    2    0    0 -0.10073365657E+02  0.81550734824E+01  0.26115999884E+01  0.17170975037E+03  0.17120000000E+03 0.  0.
        998    1    1    2    0    0 -0.90768149353E+01  0.61549315363E+01  0.13569827285E+04  0.13570638884E+04  0.10000000000E+02 0. -1.
</event>
<event>
 5    1  0.1582292E-008  0.3734355E+03  0.7957747E-01  0.3480250E+00
         13   -1    0    0    0    0  0.00000000000E+00  0.00000000000E+00  0.14999999963E+04  0.15000000000E+04  0.10566000000E+00 0.  1.
        994   -1    0    0    0    0 -0.00000000000E+00 -0.00000000000E+00  0.11368683772E-12  0.17120000000E+03  0.17120000000E+03 0.  0.
         13    1    1    2    0    0  0.69349398725E+02 -0.41252231322E+02  0.33943434875E+03  0.34889364277E+03  0.10566000000E+00 0.  1.
        994    1    1    2    0    0 -0.58794818967E+02  0.55443197465E+02  0.30141421736E+02  0.19169956752E+03  0.17120000000E+03 0.  0.
        998    1    1    2    0    0 -0.10554579758E+02 -0.14190966142E+02  0.11304242258E+04  0.11306067897E+04  0.10000000000E+02 0.  1.
</event>
<event>
 5    1  0.1582292E-008  0.3852059E+03  0.7957747E-01  0.3428799E+00
         13   -1    0    0    0    0  0.00000000000E+00  0.00000000000E+00  0.14999999963E+04  0.15000000000E+04  0.10566000000E+00 0.  1.
        994   -1    0    0    0    0 -0.00000000000E+00 -0.00000000000E+00  0.11368683772E-12  0.17120000000E+03  0.17120000000E+03 0.  0.
         13    1    1    2    0    0  0.10288337684E+02 -0.22511935771E+01  0.37752054458E+02  0.39193705422E+02  0.10566000000E+00 0.  1.
        994    1    1    2    0    0  0.25359980467E+01  0.70760395070E+01  0.17136549553E+01  0.17137350505E+03  0.17120000000E+03 0.  0.
        998    1    1    2    0    0 -0.12824335731E+02 -0.48248459298E+01  0.14605342869E+04  0.14606327895E+04  0.10000000000E+02 0.  1.
</event>
<event>
 5    1  0.1582292E-008  0.3816588E+03  0.7957747E-01  0.3443967E+00
         13   -1    0    0    0    0  0.00000000000E+00  0.00000000000E+00  0.14999999963E+04  0.15000000000E+04  0.10566000000E+00 0. -1.
        994   -1    0    0    0    0 -0.00000000000E+00 -0.00000000000E+00  0.11368683772E-12  0.17120000000E+03  0.17120000000E+03 0.  0.
         13    1    1    2    0    0  0.12446258689E+02 -0.44763162080E+02  0.26711092139E+03  0.27112156964E+03  0.10566000000E+00 0. -1.
        994    1    1    2    0    0 -0.98645552951E+01  0.47017791368E+02  0.11009781691E+02  0.17815340987E+03  0.17120000000E+03 0.  0.
        998    1    1    2    0    0 -0.25817033936E+01 -0.22546292881E+01  0.12218792932E+04  0.12219250205E+04  0.10000000000E+02 0. -1.
</event>
<event>
 5    1  0.1582292E-008  0.4099643E+03  0.7957747E-01  0.3330238E+00
         13   -1    0    0    0    0  0.00000000000E+00  0.00000000000E+00  0.14999999963E+04  0.15000000000E+04  0.10566000000E+00 0. -1.
        994   -1    0    0    0    0 -0.00000000000E+00 -0.00000000000E+00  0.11368683772E-12  0.17120000000E+03  0.17120000000E+03 0.  0.
         13    1    1    2    0    0  0.62159177250E+02 -0.33029055915E+02  0.59967536834E+02  0.92470527677E+02  0.10566000000E+00 0. -1.
        994    1    1    2    0    0 -0.62537088432E+02  0.27956948656E+02  0.53290551572E+02  0.19194218217E+03  0.17120000000E+03 0.  0.
        998    1    1    2    0    0  0.37791118220E+00  0.50721072594E+01  0.13867419079E+04  0.13867872902E+04  0.10000000000E+02 0. -1.
</event>
<event>
 5    1  0.1582292E-008  0.3863774E+03  0.7957747E-01  0.3423851E+00
         13   -1    0    0    0    0  0.00000000000E+00  0.00000000000E+00  0.14999999963E+04  0.15000000000E+04  0.10566000000E+00 0.  1.
        994   -1    0    0    0    0 -0.00000000000E+00 -0.00000000000E+00  0.11368683772E-12  0.17120000000E+03  0.17120000000E+03 0.  0.
         13    1    1    2    0    0  0.98295931826E+01 -0.48316015219E+01  0.61032006562E+02  0.62007114628E+02  0.10566000000E+00 0.  1.
        994    1    1    2    0    0 -0.97138942704E+01  0.12846683828E+02  0.17975596354E+01  0.17196531118E+03  0.17120000000E+03 0.  0.
        998    1    1    2    0    0 -0.11569891225E+00 -0.80150823059E+01  0.14371704301E+04  0.14372275742E+04  0.10000000000E+02 0.  1.
</event>
<event>
 5    1  0.1582292E-008  0.3854840E+03  0.7957747E-01  0.3427622E+00
         13   -1    0    0    0    0  0.00000000000E+00  0.00000000000E+00  0.14999999963E+04  0.15000000000E+04  0.10566000000E+00 0. -1.
        994   -1    0    0    0    0 -0.00000000000E+00 -0.00000000000E+00  0.11368683772E-12  0.17120000000E+03  0.17120000000E+03 0.  0.
         13    1    1    2    0    0 -0.82755978812E+01 -0.11388225025E+02  0.66975582147E+02  0.68439147843E+02  0.10566000000E+00 0. -1.
        994    1    1    2    0    0  0.15796617711E+02  0.12201603781E+02  0.26993183038E+01  0.17238079529E+03  0.17120000000E+03 0.  0.
        998    1    1    2    0    0 -0.75210198299E+01 -0.81337875574E+00  0.14303250958E+04  0.14303800569E+04  0.10000000000E+02 0. -1.
</event>
<event>
 5    1  0.1582292E-008  0.3794743E+03  0.7957747E-01  0.3453451E+00
         13   -1    0    0    0    0  0.00000000000E+00  0.00000000000E+00  0.14999999963E+04  0.15000000000E+04  0.10566000000E+00 0. -1.
        994   -1    0    0    0    0 -0.00000000000E+00 -0.00000000000E+00  0.11368683772E-12  0.17120000000E+03  0.17120000000E+03 0.  0.
         13    1    1    2    0    0  0.15335140949E+02 -0.11367095774E+02  0.41145553513E+02  0.45357966799E+02  0.10566000000E+00 0. -1.
        994    1    1    2    0    0  0.40513914181E+01  0.92882645116E+01  0.47427072029E+01  0.17156520306E+03  0.17120000000E+03 0.  0.
        998    1    1    2    0    0 -0.19386532367E+02  0.20788312620E+01  0.14541117356E+04  0.14542768301E+04  0.10000000000E+02 0. -1.
</event>
<event>
 5    1  0.1582292E-008  0.3855187E+03  0.7957747E-01  0.3427475E+00
         13   -1    0    0    0    0  0.00000000000E+00  0.00000000000E+00  0.14999999963E+04  0.15000000000E+04  0.10566000000E+00 0.  1.
        994   -1    0    0    0    0 -0.00000000000E+00 -0.00000000000E+00  0.11368683772E-12  0.17120000000E+03  0.17120000000E+03 0.  0.
         13    1    1    2    0    0  0.55540329717E+01 -0.90835598458E+01  0.42346845571E+02  0.43664915385E+02  0.10566000000E+00 0.  1.
        994    1    1    2    0    0 -0.97524337596E-01  0.38034563655E+01  0.14203581474E+01  0.17124816264E+03  0.17120000000E+03 0.  0.
        998    1    1    2    0    0 -0.54565086342E+01  0.52801034802E+01  0.14562327926E+04  0.14562869220E+04  0.10000000000E+02 0.  1.
</event>
<event>
 5    1  0.1582292E-008  0.3815952E+03  0.7957747E-01  0.3444242E+00
         13   -1    0    0    0    0  0.00000000000E+00  0.00000000000E+00  0.14999999963E+04  0.15000000000E+04  0.10566000000E+00 0.  1.
        994   -1    0    0    0    0 -0.00000000000E+00 -0.00000000000E+00  0.11368683772E-12  0.17120000000E+03  0.17120000000E+03 0.  0.
         13    1    1    2    0    0 -0.70486581064E+01  0.16190600688E+02  0.46127357566E+02  0.49391936708E+02  0.10566000000E+00 0.  1.
        994    1    1    2    0    0  0.16289560384E+01 -0.90748558125E+01  0.36127815932E+01  0.17148614724E+03  0.17120000000E+03 0.  0.
        998    1    1    2    0    0  0.54197020680E+01 -0.71157448757E+01  0.14502598571E+04  0.14503219160E+04  0.10000000000E+02 0.  1.
</event>
<event>
 5    1  0.1582292E-008  0.3832145E+03  0.7957747E-01  0.3437280E+00
         13   -1    0    0    0    0  0.00000000000E+00  0.00000000000E+00  0.14999999963E+04  0.15000000000E+04  0.10566000000E+00 0. -1.
        994   -1    0    0    0    0 -0.00000000000E+00 -0.00000000000E+00  0.11368683772E-12  0.17120000000E+03  0.17120000000E+03 0.  0.
         13    1    1    2    0    0 -0.88506214423E+00  0.10394227714E+02  0.20879922708E+02  0.23341071979E+02  0.10566000000E+00 0. -1.
        994    1    1    2    0    0  0.10896247942E+01 -0.43365576181E+01  0.25853423477E+01  0.17127789411E+03  0.17120000000E+03 0.  0.
        998    1    1    2    0    0 -0.20456264996E+00 -0.60576700964E+01  0.14765347312E+04  0.14765810339E+04  0.10000000000E+02 0. -1.
</event>
<event>
 5    1  0.1582292E-008  0.3811347E+03  0.7957747E-01  0.3446232E+00
         13   -1    0    0    0    0  0.00000000000E+00  0.00000000000E+00  0.14999999963E+04  0.15000000000E+04  0.10566000000E+00 0. -1.
        994   -1    0    0    0    0 -0.00000000000E+00 -0.00000000000E+00  0.11368683772E-12  0.17120000000E+03  0.17120000000E+03 0.  0.
         13    1    1    2    0    0 -0.59216071567E+01 -0.28389814015E+02  0.11883565683E+03  0.12232322539E+03  0.10566000000E+00 0. -1.
        994    1    1    2    0    0 -0.12597055905E+01  0.15298803021E+02  0.43466125584E+01  0.17194177291E+03  0.17120000000E+03 0.  0.
        998    1    1    2    0    0  0.71813127472E+01  0.13091010993E+02  0.13768177269E+04  0.13769350017E+04  0.10000000000E+02 0. -1.
</event>
<event>
 5    1  0.1582292E-008  0.3687763E+03  0.7957747E-01  0.3501534E+00
         13   -1    0    0    0    0  0.00000000000E+00  0.00000000000E+00  0.14999999963E+04  0.15000000000E+04  0.10566000000E+00 0.  1.
        994   -1    0    0    0    0 -0.00000000000E+00 -0.00000000000E+00  0.11368683772E-12  0.17120000000E+03  0.17120000000E+03 0.  0.
         13    1    1    2    0    0  0.40910738405E+02  0.31018067196E+02  0.13963652633E+03  0.14877560169E+03  0.10566000000E+00 0.  1.
        994    1    1    2    0    0 -0.67372977600E+00 -0.64504425321E+01  0.10439641571E+02  0.17164057864E+03  0.17120000000E+03 0.  0.
        998    1    1    2    0    0 -0.40237008629E+02 -0.24567624664E+02  0.13499238284E+04  0.13507838197E+04  0.10000000000E+02 0.  1.
</event>
<event>
 5    1  0.1582292E-008  0.3804940E+03  0.7957747E-01  0.3449010E+00
         13   -1    0    0    0    0  0.00000000000E+00  0.00000000000E+00  0.14999999963E+04  0.15000000000E+04  0.10566000000E+00 0. -1.
        994   -1    0    0    0    0 -0.00000000000E+00 -0.00000000000E+00  0.11368683772E-12  0.17120000000E+03  0.17120000000E+03 0.  0.
         13    1    1    2    0    0 -0.11358392550E+01 -0.10153040229E+02  0.11740185117E+02  0.15563337281E+02  0.10566000000E+00 0. -1.
        994    1    1    2    0    0 -0.63891896142E+01  0.82421437331E+01  0.42470534057E+01  0.17156990453E+03  0.17120000000E+03 0.  0.
        998    1    1    2    0    0  0.75250288692E+01  0.19108964954E+01  0.14840127578E+04  0.14840667582E+04  0.10000000000E+02 0. -1.
</event>
<event>
 5    1  0.1582292E-008  0.3845201E+03  0.7957747E-01  0.3431710E+00
         13   -1    0    0    0    0  0.00000000000E+00  0.00000000000E+00  0.14999999963E+04  0.15000000000E+04  0.10566000000E+00 0. -1.
        994   -1    0    0    0    0 -0.00000000000E+00 -0.00000000000E+00  0.11368683772E-12  0.17120000000E+03  0.17120000000E+03 0.  0.
         13    1    1    2    0    0 -0.17890704987E+00  0.10283268676E+02  0.29103737605E+02  0.30867723094E+02  0.10566000000E+00 0. -1.
        994    1    1    2    0    0  0.28538069564E+02  0.36060583577E+01  0.45986843315E+01  0.17366062585E+03  0.17120000000E+03 0.  0.
        998    1    1    2    0    0 -0.28359162515E+02 -0.13889327034E+02  0.14662975743E+04  0.14666716511E+04  0.10000000000E+02 0. -1.
</event>
<event>
 5    1  0.1582292E-008  0.3801490E+03  0.7957747E-01  0.3450510E+00
         13   -1    0    0    0    0  0.00000000000E+00  0.00000000000E+00  0.14999999963E+04  0.15000000000E+04  0.10566000000E+00 0.  1.
        994   -1    0    0    0    0 -0.00000000000E+00 -0.00000000000E+00  0.11368683772E-12  0.17120000000E+03  0.17120000000E+03 0.  0.
         13    1    1    2    0    0 -0.29833928897E+01  0.27958592619E+02  0.11041274475E+03  0.11393668813E+03  0.10566000000E+00 0.  1.
        994    1    1    2    0    0 -0.99560892021E+01  0.69512913908E+01  0.45507303294E+01  0.17169039959E+03  0.17120000000E+03 0.  0.
        998    1    1    2    0    0  0.12939482092E+02 -0.34909884010E+02  0.13850365212E+04  0.13855729123E+04  0.10000000000E+02 0.  1.
</event>
<event>
 5    1  0.1582292E-008  0.3738975E+03  0.7957747E-01  0.3478168E+00
         13   -1    0    0    0    0  0.00000000000E+00  0.00000000000E+00  0.14999999963E+04  0.15000000000E+04  0.10566000000E+00 0. -1.
        994   -1    0    0    0    0 -0.00000000000E+00 -0.00000000000E+00  0.11368683772E-12  0.17120000000E+03  0.17120000000E+03 0.  0.
         13    1    1    2    0    0 -0.79015075666E+02  0.14914439888E+02  0.30008939374E+03  0.31067584087E+03  0.10566000000E+00 0. -1.
        994    1    1    2    0    0  0.17432154676E+02  0.22255230656E+02  0.15852423673E+02  0.17424096718E+03  0.17120000000E+03 0.  0.
        998    1    1    2    0    0  0.61582920990E+02 -0.37169670544E+02  0.11840581789E+04  0.11862831919E+04  0.10000000000E+02 0. -1.
</event>
<event>
 5    1  0.1582292E-008  0.3820206E+03  0.7957747E-01  0.3442407E+00
         13   -1    0    0    0    0  0.00000000000E+00  0.00000000000E+00  0.14999999963E+04  0.15000000000E+04  0.10566000000E+00 0.  1.
        994   -1    0    0    0    0 -0.00000000000E+00 -0.00000000000E+00  0.11368683772E-12  0.17120000000E+03  0.17120000000E+03 0.  0.
         13    1    1    2    0    0 -0.20000199744E+02  0.40330691408E+02  0.26110890102E+03  0.26496120851E+03  0.10566000000E+00 0.  1.
        994    1    1    2    0    0  0.50323827218E+02 -0.31639891771E+02  0.14940809859E+02  0.18184124432E+03  0.17120000000E+03 0.  0.
        998    1    1    2    0    0 -0.30323627474E+02 -0.86907996372E+01  0.12239502854E+04  0.12243975472E+04  0.10000000000E+02 0.  1.
</event>
<event>
 5    1  0.1582292E-008  0.3769226E+03  0.7957747E-01  0.3464669E+00
         13   -1    0    0    0    0  0.00000000000E+00  0.00000000000E+00  0.14999999963E+04  0.15000000000E+04  0.10566000000E+00 0. -1.
        994   -1    0    0    0    0 -0.00000000000E+00 -0.00000000000E+00  0.11368683772E-12  0.17120000000E+03  0.17120000000E+03 0.  0.
         13    1    1    2    0    0 -0.12435237072E+03  0.56879713516E+02  0.78780359650E+03  0.79958322377E+03  0.10566000000E+00 0. -1.
        994    1    1    2    0    0  0.11391578042E+03 -0.70756907270E+02  0.69064058221E+02  0.22817236707E+03  0.17120000000E+03 0.  0.
        998    1    1    2    0    0  0.10436590297E+02  0.13877193754E+02  0.64313234156E+03  0.64344440916E+03  0.10000000000E+02 0. -1.
</event>
<event>
 5    1  0.1582292E-008  0.3799263E+03  0.7957747E-01  0.3451479E+00
         13   -1    0    0    0    0  0.00000000000E+00  0.00000000000E+00  0.14999999963E+04  0.15000000000E+04  0.10566000000E+00 0.  1.
        994   -1    0    0    0    0 -0.00000000000E+00 -0.00000000000E+00  0.11368683772E-12  0.17120000000E+03  0.17120000000E+03 0.  0.
         13    1    1    2    0    0 -0.16216159389E+02 -0.60363774218E+01  0.33178191452E+02  0.37419316265E+02  0.10566000000E+00 0.  1.
        994    1    1    2    0    0  0.21327588852E+02  0.51330001848E+01  0.57810430143E+01  0.17269647997E+03  0.17120000000E+03 0.  0.
        998    1    1    2    0    0 -0.51114294632E+01  0.90337723698E+00  0.14610407618E+04  0.14610842038E+04  0.10000000000E+02 0.  1.
</event>
<event>
 5    1  0.1582292E-008  0.3835044E+03  0.7957747E-01  0.3436040E+00
         13   -1    0    0    0    0  0.00000000000E+00  0.00000000000E+00  0.14999999963E+04  0.15000000000E+04  0.10566000000E+00 0. -1.
        994   -1    0    0    0    0 -0.00000000000E+00 -0.00000000000E+00  0.11368683772E-12  0.17120000000E+03  0.17120000000E+03 0.  0.
         13    1    1    2    0    0  0.79873427035E+01  0.15902095162E+02  0.64677705921E+02  0.67081227487E+02  0.10566000000E+00 0. -1.
        994    1    1    2    0    0 -0.41105570944E+00 -0.17271812385E+02  0.33614967703E+01  0.17210236527E+03  0.17120000000E+03 0.  0.
        998    1    1    2    0    0 -0.75762869940E+01  0.13697172232E+01  0.14319607936E+04  0.14320164072E+04  0.10000000000E+02 0. -1.
</event>
<event>
 5    1  0.1582292E-008  0.3857854E+03  0.7957747E-01  0.3426348E+00
         13   -1    0    0    0    0  0.00000000000E+00  0.00000000000E+00  0.14999999963E+04  0.15000000000E+04  0.10566000000E+00 0.  1.
        994   -1    0    0    0    0 -0.00000000000E+00 -0.00000000000E+00  0.11368683772E-12  0.17120000000E+03  0.17120000000E+03 0.  0.
         13    1    1    2    0    0  0.20885054173E+01 -0.12957250364E+02  0.71636418012E+02  0.72828838666E+02  0.10566000000E+00 0.  1.
        994    1    1    2    0    0 -0.45956954159E+01  0.50163852469E+01  0.13925346736E+01  0.17134078233E+03  0.17120000000E+03 0.  0.
        998    1    1    2    0    0  0.25071899986E+01  0.79408651170E+01  0.14269710436E+04  0.14270303790E+04  0.10000000000E+02 0.  1.
</event>
<event>
 5    1  0.1582292E-008  0.3785095E+03  0.7957747E-01  0.3457674E+00
         13   -1    0    0    0    0  0.00000000000E+00  0.00000000000E+00  0.14999999963E+04  0.15000000000E+04  0.10566000000E+00 0.  1.
        994   -1    0    0    0    0 -0.00000000000E+00 -0.00000000000E+00  0.11368683772E-12  0.17120000000E+03  0.17120000000E+03 0.  0.
         13    1    1    2    0    0 -0.49498387190E+01  0.16137888205E+02  0.27619602649E+02  0.32369521986E+02  0.10566000000E+00 0.  1.
        994    1    1    2    0    0 -0.75522345471E+01 -0.80439462413E+01  0.52965156278E+01  0.17163692608E+03  0.17120000000E+03 0.  0.
        998    1    1    2    0    0  0.12502073266E+02 -0.80939419639E+01  0.14670838780E+04  0.14671935519E+04  0.10000000000E+02 0.  1.
</event>
<event>
 5    1  0.1582292E-008  0.3802387E+03  0.7957747E-01  0.3450120E+00
         13   -1    0    0    0    0  0.00000000000E+00  0.00000000000E+00  0.14999999963E+04  0.15000000000E+04  0.10566000000E+00 0.  1.
        994   -1    0    0    0    0 -0.00000000000E+00 -0.00000000000E+00  0.11368683772E-12  0.17120000000E+03  0.17120000000E+03 0.  0.
         13    1    1    2    0    0  0.55871877788E+02  0.28416495979E+01  0.31055352522E+03  0.31555228551E+03  0.10566000000E+00 0.  1.
        994    1    1    2    0    0 -0.55908897237E+02 -0.91715313128E+00  0.14528118168E+02  0.18068522955E+03  0.17120000000E+03 0.  0.
        998    1    1    2    0    0  0.37019449345E-01 -0.19244964666E+01  0.11749183529E+04  0.11749624849E+04  0.10000000000E+02 0.  1.
</event>
<event>
 5    1  0.1582292E-008  0.3730037E+03  0.7957747E-01  0.3482200E+00
         13   -1    0    0    0    0  0.00000000000E+00  0.00000000000E+00  0.14999999963E+04  0.15000000000E+04  0.10566000000E+00 0.  1.
        994   -1    0    0    0    0 -0.00000000000E+00 -0.00000000000E+00  0.11368683772E-12  0.17120000000E+03  0.17120000000E+03 0.  0.
         13    1    1    2    0    0 -0.25385824383E+02 -0.18306332489E+02  0.66217195746E+02  0.73241313924E+02  0.10566000000E+00 0.  1.
        994    1    1    2    0    0 -0.96987159834E+01  0.32109715923E+01  0.80647557532E+01  0.17169407595E+03  0.17120000000E+03 0.  0.
        998    1    1    2    0    0  0.35084540367E+02  0.15095360897E+02  0.14257180448E+04  0.14262646101E+04  0.10000000000E+02 0.  1.
</event>
<event>
 5    1  0.1582292E-008  0.3825811E+03  0.7957747E-01  0.3439996E+00
         13   -1    0    0    0    0  0.00000000000E+00  0.00000000000E+00  0.14999999963E+04  0.15000000000E+04  0.10566000000E+00 0.  1.
        994   -1    0    0    0    0 -0.00000000000E+00 -0.00000000000E+00  0.11368683772E-12  0.17120000000E+03  0.17120000000E+03 0.  0.
         13    1    1    2    0    0 -0.26746574662E+02 -0.41484535328E+01  0.13374971850E+03  0.13646093684E+03  0.10566000000E+00 0.  1.
        994    1    1    2    0    0  0.87977631448E+01  0.12475916674E+02  0.36087193737E+01  0.17191716607E+03  0.17120000000E+03 0.  0.
        998    1    1    2    0    0  0.17948811517E+02 -0.83274631410E+01  0.13626415584E+04  0.13628218971E+04  0.10000000000E+02 0.  1.
</event>
<event>
 5    1  0.1582292E-008  0.3730573E+03  0.7957747E-01  0.3481957E+00
         13   -1    0    0    0    0  0.00000000000E+00  0.00000000000E+00  0.14999999963E+04  0.15000000000E+04  0.10566000000E+00 0. -1.
        994   -1    0    0    0    0 -0.00000000000E+00 -0.00000000000E+00  0.11368683772E-12  0.17120000000E+03  0.17120000000E+03 0.  0.
         13    1    1    2    0    0  0.64994201503E+01 -0.81523107197E+02  0.23161234177E+03  0.24562684603E+03  0.10566000000E+00 0. -1.
        994    1    1    2    0    0  0.37374087712E+02  0.77674736460E+02  0.39309086517E+02  0.19566510011E+03  0.17120000000E+03 0.  0.
        998    1    1    2    0    0 -0.43873507862E+02  0.38483707367E+01  0.12290785680E+04  0.12299080539E+04  0.10000000000E+02 0. -1.
</event>
<event>
 5    1  0.1582292E-008  0.3816661E+03  0.7957747E-01  0.3443936E+00
         13   -1    0    0    0    0  0.00000000000E+00  0.00000000000E+00  0.14999999963E+04  0.15000000000E+04  0.10566000000E+00 0.  1.
        994   -1    0    0    0    0 -0.00000000000E+00 -0.00000000000E+00  0.11368683772E-12  0.17120000000E+03  0.17120000000E+03 0.  0.
         13    1    1    2    0    0 -0.13739969244E+02  0.18958451650E+02  0.89065063218E+02  0.92091293258E+02  0.10566000000E+00 0.  1.
        994    1    1    2    0    0  0.11141163038E+02  0.83268459399E+01  0.39379196146E+01  0.17180922294E+03  0.17120000000E+03 0.  0.
        998    1    1    2    0    0  0.25988062055E+01 -0.27285297589E+02  0.14069970134E+04  0.14072994838E+04  0.10000000000E+02 0.  1.
</event>
<event>
 5    1  0.1582292E-008  0.3789235E+03  0.7957747E-01  0.3455859E+00
         13   -1    0    0    0    0  0.00000000000E+00  0.00000000000E+00  0.14999999963E+04  0.15000000000E+04  0.10566000000E+00 0.  1.
        994   -1    0    0    0    0 -0.00000000000E+00 -0.00000000000E+00  0.11368683772E-12  0.17120000000E+03  0.17120000000E+03 0.  0.
         13    1    1    2    0    0  0.13240373179E+02  0.29639255319E+02  0.13454804198E+03  0.13840874143E+03  0.10566000000E+00 0.  1.
        994    1    1    2    0    0  0.53709252490E+01  0.12500419463E+02  0.52988099449E+01  0.17182149083E+03  0.17120000000E+03 0.  0.
        998    1    1    2    0    0 -0.18611298428E+02 -0.42139674782E+02  0.13601531444E+04  0.13609697677E+04  0.10000000000E+02 0.  1.
</event>
<event>
 5    1  0.1582292E-008  0.3849519E+03  0.7957747E-01  0.3429876E+00
         13   -1    0    0    0    0  0.00000000000E+00  0.00000000000E+00  0.14999999963E+04  0.15000000000E+04  0.10566000000E+00 0. -1.
        994   -1    0    0    0    0 -0.00000000000E+00 -0.00000000000E+00  0.11368683772E-12  0.17120000000E+03  0.17120000000E+03 0.  0.
         13    1    1    2    0    0 -0.11060737466E+02  0.86088918984E+00  0.39512858294E+02  0.41040932958E+02  0.10566000000E+00 0. -1.
        994    1    1    2    0    0 -0.46288543471E+01  0.96749453371E+01  0.20324585972E+01  0.17154766611E+03  0.17120000000E+03 0.  0.
        998    1    1    2    0    0  0.15689591814E+02 -0.10535834527E+02  0.14584546794E+04  0.14586114009E+04  0.10000000000E+02 0. -1.
</event>
<event>
 5    1  0.1582292E-008  0.3812021E+03  0.7957747E-01  0.3445941E+00
         13   -1    0    0    0    0  0.00000000000E+00  0.00000000000E+00  0.14999999963E+04  0.15000000000E+04  0.10566000000E+00 0.  1.
        994   -1    0    0    0    0 -0.00000000000E+00 -0.00000000000E+00  0.11368683772E-12  0.17120000000E+03  0.17120000000E+03 0.  0.
         13    1    1    2    0    0 -0.12417111843E+02 -0.65807103661E+01  0.26308010204E+02  0.29826380612E+02  0.10566000000E+00 0.  1.
        994    1    1    2    0    0  0.10795811583E+02  0.82466105193E+01  0.41423399750E+01  0.17178811109E+03  0.17120000000E+03 0.  0.
        998    1    1    2    0    0  0.16213002600E+01 -0.16659001532E+01  0.14695496461E+04  0.14695855083E+04  0.10000000000E+02 0.  1.
</event>
<event>
 5    1  0.1582292E-008  0.3789033E+03  0.7957747E-01  0.3455948E+00
         13   -1    0    0    0    0  0.00000000000E+00  0.00000000000E+00  0.14999999963E+04  0.15000000000E+04  0.10566000000E+00 0.  1.
        994   -1    0    0    0    0 -0.00000000000E+00 -0.00000000000E+00  0.11368683772E-12  0.17120000000E+03  0.17120000000E+03 0.  0.
         13    1    1    2    0    0  0.10587716952E+02 -0.10117932957E+03  0.48001272582E+03  0.49067462192E+03  0.10566000000E+00 0.  1.
        994    1    1    2    0    0 -0.14701875065E+02  0.72727084791E+01  0.16697720172E+02  0.17279262507E+03  0.17120000000E+03 0.  0.
        998    1    1    2    0    0  0.41141581134E+01  0.93906621088E+02  0.10032895503E+04  0.10077327530E+04  0.10000000000E+02 0.  1.
</event>
<event>
 5    1  0.1582292E-008  0.3839385E+03  0.7957747E-01  0.3434187E+00
         13   -1    0    0    0    0  0.00000000000E+00  0.00000000000E+00  0.14999999963E+04  0.15000000000E+04  0.10566000000E+00 0.  1.
        994   -1    0    0    0    0 -0.00000000000E+00 -0.00000000000E+00  0.11368683772E-12  0.17120000000E+03  0.17120000000E+03 0.  0.
         13    1    1    2    0    0 -0.13207618200E+02 -0.18316592271E+02  0.13578239698E+03  0.13764740908E+03  0.10566000000E+00 0.  1.
        994    1    1    2    0    0 -0.30413489017E+01 -0.19109772528E+01  0.22006323079E+01  0.17125181581E+03  0.17120000000E+03 0.  0.
        998    1    1    2    0    0  0.16248967101E+02  0.20227569524E+02  0.13620169670E+04  0.13623007751E+04  0.10000000000E+02 0.  1.
</event>
<event>
 5    1  0.1582292E-008  0.3696167E+03  0.7957747E-01  0.3497654E+00
         13   -1    0    0    0    0  0.00000000000E+00  0.00000000000E+00  0.14999999963E+04  0.15000000000E+04  0.10566000000E+00 0. -1.
        994   -1    0    0    0    0 -0.00000000000E+00 -0.00000000000E+00  0.11368683772E-12  0.17120000000E+03  0.17120000000E+03 0.  0.
         13    1    1    2    0    0 -0.92436273788E+02 -0.27879139071E+01  0.34922944282E+03  0.36126645578E+03  0.10566000000E+00 0. -1.
        994    1    1    2    0    0  0.89081493455E+02  0.74831221507E+01  0.37671005038E+02  0.19677411978E+03  0.17120000000E+03 0.  0.
        998    1    1    2    0    0  0.33547803336E+01 -0.46952082436E+01  0.11130995484E+04  0.11131594244E+04  0.10000000000E+02 0. -1.
</event>
<event>
 5    1  0.1582292E-008  0.3835239E+03  0.7957747E-01  0.3435957E+00
         13   -1    0    0    0    0  0.00000000000E+00  0.00000000000E+00  0.14999999963E+04  0.15000000000E+04  0.10566000000E+00 0. -1.
        994   -1    0    0    0    0 -0.00000000000E+00 -0.00000000000E+00  0.11368683772E-12  0.17120000000E+03  0.17120000000E+03 0.  0.
         13    1    1    2    0    0 -0.22090600676E+02 -0.15056451683E+02  0.13896965070E+03  0.14151772453E+03  0.10566000000E+00 0. -1.
        994    1    1    2    0    0  0.22911245820E+02  0.13293688648E+02  0.46867986331E+01  0.17330047151E+03  0.17120000000E+03 0.  0.
        998    1    1    2    0    0 -0.82064514413E+00  0.17627630350E+01  0.13563435469E+04  0.13563818040E+04  0.10000000000E+02 0. -1.
</event>
<event>
 5    1  0.1582292E-008  0.3698437E+03  0.7957747E-01  0.3496610E+00
         13   -1    0    0    0    0  0.00000000000E+00  0.00000000000E+00  0.14999999963E+04  0.15000000000E+04  0.10566000000E+00 0.  1.
        994   -1    0    0    0    0 -0.00000000000E+00 -0.00000000000E+00  0.11368683772E-12  0.17120000000E+03  0.17120000000E+03 0.  0.
         13    1    1    2    0    0  0.13567816945E+02  0.18120964286E+02  0.18720104981E+02  0.29375304217E+02  0.10566000000E+00 0.  1.
        994    1    1    2    0    0 -0.15120684327E+02 -0.16432350153E+02  0.12600442529E+02  0.17310941158E+03  0.17120000000E+03 0.  0.
        998    1    1    2    0    0  0.15528673828E+01 -0.16886141335E+01  0.14686794488E+04  0.14687152842E+04  0.10000000000E+02 0.  1.
</event>
<event>
 5    1  0.1582292E-008  0.3726733E+03  0.7957747E-01  0.3483694E+00
         13   -1    0    0    0    0  0.00000000000E+00  0.00000000000E+00  0.14999999963E+04  0.15000000000E+04  0.10566000000E+00 0. -1.
        994   -1    0    0    0    0 -0.00000000000E+00 -0.00000000000E+00  0.11368683772E-12  0.17120000000E+03  0.17120000000E+03 0.  0.
         13    1    1    2    0    0  0.21434102189E+02  0.14185000870E+02  0.41918135337E+02  0.49170887937E+02  0.10566000000E+00 0. -1.
        994    1    1    2    0    0 -0.10208000567E+01  0.20404061718E+02  0.93096519823E+01  0.17266579681E+03  0.17120000000E+03 0.  0.
        998    1    1    2    0    0 -0.20413302132E+02 -0.34589062588E+02  0.14487722090E+04  0.14493633153E+04  0.10000000000E+02 0. -1.
</event>
<event>
 5    1  0.1582292E-008  0.3846079E+03  0.7957747E-01  0.3431337E+00
         13   -1    0    0    0    0  0.00000000000E+00  0.00000000000E+00  0.14999999963E+04  0.15000000000E+04  0.10566000000E+00 0. -1.
        994   -1    0    0    0    0 -0.00000000000E+00 -0.00000000000E+00  0.11368683772E-12  0.17120000000E+03  0.17120000000E+03 0.  0.
         13    1    1    2    0    0 -0.19316612230E+02 -0.51205988487E+01  0.10973184931E+03  0.11153672918E+03  0.10566000000E+00 0. -1.
        994    1    1    2    0    0  0.12056056006E+02  0.13884431626E+01  0.23100427179E+01  0.17164513555E+03  0.17120000000E+03 0.  0.
        998    1    1    2    0    0  0.72605562239E+01  0.37321556861E+01  0.13879581043E+04  0.13880181353E+04  0.10000000000E+02 0. -1.
</event>
<event>
 5    1  0.1582292E-008  0.3773724E+03  0.7957747E-01  0.3462680E+00
         13   -1    0    0    0    0  0.00000000000E+00  0.00000000000E+00  0.14999999963E+04  0.15000000000E+04  0.10566000000E+00 0.  1.
        994   -1    0    0    0    0 -0.00000000000E+00 -0.00000000000E+00  0.11368683772E-12  0.17120000000E+03  0.17120000000E+03 0.  0.
         13    1    1    2    0    0 -0.10432353955E+02 -0.59892229524E+01  0.10913881518E+02  0.16242806852E+02  0.10566000000E+00 0.  1.
        994    1    1    2    0    0 -0.13237608996E+01  0.10291276657E+02  0.58286126720E+01  0.17161315638E+03  0.17120000000E+03 0.  0.
        998    1    1    2    0    0  0.11756114854E+02 -0.43020537050E+01  0.14832575021E+04  0.14833440368E+04  0.10000000000E+02 0.  1.
</event>
<event>
 5    1  0.1582292E-008  0.3789733E+03  0.7957747E-01  0.3455641E+00
         13   -1    0    0    0    0  0.00000000000E+00  0.00000000000E+00  0.14999999963E+04  0.15000000000E+04  0.10566000000E+00 0. -1.
        994   -1    0    0    0    0 -0.00000000000E+00 -0.00000000000E+00  0.11368683772E-12  0.17120000000E+03  0.17120000000E+03 0.  0.
         13    1    1    2    0    0 -0.14425526656E+02  0.25160416540E+02  0.89125712838E+02  0.93725910146E+02  0.10566000000E+00 0. -1.
        994    1    1    2    0    0 -0.40818253448E+01 -0.21996954439E+02  0.63330203886E+01  0.17277174089E+03  0.17120000000E+03 0.  0.
        998    1    1    2    0    0  0.18507352001E+02 -0.31634621010E+01  0.14045412631E+04  0.14047023490E+04  0.10000000000E+02 0. -1.
</event>
<event>
 5    1  0.1686182E-008  0.3851323E+03  0.7957747E-01  0.3429111E+00
         13   -1    0    0    0    0  0.00000000000E+00  0.00000000000E+00  0.14999999963E+04  0.15000000000E+04  0.10566000000E+00 0.  1.
        994   -1    0    0    0    0 -0.00000000000E+00 -0.00000000000E+00  0.11368683772E-12  0.17120000000E+03  0.17120000000E+03 0.  0.
         13    1    1    2    0    0 -0.13632745303E+02  0.56602624032E+01  0.67260161730E+02  0.68860952904E+02  0.10566000000E+00 0.  1.
        994    1    1    2    0    0  0.12614393429E+02 -0.94768274396E+01  0.23832017718E+01  0.17194200426E+03  0.17120000000E+03 0.  0.
        998    1    1    2    0    0  0.10183518739E+01  0.38165650364E+01  0.14303566328E+04  0.14303970428E+04  0.10000000000E+02 0.  1.
</event>
<event>
 5    1  0.1582292E-008  0.3805137E+03  0.7957747E-01  0.3448925E+00
         13   -1    0    0    0    0  0.00000000000E+00  0.00000000000E+00  0.14999999963E+04  0.15000000000E+04  0.10566000000E+00 0.  1.
        994   -1    0    0    0    0 -0.00000000000E+00 -0.00000000000E+00  0.11368683772E-12  0.17120000000E+03  0.17120000000E+03 0.  0.
         13    1    1    2    0    0  0.98627740719E+01  0.11451607956E+02  0.26449405283E+02  0.30463024161E+02  0.10566000000E+00 0.  1.
        994    1    1    2    0    0 -0.47810880473E+02  0.39054601244E+01  0.11591975229E+02  0.17817111663E+03  0.17120000000E+03 0.  0.
        998    1    1    2    0    0  0.37948106402E+02 -0.15357068080E+02  0.14619586158E+04  0.14625658592E+04  0.10000000000E+02 0.  1.
</event>
<event>
 5    1  0.2008907E-008  0.3860251E+03  0.7957747E-01  0.3425336E+00
         13   -1    0    0    0    0  0.00000000000E+00  0.00000000000E+00  0.14999999963E+04  0.15000000000E+04  0.10566000000E+00 0.  1.
        994   -1    0    0    0    0 -0.00000000000E+00 -0.00000000000E+00  0.11368683772E-12  0.17120000000E+03  0.17120000000E+03 0.  0.
         13    1    1    2    0    0 -0.12895345951E+02  0.36448237805E-01  0.72235515463E+02  0.73377599674E+02  0.10566000000E+00 0.  1.
        994    1    1    2    0    0  0.13234133137E+02 -0.26093335034E+01  0.17186797892E+01  0.17173917655E+03  0.17120000000E+03 0.  0.
        998    1    1    2    0    0 -0.33878718617E+00  0.25728852656E+01  0.14260458010E+04  0.14260832238E+04  0.10000000000E+02 0.  1.
</event>
<event>
 5    1  0.1582292E-008  0.3846632E+03  0.7957747E-01  0.3431102E+00
         13   -1    0    0    0    0  0.00000000000E+00  0.00000000000E+00  0.14999999963E+04  0.15000000000E+04  0.10566000000E+00 0.  1.
        994   -1    0    0    0    0 -0.00000000000E+00 -0.00000000000E+00  0.11368683772E-12  0.17120000000E+03  0.17120000000E+03 0.  0.
         13    1    1    2    0    0 -0.33102416145E+01  0.16158837223E+02  0.76698250422E+02  0.78451886540E+02  0.10566000000E+00 0.  1.
        994    1    1    2    0    0 -0.18991773167E+01 -0.89861473717E+01  0.20752126864E+01  0.17145875372E+03  0.17120000000E+03 0.  0.
        998    1    1    2    0    0  0.52094189312E+01 -0.71726898508E+01  0.14212265332E+04  0.14212893597E+04  0.10000000000E+02 0.  1.
</event>
<event>
 5    1  0.1582292E-008  0.3800305E+03  0.7957747E-01  0.3451026E+00
         13   -1    0    0    0    0  0.00000000000E+00  0.00000000000E+00  0.14999999963E+04  0.15000000000E+04  0.10566000000E+00 0. -1.
        994   -1    0    0    0    0 -0.00000000000E+00 -0.00000000000E+00  0.11368683772E-12  0.17120000000E+03  0.17120000000E+03 0.  0.
         13    1    1    2    0    0  0.13045511834E+02  0.11688043541E+02  0.31759315294E+02  0.36269284703E+02  0.10566000000E+00 0. -1.
        994    1    1    2    0    0 -0.41094946986E+02 -0.26315180030E+02  0.12118787301E+02  0.17843090644E+03  0.17120000000E+03 0.  0.
        998    1    1    2    0    0  0.28049435151E+02  0.14627136489E+02  0.14561218937E+04  0.14564998089E+04  0.10000000000E+02 0. -1.
</event>
<event>
 5    1  0.1582292E-008  0.3758668E+03  0.7957747E-01  0.3469355E+00
         13   -1    0    0    0    0  0.00000000000E+00  0.00000000000E+00  0.14999999963E+04  0.15000000000E+04  0.10566000000E+00 0. -1.
        994   -1    0    0    0    0 -0.00000000000E+00 -0.00000000000E+00  0.11368683772E-12  0.17120000000E+03  0.17120000000E+03 0.  0.
         13    1    1    2    0    0 -0.83970162542E+01  0.13420700152E+02  0.17354688725E+02  0.23490880344E+02  0.10566000000E+00 0. -1.
        994    1    1    2    0    0  0.10602210189E+02 -0.79563366560E+01  0.68300172380E+01  0.17184818675E+03  0.17120000000E+03 0.  0.
        998    1    1    2    0    0 -0.22051939344E+01 -0.54643634962E+01  0.14758152903E+04  0.14758609329E+04  0.10000000000E+02 0. -1.
</event>
<event>
 5    1  0.1582292E-008  0.3841261E+03  0.7957747E-01  0.3433387E+00
         13   -1    0    0    0    0  0.00000000000E+00  0.00000000000E+00  0.14999999963E+04  0.15000000000E+04  0.10566000000E+00 0. -1.
        994   -1    0    0    0    0 -0.00000000000E+00 -0.00000000000E+00  0.11368683772E-12  0.17120000000E+03  0.17120000000E+03 0.  0.
         13    1    1    2    0    0  0.17645797142E+01  0.17889769802E+02  0.73579706895E+02  0.75743924086E+02  0.10566000000E+00 0. -1.
        994    1    1    2    0    0 -0.29741614061E+00 -0.21179568074E+02  0.35457181938E+01  0.17254180559E+03  0.17120000000E+03 0.  0.
        998    1    1    2    0    0 -0.14671635736E+01  0.32897982723E+01  0.14228745712E+04  0.14229142703E+04  0.10000000000E+02 0. -1.
</event>
<event>
 5    1  0.1582292E-008  0.3737135E+03  0.7957747E-01  0.3478997E+00
         13   -1    0    0    0    0  0.00000000000E+00  0.00000000000E+00  0.14999999963E+04  0.15000000000E+04  0.10566000000E+00 0.  1.
        994   -1    0    0    0    0 -0.00000000000E+00 -0.00000000000E+00  0.11368683772E-12  0.17120000000E+03  0.17120000000E+03 0.  0.
         13    1    1    2    0    0 -0.21443342461E+02  0.10180719935E+03  0.49997792108E+03  0.51068821751E+03  0.10566000000E+00 0.  1.
        994    1    1    2    0    0  0.49841821545E+01 -0.10177254030E+03  0.43660481254E+02  0.20395629349E+03  0.17120000000E+03 0.  0.
        998    1    1    2    0    0  0.16459160306E+02 -0.34659050039E-01  0.95636159395E+03  0.95655548900E+03  0.10000000000E+02 0.  1.
</event>
<event>
 5    1  0.1582292E-008  0.3767155E+03  0.7957747E-01  0.3465586E+00
         13   -1    0    0    0    0  0.00000000000E+00  0.00000000000E+00  0.14999999963E+04  0.15000000000E+04  0.10566000000E+00 0.  1.
        994   -1    0    0    0    0 -0.00000000000E+00 -0.00000000000E+00  0.11368683772E-12  0.17120000000E+03  0.17120000000E+03 0.  0.
         13    1    1    2    0    0  0.41063140906E+02  0.33003507195E+02  0.28320710081E+03  0.28806541990E+03  0.10566000000E+00 0.  1.
        994    1    1    2    0    0  0.15050184568E+00 -0.13214980787E+02  0.63909328028E+01  0.17182823514E+03  0.17120000000E+03 0.  0.
        998    1    1    2    0    0 -0.41213642752E+02 -0.19788526408E+02  0.12104019627E+04  0.12113063450E+04  0.10000000000E+02 0.  1.
</event>
<event>
 5    1  0.1582292E-008  0.3900430E+03  0.7957747E-01  0.3408562E+00
         13   -1    0    0    0    0  0.00000000000E+00  0.00000000000E+00  0.14999999963E+04  0.15000000000E+04  0.10566000000E+00 0.  1.
        994   -1    0    0    0    0 -0.00000000000E+00 -0.00000000000E+00  0.11368683772E-12  0.17120000000E+03  0.17120000000E+03 0.  0.
         13    1    1    2    0    0 -0.59337887012E+01  0.12050886267E+02 -0.58795992638E+01  0.14663374773E+02  0.10566000000E+00 0.  1.
        994    1    1    2    0    0  0.18825802943E+01 -0.87097938839E+01  0.22256414516E+02  0.17287045035E+03  0.17120000000E+03 0.  0.
        998    1    1    2    0    0  0.40512084070E+01 -0.33410923836E+01  0.14836231810E+04  0.14836661749E+04  0.10000000000E+02 0.  1.
</event>
<event>
 5    1  0.1582292E-008  0.3902058E+03  0.7957747E-01  0.3407889E+00
         13   -1    0    0    0    0  0.00000000000E+00  0.00000000000E+00  0.14999999963E+04  0.15000000000E+04  0.10566000000E+00 0.  1.
        994   -1    0    0    0    0 -0.00000000000E+00 -0.00000000000E+00  0.11368683772E-12  0.17120000000E+03  0.17120000000E+03 0.  0.
         13    1    1    2    0    0  0.60331269303E+02  0.51209168836E+02  0.12687943228E+03  0.14953475358E+03  0.10566000000E+00 0.  1.
        994    1    1    2    0    0 -0.58412449089E+02 -0.43612082022E+02  0.42347839314E+02  0.19083188256E+03  0.17120000000E+03 0.  0.
        998    1    1    2    0    0 -0.19188202140E+01 -0.75970868136E+01  0.13307727247E+04  0.13308333639E+04  0.10000000000E+02 0.  1.
</event>
<event>
 5    1  0.1582292E-008  0.3863185E+03  0.7957747E-01  0.3424099E+00
         13   -1    0    0    0    0  0.00000000000E+00  0.00000000000E+00  0.14999999963E+04  0.15000000000E+04  0.10566000000E+00 0.  1.
        994   -1    0    0    0    0 -0.00000000000E+00 -0.00000000000E+00  0.11368683772E-12  0.17120000000E+03  0.17120000000E+03 0.  0.
         13    1    1    2    0    0 -0.10047445130E+02 -0.32773268861E+01  0.62657476435E+02  0.63542604152E+02  0.10566000000E+00 0.  1.
        994    1    1    2    0    0 -0.26707196519E+01  0.15265703752E+01  0.10079079205E+01  0.17123060193E+03  0.17120000000E+03 0.  0.
        998    1    1    2    0    0  0.12718164782E+02  0.17507565109E+01  0.14363346119E+04  0.14364267939E+04  0.10000000000E+02 0.  1.
</event>
<event>
 5    1  0.1582292E-008  0.3853745E+03  0.7957747E-01  0.3428085E+00
         13   -1    0    0    0    0  0.00000000000E+00  0.00000000000E+00  0.14999999963E+04  0.15000000000E+04  0.10566000000E+00 0.  1.
        994   -1    0    0    0    0 -0.00000000000E+00 -0.00000000000E+00  0.11368683772E-12  0.17120000000E+03  0.17120000000E+03 0.  0.
         13    1    1    2    0    0  0.17333097921E-01  0.15104048162E+02  0.77917534246E+02  0.79368040661E+02  0.10566000000E+00 0.  1.
        994    1    1    2    0    0 -0.52015921558E+00 -0.12234525294E+02  0.19370192526E+01  0.17164832134E+03  0.17120000000E+03 0.  0.
        998    1    1    2    0    0  0.50282611766E+00 -0.28695228680E+01  0.14201454428E+04  0.14201836380E+04  0.10000000000E+02 0.  1.
</event>
<event>
 5    1  0.1582292E-008  0.3751650E+03  0.7957747E-01  0.3472485E+00
         13   -1    0    0    0    0  0.00000000000E+00  0.00000000000E+00  0.14999999963E+04  0.15000000000E+04  0.10566000000E+00 0. -1.
        994   -1    0    0    0    0 -0.00000000000E+00 -0.00000000000E+00  0.11368683772E-12  0.17120000000E+03  0.17120000000E+03 0.  0.
         13    1    1    2    0    0  0.19212670600E+02 -0.12638070525E+02  0.32636885704E+02  0.39925242775E+02  0.10566000000E+00 0. -1.
        994    1    1    2    0    0 -0.10323245686E+03 -0.48706024598E+02  0.52231704105E+02  0.21228944368E+03  0.17120000000E+03 0.  0.
        998    1    1    2    0    0  0.84019786265E+02  0.61344095123E+02  0.14151314065E+04  0.14189853135E+04  0.10000000000E+02 0. -1.
</event>
<event>
 5    1  0.1582292E-008  0.3789453E+03  0.7957747E-01  0.3455764E+00
         13   -1    0    0    0    0  0.00000000000E+00  0.00000000000E+00  0.14999999963E+04  0.15000000000E+04  0.10566000000E+00 0.  1.
        994   -1    0    0    0    0 -0.00000000000E+00 -0.00000000000E+00  0.11368683772E-12  0.17120000000E+03  0.17120000000E+03 0.  0.
         13    1    1    2    0    0  0.19990950132E+02 -0.43913529507E+02  0.21052296326E+03  0.21598140055E+03  0.10566000000E+00 0.  1.
        994    1    1    2    0    0 -0.21998612327E+02  0.45979381175E+02  0.13431814818E+02  0.17913094676E+03  0.17120000000E+03 0.  0.
        998    1    1    2    0    0  0.20076621951E+01 -0.20658516682E+01  0.12760452182E+04  0.12760876527E+04  0.10000000000E+02 0.  0.
</event>
<event>
 5    1  0.1582292E-008  0.3747857E+03  0.7957747E-01  0.3474182E+00
         13   -1    0    0    0    0  0.00000000000E+00  0.00000000000E+00  0.14999999963E+04  0.15000000000E+04  0.10566000000E+00 0.  1.
        994   -1    0    0    0    0 -0.00000000000E+00 -0.00000000000E+00  0.11368683772E-12  0.17120000000E+03  0.17120000000E+03 0.  0.
         13    1    1    2    0    0 -0.18333123213E+02  0.93991448923E+01  0.28406472771E+02  0.35091112703E+02  0.10566000000E+00 0.  1.
        994    1    1    2    0    0  0.13484520639E+02 -0.60870295372E+01  0.75337044580E+01  0.17200314220E+03  0.17120000000E+03 0.  0.
        998    1    1    2    0    0  0.48486025739E+01 -0.33121153551E+01  0.14640598190E+04  0.14641057451E+04  0.10000000000E+02 0.  1.
</event>
<event>
 5    1  0.1582292E-008  0.3837346E+03  0.7957747E-01  0.3435057E+00
         13   -1    0    0    0    0  0.00000000000E+00  0.00000000000E+00  0.14999999963E+04  0.15000000000E+04  0.10566000000E+00 0.  1.
        994   -1    0    0    0    0 -0.00000000000E+00 -0.00000000000E+00  0.11368683772E-12  0.17120000000E+03  0.17120000000E+03 0.  0.
         13    1    1    2    0    0  0.45791776035E+01  0.16946326981E+02  0.66483662878E+02  0.68762165901E+02  0.10566000000E+00 0.  1.
        994    1    1    2    0    0 -0.46060956195E+01 -0.13844190061E+02  0.29629569219E+01  0.17184614290E+03  0.17120000000E+03 0.  0.
        998    1    1    2    0    0  0.26918015985E-01 -0.31021369195E+01  0.14305533765E+04  0.14305916912E+04  0.10000000000E+02 0.  1.
</event>
<event>
 5    1  0.1582292E-008  0.3766674E+03  0.7957747E-01  0.3465799E+00
         13   -1    0    0    0    0  0.00000000000E+00  0.00000000000E+00  0.14999999963E+04  0.15000000000E+04  0.10566000000E+00 0. -1.
        994   -1    0    0    0    0 -0.00000000000E+00 -0.00000000000E+00  0.11368683772E-12  0.17120000000E+03  0.17120000000E+03 0.  0.
         13    1    1    2    0    0 -0.28982178594E+02  0.12114060069E+02  0.77553826598E+02  0.83673916554E+02  0.10566000000E+00 0. -1.
        994    1    1    2    0    0  0.32078356527E+02 -0.15058984461E+02  0.10081543126E+02  0.17511959194E+03  0.17120000000E+03 0.  0.
        998    1    1    2    0    0 -0.30961779333E+01  0.29449243922E+01  0.14123646266E+04  0.14124064915E+04  0.10000000000E+02 0. -1.
</event>
<event>
 5    1  0.1582292E-008  0.3713442E+03  0.7957747E-01  0.3489736E+00
         13   -1    0    0    0    0  0.00000000000E+00  0.00000000000E+00  0.14999999963E+04  0.15000000000E+04  0.10566000000E+00 0.  1.
        994   -1    0    0    0    0 -0.00000000000E+00 -0.00000000000E+00  0.11368683772E-12  0.17120000000E+03  0.17120000000E+03 0.  0.
         13    1    1    2    0    0 -0.17155380156E+02  0.75534500341E+02  0.27145235688E+03  0.28228737313E+03  0.10566000000E+00 0.  1.
        994    1    1    2    0    0  0.25100601384E+02 -0.80692485618E+02  0.33562848019E+02  0.19384845161E+03  0.17120000000E+03 0.  0.
        998    1    1    2    0    0 -0.79452212272E+01  0.51579852764E+01  0.11949847914E+04  0.11950641753E+04  0.10000000000E+02 0.  1.
</event>
<event>
 5    1  0.1582292E-008  0.3763439E+03  0.7957747E-01  0.3467234E+00
         13   -1    0    0    0    0  0.00000000000E+00  0.00000000000E+00  0.14999999963E+04  0.15000000000E+04  0.10566000000E+00 0.  1.
        994   -1    0    0    0    0 -0.00000000000E+00 -0.00000000000E+00  0.11368683772E-12  0.17120000000E+03  0.17120000000E+03 0.  0.
         13    1    1    2    0    0  0.71661476350E+02  0.13240229027E+02  0.33236339162E+03  0.34025888102E+03  0.10566000000E+00 0.  1.
        994    1    1    2    0    0 -0.74823615380E+02 -0.16555774548E+02  0.26128542882E+02  0.18938006189E+03  0.17120000000E+03 0.  0.
        998    1    1    2    0    0  0.31621390302E+01  0.33155455205E+01  0.11415080618E+04  0.11415610571E+04  0.10000000000E+02 0.  1.
</event>
<event>
 5    1  0.1582292E-008  0.3729319E+03  0.7957747E-01  0.3482524E+00
         13   -1    0    0    0    0  0.00000000000E+00  0.00000000000E+00  0.14999999963E+04  0.15000000000E+04  0.10566000000E+00 0. -1.
        994   -1    0    0    0    0 -0.00000000000E+00 -0.00000000000E+00  0.11368683772E-12  0.17120000000E+03  0.17120000000E+03 0.  0.
         13    1    1    2    0    0 -0.10206320658E+03  0.19046363914E+02  0.45755994029E+03  0.46919161570E+03  0.10566000000E+00 0. -1.
        994    1    1    2    0    0  0.10324173430E+03 -0.30693596072E+02  0.48562157368E+02  0.20801123928E+03  0.17120000000E+03 0.  0.
        998    1    1    2    0    0 -0.11785277192E+01  0.11647232158E+02  0.99387789862E+03  0.99399714502E+03  0.10000000000E+02 0. -1.
</event>
<event>
 5    1  0.1582292E-008  0.3819561E+03  0.7957747E-01  0.3442685E+00
         13   -1    0    0    0    0  0.00000000000E+00  0.00000000000E+00  0.14999999963E+04  0.15000000000E+04  0.10566000000E+00 0.  1.
        994   -1    0    0    0    0 -0.00000000000E+00 -0.00000000000E+00  0.11368683772E-12  0.17120000000E+03  0.17120000000E+03 0.  0.
         13    1    1    2    0    0  0.18544388261E+02  0.10750589930E+02  0.79488446247E+02  0.82327964694E+02  0.10566000000E+00 0.  1.
        994    1    1    2    0    0  0.52415390316E+01  0.18674270471E+01  0.32517971953E+01  0.17132126313E+03  0.17120000000E+03 0.  0.
        998    1    1    2    0    0 -0.23785927293E+02 -0.12618016977E+02  0.14172597528E+04  0.14175507722E+04  0.10000000000E+02 0.  1.
</event>
<event>
 5    1  0.1582292E-008  0.3857003E+03  0.7957747E-01  0.3426708E+00
         13   -1    0    0    0    0  0.00000000000E+00  0.00000000000E+00  0.14999999963E+04  0.15000000000E+04  0.10566000000E+00 0. -1.
        994   -1    0    0    0    0 -0.00000000000E+00 -0.00000000000E+00  0.11368683772E-12  0.17120000000E+03  0.17120000000E+03 0.  0.
         13    1    1    2    0    0 -0.11341829224E+02 -0.49871350010E+01  0.57979686036E+02  0.59288816505E+02  0.10566000000E+00 0. -1.
        994    1    1    2    0    0  0.10054660467E+02  0.12319703167E+02  0.21130189828E+01  0.17194992333E+03  0.17120000000E+03 0.  0.
        998    1    1    2    0    0  0.12871687570E+01 -0.73325681664E+01  0.14399072913E+04  0.14399612602E+04  0.10000000000E+02 0. -1.
</event>
<event>
 5    1  0.1582292E-008  0.3766973E+03  0.7957747E-01  0.3465666E+00
         13   -1    0    0    0    0  0.00000000000E+00  0.00000000000E+00  0.14999999963E+04  0.15000000000E+04  0.10566000000E+00 0.  1.
        994   -1    0    0    0    0 -0.00000000000E+00 -0.00000000000E+00  0.11368683772E-12  0.17120000000E+03  0.17120000000E+03 0.  0.
         13    1    1    2    0    0  0.26218370326E+00 -0.47486219299E+02  0.20655429873E+03  0.21194267917E+03  0.10566000000E+00 0.  1.
        994    1    1    2    0    0 -0.26233914303E+02  0.17037930784E+02  0.91240076176E+01  0.17427333950E+03  0.17120000000E+03 0.  0.
        998    1    1    2    0    0  0.25971730600E+02  0.30448288515E+02  0.12843216899E+04  0.12849839813E+04  0.10000000000E+02 0.  1.
</event>
<event>
 5    1  0.1582292E-008  0.3848770E+03  0.7957747E-01  0.3430194E+00
         13   -1    0    0    0    0  0.00000000000E+00  0.00000000000E+00  0.14999999963E+04  0.15000000000E+04  0.10566000000E+00 0.  1.
        994   -1    0    0    0    0 -0.00000000000E+00 -0.00000000000E+00  0.11368683772E-12  0.17120000000E+03  0.17120000000E+03 0.  0.
         13    1    1    2    0    0  0.11261667714E+02 -0.10224829786E+02  0.74999623426E+02  0.76526642302E+02  0.10566000000E+00 0.  1.
        994    1    1    2    0    0  0.24979936555E+01 -0.27102580064E+01  0.17358987177E+01  0.17124847099E+03  0.17120000000E+03 0.  0.
        998    1    1    2    0    0 -0.13759661370E+02  0.12935087792E+02  0.14232644741E+04  0.14234248867E+04  0.10000000000E+02 0.  1.
</event>
<event>
 5    1  0.1582292E-008  0.3825720E+03  0.7957747E-01  0.3440035E+00
         13   -1    0    0    0    0  0.00000000000E+00  0.00000000000E+00  0.14999999963E+04  0.15000000000E+04  0.10566000000E+00 0.  1.
        994   -1    0    0    0    0 -0.00000000000E+00 -0.00000000000E+00  0.11368683772E-12  0.17120000000E+03  0.17120000000E+03 0.  0.
         13    1    1    2    0    0  0.74787629493E+01  0.24981898605E+02  0.15517102109E+03  0.15734701810E+03  0.10566000000E+00 0.  1.
        994    1    1    2    0    0  0.19338167805E+02  0.12069906316E+02  0.45647948206E+01  0.17277130758E+03  0.17120000000E+03 0.  0.
        998    1    1    2    0    0 -0.26816930754E+02 -0.37051804921E+02  0.13402641804E+04  0.13410816743E+04  0.10000000000E+02 0.  1.
</event>
<event>
 5    1  0.1582292E-008  0.3773836E+03  0.7957747E-01  0.3462630E+00
         13   -1    0    0    0    0  0.00000000000E+00  0.00000000000E+00  0.14999999963E+04  0.15000000000E+04  0.10566000000E+00 0. -1.
        994   -1    0    0    0    0 -0.00000000000E+00 -0.00000000000E+00  0.11368683772E-12  0.17120000000E+03  0.17120000000E+03 0.  0.
         13    1    1    2    0    0 -0.52027285571E+02 -0.21632436871E+02  0.24347947625E+03  0.24991411982E+03  0.10566000000E+00 0. -1.
        994    1    1    2    0    0  0.55890320846E+02  0.12534627069E+02  0.16604131270E+02  0.18128977361E+03  0.17120000000E+03 0.  0.
        998    1    1    2    0    0 -0.38630352756E+01  0.90978098016E+01  0.12399163888E+04  0.12399961066E+04  0.10000000000E+02 0. -1.
</event>
<event>
 5    1  0.1582292E-008  0.3831198E+03  0.7957747E-01  0.3437686E+00
         13   -1    0    0    0    0  0.00000000000E+00  0.00000000000E+00  0.14999999963E+04  0.15000000000E+04  0.10566000000E+00 0. -1.
        994   -1    0    0    0    0 -0.00000000000E+00 -0.00000000000E+00  0.11368683772E-12  0.17120000000E+03  0.17120000000E+03 0.  0.
         13    1    1    2    0    0  0.75972477352E+01 -0.85959213780E+01  0.25181636019E+02  0.27671898998E+02  0.10566000000E+00 0. -1.
        994    1    1    2    0    0 -0.53941550864E+01 -0.10603480007E+01  0.26665338713E+01  0.17130899466E+03  0.17120000000E+03 0.  0.
        998    1    1    2    0    0 -0.22030926488E+01  0.96562693786E+01  0.14721518264E+04  0.14722191063E+04  0.10000000000E+02 0. -1.
</event>
<event>
 5    1  0.1582292E-008  0.3821465E+03  0.7957747E-01  0.3441865E+00
         13   -1    0    0    0    0  0.00000000000E+00  0.00000000000E+00  0.14999999963E+04  0.15000000000E+04  0.10566000000E+00 0.  1.
        994   -1    0    0    0    0 -0.00000000000E+00 -0.00000000000E+00  0.11368683772E-12  0.17120000000E+03  0.17120000000E+03 0.  0.
         13    1    1    2    0    0 -0.21166846221E+01 -0.14767657782E+02  0.36545291222E+02  0.39473200335E+02  0.10566000000E+00 0.  1.
        994    1    1    2    0    0  0.15399788934E+02 -0.95344824091E+00  0.38441032129E+01  0.17193684798E+03  0.17120000000E+03 0.  0.
        998    1    1    2    0    0 -0.13283104312E+02  0.15721106023E+02  0.14596106018E+04  0.14597899517E+04  0.10000000000E+02 0.  1.
</event>
<event>
 5    1  0.1582292E-008  0.3823325E+03  0.7957747E-01  0.3441065E+00
         13   -1    0    0    0    0  0.00000000000E+00  0.00000000000E+00  0.14999999963E+04  0.15000000000E+04  0.10566000000E+00 0. -1.
        994   -1    0    0    0    0 -0.00000000000E+00 -0.00000000000E+00  0.11368683772E-12  0.17120000000E+03  0.17120000000E+03 0.  0.
         13    1    1    2    0    0  0.10045707954E+02  0.10939474288E+01  0.16134849876E+02  0.19038316991E+02  0.10566000000E+00 0. -1.
        994    1    1    2    0    0 -0.52244412958E+01 -0.19809765087E+01  0.30638953694E+01  0.17131855273E+03  0.17120000000E+03 0.  0.
        998    1    1    2    0    0 -0.48212666587E+01  0.88702907994E+00  0.14808012510E+04  0.14808431303E+04  0.10000000000E+02 0. -1.
</event>
<event>
 5    1  0.1582292E-008  0.3719494E+03  0.7957747E-01  0.3486980E+00
         13   -1    0    0    0    0  0.00000000000E+00  0.00000000000E+00  0.14999999963E+04  0.15000000000E+04  0.10566000000E+00 0. -1.
        994   -1    0    0    0    0 -0.00000000000E+00 -0.00000000000E+00  0.11368683772E-12  0.17120000000E+03  0.17120000000E+03 0.  0.
         13    1    1    2    0    0  0.49813337221E+02 -0.47754927426E+02  0.32043278587E+03  0.32777901562E+03  0.10566000000E+00 0. -1.
        994    1    1    2    0    0 -0.29235539477E+02  0.46795250381E+01  0.11270414659E+02  0.17410651042E+03  0.17120000000E+03 0.  0.
        998    1    1    2    0    0 -0.20577797744E+02  0.43075402388E+02  0.11682967958E+04  0.11693144740E+04  0.10000000000E+02 0. -1.
</event>
<event>
 5    1  0.1582292E-008  0.3726640E+03  0.7957747E-01  0.3483736E+00
         13   -1    0    0    0    0  0.00000000000E+00  0.00000000000E+00  0.14999999963E+04  0.15000000000E+04  0.10566000000E+00 0.  1.
        994   -1    0    0    0    0 -0.00000000000E+00 -0.00000000000E+00  0.11368683772E-12  0.17120000000E+03  0.17120000000E+03 0.  0.
         13    1    1    2    0    0 -0.11000704281E+02 -0.32454812556E+02  0.84943422119E+02  0.91595450095E+02  0.10566000000E+00 0.  1.
        994    1    1    2    0    0 -0.17770065428E+02 -0.19675456105E+02  0.10295250357E+02  0.17354633669E+03  0.17120000000E+03 0.  0.
        998    1    1    2    0    0  0.28770769709E+02  0.52130268661E+02  0.14047613238E+04  0.14060582132E+04  0.10000000000E+02 0.  1.
</event>
<event>
 5    1  0.1582292E-008  0.3709747E+03  0.7957747E-01  0.3491423E+00
         13   -1    0    0    0    0  0.00000000000E+00  0.00000000000E+00  0.14999999963E+04  0.15000000000E+04  0.10566000000E+00 0.  1.
        994   -1    0    0    0    0 -0.00000000000E+00 -0.00000000000E+00  0.11368683772E-12  0.17120000000E+03  0.17120000000E+03 0.  0.
         13    1    1    2    0    0  0.12976382351E+02 -0.34937021339E+02  0.73852241259E+02  0.82723313896E+02  0.10566000000E+00 0.  1.
        994    1    1    2    0    0 -0.14567208400E+02  0.29428650735E+02  0.12485253838E+02  0.17476718974E+03  0.17120000000E+03 0.  0.
        998    1    1    2    0    0  0.15908260493E+01  0.55083706039E+01  0.14136625012E+04  0.14137094964E+04  0.10000000000E+02 0.  1.
</event>
<event>
 5    1  0.1582292E-008  0.3729690E+03  0.7957747E-01  0.3482356E+00
         13   -1    0    0    0    0  0.00000000000E+00  0.00000000000E+00  0.14999999963E+04  0.15000000000E+04  0.10566000000E+00 0.  1.
        994   -1    0    0    0    0 -0.00000000000E+00 -0.00000000000E+00  0.11368683772E-12  0.17120000000E+03  0.17120000000E+03 0.  0.
         13    1    1    2    0    0 -0.93887358486E+02  0.67207366356E+02  0.48972686290E+03  0.50315412906E+03  0.10566000000E+00 0.  1.
        994    1    1    2    0    0  0.62728849151E+02 -0.44620520443E+02  0.33758738031E+02  0.19072228961E+03  0.17120000000E+03 0.  0.
        998    1    1    2    0    0  0.31158509335E+02 -0.22586845912E+02  0.97651439535E+03  0.97732358133E+03  0.10000000000E+02 0.  1.
</event>
<event>
 5    1  0.1582292E-008  0.3774126E+03  0.7957747E-01  0.3462503E+00
         13   -1    0    0    0    0  0.00000000000E+00  0.00000000000E+00  0.14999999963E+04  0.15000000000E+04  0.10566000000E+00 0. -1.
        994   -1    0    0    0    0 -0.00000000000E+00 -0.00000000000E+00  0.11368683772E-12  0.17120000000E+03  0.17120000000E+03 0.  0.
         13    1    1    2    0    0  0.30797594272E+02 -0.13383859474E+02  0.97702681827E+02  0.10331236474E+03  0.10566000000E+00 0. -1.
        994    1    1    2    0    0 -0.27654104357E+02  0.95193316284E+01  0.83344964256E+01  0.17388004771E+03  0.17120000000E+03 0.  0.
        998    1    1    2    0    0 -0.31434899149E+01  0.38645278453E+01  0.13939628180E+04  0.13940075875E+04  0.10000000000E+02 0. -1.
</event>
<event>
 5    1  0.1582292E-008  0.3821359E+03  0.7957747E-01  0.3441911E+00
         13   -1    0    0    0    0  0.00000000000E+00  0.00000000000E+00  0.14999999963E+04  0.15000000000E+04  0.10566000000E+00 0. -1.
        994   -1    0    0    0    0 -0.00000000000E+00 -0.00000000000E+00  0.11368683772E-12  0.17120000000E+03  0.17120000000E+03 0.  0.
         13    1    1    2    0    0  0.15150728960E+02  0.13865964298E+02  0.71584529268E+02  0.74472582529E+02  0.10566000000E+00 0. -1.
        994    1    1    2    0    0  0.25537769323E+01 -0.69232379376E+01  0.32395824518E+01  0.17138957931E+03  0.17120000000E+03 0.  0.
        998    1    1    2    0    0 -0.17704505892E+02 -0.69427263608E+01  0.14251758846E+04  0.14253378382E+04  0.10000000000E+02 0. -1.
</event>
<event>
 5    1  0.1582292E-008  0.3704703E+03  0.7957747E-01  0.3493732E+00
         13   -1    0    0    0    0  0.00000000000E+00  0.00000000000E+00  0.14999999963E+04  0.15000000000E+04  0.10566000000E+00 0.  1.
        994   -1    0    0    0    0 -0.00000000000E+00 -0.00000000000E+00  0.11368683772E-12  0.17120000000E+03  0.17120000000E+03 0.  0.
         13    1    1    2    0    0 -0.31022553835E+02 -0.14185578351E+03  0.82603456742E+03  0.83870053052E+03  0.10566000000E+00 0.  1.
        994    1    1    2    0    0  0.46085889774E+02  0.10824582326E+03  0.58438560865E+02  0.21579057645E+03  0.17120000000E+03 0.  0.
        998    1    1    2    0    0 -0.15063335939E+02  0.33609960253E+02  0.61552686799E+03  0.61670889303E+03  0.10000000000E+02 0.  1.
</event>
<event>
 5    1  0.1582292E-008  0.3850187E+03  0.7957747E-01  0.3429593E+00
         13   -1    0    0    0    0  0.00000000000E+00  0.00000000000E+00  0.14999999963E+04  0.15000000000E+04  0.10566000000E+00 0.  1.
        994   -1    0    0    0    0 -0.00000000000E+00 -0.00000000000E+00  0.11368683772E-12  0.17120000000E+03  0.17120000000E+03 0.  0.
         13    1    1    2    0    0 -0.10616680888E+02 -0.14297664663E+01  0.36350339575E+02  0.37896127724E+02  0.10566000000E+00 0.  1.
        994    1    1    2    0    0  0.29918119606E+00  0.40580326559E+01  0.16752956200E+01  0.17125654368E+03  0.17120000000E+03 0.  0.
        998    1    1    2    0    0  0.10317499692E+02 -0.26282661896E+01  0.14619743611E+04  0.14620473286E+04  0.10000000000E+02 0.  1.
</event>
<event>
 5    1  0.1582292E-008  0.3765384E+03  0.7957747E-01  0.3466371E+00
         13   -1    0    0    0    0  0.00000000000E+00  0.00000000000E+00  0.14999999963E+04  0.15000000000E+04  0.10566000000E+00 0.  1.
        994   -1    0    0    0    0 -0.00000000000E+00 -0.00000000000E+00  0.11368683772E-12  0.17120000000E+03  0.17120000000E+03 0.  0.
         13    1    1    2    0    0 -0.32551325306E+02 -0.14264189712E+02  0.89428063183E+02  0.96231208743E+02  0.10566000000E+00 0.  1.
        994    1    1    2    0    0  0.50821089409E+02  0.34328859026E+02  0.18717813691E+02  0.18281425065E+03  0.17120000000E+03 0.  0.
        998    1    1    2    0    0 -0.18269764103E+02 -0.20064669314E+02  0.13918541194E+04  0.13921545406E+04  0.10000000000E+02 0.  1.
</event>
<event>
 5    1  0.1582292E-008  0.3843366E+03  0.7957747E-01  0.3432491E+00
         13   -1    0    0    0    0  0.00000000000E+00  0.00000000000E+00  0.14999999963E+04  0.15000000000E+04  0.10566000000E+00 0. -1.
        994   -1    0    0    0    0 -0.00000000000E+00 -0.00000000000E+00  0.11368683772E-12  0.17120000000E+03  0.17120000000E+03 0.  0.
         13    1    1    2    0    0 -0.73307719412E+01  0.13108808609E+02  0.59221866831E+02  0.61096822793E+02  0.10566000000E+00 0. -1.
        994    1    1    2    0    0  0.21236134973E+01 -0.31568544376E+01  0.20075824824E+01  0.17125403894E+03  0.17120000000E+03 0.  0.
        998    1    1    2    0    0  0.52071584439E+01 -0.99519541712E+01  0.14387705470E+04  0.14388491383E+04  0.10000000000E+02 0. -1.
</event>
<event>
 5    1  0.1582292E-008  0.3948623E+03  0.7957747E-01  0.3388892E+00
         13   -1    0    0    0    0  0.00000000000E+00  0.00000000000E+00  0.14999999963E+04  0.15000000000E+04  0.10566000000E+00 0.  1.
        994   -1    0    0    0    0 -0.00000000000E+00 -0.00000000000E+00  0.11368683772E-12  0.17120000000E+03  0.17120000000E+03 0.  0.
         13    1    1    2    0    0  0.12636337798E+03  0.74721131043E+01  0.33185541588E+03  0.35517821440E+03  0.10566000000E+00 0.  1.
        994    1    1    2    0    0 -0.69502434013E+02  0.85174970826E+01  0.43799003917E+02  0.19008137424E+03  0.17120000000E+03 0.  0.
        998    1    1    2    0    0 -0.56860943964E+02 -0.15989610187E+02  0.11243455765E+04  0.11259404114E+04  0.10000000000E+02 0.  1.
</event>
<event>
 5    1  0.1582292E-008  0.3855107E+03  0.7957747E-01  0.3427509E+00
         13   -1    0    0    0    0  0.00000000000E+00  0.00000000000E+00  0.14999999963E+04  0.15000000000E+04  0.10566000000E+00 0. -1.
        994   -1    0    0    0    0 -0.00000000000E+00 -0.00000000000E+00  0.11368683772E-12  0.17120000000E+03  0.17120000000E+03 0.  0.
         13    1    1    2    0    0 -0.10845432194E+01  0.11737313535E+02  0.54800076923E+02  0.56053549021E+02  0.10566000000E+00 0. -1.
        994    1    1    2    0    0  0.14674629454E-01  0.42916279292E+01  0.14372839649E+01  0.17125981452E+03  0.17120000000E+03 0.  0.
        998    1    1    2    0    0  0.10698685899E+01 -0.16028941464E+02  0.14437626354E+04  0.14438866365E+04  0.10000000000E+02 0. -1.
</event>
<event>
 5    1  0.1582292E-008  0.3830600E+03  0.7957747E-01  0.3437942E+00
         13   -1    0    0    0    0  0.00000000000E+00  0.00000000000E+00  0.14999999963E+04  0.15000000000E+04  0.10566000000E+00 0.  1.
        994   -1    0    0    0    0 -0.00000000000E+00 -0.00000000000E+00  0.11368683772E-12  0.17120000000E+03  0.17120000000E+03 0.  0.
         13    1    1    2    0    0 -0.52950463697E+01 -0.87928877785E+01  0.19527452470E+02  0.22060937323E+02  0.10566000000E+00 0.  1.
        994    1    1    2    0    0  0.34965520119E+01  0.23029961631E+01  0.26544181520E+01  0.17127175950E+03  0.17120000000E+03 0.  0.
        998    1    1    2    0    0  0.17984943579E+01  0.64898916153E+01  0.14778181257E+04  0.14778673032E+04  0.10000000000E+02 0.  1.
</event>
<event>
 5    1  0.1582292E-008  0.3805375E+03  0.7957747E-01  0.3448821E+00
         13   -1    0    0    0    0  0.00000000000E+00  0.00000000000E+00  0.14999999963E+04  0.15000000000E+04  0.10566000000E+00 0. -1.
        994   -1    0    0    0    0 -0.00000000000E+00 -0.00000000000E+00  0.11368683772E-12  0.17120000000E+03  0.17120000000E+03 0.  0.
         13    1    1    2    0    0  0.41022000974E+02 -0.54123726586E+02  0.12153406748E+03  0.13922184837E+03  0.10566000000E+00 0. -1.
        994    1    1    2    0    0 -0.41823798471E+02  0.57665703533E+02  0.35286795486E+02  0.18875688443E+03  0.17120000000E+03 0.  0.
        998    1    1    2    0    0  0.80179749714E+00 -0.35419769474E+01  0.13431791333E+04  0.13432212672E+04  0.10000000000E+02 0. -1.
</event>
<event>
 5    1  0.1582292E-008  0.3831186E+03  0.7957747E-01  0.3437691E+00
         13   -1    0    0    0    0  0.00000000000E+00  0.00000000000E+00  0.14999999963E+04  0.15000000000E+04  0.10566000000E+00 0.  1.
        994   -1    0    0    0    0 -0.00000000000E+00 -0.00000000000E+00  0.11368683772E-12  0.17120000000E+03  0.17120000000E+03 0.  0.
         13    1    1    2    0    0  0.18528782018E+02  0.13662708288E+02  0.11744442750E+03  0.11967953073E+03  0.10566000000E+00 0.  1.
        994    1    1    2    0    0  0.45320905061E+01  0.23305440843E+01  0.26530551259E+01  0.17129638053E+03  0.17120000000E+03 0.  0.
        998    1    1    2    0    0 -0.23060872524E+02 -0.15993252372E+02  0.13799025137E+04  0.13802240887E+04  0.10000000000E+02 0.  1.
</event>
<event>
 5    1  0.1582292E-008  0.3709575E+03  0.7957747E-01  0.3491502E+00
         13   -1    0    0    0    0  0.00000000000E+00  0.00000000000E+00  0.14999999963E+04  0.15000000000E+04  0.10566000000E+00 0.  1.
        994   -1    0    0    0    0 -0.00000000000E+00 -0.00000000000E+00  0.11368683772E-12  0.17120000000E+03  0.17120000000E+03 0.  0.
         13    1    1    2    0    0  0.60796241213E+02  0.66693678929E+01  0.18246232586E+03  0.19244005543E+03  0.10566000000E+00 0.  1.
        994    1    1    2    0    0 -0.64284214752E+02 -0.40022403852E+01  0.23204889195E+02  0.18438108655E+03  0.17120000000E+03 0.  0.
        998    1    1    2    0    0  0.34879735396E+01 -0.26671275077E+01  0.12943327812E+04  0.12943788580E+04  0.10000000000E+02 0.  1.
</event>
<event>
 5    1  0.1582292E-008  0.3718186E+03  0.7957747E-01  0.3487575E+00
         13   -1    0    0    0    0  0.00000000000E+00  0.00000000000E+00  0.14999999963E+04  0.15000000000E+04  0.10566000000E+00 0. -1.
        994   -1    0    0    0    0 -0.00000000000E+00 -0.00000000000E+00  0.11368683772E-12  0.17120000000E+03  0.17120000000E+03 0.  0.
         13    1    1    2    0    0 -0.99618110137E+01  0.19514858009E+02  0.22753388315E+02  0.31587896506E+02  0.10566000000E+00 0. -1.
        994    1    1    2    0    0 -0.26668604829E+02 -0.75818001851E+02  0.30855318037E+02  0.19162743681E+03  0.17120000000E+03 0.  0.
        998    1    1    2    0    0  0.36630415843E+02  0.56303143841E+02  0.14463912899E+04  0.14479846667E+04  0.10000000000E+02 0. -1.
</event>
<event>
 5    1  0.1582292E-008  0.3853323E+03  0.7957747E-01  0.3428264E+00
         13   -1    0    0    0    0  0.00000000000E+00  0.00000000000E+00  0.14999999963E+04  0.15000000000E+04  0.10566000000E+00 0. -1.
        994   -1    0    0    0    0 -0.00000000000E+00 -0.00000000000E+00  0.11368683772E-12  0.17120000000E+03  0.17120000000E+03 0.  0.
         13    1    1    2    0    0 -0.89719216984E+01 -0.10298764252E+02  0.60808988340E+02  0.62324185924E+02  0.10566000000E+00 0. -1.
        994    1    1    2    0    0 -0.53919735419E+00  0.23057064511E+02  0.32146074259E+01  0.17277642391E+03  0.17120000000E+03 0.  0.
        998    1    1    2    0    0  0.95111190526E+01 -0.12758300258E+02  0.14359764005E+04  0.14360993902E+04  0.10000000000E+02 0. -1.
</event>
<event>
 5    1  0.1582292E-008  0.3845519E+03  0.7957747E-01  0.3431575E+00
         13   -1    0    0    0    0  0.00000000000E+00  0.00000000000E+00  0.14999999963E+04  0.15000000000E+04  0.10566000000E+00 0. -1.
        994   -1    0    0    0    0 -0.00000000000E+00 -0.00000000000E+00  0.11368683772E-12  0.17120000000E+03  0.17120000000E+03 0.  0.
         13    1    1    2    0    0  0.60185934494E+01  0.16388148953E+02  0.84937833525E+02  0.86713560769E+02  0.10566000000E+00 0. -1.
        994    1    1    2    0    0 -0.84095819817E+01 -0.36028443763E+01  0.21284694130E+01  0.17145749310E+03  0.17120000000E+03 0.  0.
        998    1    1    2    0    0  0.23909885324E+01 -0.12785304577E+02  0.14129336933E+04  0.14130289461E+04  0.10000000000E+02 0. -1.
</event>
<event>
 5    1  0.1582292E-008  0.3854607E+03  0.7957747E-01  0.3427721E+00
         13   -1    0    0    0    0  0.00000000000E+00  0.00000000000E+00  0.14999999963E+04  0.15000000000E+04  0.10566000000E+00 0.  1.
        994   -1    0    0    0    0 -0.00000000000E+00 -0.00000000000E+00  0.11368683772E-12  0.17120000000E+03  0.17120000000E+03 0.  0.
         13    1    1    2    0    0  0.13261360517E+02  0.33331681941E+01  0.70329649220E+02  0.71646663679E+02  0.10566000000E+00 0.  1.
        994    1    1    2    0    0 -0.18197064514E+01 -0.20716414746E+01  0.14265493644E+01  0.17122814626E+03  0.17120000000E+03 0.  0.
        998    1    1    2    0    0 -0.11441654065E+02 -0.12615267196E+01  0.14282437977E+04  0.14283251901E+04  0.10000000000E+02 0.  1.
</event>
<event>
 5    1  0.1582292E-008  0.3833077E+03  0.7957747E-01  0.3436881E+00
         13   -1    0    0    0    0  0.00000000000E+00  0.00000000000E+00  0.14999999963E+04  0.15000000000E+04  0.10566000000E+00 0.  1.
        994   -1    0    0    0    0 -0.00000000000E+00 -0.00000000000E+00  0.11368683772E-12  0.17120000000E+03  0.17120000000E+03 0.  0.
         13    1    1    2    0    0  0.56991733884E+01  0.20412418404E+02  0.90091433313E+02  0.92550661385E+02  0.10566000000E+00 0.  1.
        994    1    1    2    0    0 -0.82066539971E+01 -0.11695799422E+02  0.31480167797E+01  0.17182401143E+03  0.17120000000E+03 0.  0.
        998    1    1    2    0    0  0.25074806087E+01 -0.87166189821E+01  0.14067605462E+04  0.14068253272E+04  0.10000000000E+02 0.  1.
</event>
<event>
 5    1  0.1582292E-008  0.3832026E+03  0.7957747E-01  0.3437331E+00
         13   -1    0    0    0    0  0.00000000000E+00  0.00000000000E+00  0.14999999963E+04  0.15000000000E+04  0.10566000000E+00 0.  1.
        994   -1    0    0    0    0 -0.00000000000E+00 -0.00000000000E+00  0.11368683772E-12  0.17120000000E+03  0.17120000000E+03 0.  0.
         13    1    1    2    0    0  0.82593056891E+01 -0.21060536864E+02  0.10653154380E+03  0.10890703987E+03  0.10566000000E+00 0.  1.
        994    1    1    2    0    0 -0.25897202113E+01  0.48955113149E+01  0.26266247706E+01  0.17130969570E+03  0.17120000000E+03 0.  0.
        998    1    1    2    0    0 -0.56695854778E+01  0.16165025549E+02  0.13908418277E+04  0.13909832644E+04  0.10000000000E+02 0.  1.
</event>
<event>
 5    1  0.1582292E-008  0.3784946E+03  0.7957747E-01  0.3457740E+00
         13   -1    0    0    0    0  0.00000000000E+00  0.00000000000E+00  0.14999999963E+04  0.15000000000E+04  0.10566000000E+00 0. -1.
        994   -1    0    0    0    0 -0.00000000000E+00 -0.00000000000E+00  0.11368683772E-12  0.17120000000E+03  0.17120000000E+03 0.  0.
         13    1    1    2    0    0  0.10528694853E+02  0.40453935656E+02  0.17927023667E+03  0.18407933954E+03  0.10566000000E+00 0. -1.
        994    1    1    2    0    0 -0.24804414803E+02 -0.16912483969E+02  0.79289402750E+01  0.17399310102E+03  0.17120000000E+03 0.  0.
        998    1    1    2    0    0  0.14275719950E+02 -0.23541451687E+02  0.13128008193E+04  0.13131275594E+04  0.10000000000E+02 0. -1.
</event>
<event>
 5    1  0.1582292E-008  0.3768411E+03  0.7957747E-01  0.3465029E+00
         13   -1    0    0    0    0  0.00000000000E+00  0.00000000000E+00  0.14999999963E+04  0.15000000000E+04  0.10566000000E+00 0. -1.
        994   -1    0    0    0    0 -0.00000000000E+00 -0.00000000000E+00  0.11368683772E-12  0.17120000000E+03  0.17120000000E+03 0.  0.
         13    1    1    2    0    0  0.41885780304E+02 -0.18979732376E+02  0.19853423635E+03  0.20379034079E+03  0.10566000000E+00 0. -1.
        994    1    1    2    0    0 -0.84279472389E+01  0.14279084639E+02  0.66656007000E+01  0.17213016234E+03  0.17120000000E+03 0.  0.
        998    1    1    2    0    0 -0.33457833065E+02  0.47006477368E+01  0.12948001592E+04  0.12952794969E+04  0.10000000000E+02 0. -1.
</event>
<event>
 5    1  0.1582292E-008  0.3714420E+03  0.7957747E-01  0.3489290E+00
         13   -1    0    0    0    0  0.00000000000E+00  0.00000000000E+00  0.14999999963E+04  0.15000000000E+04  0.10566000000E+00 0.  1.
        994   -1    0    0    0    0 -0.00000000000E+00 -0.00000000000E+00  0.11368683772E-12  0.17120000000E+03  0.17120000000E+03 0.  0.
         13    1    1    2    0    0  0.50193863371E+02  0.44899618336E+02  0.25606508447E+03  0.26477299389E+03  0.10566000000E+00 0.  1.
        994    1    1    2    0    0 -0.11470223379E+02 -0.54232603926E+02  0.19164362080E+02  0.18096810251E+03  0.17120000000E+03 0.  0.
        998    1    1    2    0    0 -0.38723639992E+02  0.93329855899E+01  0.12247705497E+04  0.12254589036E+04  0.10000000000E+02 0.  1.
</event>
<event>
 5    1  0.1582292E-008  0.3841953E+03  0.7957747E-01  0.3433092E+00
         13   -1    0    0    0    0  0.00000000000E+00  0.00000000000E+00  0.14999999963E+04  0.15000000000E+04  0.10566000000E+00 0.  1.
        994   -1    0    0    0    0 -0.00000000000E+00 -0.00000000000E+00  0.11368683772E-12  0.17120000000E+03  0.17120000000E+03 0.  0.
         13    1    1    2    0    0  0.10110819446E+02 -0.79743246186E+01  0.39110369452E+02  0.41175850759E+02  0.10566000000E+00 0.  1.
        994    1    1    2    0    0 -0.12599265020E+02  0.95740482512E+01  0.28562591747E+01  0.17195348817E+03  0.17120000000E+03 0.  0.
        998    1    1    2    0    0  0.24884455745E+01 -0.15997236326E+01  0.14580333677E+04  0.14580706611E+04  0.10000000000E+02 0.  1.
</event>
<event>
 5    1  0.1582292E-008  0.3729150E+03  0.7957747E-01  0.3482600E+00
         13   -1    0    0    0    0  0.00000000000E+00  0.00000000000E+00  0.14999999963E+04  0.15000000000E+04  0.10566000000E+00 0. -1.
        994   -1    0    0    0    0 -0.00000000000E+00 -0.00000000000E+00  0.11368683772E-12  0.17120000000E+03  0.17120000000E+03 0.  0.
         13    1    1    2    0    0 -0.31407569432E+02 -0.67763355107E+02  0.21558139464E+03  0.22815270455E+03  0.10566000000E+00 0. -1.
        994    1    1    2    0    0  0.15520058382E+02  0.46134491072E+02  0.20904370795E+02  0.17920852713E+03  0.17120000000E+03 0.  0.
        998    1    1    2    0    0  0.15887511050E+02  0.21628864035E+02  0.12635142308E+04  0.12638387683E+04  0.10000000000E+02 0. -1.
</event>
<event>
 5    1  0.1582292E-008  0.3835774E+03  0.7957747E-01  0.3435728E+00
         13   -1    0    0    0    0  0.00000000000E+00  0.00000000000E+00  0.14999999963E+04  0.15000000000E+04  0.10566000000E+00 0. -1.
        994   -1    0    0    0    0 -0.00000000000E+00 -0.00000000000E+00  0.11368683772E-12  0.17120000000E+03  0.17120000000E+03 0.  0.
         13    1    1    2    0    0 -0.12956717460E+02  0.25244104479E+01  0.37271913361E+02  0.39540559747E+02  0.10566000000E+00 0. -1.
        994    1    1    2    0    0  0.53278639801E+01  0.38752033726E+01  0.24815187022E+01  0.17134468556E+03  0.17120000000E+03 0.  0.
        998    1    1    2    0    0  0.76288534795E+01 -0.63996138205E+01  0.14602465642E+04  0.14603147547E+04  0.10000000000E+02 0. -1.
</event>
<event>
 5    1  0.1582292E-008  0.3857119E+03  0.7957747E-01  0.3426658E+00
         13   -1    0    0    0    0  0.00000000000E+00  0.00000000000E+00  0.14999999963E+04  0.15000000000E+04  0.10566000000E+00 0. -1.
        994   -1    0    0    0    0 -0.00000000000E+00 -0.00000000000E+00  0.11368683772E-12  0.17120000000E+03  0.17120000000E+03 0.  0.
         13    1    1    2    0    0  0.70431204957E+01  0.73351117611E+01  0.40717416788E+02  0.41968185626E+02  0.10566000000E+00 0. -1.
        994    1    1    2    0    0 -0.29935352685E+01 -0.67805240830E+01  0.14573603340E+01  0.17136656809E+03  0.17120000000E+03 0.  0.
        998    1    1    2    0    0 -0.40495852272E+01 -0.55458767804E+00  0.14578252192E+04  0.14578652463E+04  0.10000000000E+02 0. -1.
</event>
<event>
 5    1  0.1582292E-008  0.3831922E+03  0.7957747E-01  0.3437376E+00
         13   -1    0    0    0    0  0.00000000000E+00  0.00000000000E+00  0.14999999963E+04  0.15000000000E+04  0.10566000000E+00 0.  1.
        994   -1    0    0    0    0 -0.00000000000E+00 -0.00000000000E+00  0.11368683772E-12  0.17120000000E+03  0.17120000000E+03 0.  0.
         13    1    1    2    0    0 -0.16216341000E+02  0.17048498642E+02  0.11570694163E+03  0.11807509698E+03  0.10566000000E+00 0.  1.
        994    1    1    2    0    0  0.22637972409E+01 -0.54505362305E+01  0.26455898495E+01  0.17132213012E+03  0.17120000000E+03 0.  0.
        998    1    1    2    0    0  0.13952543759E+02 -0.11597962411E+02  0.13816474648E+04  0.13818027729E+04  0.10000000000E+02 0.  1.
</event>
<event>
 5    1  0.1582292E-008  0.3854035E+03  0.7957747E-01  0.3427963E+00
         13   -1    0    0    0    0  0.00000000000E+00  0.00000000000E+00  0.14999999963E+04  0.15000000000E+04  0.10566000000E+00 0. -1.
        994   -1    0    0    0    0 -0.00000000000E+00 -0.00000000000E+00  0.11368683772E-12  0.17120000000E+03  0.17120000000E+03 0.  0.
         13    1    1    2    0    0 -0.12178584855E+02 -0.83699089248E+00  0.54109784074E+02  0.55469797002E+02  0.10566000000E+00 0. -1.
        994    1    1    2    0    0  0.21865453403E+01  0.76408297887E+01  0.16374125400E+01  0.17139219463E+03  0.17120000000E+03 0.  0.
        998    1    1    2    0    0  0.99920395149E+01 -0.68038388962E+01  0.14442527997E+04  0.14443380084E+04  0.10000000000E+02 0. -1.
</event>
<event>
 5    1  0.1582292E-008  0.3804032E+03  0.7957747E-01  0.3449405E+00
         13   -1    0    0    0    0  0.00000000000E+00  0.00000000000E+00  0.14999999963E+04  0.15000000000E+04  0.10566000000E+00 0. -1.
        994   -1    0    0    0    0 -0.00000000000E+00 -0.00000000000E+00  0.11368683772E-12  0.17120000000E+03  0.17120000000E+03 0.  0.
         13    1    1    2    0    0 -0.10981854289E+02 -0.13422099796E+02  0.35977470188E+02  0.39939246509E+02  0.10566000000E+00 0. -1.
        994    1    1    2    0    0  0.34422645382E+02 -0.48070127256E+01  0.79732183290E+01  0.17487434945E+03  0.17120000000E+03 0.  0.
        998    1    1    2    0    0 -0.23440791093E+02  0.18229112522E+02  0.14560493078E+04  0.14563864040E+04  0.10000000000E+02 0. -1.
</event>
<event>
 5    1  0.1582292E-008  0.3863027E+03  0.7957747E-01  0.3424166E+00
         13   -1    0    0    0    0  0.00000000000E+00  0.00000000000E+00  0.14999999963E+04  0.15000000000E+04  0.10566000000E+00 0.  1.
        994   -1    0    0    0    0 -0.00000000000E+00 -0.00000000000E+00  0.11368683772E-12  0.17120000000E+03  0.17120000000E+03 0.  0.
         13    1    1    2    0    0  0.17148247592E+01  0.10529295962E+02  0.61145249729E+02  0.62068989245E+02  0.10566000000E+00 0.  1.
        994    1    1    2    0    0 -0.36654236250E+01 -0.16376383414E+01  0.10375338480E+01  0.17125020778E+03  0.17120000000E+03 0.  0.
        998    1    1    2    0    0  0.19505988658E+01 -0.88916576207E+01  0.14378172127E+04  0.14378808030E+04  0.10000000000E+02 0.  1.
</event>
<event>
 5    1  0.1582292E-008  0.3760055E+03  0.7957747E-01  0.3468738E+00
         13   -1    0    0    0    0  0.00000000000E+00  0.00000000000E+00  0.14999999963E+04  0.15000000000E+04  0.10566000000E+00 0.  1.
        994   -1    0    0    0    0 -0.00000000000E+00 -0.00000000000E+00  0.11368683772E-12  0.17120000000E+03  0.17120000000E+03 0.  0.
         13    1    1    2    0    0  0.13440544102E+02 -0.38556947464E+01  0.13287100424E+02  0.19289188927E+02  0.10566000000E+00 0.  1.
        994    1    1    2    0    0 -0.22320644489E+01  0.10799394828E+02  0.65753511989E+01  0.17168076271E+03  0.17120000000E+03 0.  0.
        998    1    1    2    0    0 -0.11208479653E+02 -0.69437000812E+01  0.14801375447E+04  0.14802300484E+04  0.10000000000E+02 0.  1.
</event>
<event>
 5    1  0.1582292E-008  0.3843724E+03  0.7957747E-01  0.3432338E+00
         13   -1    0    0    0    0  0.00000000000E+00  0.00000000000E+00  0.14999999963E+04  0.15000000000E+04  0.10566000000E+00 0.  1.
        994   -1    0    0    0    0 -0.00000000000E+00 -0.00000000000E+00  0.11368683772E-12  0.17120000000E+03  0.17120000000E+03 0.  0.
         13    1    1    2    0    0 -0.15184009092E+02 -0.16582409933E+02  0.11834275523E+03  0.12045974153E+03  0.10566000000E+00 0.  1.
        994    1    1    2    0    0  0.21679380138E+02  0.15310126335E+02  0.42667339142E+01  0.17329754906E+03  0.17120000000E+03 0.  0.
        998    1    1    2    0    0 -0.64953710464E+01  0.12722835978E+01  0.13773905071E+04  0.13774427094E+04  0.10000000000E+02 0.  1.
</event>
<event>
 5    1  0.1582292E-008  0.3838299E+03  0.7957747E-01  0.3434650E+00
         13   -1    0    0    0    0  0.00000000000E+00  0.00000000000E+00  0.14999999963E+04  0.15000000000E+04  0.10566000000E+00 0.  1.
        994   -1    0    0    0    0 -0.00000000000E+00 -0.00000000000E+00  0.11368683772E-12  0.17120000000E+03  0.17120000000E+03 0.  0.
         13    1    1    2    0    0  0.16495550934E+02 -0.95555713355E+01  0.83664061866E+02  0.85808499324E+02  0.10566000000E+00 0.  1.
        994    1    1    2    0    0 -0.50331257916E+01  0.78476341022E+01  0.24991663726E+01  0.17147187393E+03  0.17120000000E+03 0.  0.
        998    1    1    2    0    0 -0.11462425142E+02  0.17079372333E+01  0.14138367680E+04  0.14139196267E+04  0.10000000000E+02 0.  1.
</event>
<event>
 5    1  0.1582292E-008  0.3793872E+03  0.7957747E-01  0.3453831E+00
         13   -1    0    0    0    0  0.00000000000E+00  0.00000000000E+00  0.14999999963E+04  0.15000000000E+04  0.10566000000E+00 0.  1.
        994   -1    0    0    0    0 -0.00000000000E+00 -0.00000000000E+00  0.11368683772E-12  0.17120000000E+03  0.17120000000E+03 0.  0.
         13    1    1    2    0    0 -0.17163385094E+02  0.16569854509E+02  0.60741232769E+02  0.65258335779E+02  0.10566000000E+00 0.  1.
        994    1    1    2    0    0  0.23188879429E+02 -0.78582155803E+01  0.64534566063E+01  0.17306230896E+03  0.17120000000E+03 0.  0.
        998    1    1    2    0    0 -0.60254943345E+01 -0.87116389290E+01  0.14328053069E+04  0.14328793553E+04  0.10000000000E+02 0.  1.
</event>
<event>
 5    1  0.1582292E-008  0.3849068E+03  0.7957747E-01  0.3430068E+00
         13   -1    0    0    0    0  0.00000000000E+00  0.00000000000E+00  0.14999999963E+04  0.15000000000E+04  0.10566000000E+00 0. -1.
        994   -1    0    0    0    0 -0.00000000000E+00 -0.00000000000E+00  0.11368683772E-12  0.17120000000E+03  0.17120000000E+03 0.  0.
         13    1    1    2    0    0  0.20266665226E+02  0.22039440002E+01  0.10645867801E+03  0.10839306424E+03  0.10566000000E+00 0. -1.
        994    1    1    2    0    0 -0.31428810695E+02 -0.11369734664E+02  0.53597376865E+01  0.17451420514E+03  0.17120000000E+03 0.  0.
        998    1    1    2    0    0  0.11162145468E+02  0.91657906636E+01  0.13881815806E+04  0.13882927306E+04  0.10000000000E+02 0. -1.
</event>
<event>
 5    1  0.1582292E-008  0.3833630E+03  0.7957747E-01  0.3436645E+00
         13   -1    0    0    0    0  0.00000000000E+00  0.00000000000E+00  0.14999999963E+04  0.15000000000E+04  0.10566000000E+00 0. -1.
        994   -1    0    0    0    0 -0.00000000000E+00 -0.00000000000E+00  0.11368683772E-12  0.17120000000E+03  0.17120000000E+03 0.  0.
         13    1    1    2    0    0 -0.62458147231E+01  0.16745861597E+02  0.80127296427E+02  0.82096460819E+02  0.10566000000E+00 0. -1.
        994    1    1    2    0    0 -0.11489171823E+02  0.21260246108E+02  0.43782866266E+01  0.17295261931E+03  0.17120000000E+03 0.  0.
        998    1    1    2    0    0  0.17734986546E+02 -0.38006107705E+02  0.14154944132E+04  0.14161509199E+04  0.10000000000E+02 0. -1.
</event>
<event>
 5    1  0.1582292E-008  0.3843324E+03  0.7957747E-01  0.3432508E+00
         13   -1    0    0    0    0  0.00000000000E+00  0.00000000000E+00  0.14999999963E+04  0.15000000000E+04  0.10566000000E+00 0. -1.
        994   -1    0    0    0    0 -0.00000000000E+00 -0.00000000000E+00  0.11368683772E-12  0.17120000000E+03  0.17120000000E+03 0.  0.
         13    1    1    2    0    0  0.94246304207E+01 -0.11057149466E+02  0.51519080827E+02  0.53528600451E+02  0.10566000000E+00 0. -1.
        994    1    1    2    0    0 -0.16054471616E+02  0.84184754860E+01  0.30457296664E+01  0.17218400988E+03  0.17120000000E+03 0.  0.
        998    1    1    2    0    0  0.66298411953E+01  0.26386739798E+01  0.14454351858E+04  0.14454873897E+04  0.10000000000E+02 0. -1.
</event>
<event>
 5    1  0.1582292E-008  0.3773477E+03  0.7957747E-01  0.3462789E+00
         13   -1    0    0    0    0  0.00000000000E+00  0.00000000000E+00  0.14999999963E+04  0.15000000000E+04  0.10566000000E+00 0. -1.
        994   -1    0    0    0    0 -0.00000000000E+00 -0.00000000000E+00  0.11368683772E-12  0.17120000000E+03  0.17120000000E+03 0.  0.
         13    1    1    2    0    0  0.28615992366E+02 -0.36346399585E+02  0.17004875937E+03  0.17622862284E+03  0.10566000000E+00 0. -1.
        994    1    1    2    0    0 -0.37116687186E+02  0.33089683384E+02  0.13862607482E+02  0.17881327551E+03  0.17120000000E+03 0.  0.
        998    1    1    2    0    0  0.85006948194E+01  0.32567162006E+01  0.13160886294E+04  0.13161581016E+04  0.10000000000E+02 0. -1.
</event>
<event>
 5    1  0.1582292E-008  0.3830229E+03  0.7957747E-01  0.3438101E+00
         13   -1    0    0    0    0  0.00000000000E+00  0.00000000000E+00  0.14999999963E+04  0.15000000000E+04  0.10566000000E+00 0.  1.
        994   -1    0    0    0    0 -0.00000000000E+00 -0.00000000000E+00  0.11368683772E-12  0.17120000000E+03  0.17120000000E+03 0.  0.
         13    1    1    2    0    0  0.24785858541E+02  0.63933650422E+01  0.13157022774E+03  0.13403712132E+03  0.10566000000E+00 0.  1.
        994    1    1    2    0    0 -0.79065637186E+01 -0.14271214858E+01  0.28286026086E+01  0.17141175986E+03  0.17120000000E+03 0.  0.
        998    1    1    2    0    0 -0.16879294822E+02 -0.49662435565E+01  0.13656011659E+04  0.13657511188E+04  0.10000000000E+02 0.  1.
</event>
<event>
 5    1  0.1582292E-008  0.3853097E+03  0.7957747E-01  0.3428360E+00
         13   -1    0    0    0    0  0.00000000000E+00  0.00000000000E+00  0.14999999963E+04  0.15000000000E+04  0.10566000000E+00 0. -1.
        994   -1    0    0    0    0 -0.00000000000E+00 -0.00000000000E+00  0.11368683772E-12  0.17120000000E+03  0.17120000000E+03 0.  0.
         13    1    1    2    0    0 -0.97345158398E+01  0.50335472116E+01  0.41810583316E+02  0.43223066034E+02  0.10566000000E+00 0. -1.
        994    1    1    2    0    0 -0.11011410544E+01 -0.74231382542E+01  0.16615192444E+01  0.17137244860E+03  0.17120000000E+03 0.  0.
        998    1    1    2    0    0  0.10835656894E+02  0.23895910426E+01  0.14565278937E+04  0.14566044854E+04  0.10000000000E+02 0. -1.
</event>
<event>
 5    1  0.1582292E-008  0.3801073E+03  0.7957747E-01  0.3450691E+00
         13   -1    0    0    0    0  0.00000000000E+00  0.00000000000E+00  0.14999999963E+04  0.15000000000E+04  0.10566000000E+00 0.  1.
        994   -1    0    0    0    0 -0.00000000000E+00 -0.00000000000E+00  0.11368683772E-12  0.17120000000E+03  0.17120000000E+03 0.  0.
         13    1    1    2    0    0  0.24603711633E+02 -0.24612990806E+02  0.17400812774E+03  0.17745416768E+03  0.10566000000E+00 0.  1.
        994    1    1    2    0    0  0.30867197366E+01 -0.16472686435E+01  0.41199038447E+01  0.17128530276E+03  0.17120000000E+03 0.  0.
        998    1    1    2    0    0 -0.27690431370E+02  0.26260259449E+02  0.13218719647E+04  0.13224605296E+04  0.10000000000E+02 0.  1.
</event>
<event>
 5    1  0.1582292E-008  0.3837183E+03  0.7957747E-01  0.3435126E+00
         13   -1    0    0    0    0  0.00000000000E+00  0.00000000000E+00  0.14999999963E+04  0.15000000000E+04  0.10566000000E+00 0.  1.
        994   -1    0    0    0    0 -0.00000000000E+00 -0.00000000000E+00  0.11368683772E-12  0.17120000000E+03  0.17120000000E+03 0.  0.
         13    1    1    2    0    0  0.28845256788E+02 -0.27924986742E+01  0.16837292538E+03  0.17084876369E+03  0.10566000000E+00 0.  1.
        994    1    1    2    0    0 -0.28216218362E+02 -0.27109718678E+01  0.49257989335E+01  0.17360071383E+03  0.17120000000E+03 0.  0.
        998    1    1    2    0    0 -0.62903842598E+00  0.55034705420E+01  0.13267012720E+04  0.13267505225E+04  0.10000000000E+02 0.  1.
</event>
<event>
 5    1  0.1582292E-008  0.3698946E+03  0.7957747E-01  0.3496375E+00
         13   -1    0    0    0    0  0.00000000000E+00  0.00000000000E+00  0.14999999963E+04  0.15000000000E+04  0.10566000000E+00 0.  1.
        994   -1    0    0    0    0 -0.00000000000E+00 -0.00000000000E+00  0.11368683772E-12  0.17120000000E+03  0.17120000000E+03 0.  0.
         13    1    1    2    0    0 -0.19433543523E+02 -0.59934681471E+02  0.20917263173E+03  0.21845601316E+03  0.10566000000E+00 0.  1.
        994    1    1    2    0    0  0.68914593210E+00  0.69692998252E+01  0.11054527495E+02  0.17169941363E+03  0.17120000000E+03 0.  0.
        998    1    1    2    0    0  0.18744397591E+02  0.52965381646E+02  0.12797728371E+04  0.12810445732E+04  0.10000000000E+02 0.  1.
</event>
<event>
 5    1  0.1582292E-008  0.3740285E+03  0.7957747E-01  0.3477579E+00
         13   -1    0    0    0    0  0.00000000000E+00  0.00000000000E+00  0.14999999963E+04  0.15000000000E+04  0.10566000000E+00 0. -1.
        994   -1    0    0    0    0 -0.00000000000E+00 -0.00000000000E+00  0.11368683772E-12  0.17120000000E+03  0.17120000000E+03 0.  0.
         13    1    1    2    0    0  0.47052080081E+02 -0.58988266329E+02  0.33793307322E+03  0.34625465620E+03  0.10566000000E+00 0. -1.
        994    1    1    2    0    0 -0.33117907960E+02  0.54433385595E+02  0.21152655845E+02  0.18389307802E+03  0.17120000000E+03 0.  0.
        998    1    1    2    0    0 -0.13934172122E+02  0.45548807335E+01  0.11409142672E+04  0.11410522658E+04  0.10000000000E+02 0.  0.
</event>
<event>
 5    1  0.1582292E-008  0.3719156E+03  0.7957747E-01  0.3487133E+00
         13   -1    0    0    0    0  0.00000000000E+00  0.00000000000E+00  0.14999999963E+04  0.15000000000E+04  0.10566000000E+00 0.  1.
        994   -1    0    0    0    0 -0.00000000000E+00 -0.00000000000E+00  0.11368683772E-12  0.17120000000E+03  0.17120000000E+03 0.  0.
         13    1    1    2    0    0  0.51903198855E+02 -0.69855580645E+02  0.35200486327E+03  0.36260333579E+03  0.10566000000E+00 0.  1.
        994    1    1    2    0    0 -0.52070282636E+02  0.66974028251E+02  0.33412749045E+02  0.19396568406E+03  0.17120000000E+03 0.  0.
        998    1    1    2    0    0  0.16708378131E+00  0.28815523935E+01  0.11145823840E+04  0.11146309802E+04  0.10000000000E+02 0.  1.
</event>
<event>
 5    1  0.1760714E-008  0.3850803E+03  0.7957747E-01  0.3429332E+00
         13   -1    0    0    0    0  0.00000000000E+00  0.00000000000E+00  0.14999999963E+04  0.15000000000E+04  0.10566000000E+00 0.  1.
        994   -1    0    0    0    0 -0.00000000000E+00 -0.00000000000E+00  0.11368683772E-12  0.17120000000E+03  0.17120000000E+03 0.  0.
         13    1    1    2    0    0 -0.54396367671E+00  0.10934295497E+02  0.37869364855E+02  0.39420231773E+02  0.10566000000E+00 0.  1.
        994    1    1    2    0    0 -0.54542171567E+00 -0.58291147314E+01  0.17029692755E+01  0.17130854085E+03  0.17120000000E+03 0.  0.
        998    1    1    2    0    0  0.10893853924E+01 -0.51051807657E+01  0.14604276621E+04  0.14604712274E+04  0.10000000000E+02 0.  1.
</event>
<event>
 5    1  0.1582292E-008  0.3738811E+03  0.7957747E-01  0.3478242E+00
         13   -1    0    0    0    0  0.00000000000E+00  0.00000000000E+00  0.14999999963E+04  0.15000000000E+04  0.10566000000E+00 0. -1.
        994   -1    0    0    0    0 -0.00000000000E+00 -0.00000000000E+00  0.11368683772E-12  0.17120000000E+03  0.17120000000E+03 0.  0.
         13    1    1    2    0    0 -0.35861940224E+02  0.10593977594E+02  0.90140022019E+02  0.97588656367E+02  0.10566000000E+00 0. -1.
        994    1    1    2    0    0  0.34612969820E+02 -0.57664142909E+00  0.11354390445E+02  0.17503357500E+03  0.17120000000E+03 0.  0.
        998    1    1    2    0    0  0.12489704043E+01 -0.10017336165E+02  0.13985055838E+04  0.13985777686E+04  0.10000000000E+02 0. -1.
</event>
<event>
 5    1  0.1582292E-008  0.4138156E+03  0.7957747E-01  0.3315958E+00
         13   -1    0    0    0    0  0.00000000000E+00  0.00000000000E+00  0.14999999963E+04  0.15000000000E+04  0.10566000000E+00 0.  1.
        994   -1    0    0    0    0 -0.00000000000E+00 -0.00000000000E+00  0.11368683772E-12  0.17120000000E+03  0.17120000000E+03 0.  0.
         13    1    1    2    0    0 -0.13635956050E+03  0.26039740169E+02  0.21983311715E+03  0.25999732377E+03  0.10566000000E+00 0.  1.
        994    1    1    2    0    0  0.13101072913E+03 -0.10919588359E+02  0.11255170651E+03  0.24343453986E+03  0.17120000000E+03 0.  0.
        998    1    1    2    0    0  0.53488313721E+01 -0.15120151810E+02  0.11676151726E+04  0.11677681364E+04  0.10000000000E+02 0.  1.
</event>
<event>
 5    1  0.1582292E-008  0.3967802E+03  0.7957747E-01  0.3381197E+00
         13   -1    0    0    0    0  0.00000000000E+00  0.00000000000E+00  0.14999999963E+04  0.15000000000E+04  0.10566000000E+00 0.  1.
        994   -1    0    0    0    0 -0.00000000000E+00 -0.00000000000E+00  0.11368683772E-12  0.17120000000E+03  0.17120000000E+03 0.  0.
         13    1    1    2    0    0 -0.13170479358E+02 -0.21377469606E+02  0.11629548873E+01  0.25136056998E+02  0.10566000000E+00 0.  1.
        994    1    1    2    0    0  0.87619444544E+01  0.13851791547E+02  0.26907953066E+02  0.17407504628E+03  0.17120000000E+03 0.  0.
        998    1    1    2    0    0  0.44085349035E+01  0.75256780597E+01  0.14719290883E+04  0.14719888967E+04  0.10000000000E+02 0.  1.
</event>
<event>
 5    1  0.1582292E-008  0.3833446E+03  0.7957747E-01  0.3436723E+00
         13   -1    0    0    0    0  0.00000000000E+00  0.00000000000E+00  0.14999999963E+04  0.15000000000E+04  0.10566000000E+00 0. -1.
        994   -1    0    0    0    0 -0.00000000000E+00 -0.00000000000E+00  0.11368683772E-12  0.17120000000E+03  0.17120000000E+03 0.  0.
         13    1    1    2    0    0 -0.42001044061E+01  0.16470057882E+02  0.56174427468E+02  0.58689702240E+02  0.10566000000E+00 0. -1.
        994    1    1    2    0    0  0.87454192490E+01 -0.16705297695E+02  0.36307164312E+01  0.17227353665E+03  0.17120000000E+03 0.  0.
        998    1    1    2    0    0 -0.45453148429E+01  0.23523981309E+00  0.14401948524E+04  0.14402367611E+04  0.10000000000E+02 0. -1.
</event>
<event>
 5    1  0.1582292E-008  0.3788911E+03  0.7957747E-01  0.3456001E+00
         13   -1    0    0    0    0  0.00000000000E+00  0.00000000000E+00  0.14999999963E+04  0.15000000000E+04  0.10566000000E+00 0.  1.
        994   -1    0    0    0    0 -0.00000000000E+00 -0.00000000000E+00  0.11368683772E-12  0.17120000000E+03  0.17120000000E+03 0.  0.
         13    1    1    2    0    0  0.18928474993E+02  0.53215505177E+02  0.27198307110E+03  0.27778585148E+03  0.10566000000E+00 0.  1.
        994    1    1    2    0    0 -0.27499208946E+02 -0.53261129669E+02  0.16845044289E+02  0.18217066159E+03  0.17120000000E+03 0.  0.
        998    1    1    2    0    0  0.85707339526E+01  0.45624492111E-01  0.12111718809E+04  0.12112434869E+04  0.10000000000E+02 0.  1.
</event>
<event>
 5    1  0.1582292E-008  0.3752267E+03  0.7957747E-01  0.3472209E+00
         13   -1    0    0    0    0  0.00000000000E+00  0.00000000000E+00  0.14999999963E+04  0.15000000000E+04  0.10566000000E+00 0. -1.
        994   -1    0    0    0    0 -0.00000000000E+00 -0.00000000000E+00  0.11368683772E-12  0.17120000000E+03  0.17120000000E+03 0.  0.
         13    1    1    2    0    0 -0.14184596966E+02 -0.67578798594E+01  0.15412525134E+02  0.22009743895E+02  0.10566000000E+00 0. -1.
        994    1    1    2    0    0  0.38483949509E+02 -0.24562407492E+02  0.13675064228E+02  0.17770980168E+03  0.17120000000E+03 0.  0.
        998    1    1    2    0    0 -0.24299352543E+02  0.31320287351E+02  0.14709124069E+04  0.14714804544E+04  0.10000000000E+02 0. -1.
</event>
<event>
 5    1  0.1582292E-008  0.3797365E+03  0.7957747E-01  0.3452307E+00
         13   -1    0    0    0    0  0.00000000000E+00  0.00000000000E+00  0.14999999963E+04  0.15000000000E+04  0.10566000000E+00 0. -1.
        994   -1    0    0    0    0 -0.00000000000E+00 -0.00000000000E+00  0.11368683772E-12  0.17120000000E+03  0.17120000000E+03 0.  0.
         13    1    1    2    0    0 -0.34685471939E+02  0.75149583365E+01  0.15677431051E+03  0.16074125843E+03  0.10566000000E+00 0. -1.
        994    1    1    2    0    0  0.41115637212E+01 -0.34266007925E+02  0.82616109962E+01  0.17483923608E+03  0.17120000000E+03 0.  0.
        998    1    1    2    0    0  0.30573908217E+02  0.26751049589E+02  0.13349640748E+04  0.13356195055E+04  0.10000000000E+02 0. -1.
</event>
<event>
 5    1  0.1582292E-008  0.3854090E+03  0.7957747E-01  0.3427940E+00
         13   -1    0    0    0    0  0.00000000000E+00  0.00000000000E+00  0.14999999963E+04  0.15000000000E+04  0.10566000000E+00 0.  1.
        994   -1    0    0    0    0 -0.00000000000E+00 -0.00000000000E+00  0.11368683772E-12  0.17120000000E+03  0.17120000000E+03 0.  0.
         13    1    1    2    0    0 -0.86658745192E+01 -0.60617788587E+01  0.39609525838E+02  0.40997173626E+02  0.10566000000E+00 0.  1.
        994    1    1    2    0    0  0.49240378774E+01  0.23821990549E+01  0.15255126633E+01  0.17129415696E+03  0.17120000000E+03 0.  0.
        998    1    1    2    0    0  0.37418366419E+01  0.36795798038E+01  0.14588649578E+04  0.14589086694E+04  0.10000000000E+02 0.  1.
</event>
<event>
 5    1  0.1582292E-008  0.3852612E+03  0.7957747E-01  0.3428565E+00
         13   -1    0    0    0    0  0.00000000000E+00  0.00000000000E+00  0.14999999963E+04  0.15000000000E+04  0.10566000000E+00 0.  1.
        994   -1    0    0    0    0 -0.00000000000E+00 -0.00000000000E+00  0.11368683772E-12  0.17120000000E+03  0.17120000000E+03 0.  0.
         13    1    1    2    0    0 -0.16607880821E+02 -0.31225152323E+01  0.98642886593E+02  0.10007997825E+03  0.10566000000E+00 0.  1.
        994    1    1    2    0    0  0.74064239399E+01 -0.25677994975E+01  0.17024479178E+01  0.17138782640E+03  0.17120000000E+03 0.  0.
        998    1    1    2    0    0  0.92014568813E+01  0.56903147298E+01  0.13996546618E+04  0.13997321953E+04  0.10000000000E+02 0.  1.
</event>
<event>
 5    1  0.1582292E-008  0.3849620E+03  0.7957747E-01  0.3429833E+00
         13   -1    0    0    0    0  0.00000000000E+00  0.00000000000E+00  0.14999999963E+04  0.15000000000E+04  0.10566000000E+00 0. -1.
        994   -1    0    0    0    0 -0.00000000000E+00 -0.00000000000E+00  0.11368683772E-12  0.17120000000E+03  0.17120000000E+03 0.  0.
         13    1    1    2    0    0  0.58167045113E+01 -0.18506428060E+02  0.10027596103E+03  0.10213521164E+03  0.10566000000E+00 0. -1.
        994    1    1    2    0    0  0.13283032720E+01  0.31267583803E+02  0.48770525008E+01  0.17410528949E+03  0.17120000000E+03 0.  0.
        998    1    1    2    0    0 -0.71450077833E+01 -0.12761155743E+02  0.13948469827E+04  0.13949594989E+04  0.10000000000E+02 0. -1.
</event>
<event>
 5    1  0.1582292E-008  0.3716231E+03  0.7957747E-01  0.3488464E+00
         13   -1    0    0    0    0  0.00000000000E+00  0.00000000000E+00  0.14999999963E+04  0.15000000000E+04  0.10566000000E+00 0. -1.
        994   -1    0    0    0    0 -0.00000000000E+00 -0.00000000000E+00  0.11368683772E-12  0.17120000000E+03  0.17120000000E+03 0.  0.
         13    1    1    2    0    0  0.18525185951E+02  0.22671240644E+02  0.32002550777E+02  0.43374440482E+02  0.10566000000E+00 0. -1.
        994    1    1    2    0    0 -0.52559512028E+02  0.27013048290E+02  0.24181355521E+02  0.18271941615E+03  0.17120000000E+03 0.  0.
        998    1    1    2    0    0  0.34034326077E+02 -0.49684288934E+02  0.14438160900E+04  0.14451061434E+04  0.10000000000E+02 0. -1.
</event>
<event>
 5    1  0.1582292E-008  0.3712218E+03  0.7957747E-01  0.3490294E+00
         13   -1    0    0    0    0  0.00000000000E+00  0.00000000000E+00  0.14999999963E+04  0.15000000000E+04  0.10566000000E+00 0. -1.
        994   -1    0    0    0    0 -0.00000000000E+00 -0.00000000000E+00  0.11368683772E-12  0.17120000000E+03  0.17120000000E+03 0.  0.
         13    1    1    2    0    0  0.14828779929E+01  0.54345172080E+02  0.11332094025E+03  0.12568708493E+03  0.10566000000E+00 0. -1.
        994    1    1    2    0    0  0.15035234788E+01 -0.57891672363E+02  0.23455942495E+02  0.18224524013E+03  0.17120000000E+03 0.  0.
        998    1    1    2    0    0 -0.29864014717E+01  0.35465002824E+01  0.13632231135E+04  0.13632676749E+04  0.10000000000E+02 0. -1.
</event>
<event>
 5    1  0.1582292E-008  0.3685013E+03  0.7957747E-01  0.3502807E+00
         13   -1    0    0    0    0  0.00000000000E+00  0.00000000000E+00  0.14999999963E+04  0.15000000000E+04  0.10566000000E+00 0. -1.
        994   -1    0    0    0    0 -0.00000000000E+00 -0.00000000000E+00  0.11368683772E-12  0.17120000000E+03  0.17120000000E+03 0.  0.
         13    1    1    2    0    0  0.12923334481E+01 -0.23667901809E+02  0.23460957562E+02  0.33350673090E+02  0.10566000000E+00 0. -1.
        994    1    1    2    0    0 -0.10823614914E+01  0.21541324505E+02  0.11673085977E+02  0.17294768314E+03  0.17120000000E+03 0.  0.
        998    1    1    2    0    0 -0.20997195669E+00  0.21265773043E+01  0.14648659527E+04  0.14649016438E+04  0.10000000000E+02 0. -1.
</event>
<event>
 5    1  0.1582292E-008  0.3853200E+03  0.7957747E-01  0.3428316E+00
         13   -1    0    0    0    0  0.00000000000E+00  0.00000000000E+00  0.14999999963E+04  0.15000000000E+04  0.10566000000E+00 0. -1.
        994   -1    0    0    0    0 -0.00000000000E+00 -0.00000000000E+00  0.11368683772E-12  0.17120000000E+03  0.17120000000E+03 0.  0.
         13    1    1    2    0    0 -0.82850336619E+01 -0.11220035368E+02  0.67671771316E+02  0.69094216643E+02  0.10566000000E+00 0. -1.
        994    1    1    2    0    0  0.91247415705E+00  0.71025987506E+01  0.16398556212E+01  0.17135754621E+03  0.17120000000E+03 0.  0.
        998    1    1    2    0    0  0.73725595049E+01  0.41174366176E+01  0.14306883693E+04  0.14307482371E+04  0.10000000000E+02 0. -1.
</event>
<event>
 5    1  0.1582292E-008  0.3847947E+03  0.7957747E-01  0.3430544E+00
         13   -1    0    0    0    0  0.00000000000E+00  0.00000000000E+00  0.14999999963E+04  0.15000000000E+04  0.10566000000E+00 0.  1.
        994   -1    0    0    0    0 -0.00000000000E+00 -0.00000000000E+00  0.11368683772E-12  0.17120000000E+03  0.17120000000E+03 0.  0.
         13    1    1    2    0    0 -0.40962580266E+01  0.95085739521E+01  0.29984744665E+02  0.31722048879E+02  0.10566000000E+00 0.  1.
        994    1    1    2    0    0 -0.12929890218E+01 -0.13703991722E+02  0.23558861639E+01  0.17176862755E+03  0.17120000000E+03 0.  0.
        998    1    1    2    0    0  0.53892470484E+01  0.41954177698E+01  0.14676593654E+04  0.14677093236E+04  0.10000000000E+02 0.  1.
</event>
<event>
 5    1  0.1582292E-008  0.3727575E+03  0.7957747E-01  0.3483313E+00
         13   -1    0    0    0    0  0.00000000000E+00  0.00000000000E+00  0.14999999963E+04  0.15000000000E+04  0.10566000000E+00 0. -1.
        994   -1    0    0    0    0 -0.00000000000E+00 -0.00000000000E+00  0.11368683772E-12  0.17120000000E+03  0.17120000000E+03 0.  0.
         13    1    1    2    0    0 -0.61525284644E+02 -0.47974403333E+02  0.24295435388E+03  0.25517392746E+03  0.10566000000E+00 0. -1.
        994    1    1    2    0    0  0.39748507366E+02  0.22499334058E+02  0.19805283608E+02  0.17829148362E+03  0.17120000000E+03 0.  0.
        998    1    1    2    0    0  0.21776777278E+02  0.25475069275E+02  0.12372403588E+04  0.12377345889E+04  0.10000000000E+02 0. -1.
</event>
<event>
 5    1  0.1783953E-008  0.3855587E+03  0.7957747E-01  0.3427306E+00
         13   -1    0    0    0    0  0.00000000000E+00  0.00000000000E+00  0.14999999963E+04  0.15000000000E+04  0.10566000000E+00 0.  1.
        994   -1    0    0    0    0 -0.00000000000E+00 -0.00000000000E+00  0.11368683772E-12  0.17120000000E+03  0.17120000000E+03 0.  0.
         13    1    1    2    0    0 -0.11250817821E+02 -0.22094239621E+01  0.48238406285E+02  0.49582430970E+02  0.10566000000E+00 0.  1.
        994    1    1    2    0    0  0.10089534830E+02 -0.82397055539E+00  0.16894919582E+01  0.17150735268E+03  0.17120000000E+03 0.  0.
        998    1    1    2    0    0  0.11612829916E+01  0.30333945175E+01  0.14500720980E+04  0.14501102163E+04  0.10000000000E+02 0.  1.
</event>
<event>
 5    1  0.1582292E-008  0.3779365E+03  0.7957747E-01  0.3460193E+00
         13   -1    0    0    0    0  0.00000000000E+00  0.00000000000E+00  0.14999999963E+04  0.15000000000E+04  0.10566000000E+00 0.  1.
        994   -1    0    0    0    0 -0.00000000000E+00 -0.00000000000E+00  0.11368683772E-12  0.17120000000E+03  0.17120000000E+03 0.  0.
         13    1    1    2    0    0  0.13123639672E+02 -0.23932630226E+01  0.14842922925E+02  0.19956982516E+02  0.10566000000E+00 0.  1.
        994    1    1    2    0    0 -0.11543071254E+02  0.27806248092E+01  0.56530595629E+01  0.17170431401E+03  0.17120000000E+03 0.  0.
        998    1    1    2    0    0 -0.15805684183E+01 -0.38736178661E+00  0.14795040138E+04  0.14795387035E+04  0.10000000000E+02 0.  1.
</event>
<event>
 5    1  0.1582292E-008  0.3829340E+03  0.7957747E-01  0.3438482E+00
         13   -1    0    0    0    0  0.00000000000E+00  0.00000000000E+00  0.14999999963E+04  0.15000000000E+04  0.10566000000E+00 0.  1.
        994   -1    0    0    0    0 -0.00000000000E+00 -0.00000000000E+00  0.11368683772E-12  0.17120000000E+03  0.17120000000E+03 0.  0.
         13    1    1    2    0    0  0.80628824794E+01 -0.18839413787E+02  0.74478998758E+02  0.77246786378E+02  0.10566000000E+00 0.  1.
        994    1    1    2    0    0 -0.10927318463E+02  0.19316216515E+02  0.42917187089E+01  0.17268578795E+03  0.17120000000E+03 0.  0.
        998    1    1    2    0    0  0.28644359834E+01 -0.47680272839E+00  0.14212292788E+04  0.14212674257E+04  0.10000000000E+02 0.  1.
</event>
<event>
 5    1  0.1582292E-008  0.3797053E+03  0.7957747E-01  0.3452443E+00
         13   -1    0    0    0    0  0.00000000000E+00  0.00000000000E+00  0.14999999963E+04  0.15000000000E+04  0.10566000000E+00 0.  1.
        994   -1    0    0    0    0 -0.00000000000E+00 -0.00000000000E+00  0.11368683772E-12  0.17120000000E+03  0.17120000000E+03 0.  0.
         13    1    1    2    0    0  0.17644009199E+02 -0.21466227185E+01  0.35310931052E+02  0.39532164948E+02  0.10566000000E+00 0.  1.
        994    1    1    2    0    0 -0.10527135235E+02  0.53897129794E+01  0.47501677535E+01  0.17167374195E+03  0.17120000000E+03 0.  0.
        998    1    1    2    0    0 -0.71168739644E+01 -0.32430902609E+01  0.14599388975E+04  0.14599940931E+04  0.10000000000E+02 0.  1.
</event>
<event>
 5    1  0.1582292E-008  0.3823125E+03  0.7957747E-01  0.3441151E+00
         13   -1    0    0    0    0  0.00000000000E+00  0.00000000000E+00  0.14999999963E+04  0.15000000000E+04  0.10566000000E+00 0. -1.
        994   -1    0    0    0    0 -0.00000000000E+00 -0.00000000000E+00  0.11368683772E-12  0.17120000000E+03  0.17120000000E+03 0.  0.
         13    1    1    2    0    0  0.15707502977E+02  0.12015891538E+02  0.66147286289E+02  0.69040437040E+02  0.10566000000E+00 0. -1.
        994    1    1    2    0    0 -0.95374334060E+01 -0.19537499426E+01  0.32848346557E+01  0.17150804621E+03  0.17120000000E+03 0.  0.
        998    1    1    2    0    0 -0.61700695714E+01 -0.10062141596E+02  0.14305678753E+04  0.14306515168E+04  0.10000000000E+02 0. -1.
</event>
<event>
 5    1  0.1582292E-008  0.3904831E+03  0.7957747E-01  0.3406746E+00
         13   -1    0    0    0    0  0.00000000000E+00  0.00000000000E+00  0.14999999963E+04  0.15000000000E+04  0.10566000000E+00 0. -1.
        994   -1    0    0    0    0 -0.00000000000E+00 -0.00000000000E+00  0.11368683772E-12  0.17120000000E+03  0.17120000000E+03 0.  0.
         13    1    1    2    0    0 -0.14012831167E+02 -0.36712277457E+01 -0.53766367350E+01  0.15451755146E+02  0.10566000000E+00 0. -1.
        994    1    1    2    0    0  0.14493998396E+02  0.38943088233E+01  0.23058845622E+02  0.17339663201E+03  0.17120000000E+03 0.  0.
        998    1    1    2    0    0 -0.48116722877E+00 -0.22308107768E+00  0.14823177874E+04  0.14823516128E+04  0.10000000000E+02 0. -1.
</event>
<event>
 5    1  0.1582292E-008  0.3852935E+03  0.7957747E-01  0.3428428E+00
         13   -1    0    0    0    0  0.00000000000E+00  0.00000000000E+00  0.14999999963E+04  0.15000000000E+04  0.10566000000E+00 0. -1.
        994   -1    0    0    0    0 -0.00000000000E+00 -0.00000000000E+00  0.11368683772E-12  0.17120000000E+03  0.17120000000E+03 0.  0.
         13    1    1    2    0    0 -0.41367873849E+00  0.14286529673E+02  0.81653736303E+02  0.82895234341E+02  0.10566000000E+00 0. -1.
        994    1    1    2    0    0 -0.12727041397E+02  0.11937559636E+02  0.24855166991E+01  0.17210491192E+03  0.17120000000E+03 0.  0.
        998    1    1    2    0    0  0.13140720136E+02 -0.26224089310E+02  0.14158607433E+04  0.14161998537E+04  0.10000000000E+02 0. -1.
</event>
<event>
 5    1  0.1582292E-008  0.3862070E+03  0.7957747E-01  0.3424569E+00
         13   -1    0    0    0    0  0.00000000000E+00  0.00000000000E+00  0.14999999963E+04  0.15000000000E+04  0.10566000000E+00 0.  1.
        994   -1    0    0    0    0 -0.00000000000E+00 -0.00000000000E+00  0.11368683772E-12  0.17120000000E+03  0.17120000000E+03 0.  0.
         13    1    1    2    0    0  0.10584210715E+02  0.35199411485E+01  0.66849165220E+02  0.67773428102E+02  0.10566000000E+00 0.  1.
        994    1    1    2    0    0  0.23678977249E+01  0.35067168270E+01  0.10907355958E+01  0.17125575525E+03  0.17120000000E+03 0.  0.
        998    1    1    2    0    0 -0.12952108440E+02 -0.70266579755E+01  0.14320600955E+04  0.14321708166E+04  0.10000000000E+02 0.  1.
</event>
<event>
 5    1  0.1582292E-008  0.3864213E+03  0.7957747E-01  0.3423667E+00
         13   -1    0    0    0    0  0.00000000000E+00  0.00000000000E+00  0.14999999963E+04  0.15000000000E+04  0.10566000000E+00 0. -1.
        994   -1    0    0    0    0 -0.00000000000E+00 -0.00000000000E+00  0.11368683772E-12  0.17120000000E+03  0.17120000000E+03 0.  0.
         13    1    1    2    0    0 -0.10105737494E+02 -0.26990312661E+01  0.55559789215E+02  0.56535935843E+02  0.10566000000E+00 0. -1.
        994    1    1    2    0    0  0.11866587807E+02  0.27784105411E+02  0.39198773256E+01  0.17388955649E+03  0.17120000000E+03 0.  0.
        998    1    1    2    0    0 -0.17608503133E+01 -0.25085074145E+02  0.14405203297E+04  0.14407745077E+04  0.10000000000E+02 0. -1.
</event>
<event>
 5    1  0.1582292E-008  0.3853450E+03  0.7957747E-01  0.3428210E+00
         13   -1    0    0    0    0  0.00000000000E+00  0.00000000000E+00  0.14999999963E+04  0.15000000000E+04  0.10566000000E+00 0.  1.
        994   -1    0    0    0    0 -0.00000000000E+00 -0.00000000000E+00  0.11368683772E-12  0.17120000000E+03  0.17120000000E+03 0.  0.
         13    1    1    2    0    0 -0.14343291814E+02  0.32051166054E+01  0.78257633714E+02  0.79625819877E+02  0.10566000000E+00 0.  1.
        994    1    1    2    0    0  0.29504297990E+01  0.12946224555E+01  0.14930332429E+01  0.17123682499E+03  0.17120000000E+03 0.  0.
        998    1    1    2    0    0  0.11392862015E+02 -0.44997390609E+01  0.14202493293E+04  0.14203373551E+04  0.10000000000E+02 0.  1.
</event>
<event>
 5    1  0.1582292E-008  0.3851311E+03  0.7957747E-01  0.3429116E+00
         13   -1    0    0    0    0  0.00000000000E+00  0.00000000000E+00  0.14999999963E+04  0.15000000000E+04  0.10566000000E+00 0. -1.
        994   -1    0    0    0    0 -0.00000000000E+00 -0.00000000000E+00  0.11368683772E-12  0.17120000000E+03  0.17120000000E+03 0.  0.
         13    1    1    2    0    0  0.13310860608E+02 -0.48491276856E+01  0.68030570791E+02  0.69490019252E+02  0.10566000000E+00 0. -1.
        994    1    1    2    0    0  0.47302724287E+00  0.33005270999E+01  0.16016059134E+01  0.17123995555E+03  0.17120000000E+03 0.  0.
        998    1    1    2    0    0 -0.13783887851E+02  0.15486005857E+01  0.14303678196E+04  0.14304700252E+04  0.10000000000E+02 0. -1.
</event>
<event>
 5    1  0.1582292E-008  0.3809110E+03  0.7957747E-01  0.3447201E+00
         13   -1    0    0    0    0  0.00000000000E+00  0.00000000000E+00  0.14999999963E+04  0.15000000000E+04  0.10566000000E+00 0. -1.
        994   -1    0    0    0    0 -0.00000000000E+00 -0.00000000000E+00  0.11368683772E-12  0.17120000000E+03  0.17120000000E+03 0.  0.
         13    1    1    2    0    0 -0.51388795879E+01  0.23897213067E+02  0.75115954768E+02  0.78993054762E+02  0.10566000000E+00 0. -1.
        994    1    1    2    0    0 -0.12775920022E+02 -0.32480262135E+02  0.77447412844E+01  0.17489314617E+03  0.17120000000E+03 0.  0.
        998    1    1    2    0    0  0.17914799610E+02  0.85830490680E+01  0.14171393002E+04  0.14173137991E+04  0.10000000000E+02 0. -1.
</event>
<event>
 5    1  0.1582292E-008  0.3857983E+03  0.7957747E-01  0.3426294E+00
         13   -1    0    0    0    0  0.00000000000E+00  0.00000000000E+00  0.14999999963E+04  0.15000000000E+04  0.10566000000E+00 0. -1.
        994   -1    0    0    0    0 -0.00000000000E+00 -0.00000000000E+00  0.11368683772E-12  0.17120000000E+03  0.17120000000E+03 0.  0.
         13    1    1    2    0    0  0.40614336524E+01  0.10996875956E+02  0.45458141935E+02  0.46945504112E+02  0.10566000000E+00 0. -1.
        994    1    1    2    0    0  0.15446294133E+02 -0.53631580809E+02  0.11519248825E+02  0.18043577128E+03  0.17120000000E+03 0.  0.
        998    1    1    2    0    0 -0.19507727785E+02  0.42634704853E+02  0.14430226055E+04  0.14438187246E+04  0.10000000000E+02 0. -1.
</event>
<event>
 5    1  0.1582292E-008  0.3755016E+03  0.7957747E-01  0.3470982E+00
         13   -1    0    0    0    0  0.00000000000E+00  0.00000000000E+00  0.14999999963E+04  0.15000000000E+04  0.10566000000E+00 0. -1.
        994   -1    0    0    0    0 -0.00000000000E+00 -0.00000000000E+00  0.11368683772E-12  0.17120000000E+03  0.17120000000E+03 0.  0.
         13    1    1    2    0    0 -0.43528213659E+02 -0.23046151431E+02  0.25655833345E+03  0.26124322021E+03  0.10566000000E+00 0. -1.
        994    1    1    2    0    0 -0.94569486298E+01 -0.13277464695E+02  0.73236064313E+01  0.17213018375E+03  0.17120000000E+03 0.  0.
        998    1    1    2    0    0  0.52985162288E+02  0.36323616126E+02  0.12361180564E+04  0.12378265960E+04  0.10000000000E+02 0. -1.
</event>
<event>
 5    1  0.1582292E-008  0.3841854E+03  0.7957747E-01  0.3433134E+00
         13   -1    0    0    0    0  0.00000000000E+00  0.00000000000E+00  0.14999999963E+04  0.15000000000E+04  0.10566000000E+00 0.  1.
        994   -1    0    0    0    0 -0.00000000000E+00 -0.00000000000E+00  0.11368683772E-12  0.17120000000E+03  0.17120000000E+03 0.  0.
         13    1    1    2    0    0  0.11973608749E+02  0.30529429647E+01  0.36989860323E+02  0.38999342276E+02  0.10566000000E+00 0.  1.
        994    1    1    2    0    0 -0.64047161567E+01 -0.10089541872E+02  0.25061834552E+01  0.17163490379E+03  0.17120000000E+03 0.  0.
        998    1    1    2    0    0 -0.55688925922E+01  0.70365989069E+01  0.14605039525E+04  0.14605657539E+04  0.10000000000E+02 0.  1.
</event>
<event>
 5    1  0.1582292E-008  0.3064155E+03  0.7957747E-01  0.3851257E+00
         13   -1    0    0    0    0  0.00000000000E+00  0.00000000000E+00  0.14999999963E+04  0.15000000000E+04  0.10566000000E+00 0.  1.
        994   -1    0    0    0    0 -0.00000000000E+00 -0.00000000000E+00  0.11368683772E-12  0.17120000000E+03  0.17120000000E+03 0.  0.
         13    1    1    2    0    0  0.16957845803E+03  0.14452318552E+03  0.52650964309E+03  0.57171340724E+03  0.10566000000E+00 0.  1.
        994    1    1    2    0    0 -0.20050044654E+03 -0.15732403863E+03  0.31429159809E+03  0.43936309679E+03  0.17120000000E+03 0.  0.
        998    1    1    2    0    0  0.30921988503E+02  0.12800853106E+02  0.65919875510E+03  0.66012349598E+03  0.10000000000E+02 0. -1.
</event>
<event>
 5    1  0.1582292E-008  0.3689230E+03  0.7957747E-01  0.3500855E+00
         13   -1    0    0    0    0  0.00000000000E+00  0.00000000000E+00  0.14999999963E+04  0.15000000000E+04  0.10566000000E+00 0.  1.
        994   -1    0    0    0    0 -0.00000000000E+00 -0.00000000000E+00  0.11368683772E-12  0.17120000000E+03  0.17120000000E+03 0.  0.
         13    1    1    2    0    0 -0.47179990669E+00 -0.57010970284E+02  0.14253309367E+03  0.15351275935E+03  0.10566000000E+00 0.  1.
        994    1    1    2    0    0 -0.31305142286E+01  0.52004402227E+02  0.19884259449E+02  0.18005299704E+03  0.17120000000E+03 0.  0.
        998    1    1    2    0    0  0.36023141353E+01  0.50065680571E+01  0.13375826432E+04  0.13376342436E+04  0.10000000000E+02 0.  1.
</event>
<event>
 5    1  0.1582292E-008  0.3795457E+03  0.7957747E-01  0.3453139E+00
         13   -1    0    0    0    0  0.00000000000E+00  0.00000000000E+00  0.14999999963E+04  0.15000000000E+04  0.10566000000E+00 0. -1.
        994   -1    0    0    0    0 -0.00000000000E+00 -0.00000000000E+00  0.11368683772E-12  0.17120000000E+03  0.17120000000E+03 0.  0.
         13    1    1    2    0    0 -0.30615336669E+02 -0.12664023141E+02  0.14232475031E+03  0.14613015444E+03  0.10566000000E+00 0. -1.
        994    1    1    2    0    0 -0.53996427249E+01  0.69481266525E+01  0.46219331379E+01  0.17148829369E+03  0.17120000000E+03 0.  0.
        998    1    1    2    0    0  0.36014979394E+02  0.57158964885E+01  0.13530533128E+04  0.13535815519E+04  0.10000000000E+02 0. -1.
</event>
<event>
 5    1  0.1582292E-008  0.4081568E+03  0.7957747E-01  0.3337031E+00
         13   -1    0    0    0    0  0.00000000000E+00  0.00000000000E+00  0.14999999963E+04  0.15000000000E+04  0.10566000000E+00 0. -1.
        994   -1    0    0    0    0 -0.00000000000E+00 -0.00000000000E+00  0.11368683772E-12  0.17120000000E+03  0.17120000000E+03 0.  0.
         13    1    1    2    0    0  0.31110270484E+02 -0.28723281170E+02  0.80772570652E+01  0.43106021116E+02  0.10566000000E+00 0. -1.
        994    1    1    2    0    0 -0.15465006118E+03  0.23194616613E+02  0.14076946355E+03  0.27125654560E+03  0.17120000000E+03 0.  0.
        998    1    1    2    0    0  0.12353979070E+03  0.55286645564E+01  0.13511532757E+04  0.13568374333E+04  0.10000000000E+02 0. -1.
</event>
<event>
 5    1  0.1582292E-008  0.3849870E+03  0.7957747E-01  0.3429727E+00
         13   -1    0    0    0    0  0.00000000000E+00  0.00000000000E+00  0.14999999963E+04  0.15000000000E+04  0.10566000000E+00 0. -1.
        994   -1    0    0    0    0 -0.00000000000E+00 -0.00000000000E+00  0.11368683772E-12  0.17120000000E+03  0.17120000000E+03 0.  0.
         13    1    1    2    0    0  0.11485948074E+02  0.15585588562E+01  0.41161448185E+02  0.42762507990E+02  0.10566000000E+00 0. -1.
        994    1    1    2    0    0 -0.57845641305E+01 -0.71474881419E+01  0.19146896103E+01  0.17145744022E+03  0.17120000000E+03 0.  0.
        998    1    1    2    0    0 -0.57013839438E+01  0.55889292857E+01  0.14569238585E+04  0.14569800518E+04  0.10000000000E+02 0. -1.
</event>
<event>
 5    1  0.1582292E-008  0.3833563E+03  0.7957747E-01  0.3436674E+00
         13   -1    0    0    0    0  0.00000000000E+00  0.00000000000E+00  0.14999999963E+04  0.15000000000E+04  0.10566000000E+00 0. -1.
        994   -1    0    0    0    0 -0.00000000000E+00 -0.00000000000E+00  0.11368683772E-12  0.17120000000E+03  0.17120000000E+03 0.  0.
         13    1    1    2    0    0 -0.26982100503E+02  0.51452066981E+01  0.14103793640E+03  0.14368791726E+03  0.10566000000E+00 0. -1.
        994    1    1    2    0    0  0.26725505761E+02 -0.65130313495E+01  0.49542050130E+01  0.17346658578E+03  0.17120000000E+03 0.  0.
        998    1    1    2    0    0  0.25659474180E+00  0.13678246515E+01  0.13540078549E+04  0.13540454970E+04  0.10000000000E+02 0. -1.
</event>
<event>
 5    1  0.1582292E-008  0.3721703E+03  0.7957747E-01  0.3485976E+00
         13   -1    0    0    0    0  0.00000000000E+00  0.00000000000E+00  0.14999999963E+04  0.15000000000E+04  0.10566000000E+00 0. -1.
        994   -1    0    0    0    0 -0.00000000000E+00 -0.00000000000E+00  0.11368683772E-12  0.17120000000E+03  0.17120000000E+03 0.  0.
         13    1    1    2    0    0  0.57367176756E+01  0.16688395895E+02  0.15229873517E+02  0.23310356037E+02  0.10566000000E+00 0. -1.
        994    1    1    2    0    0  0.37036977995E+02 -0.34005627200E+02  0.16865852890E+02  0.17922616275E+03  0.17120000000E+03 0.  0.
        998    1    1    2    0    0 -0.42773695670E+02  0.17317231305E+02  0.14679042699E+04  0.14686634812E+04  0.10000000000E+02 0. -1.
</event>
<event>
 5    1  0.1582292E-008  0.3813886E+03  0.7957747E-01  0.3445135E+00
         13   -1    0    0    0    0  0.00000000000E+00  0.00000000000E+00  0.14999999963E+04  0.15000000000E+04  0.10566000000E+00 0.  1.
        994   -1    0    0    0    0 -0.00000000000E+00 -0.00000000000E+00  0.11368683772E-12  0.17120000000E+03  0.17120000000E+03 0.  0.
         13    1    1    2    0    0  0.10440640513E+02  0.54085560956E+01  0.18505243580E+02  0.21925205982E+02  0.10566000000E+00 0.  1.
        994    1    1    2    0    0 -0.12909825951E+02 -0.25917820358E+01  0.40110125962E+01  0.17175246479E+03  0.17120000000E+03 0.  0.
        998    1    1    2    0    0  0.24691854381E+01 -0.28167740598E+01  0.14774837401E+04  0.14775223292E+04  0.10000000000E+02 0.  1.
</event>
<event>
 5    1  0.1582292E-008  0.3818544E+03  0.7957747E-01  0.3443124E+00
         13   -1    0    0    0    0  0.00000000000E+00  0.00000000000E+00  0.14999999963E+04  0.15000000000E+04  0.10566000000E+00 0. -1.
        994   -1    0    0    0    0 -0.00000000000E+00 -0.00000000000E+00  0.11368683772E-12  0.17120000000E+03  0.17120000000E+03 0.  0.
         13    1    1    2    0    0  0.10108544224E+02 -0.29365214761E+02  0.18143834953E+03  0.18407711523E+03  0.10566000000E+00 0. -1.
        994    1    1    2    0    0 -0.61070208776E+01 -0.76062222240E+01  0.35161748848E+01  0.17151371317E+03  0.17120000000E+03 0.  0.
        998    1    1    2    0    0 -0.40015233465E+01  0.36971436985E+02  0.13150454719E+04  0.13156091716E+04  0.10000000000E+02 0. -1.
</event>
<event>
 5    1  0.1582292E-008  0.3859756E+03  0.7957747E-01  0.3425545E+00
         13   -1    0    0    0    0  0.00000000000E+00  0.00000000000E+00  0.14999999963E+04  0.15000000000E+04  0.10566000000E+00 0. -1.
        994   -1    0    0    0    0 -0.00000000000E+00 -0.00000000000E+00  0.11368683772E-12  0.17120000000E+03  0.17120000000E+03 0.  0.
         13    1    1    2    0    0  0.58076248496E+01 -0.10399810244E+02  0.62267740111E+02  0.63396901991E+02  0.10566000000E+00 0. -1.
        994    1    1    2    0    0 -0.10017422459E+02  0.43633469239E+01  0.15380461344E+01  0.17155521891E+03  0.17120000000E+03 0.  0.
        998    1    1    2    0    0  0.42097976094E+01  0.60364633197E+01  0.14361942100E+04  0.14362478791E+04  0.10000000000E+02 0. -1.
</event>
<event>
 5    1  0.1582292E-008  0.3810780E+03  0.7957747E-01  0.3446478E+00
         13   -1    0    0    0    0  0.00000000000E+00  0.00000000000E+00  0.14999999963E+04  0.15000000000E+04  0.10566000000E+00 0. -1.
        994   -1    0    0    0    0 -0.00000000000E+00 -0.00000000000E+00  0.11368683772E-12  0.17120000000E+03  0.17120000000E+03 0.  0.
         13    1    1    2    0    0 -0.24456800887E+02 -0.30362571526E+02  0.20662789949E+03  0.21027391866E+03  0.10566000000E+00 0. -1.
        994    1    1    2    0    0  0.18380869323E+02  0.17090911127E+02  0.56911792299E+01  0.17312361226E+03  0.17120000000E+03 0.  0.
        998    1    1    2    0    0  0.60759315641E+01  0.13271660399E+02  0.12876809176E+04  0.12878024691E+04  0.10000000000E+02 0. -1.
</event>
<event>
 5    1  0.1582292E-008  0.4119582E+03  0.7957747E-01  0.3322812E+00
         13   -1    0    0    0    0  0.00000000000E+00  0.00000000000E+00  0.14999999963E+04  0.15000000000E+04  0.10566000000E+00 0. -1.
        994   -1    0    0    0    0 -0.00000000000E+00 -0.00000000000E+00  0.11368683772E-12  0.17120000000E+03  0.17120000000E+03 0.  0.
         13    1    1    2    0    0 -0.98743644735E+02  0.20923879562E+02  0.12909367332E+03  0.16386977686E+03  0.10566000000E+00 0. -1.
        994    1    1    2    0    0  0.86929728692E+02 -0.12245874771E+02  0.67634715143E+02  0.20393781864E+03  0.17120000000E+03 0.  0.
        998    1    1    2    0    0  0.11813916043E+02 -0.86780047912E+01  0.13032716078E+04  0.13033924045E+04  0.10000000000E+02 0. -1.
</event>
<event>
 5    1  0.1582292E-008  0.3703868E+03  0.7957747E-01  0.3494115E+00
         13   -1    0    0    0    0  0.00000000000E+00  0.00000000000E+00  0.14999999963E+04  0.15000000000E+04  0.10566000000E+00 0.  1.
        994   -1    0    0    0    0 -0.00000000000E+00 -0.00000000000E+00  0.11368683772E-12  0.17120000000E+03  0.17120000000E+03 0.  0.
         13    1    1    2    0    0 -0.30175057323E+01  0.59928559016E+02  0.17946995029E+03  0.18923533430E+03  0.10566000000E+00 0.  1.
        994    1    1    2    0    0  0.48978784840E+01 -0.52717854866E+02  0.18809461599E+02  0.18018434250E+03  0.17120000000E+03 0.  0.
        998    1    1    2    0    0 -0.18803727517E+01 -0.72107041500E+01  0.13017205844E+04  0.13017803232E+04  0.10000000000E+02 0.  1.
</event>
<event>
 5    1  0.1582292E-008  0.3819074E+03  0.7957747E-01  0.3442895E+00
         13   -1    0    0    0    0  0.00000000000E+00  0.00000000000E+00  0.14999999963E+04  0.15000000000E+04  0.10566000000E+00 0. -1.
        994   -1    0    0    0    0 -0.00000000000E+00 -0.00000000000E+00  0.11368683772E-12  0.17120000000E+03  0.17120000000E+03 0.  0.
         13    1    1    2    0    0  0.14001946055E+02  0.78123101075E+01  0.38878274173E+02  0.42054940842E+02  0.10566000000E+00 0. -1.
        994    1    1    2    0    0 -0.16478843446E+02  0.44902023756E+00  0.40766529716E+01  0.17204014938E+03  0.17120000000E+03 0.  0.
        998    1    1    2    0    0  0.24768973911E+01 -0.82613303450E+01  0.14570450691E+04  0.14571049098E+04  0.10000000000E+02 0. -1.
</event>
<event>
 5    1  0.1582292E-008  0.3764071E+03  0.7957747E-01  0.3466954E+00
         13   -1    0    0    0    0  0.00000000000E+00  0.00000000000E+00  0.14999999963E+04  0.15000000000E+04  0.10566000000E+00 0.  1.
        994   -1    0    0    0    0 -0.00000000000E+00 -0.00000000000E+00  0.11368683772E-12  0.17120000000E+03  0.17120000000E+03 0.  0.
         13    1    1    2    0    0  0.13261550151E+02 -0.11557365119E+02  0.22928759377E+02  0.28899490852E+02  0.10566000000E+00 0.  1.
        994    1    1    2    0    0 -0.94302618634E+01  0.21235528906E+02  0.77865539040E+01  0.17294492750E+03  0.17120000000E+03 0.  0.
        998    1    1    2    0    0 -0.38312882876E+01 -0.96781637865E+01  0.14692846830E+04  0.14693555816E+04  0.10000000000E+02 0.  1.
</event>
<event>
 5    1  0.1582292E-008  0.3843636E+03  0.7957747E-01  0.3432376E+00
         13   -1    0    0    0    0  0.00000000000E+00  0.00000000000E+00  0.14999999963E+04  0.15000000000E+04  0.10566000000E+00 0.  1.
        994   -1    0    0    0    0 -0.00000000000E+00 -0.00000000000E+00  0.11368683772E-12  0.17120000000E+03  0.17120000000E+03 0.  0.
         13    1    1    2    0    0  0.16581375181E+02 -0.94601845709E+01  0.95750983351E+02  0.97635542051E+02  0.10566000000E+00 0.  1.
        994    1    1    2    0    0 -0.49937953507E+01  0.85375390790E+01  0.22688887496E+01  0.17150048228E+03  0.17120000000E+03 0.  0.
        998    1    1    2    0    0 -0.11587579831E+02  0.92264549195E+00  0.14019801242E+04  0.14020639757E+04  0.10000000000E+02 0.  1.
</event>
<event>
 5    1  0.1582292E-008  0.3828419E+03  0.7957747E-01  0.3438877E+00
         13   -1    0    0    0    0  0.00000000000E+00  0.00000000000E+00  0.14999999963E+04  0.15000000000E+04  0.10566000000E+00 0. -1.
        994   -1    0    0    0    0 -0.00000000000E+00 -0.00000000000E+00  0.11368683772E-12  0.17120000000E+03  0.17120000000E+03 0.  0.
         13    1    1    2    0    0  0.13543421933E+02  0.44740053793E+01  0.38955064314E+02  0.41484324769E+02  0.10566000000E+00 0. -1.
        994    1    1    2    0    0  0.30911877835E+01  0.71062006114E+01  0.29043129957E+01  0.17139990829E+03  0.17120000000E+03 0.  0.
        998    1    1    2    0    0 -0.16634609717E+02 -0.11580205991E+02  0.14581406190E+04  0.14583157669E+04  0.10000000000E+02 0. -1.
</event>
<event>
 5    1  0.1582292E-008  0.3801452E+03  0.7957747E-01  0.3450527E+00
         13   -1    0    0    0    0  0.00000000000E+00  0.00000000000E+00  0.14999999963E+04  0.15000000000E+04  0.10566000000E+00 0. -1.
        994   -1    0    0    0    0 -0.00000000000E+00 -0.00000000000E+00  0.11368683772E-12  0.17120000000E+03  0.17120000000E+03 0.  0.
         13    1    1    2    0    0 -0.69068787268E+01  0.79889092593E+01  0.12008796891E+02  0.15992185958E+02  0.10566000000E+00 0. -1.
        994    1    1    2    0    0  0.64388363527E+01 -0.23587559566E+01  0.42170018452E+01  0.17138916374E+03  0.17120000000E+03 0.  0.
        998    1    1    2    0    0  0.46804237410E+00 -0.56301533027E+01  0.14837741975E+04  0.14838186503E+04  0.10000000000E+02 0. -1.
</event>
<event>
 5    1  0.1582292E-008  0.3822023E+03  0.7957747E-01  0.3441625E+00
         13   -1    0    0    0    0  0.00000000000E+00  0.00000000000E+00  0.14999999963E+04  0.15000000000E+04  0.10566000000E+00 0.  1.
        994   -1    0    0    0    0 -0.00000000000E+00 -0.00000000000E+00  0.11368683772E-12  0.17120000000E+03  0.17120000000E+03 0.  0.
         13    1    1    2    0    0 -0.23205934552E+01  0.11418466868E+02  0.21635204752E+02  0.24573558723E+02  0.10566000000E+00 0.  1.
        994    1    1    2    0    0  0.13644058176E+01 -0.22318619987E+01  0.30482677344E+01  0.17124711603E+03  0.17120000000E+03 0.  0.
        998    1    1    2    0    0  0.95618763764E+00 -0.91866048689E+01  0.14753165238E+04  0.14753793253E+04  0.10000000000E+02 0.  1.
</event>
<event>
 5    1  0.1582292E-008  0.3798627E+03  0.7957747E-01  0.3451756E+00
         13   -1    0    0    0    0  0.00000000000E+00  0.00000000000E+00  0.14999999963E+04  0.15000000000E+04  0.10566000000E+00 0. -1.
        994   -1    0    0    0    0 -0.00000000000E+00 -0.00000000000E+00  0.11368683772E-12  0.17120000000E+03  0.17120000000E+03 0.  0.
         13    1    1    2    0    0 -0.21715078494E+02  0.12264083137E+02  0.69090406802E+02  0.73453712263E+02  0.10566000000E+00 0. -1.
        994    1    1    2    0    0  0.98031476382E+01 -0.38124103609E+02  0.94022797579E+01  0.17591870806E+03  0.17120000000E+03 0.  0.
        998    1    1    2    0    0  0.11911930856E+02  0.25860020472E+02  0.14215073097E+04  0.14218275797E+04  0.10000000000E+02 0. -1.
</event>
<event>
 5    1  0.1582292E-008  0.3852516E+03  0.7957747E-01  0.3428606E+00
         13   -1    0    0    0    0  0.00000000000E+00  0.00000000000E+00  0.14999999963E+04  0.15000000000E+04  0.10566000000E+00 0.  1.
        994   -1    0    0    0    0 -0.00000000000E+00 -0.00000000000E+00  0.11368683772E-12  0.17120000000E+03  0.17120000000E+03 0.  0.
         13    1    1    2    0    0 -0.80487393195E+01  0.13262667968E+02  0.80367528478E+02  0.81851275884E+02  0.10566000000E+00 0.  1.
        994    1    1    2    0    0  0.27773525601E+01 -0.97365497976E+01  0.18422248648E+01  0.17150903149E+03  0.17120000000E+03 0.  0.
        998    1    1    2    0    0  0.52713867594E+01 -0.35261181702E+01  0.14177902429E+04  0.14178396926E+04  0.10000000000E+02 0.  1.
</event>
<event>
 5    1  0.2218374E-008  0.3855916E+03  0.7957747E-01  0.3427167E+00
         13   -1    0    0    0    0  0.00000000000E+00  0.00000000000E+00  0.14999999963E+04  0.15000000000E+04  0.10566000000E+00 0.  1.
        994   -1    0    0    0    0 -0.00000000000E+00 -0.00000000000E+00  0.11368683772E-12  0.17120000000E+03  0.17120000000E+03 0.  0.
         13    1    1    2    0    0 -0.10457778567E+02  0.40970315821E+00  0.41394416979E+02  0.42697094869E+02  0.10566000000E+00 0.  1.
        994    1    1    2    0    0  0.59747706514E+01 -0.16572016044E+01  0.14629053550E+01  0.17131848789E+03  0.17120000000E+03 0.  0.
        998    1    1    2    0    0  0.44830079151E+01  0.12474984462E+01  0.14571426739E+04  0.14571844172E+04  0.10000000000E+02 0.  1.
</event>
<event>
 5    1  0.1582292E-008  0.3850612E+03  0.7957747E-01  0.3429413E+00
         13   -1    0    0    0    0  0.00000000000E+00  0.00000000000E+00  0.14999999963E+04  0.15000000000E+04  0.10566000000E+00 0.  1.
        994   -1    0    0    0    0 -0.00000000000E+00 -0.00000000000E+00  0.11368683772E-12  0.17120000000E+03  0.17120000000E+03 0.  0.
         13    1    1    2    0    0 -0.13182644216E+02  0.10037426554E+02  0.83462382537E+02  0.85091201092E+02  0.10566000000E+00 0.  1.
        994    1    1    2    0    0  0.13794810700E+02 -0.62180366555E+01  0.23529593735E+01  0.17188349892E+03  0.17120000000E+03 0.  0.
        998    1    1    2    0    0 -0.61216648371E+00 -0.38193898984E+01  0.14141846544E+04  0.14142253000E+04  0.10000000000E+02 0.  1.
</event>
<event>
 5    1  0.1582292E-008  0.3815771E+03  0.7957747E-01  0.3444320E+00
         13   -1    0    0    0    0  0.00000000000E+00  0.00000000000E+00  0.14999999963E+04  0.15000000000E+04  0.10566000000E+00 0.  1.
        994   -1    0    0    0    0 -0.00000000000E+00 -0.00000000000E+00  0.11368683772E-12  0.17120000000E+03  0.17120000000E+03 0.  0.
         13    1    1    2    0    0  0.96066799373E+01 -0.12606339174E+02  0.37422223793E+02  0.40640399659E+02  0.10566000000E+00 0.  1.
        994    1    1    2    0    0 -0.67624961667E+01 -0.14497081769E+01  0.34982639302E+01  0.17137535079E+03  0.17120000000E+03 0.  0.
        998    1    1    2    0    0 -0.28441837706E+01  0.14056047351E+02  0.14590795086E+04  0.14591842496E+04  0.10000000000E+02 0.  1.
</event>
<event>
 5    1  0.1582292E-008  0.3832620E+03  0.7957747E-01  0.3437077E+00
         13   -1    0    0    0    0  0.00000000000E+00  0.00000000000E+00  0.14999999963E+04  0.15000000000E+04  0.10566000000E+00 0.  1.
        994   -1    0    0    0    0 -0.00000000000E+00 -0.00000000000E+00  0.11368683772E-12  0.17120000000E+03  0.17120000000E+03 0.  0.
         13    1    1    2    0    0 -0.14490631526E+02  0.20934189654E+02  0.11997971989E+03  0.12265138829E+03  0.10566000000E+00 0.  1.
        994    1    1    2    0    0  0.15012177719E+01 -0.31141249015E+02  0.57169344774E+01  0.17410960452E+03  0.17120000000E+03 0.  0.
        998    1    1    2    0    0  0.12989413754E+02  0.10207059361E+02  0.13743033419E+04  0.13744390072E+04  0.10000000000E+02 0.  1.
</event>
<event>
 5    1  0.1582292E-008  0.3813740E+03  0.7957747E-01  0.3445198E+00
         13   -1    0    0    0    0  0.00000000000E+00  0.00000000000E+00  0.14999999963E+04  0.15000000000E+04  0.10566000000E+00 0.  1.
        994   -1    0    0    0    0 -0.00000000000E+00 -0.00000000000E+00  0.11368683772E-12  0.17120000000E+03  0.17120000000E+03 0.  0.
         13    1    1    2    0    0 -0.25598100032E+02  0.14411130587E+02  0.11297389218E+03  0.11673069385E+03  0.10566000000E+00 0.  1.
        994    1    1    2    0    0  0.33516835372E+02 -0.98088199294E+01  0.75103716851E+01  0.17488692600E+03  0.17120000000E+03 0.  0.
        998    1    1    2    0    0 -0.79187353403E+01 -0.46023106571E+01  0.13795157324E+04  0.13795823801E+04  0.10000000000E+02 0.  1.
</event>
<event>
 5    1  0.1582292E-008  0.3768830E+03  0.7957747E-01  0.3464844E+00
         13   -1    0    0    0    0  0.00000000000E+00  0.00000000000E+00  0.14999999963E+04  0.15000000000E+04  0.10566000000E+00 0. -1.
        994   -1    0    0    0    0 -0.00000000000E+00 -0.00000000000E+00  0.11368683772E-12  0.17120000000E+03  0.17120000000E+03 0.  0.
         13    1    1    2    0    0  0.55072872435E+01 -0.15328207699E+02  0.21566139075E+02  0.27025796615E+02  0.10566000000E+00 0. -1.
        994    1    1    2    0    0 -0.37888925548E+01 -0.48345274122E+01  0.58423824407E+01  0.17140974825E+03  0.17120000000E+03 0.  0.
        998    1    1    2    0    0 -0.17183946887E+01  0.20162735111E+02  0.14725914748E+04  0.14727644551E+04  0.10000000000E+02 0. -1.
</event>
<event>
 5    1  0.1582292E-008  0.3843596E+03  0.7957747E-01  0.3432393E+00
         13   -1    0    0    0    0  0.00000000000E+00  0.00000000000E+00  0.14999999963E+04  0.15000000000E+04  0.10566000000E+00 0. -1.
        994   -1    0    0    0    0 -0.00000000000E+00 -0.00000000000E+00  0.11368683772E-12  0.17120000000E+03  0.17120000000E+03 0.  0.
         13    1    1    2    0    0 -0.92808049571E+01  0.45196567408E+01  0.26519743797E+02  0.28458190610E+02  0.10566000000E+00 0. -1.
        994    1    1    2    0    0  0.58197132237E+01 -0.11370742995E+02  0.24863279166E+01  0.17169386909E+03  0.17120000000E+03 0.  0.
        998    1    1    2    0    0  0.34610917334E+01  0.68510862542E+01  0.14709939246E+04  0.14710479403E+04  0.10000000000E+02 0. -1.
</event>
<event>
 5    1  0.1582292E-008  0.3818740E+03  0.7957747E-01  0.3443039E+00
         13   -1    0    0    0    0  0.00000000000E+00  0.00000000000E+00  0.14999999963E+04  0.15000000000E+04  0.10566000000E+00 0.  1.
        994   -1    0    0    0    0 -0.00000000000E+00 -0.00000000000E+00  0.11368683772E-12  0.17120000000E+03  0.17120000000E+03 0.  0.
         13    1    1    2    0    0 -0.16714339525E+02  0.10773181892E+02  0.64505241774E+02  0.67500873878E+02  0.10566000000E+00 0.  1.
        994    1    1    2    0    0 -0.16237661511E+01 -0.36184284120E+01  0.32424235872E+01  0.17127662699E+03  0.17120000000E+03 0.  0.
        998    1    1    2    0    0  0.18338105676E+02 -0.71547534801E+01  0.14322523309E+04  0.14324224991E+04  0.10000000000E+02 0.  1.
</event>
<event>
 5    1  0.1582292E-008  0.3832953E+03  0.7957747E-01  0.3436934E+00
         13   -1    0    0    0    0  0.00000000000E+00  0.00000000000E+00  0.14999999963E+04  0.15000000000E+04  0.10566000000E+00 0. -1.
        994   -1    0    0    0    0 -0.00000000000E+00 -0.00000000000E+00  0.11368683772E-12  0.17120000000E+03  0.17120000000E+03 0.  0.
         13    1    1    2    0    0 -0.10068879782E+02  0.12603934759E+02  0.49191447574E+02  0.51769210830E+02  0.10566000000E+00 0. -1.
        994    1    1    2    0    0  0.13955767662E+02 -0.16910451603E+02  0.40702172355E+01  0.17264626695E+03  0.17120000000E+03 0.  0.
        998    1    1    2    0    0 -0.38868878802E+01  0.43065168437E+01  0.14467383315E+04  0.14467845222E+04  0.10000000000E+02 0. -1.
</event>
<event>
 5    1  0.1582292E-008  0.3807850E+03  0.7957747E-01  0.3447748E+00
         13   -1    0    0    0    0  0.00000000000E+00  0.00000000000E+00  0.14999999963E+04  0.15000000000E+04  0.10566000000E+00 0.  1.
        994   -1    0    0    0    0 -0.00000000000E+00 -0.00000000000E+00  0.11368683772E-12  0.17120000000E+03  0.17120000000E+03 0.  0.
         13    1    1    2    0    0 -0.43462642460E+02  0.35714488127E+01  0.21649939003E+03  0.22084780639E+03  0.10566000000E+00 0.  1.
        994    1    1    2    0    0  0.44390471524E+02 -0.85527188766E+01  0.10581756633E+02  0.17738398049E+03  0.17120000000E+03 0.  0.
        998    1    1    2    0    0 -0.92782906390E+00  0.49812700639E+01  0.12729188496E+04  0.12729682131E+04  0.10000000000E+02 0.  1.
</event>
<event>
 5    1  0.1582292E-008  0.3802303E+03  0.7957747E-01  0.3450156E+00
         13   -1    0    0    0    0  0.00000000000E+00  0.00000000000E+00  0.14999999963E+04  0.15000000000E+04  0.10566000000E+00 0.  1.
        994   -1    0    0    0    0 -0.00000000000E+00 -0.00000000000E+00  0.11368683772E-12  0.17120000000E+03  0.17120000000E+03 0.  0.
         13    1    1    2    0    0  0.17394435981E+02 -0.16923207131E+02  0.68862767833E+02  0.73014062346E+02  0.10566000000E+00 0.  1.
        994    1    1    2    0    0 -0.17812511900E+02  0.17765766045E+02  0.61339475135E+01  0.17314725910E+03  0.17120000000E+03 0.  0.
        998    1    1    2    0    0  0.41807591954E+00 -0.84255891419E+00  0.14250032809E+04  0.14250386785E+04  0.10000000000E+02 0.  1.
</event>
<event>
 5    1  0.1582292E-008  0.3850701E+03  0.7957747E-01  0.3429375E+00
         13   -1    0    0    0    0  0.00000000000E+00  0.00000000000E+00  0.14999999963E+04  0.15000000000E+04  0.10566000000E+00 0. -1.
        994   -1    0    0    0    0 -0.00000000000E+00 -0.00000000000E+00  0.11368683772E-12  0.17120000000E+03  0.17120000000E+03 0.  0.
         13    1    1    2    0    0  0.14928130113E+02  0.93060100610E+01  0.91077581580E+02  0.92760918076E+02  0.10566000000E+00 0. -1.
        994    1    1    2    0    0 -0.19305876782E+02 -0.66155473009E+01  0.29658639386E+01  0.17243757912E+03  0.17120000000E+03 0.  0.
        998    1    1    2    0    0  0.43777466695E+01 -0.26904627601E+01  0.14059565508E+04  0.14060015028E+04  0.10000000000E+02 0. -1.
</event>
<event>
 5    1  0.1582292E-008  0.3728493E+03  0.7957747E-01  0.3482898E+00
         13   -1    0    0    0    0  0.00000000000E+00  0.00000000000E+00  0.14999999963E+04  0.15000000000E+04  0.10566000000E+00 0. -1.
        994   -1    0    0    0    0 -0.00000000000E+00 -0.00000000000E+00  0.11368683772E-12  0.17120000000E+03  0.17120000000E+03 0.  0.
         13    1    1    2    0    0  0.11226356182E+02  0.16537278170E+01  0.46488466173E+01  0.12263312266E+02  0.10566000000E+00 0. -1.
        994    1    1    2    0    0 -0.10415349017E+02 -0.75758180672E+00  0.81608098405E+01  0.17171223673E+03  0.17120000000E+03 0.  0.
        998    1    1    2    0    0 -0.81100716521E+00 -0.89614601030E+00  0.14871903398E+04  0.14872244510E+04  0.10000000000E+02 0. -1.
</event>
<event>
 5    1  0.1582292E-008  0.3854822E+03  0.7957747E-01  0.3427630E+00
         13   -1    0    0    0    0  0.00000000000E+00  0.00000000000E+00  0.14999999963E+04  0.15000000000E+04  0.10566000000E+00 0. -1.
        994   -1    0    0    0    0 -0.00000000000E+00 -0.00000000000E+00  0.11368683772E-12  0.17120000000E+03  0.17120000000E+03 0.  0.
         13    1    1    2    0    0  0.26573451939E+01  0.98751207548E+01  0.38515976685E+02  0.39850610001E+02  0.10566000000E+00 0. -1.
        994    1    1    2    0    0  0.49917998350E+00 -0.30109162241E+01  0.14215240457E+01  0.17123310290E+03  0.17120000000E+03 0.  0.
        998    1    1    2    0    0 -0.31565251774E+01 -0.68642045307E+01  0.14600624955E+04  0.14601162871E+04  0.10000000000E+02 0. -1.
</event>
<event>
 5    1  0.1582292E-008  0.3824156E+03  0.7957747E-01  0.3440707E+00
         13   -1    0    0    0    0  0.00000000000E+00  0.00000000000E+00  0.14999999963E+04  0.15000000000E+04  0.10566000000E+00 0. -1.
        994   -1    0    0    0    0 -0.00000000000E+00 -0.00000000000E+00  0.11368683772E-12  0.17120000000E+03  0.17120000000E+03 0.  0.
         13    1    1    2    0    0 -0.15845890611E+02 -0.11832552806E+01  0.40977373458E+02  0.43950524933E+02  0.10566000000E+00 0. -1.
        994    1    1    2    0    0  0.17798722167E+02  0.99745212342E+01  0.43005190058E+01  0.17246512705E+03  0.17120000000E+03 0.  0.
        998    1    1    2    0    0 -0.19528315555E+01 -0.87912659536E+01  0.14547221038E+04  0.14547843480E+04  0.10000000000E+02 0. -1.
</event>
<event>
 5    1  0.1582292E-008  0.3831781E+03  0.7957747E-01  0.3437436E+00
         13   -1    0    0    0    0  0.00000000000E+00  0.00000000000E+00  0.14999999963E+04  0.15000000000E+04  0.10566000000E+00 0.  1.
        994   -1    0    0    0    0 -0.00000000000E+00 -0.00000000000E+00  0.11368683772E-12  0.17120000000E+03  0.17120000000E+03 0.  0.
         13    1    1    2    0    0 -0.12738621219E+02 -0.94057802509E+01  0.52247547389E+02  0.54594491892E+02  0.10566000000E+00 0.  1.
        994    1    1    2    0    0 -0.54559357530E+01 -0.31010320424E+00  0.26362088259E+01  0.17130748085E+03  0.17120000000E+03 0.  0.
        998    1    1    2    0    0  0.18194556972E+02  0.97158834552E+01  0.14451162401E+04  0.14452980273E+04  0.10000000000E+02 0.  1.
</event>
<event>
 5    1  0.1582292E-008  0.3838385E+03  0.7957747E-01  0.3434613E+00
         13   -1    0    0    0    0  0.00000000000E+00  0.00000000000E+00  0.14999999963E+04  0.15000000000E+04  0.10566000000E+00 0.  1.
        994   -1    0    0    0    0 -0.00000000000E+00 -0.00000000000E+00  0.11368683772E-12  0.17120000000E+03  0.17120000000E+03 0.  0.
         13    1    1    2    0    0 -0.74089452073E+01 -0.67928467012E+01  0.21970405059E+02  0.24160817409E+02  0.10566000000E+00 0.  1.
        994    1    1    2    0    0  0.72724551951E+01  0.61728710728E+01  0.25083213859E+01  0.17148389026E+03  0.17120000000E+03 0.  0.
        998    1    1    2    0    0  0.13649001219E+00  0.61997562843E+00  0.14755212698E+04  0.14755552923E+04  0.10000000000E+02 0.  0.
</event>
<event>
 5    1  0.1582292E-008  0.3821748E+03  0.7957747E-01  0.3441743E+00
         13   -1    0    0    0    0  0.00000000000E+00  0.00000000000E+00  0.14999999963E+04  0.15000000000E+04  0.10566000000E+00 0.  1.
        994   -1    0    0    0    0 -0.00000000000E+00 -0.00000000000E+00  0.11368683772E-12  0.17120000000E+03  0.17120000000E+03 0.  0.
         13    1    1    2    0    0  0.17510936659E+02  0.12035282365E+02  0.76049176552E+02  0.78961822057E+02  0.10566000000E+00 0.  1.
        994    1    1    2    0    0 -0.11307367796E+02  0.50959649126E+01  0.35500668934E+01  0.17168537620E+03  0.17120000000E+03 0.  0.
        998    1    1    2    0    0 -0.62035688630E+01 -0.17131247278E+02  0.14204007528E+04  0.14205528017E+04  0.10000000000E+02 0.  1.
</event>
<event>
 5    1  0.1582292E-008  0.3791381E+03  0.7957747E-01  0.3454920E+00
         13   -1    0    0    0    0  0.00000000000E+00  0.00000000000E+00  0.14999999963E+04  0.15000000000E+04  0.10566000000E+00 0.  1.
        994   -1    0    0    0    0 -0.00000000000E+00 -0.00000000000E+00  0.11368683772E-12  0.17120000000E+03  0.17120000000E+03 0.  0.
         13    1    1    2    0    0 -0.30182106311E+01 -0.23357448825E+02  0.63568187551E+02  0.67790896465E+02  0.10566000000E+00 0.  1.
        994    1    1    2    0    0  0.12680355828E+02 -0.50359678571E+01  0.51931569922E+01  0.17182130623E+03  0.17120000000E+03 0.  0.
        998    1    1    2    0    0 -0.96621451968E+01  0.28393416682E+02  0.14312386517E+04  0.14315877973E+04  0.10000000000E+02 0.  1.
</event>
<event>
 5    1  0.1582292E-008  0.3832364E+03  0.7957747E-01  0.3437186E+00
         13   -1    0    0    0    0  0.00000000000E+00  0.00000000000E+00  0.14999999963E+04  0.15000000000E+04  0.10566000000E+00 0.  1.
        994   -1    0    0    0    0 -0.00000000000E+00 -0.00000000000E+00  0.11368683772E-12  0.17120000000E+03  0.17120000000E+03 0.  0.
         13    1    1    2    0    0  0.24401701807E+02 -0.69958667110E+01  0.11820908553E+03  0.12090402916E+03  0.10566000000E+00 0.  1.
        994    1    1    2    0    0 -0.24282662148E+02  0.12328340635E+02  0.49651376918E+01  0.17342355162E+03  0.17120000000E+03 0.  0.
        998    1    1    2    0    0 -0.11903965895E+00 -0.53324739240E+01  0.13768257731E+04  0.13768724192E+04  0.10000000000E+02 0.  1.
</event>
<event>
 5    1  0.1582292E-008  0.3822242E+03  0.7957747E-01  0.3441531E+00
         13   -1    0    0    0    0  0.00000000000E+00  0.00000000000E+00  0.14999999963E+04  0.15000000000E+04  0.10566000000E+00 0. -1.
        994   -1    0    0    0    0 -0.00000000000E+00 -0.00000000000E+00  0.11368683772E-12  0.17120000000E+03  0.17120000000E+03 0.  0.
         13    1    1    2    0    0  0.18219624600E+02 -0.18123993404E+02  0.10528671403E+03  0.10837775220E+03  0.10566000000E+00 0. -1.
        994    1    1    2    0    0 -0.33714526983E+02 -0.33191550059E+01  0.68325782713E+01  0.17465340033E+03  0.17120000000E+03 0.  0.
        998    1    1    2    0    0  0.15494902383E+02  0.21443148410E+02  0.13878807040E+04  0.13881688475E+04  0.10000000000E+02 0.  1.
</event>
<event>
 5    1  0.1582292E-008  0.3787299E+03  0.7957747E-01  0.3456707E+00
         13   -1    0    0    0    0  0.00000000000E+00  0.00000000000E+00  0.14999999963E+04  0.15000000000E+04  0.10566000000E+00 0.  1.
        994   -1    0    0    0    0 -0.00000000000E+00 -0.00000000000E+00  0.11368683772E-12  0.17120000000E+03  0.17120000000E+03 0.  0.
         13    1    1    2    0    0  0.70914525900E+01 -0.15553394529E+02  0.28730943916E+02  0.33431647933E+02  0.10566000000E+00 0.  1.
        994    1    1    2    0    0 -0.17738368881E+01  0.10977182757E+02  0.51908329999E+01  0.17163924314E+03  0.17120000000E+03 0.  0.
        998    1    1    2    0    0 -0.53176157019E+01  0.45762117721E+01  0.14660782194E+04  0.14661291089E+04  0.10000000000E+02 0.  1.
</event>
<event>
 5    1  0.1582292E-008  0.3695970E+03  0.7957747E-01  0.3497745E+00
         13   -1    0    0    0    0  0.00000000000E+00  0.00000000000E+00  0.14999999963E+04  0.15000000000E+04  0.10566000000E+00 0.  1.
        994   -1    0    0    0    0 -0.00000000000E+00 -0.00000000000E+00  0.11368683772E-12  0.17120000000E+03  0.17120000000E+03 0.  0.
         13    1    1    2    0    0  0.23972920360E+01 -0.16646664626E+02  0.10626639614E+02  0.19894599413E+02  0.10566000000E+00 0.  1.
        994    1    1    2    0    0  0.20179203516E+02  0.17789484852E+02  0.11989598765E+02  0.17371487128E+03  0.17120000000E+03 0.  0.
        998    1    1    2    0    0 -0.22576495552E+02 -0.11428202259E+01  0.14773837579E+04  0.14775905293E+04  0.10000000000E+02 0.  1.
</event>
<event>
 5    1  0.1582292E-008  0.3720164E+03  0.7957747E-01  0.3486675E+00
         13   -1    0    0    0    0  0.00000000000E+00  0.00000000000E+00  0.14999999963E+04  0.15000000000E+04  0.10566000000E+00 0.  1.
        994   -1    0    0    0    0 -0.00000000000E+00 -0.00000000000E+00  0.11368683772E-12  0.17120000000E+03  0.17120000000E+03 0.  0.
         13    1    1    2    0    0  0.35750645663E+01  0.11007950886E+02  0.44015602499E+01  0.12383091942E+02  0.10566000000E+00 0.  1.
        994    1    1    2    0    0 -0.88027951204E+01 -0.21626937467E+01  0.85010875014E+01  0.17165044403E+03  0.17120000000E+03 0.  0.
        998    1    1    2    0    0  0.52277305541E+01 -0.88452571395E+01  0.14870973485E+04  0.14871664640E+04  0.10000000000E+02 0.  1.
</event>
<event>
 5    1  0.1582292E-008  0.3818479E+03  0.7957747E-01  0.3443152E+00
         13   -1    0    0    0    0  0.00000000000E+00  0.00000000000E+00  0.14999999963E+04  0.15000000000E+04  0.10566000000E+00 0. -1.
        994   -1    0    0    0    0 -0.00000000000E+00 -0.00000000000E+00  0.11368683772E-12  0.17120000000E+03  0.17120000000E+03 0.  0.
         13    1    1    2    0    0  0.10686426988E+02 -0.17388722943E+02  0.59819464173E+02  0.63205592042E+02  0.10566000000E+00 0. -1.
        994    1    1    2    0    0 -0.26480890102E+01  0.31399715287E+02  0.65094892167E+01  0.17419749696E+03  0.17120000000E+03 0.  0.
        998    1    1    2    0    0 -0.80383379782E+01 -0.14010992344E+02  0.14336710429E+04  0.14337969110E+04  0.10000000000E+02 0. -1.
</event>
<event>
 5    1  0.1582292E-008  0.3778679E+03  0.7957747E-01  0.3460495E+00
         13   -1    0    0    0    0  0.00000000000E+00  0.00000000000E+00  0.14999999963E+04  0.15000000000E+04  0.10566000000E+00 0. -1.
        994   -1    0    0    0    0 -0.00000000000E+00 -0.00000000000E+00  0.11368683772E-12  0.17120000000E+03  0.17120000000E+03 0.  0.
         13    1    1    2    0    0 -0.72789319599E+01 -0.10912143937E+02  0.14217560538E+02  0.19344454695E+02  0.10566000000E+00 0. -1.
        994    1    1    2    0    0 -0.76325118849E+01  0.16282729021E+02  0.63027877367E+01  0.17225721359E+03  0.17120000000E+03 0.  0.
        998    1    1    2    0    0  0.14911443845E+02 -0.53705850845E+01  0.14794796480E+04  0.14795983317E+04  0.10000000000E+02 0. -1.
</event>
<event>
 5    1  0.1582292E-008  0.3787107E+03  0.7957747E-01  0.3456792E+00
         13   -1    0    0    0    0  0.00000000000E+00  0.00000000000E+00  0.14999999963E+04  0.15000000000E+04  0.10566000000E+00 0. -1.
        994   -1    0    0    0    0 -0.00000000000E+00 -0.00000000000E+00  0.11368683772E-12  0.17120000000E+03  0.17120000000E+03 0.  0.
         13    1    1    2    0    0 -0.19184995400E+02  0.20403607891E+02  0.80349966958E+02  0.85091125375E+02  0.10566000000E+00 0. -1.
        994    1    1    2    0    0  0.13200073324E+02 -0.11022027960E+02  0.57788463740E+01  0.17215853770E+03  0.17120000000E+03 0.  0.
        998    1    1    2    0    0  0.59849220755E+01 -0.93815799307E+01  0.14138711829E+04  0.14139503369E+04  0.10000000000E+02 0. -1.
</event>
<event>
 5    1  0.1582292E-008  0.3849312E+03  0.7957747E-01  0.3429964E+00
         13   -1    0    0    0    0  0.00000000000E+00  0.00000000000E+00  0.14999999963E+04  0.15000000000E+04  0.10566000000E+00 0.  1.
        994   -1    0    0    0    0 -0.00000000000E+00 -0.00000000000E+00  0.11368683772E-12  0.17120000000E+03  0.17120000000E+03 0.  0.
         13    1    1    2    0    0  0.79340047594E+01 -0.14595756579E+02  0.89583190288E+02  0.91110612378E+02  0.10566000000E+00 0.  1.
        994    1    1    2    0    0  0.66713116440E+01  0.41861728899E+01  0.18683462481E+01  0.17139125170E+03  0.17120000000E+03 0.  0.
        998    1    1    2    0    0 -0.14605316403E+02  0.10409583690E+02  0.14085484597E+04  0.14086981359E+04  0.10000000000E+02 0.  1.
</event>
<event>
 5    1  0.1582292E-008  0.3701822E+03  0.7957747E-01  0.3495054E+00
         13   -1    0    0    0    0  0.00000000000E+00  0.00000000000E+00  0.14999999963E+04  0.15000000000E+04  0.10566000000E+00 0.  1.
        994   -1    0    0    0    0 -0.00000000000E+00 -0.00000000000E+00  0.11368683772E-12  0.17120000000E+03  0.17120000000E+03 0.  0.
         13    1    1    2    0    0  0.38429215793E+02 -0.25643570730E+02  0.11899112866E+03  0.12764520050E+03  0.10566000000E+00 0.  1.
        994    1    1    2    0    0 -0.76425219026E+01  0.17664224035E+02  0.10454915345E+02  0.17259541769E+03  0.17120000000E+03 0.  0.
        998    1    1    2    0    0 -0.30786693891E+02  0.79793466951E+01  0.13705539523E+04  0.13709593818E+04  0.10000000000E+02 0.  1.
</event>
<event>
 5    1  0.1582292E-008  0.3791809E+03  0.7957747E-01  0.3454733E+00
         13   -1    0    0    0    0  0.00000000000E+00  0.00000000000E+00  0.14999999963E+04  0.15000000000E+04  0.10566000000E+00 0. -1.
        994   -1    0    0    0    0 -0.00000000000E+00 -0.00000000000E+00  0.11368683772E-12  0.17120000000E+03  0.17120000000E+03 0.  0.
         13    1    1    2    0    0 -0.35361280455E+02 -0.98367389757E+01  0.15228035362E+03  0.15664130634E+03  0.10566000000E+00 0. -1.
        994    1    1    2    0    0  0.13134452461E+02  0.10263007141E+02  0.54790669003E+01  0.17209678478E+03  0.17120000000E+03 0.  0.
        998    1    1    2    0    0  0.22226827994E+02 -0.42626816521E+00  0.13422405758E+04  0.13424619089E+04  0.10000000000E+02 0. -1.
</event>
<event>
 5    1  0.1582292E-008  0.3838542E+03  0.7957747E-01  0.3434546E+00
         13   -1    0    0    0    0  0.00000000000E+00  0.00000000000E+00  0.14999999963E+04  0.15000000000E+04  0.10566000000E+00 0.  1.
        994   -1    0    0    0    0 -0.00000000000E+00 -0.00000000000E+00  0.11368683772E-12  0.17120000000E+03  0.17120000000E+03 0.  0.
         13    1    1    2    0    0  0.13486871938E+02  0.67806817905E+00  0.42016627952E+02  0.44133475725E+02  0.10566000000E+00 0.  1.
        994    1    1    2    0    0 -0.30915829208E+01  0.14906133552E+01  0.22389572254E+01  0.17124903720E+03  0.17120000000E+03 0.  0.
        998    1    1    2    0    0 -0.10395289017E+02 -0.21686815343E+01  0.14557444111E+04  0.14558174871E+04  0.10000000000E+02 0.  1.
</event>
<event>
 5    1  0.1582292E-008  0.3820249E+03  0.7957747E-01  0.3442389E+00
         13   -1    0    0    0    0  0.00000000000E+00  0.00000000000E+00  0.14999999963E+04  0.15000000000E+04  0.10566000000E+00 0. -1.
        994   -1    0    0    0    0 -0.00000000000E+00 -0.00000000000E+00  0.11368683772E-12  0.17120000000E+03  0.17120000000E+03 0.  0.
         13    1    1    2    0    0 -0.19568794677E+02 -0.58517543987E+01  0.64186104712E+02  0.67357612464E+02  0.10566000000E+00 0. -1.
        994    1    1    2    0    0  0.16277098126E+02  0.11501788050E+02  0.44346566216E+01  0.17241328612E+03  0.17120000000E+03 0.  0.
        998    1    1    2    0    0  0.32916965518E+01 -0.56500336510E+01  0.14313792349E+04  0.14314291014E+04  0.10000000000E+02 0. -1.
</event>
<event>
 5    1  0.1582292E-008  0.3777226E+03  0.7957747E-01  0.3461135E+00
         13   -1    0    0    0    0  0.00000000000E+00  0.00000000000E+00  0.14999999963E+04  0.15000000000E+04  0.10566000000E+00 0. -1.
        994   -1    0    0    0    0 -0.00000000000E+00 -0.00000000000E+00  0.11368683772E-12  0.17120000000E+03  0.17120000000E+03 0.  0.
         13    1    1    2    0    0 -0.54747692797E+02  0.64598503011E+01  0.81223222461E+02  0.98164466909E+02  0.10566000000E+00 0. -1.
        994    1    1    2    0    0  0.87340981974E+02 -0.19069330691E+02  0.44394500627E+02  0.19817264743E+03  0.17120000000E+03 0.  0.
        998    1    1    2    0    0 -0.32593289177E+02  0.12609480390E+02  0.13743822732E+04  0.13748628857E+04  0.10000000000E+02 0. -1.
</event>
<event>
 5    1  0.1582292E-008  0.3768006E+03  0.7957747E-01  0.3465209E+00
         13   -1    0    0    0    0  0.00000000000E+00  0.00000000000E+00  0.14999999963E+04  0.15000000000E+04  0.10566000000E+00 0.  1.
        994   -1    0    0    0    0 -0.00000000000E+00 -0.00000000000E+00  0.11368683772E-12  0.17120000000E+03  0.17120000000E+03 0.  0.
         13    1    1    2    0    0 -0.19472811631E+02  0.14692009403E+02  0.42655248832E+02  0.49137836237E+02  0.10566000000E+00 0.  1.
        994    1    1    2    0    0  0.50649328250E+02 -0.36441284150E+02  0.19026471275E+02  0.18320690012E+03  0.17120000000E+03 0.  0.
        998    1    1    2    0    0 -0.31176516620E+02  0.21749274747E+02  0.14383182762E+04  0.14388552636E+04  0.10000000000E+02 0.  1.
</event>
<event>
 5    1  0.1582292E-008  0.3837944E+03  0.7957747E-01  0.3434801E+00
         13   -1    0    0    0    0  0.00000000000E+00  0.00000000000E+00  0.14999999963E+04  0.15000000000E+04  0.10566000000E+00 0. -1.
        994   -1    0    0    0    0 -0.00000000000E+00 -0.00000000000E+00  0.11368683772E-12  0.17120000000E+03  0.17120000000E+03 0.  0.
         13    1    1    2    0    0  0.11798195983E+02 -0.29908829250E+01  0.32989961224E+02  0.35163781291E+02  0.10566000000E+00 0. -1.
        994    1    1    2    0    0 -0.34777838687E+01  0.75229964097E+01  0.24567048188E+01  0.17141810247E+03  0.17120000000E+03 0.  0.
        998    1    1    2    0    0 -0.83204121148E+01 -0.45321134847E+01  0.14645533302E+04  0.14646181162E+04  0.10000000000E+02 0. -1.
</event>
<event>
 5    1  0.1582292E-008  0.3825505E+03  0.7957747E-01  0.3440128E+00
         13   -1    0    0    0    0  0.00000000000E+00  0.00000000000E+00  0.14999999963E+04  0.15000000000E+04  0.10566000000E+00 0. -1.
        994   -1    0    0    0    0 -0.00000000000E+00 -0.00000000000E+00  0.11368683772E-12  0.17120000000E+03  0.17120000000E+03 0.  0.
         13    1    1    2    0    0  0.19211567456E+02 -0.55497263240E+00  0.62377756252E+02  0.65271647427E+02  0.10566000000E+00 0. -1.
        994    1    1    2    0    0 -0.17456694361E+02 -0.25919310059E+01  0.38843334233E+01  0.17215104510E+03  0.17120000000E+03 0.  0.
        998    1    1    2    0    0 -0.17548730950E+01  0.31469036383E+01  0.14337379066E+04  0.14337773075E+04  0.10000000000E+02 0. -1.
</event>
<event>
 5    1  0.1582292E-008  0.3854261E+03  0.7957747E-01  0.3427867E+00
         13   -1    0    0    0    0  0.00000000000E+00  0.00000000000E+00  0.14999999963E+04  0.15000000000E+04  0.10566000000E+00 0.  1.
        994   -1    0    0    0    0 -0.00000000000E+00 -0.00000000000E+00  0.11368683772E-12  0.17120000000E+03  0.17120000000E+03 0.  0.
         13    1    1    2    0    0 -0.59986772731E+01 -0.10843971237E+02  0.58646264818E+02  0.59941399569E+02  0.10566000000E+00 0.  1.
        994    1    1    2    0    0  0.24556325876E+00 -0.40505003392E+01  0.14727991506E+01  0.17125441890E+03  0.17120000000E+03 0.  0.
        998    1    1    2    0    0  0.57531140143E+01  0.14894471577E+02  0.14398809323E+04  0.14400041815E+04  0.10000000000E+02 0.  1.
</event>
<event>
 5    1  0.1582292E-008  0.3788371E+03  0.7957747E-01  0.3456238E+00
         13   -1    0    0    0    0  0.00000000000E+00  0.00000000000E+00  0.14999999963E+04  0.15000000000E+04  0.10566000000E+00 0.  1.
        994   -1    0    0    0    0 -0.00000000000E+00 -0.00000000000E+00  0.11368683772E-12  0.17120000000E+03  0.17120000000E+03 0.  0.
         13    1    1    2    0    0  0.14592822425E+02 -0.19010610270E+02  0.61505243630E+02  0.66009544213E+02  0.10566000000E+00 0.  1.
        994    1    1    2    0    0 -0.32783840684E+01  0.37698529164E+01  0.48050877436E+01  0.17134027099E+03  0.17120000000E+03 0.  0.
        998    1    1    2    0    0 -0.11314438357E+02  0.15240757354E+02  0.14336896649E+04  0.14338501848E+04  0.10000000000E+02 0.  1.
</event>
<event>
 5    1  0.1582292E-008  0.3775417E+03  0.7957747E-01  0.3461933E+00
         13   -1    0    0    0    0  0.00000000000E+00  0.00000000000E+00  0.14999999963E+04  0.15000000000E+04  0.10566000000E+00 0.  1.
        994   -1    0    0    0    0 -0.00000000000E+00 -0.00000000000E+00  0.11368683772E-12  0.17120000000E+03  0.17120000000E+03 0.  0.
         13    1    1    2    0    0 -0.83663689898E+01 -0.88249811677E+01  0.10999467620E+02  0.16397435002E+02  0.10566000000E+00 0.  1.
        994    1    1    2    0    0  0.38139324033E+01  0.26738344615E+02  0.78417542488E+01  0.17349472114E+03  0.17120000000E+03 0.  0.
        998    1    1    2    0    0  0.45524365866E+01 -0.17913363448E+02  0.14811587744E+04  0.14813078439E+04  0.10000000000E+02 0.  1.
</event>
<event>
 5    1  0.1582292E-008  0.3744240E+03  0.7957747E-01  0.3475803E+00
         13   -1    0    0    0    0  0.00000000000E+00  0.00000000000E+00  0.14999999963E+04  0.15000000000E+04  0.10566000000E+00 0. -1.
        994   -1    0    0    0    0 -0.00000000000E+00 -0.00000000000E+00  0.11368683772E-12  0.17120000000E+03  0.17120000000E+03 0.  0.
         13    1    1    2    0    0  0.14710180630E+01 -0.82541854134E+02  0.20966880355E+03  0.22533605998E+03  0.10566000000E+00 0. -1.
        994    1    1    2    0    0  0.25285268693E+01  0.89111902783E+02  0.42086064790E+02  0.19755505945E+03  0.17120000000E+03 0.  0.
        998    1    1    2    0    0 -0.39995449322E+01 -0.65700486482E+01  0.12482451279E+04  0.12483088806E+04  0.10000000000E+02 0. -1.
</event>
<event>
 5    1  0.1582292E-008  0.3699706E+03  0.7957747E-01  0.3496026E+00
         13   -1    0    0    0    0  0.00000000000E+00  0.00000000000E+00  0.14999999963E+04  0.15000000000E+04  0.10566000000E+00 0.  1.
        994   -1    0    0    0    0 -0.00000000000E+00 -0.00000000000E+00  0.11368683772E-12  0.17120000000E+03  0.17120000000E+03 0.  0.
         13    1    1    2    0    0 -0.14524930402E+02 -0.53461348546E+02  0.14976617323E+03  0.15968408562E+03  0.10566000000E+00 0.  1.
        994    1    1    2    0    0 -0.70821875597E+01  0.55046453961E+02  0.20012590090E+02  0.18108068157E+03  0.17120000000E+03 0.  0.
        998    1    1    2    0    0  0.21607117962E+02 -0.15851054143E+01  0.13302212330E+04  0.13304352328E+04  0.10000000000E+02 0.  1.
</event>
<event>
 5    1  0.1582292E-008  0.3862738E+03  0.7957747E-01  0.3424288E+00
         13   -1    0    0    0    0  0.00000000000E+00  0.00000000000E+00  0.14999999963E+04  0.15000000000E+04  0.10566000000E+00 0.  1.
        994   -1    0    0    0    0 -0.00000000000E+00 -0.00000000000E+00  0.11368683772E-12  0.17120000000E+03  0.17120000000E+03 0.  0.
         13    1    1    2    0    0 -0.94573075873E+01  0.45922045730E+01  0.60587783378E+02  0.61493248965E+02  0.10566000000E+00 0.  1.
        994    1    1    2    0    0 -0.31070685476E+01 -0.95801602060E+00  0.10336791398E+01  0.17123399243E+03  0.17120000000E+03 0.  0.
        998    1    1    2    0    0  0.12564376135E+02 -0.36341885524E+01  0.14383785338E+04  0.14384727586E+04  0.10000000000E+02 0.  0.
</event>
<event>
 5    1  0.1582292E-008  0.3789669E+03  0.7957747E-01  0.3455669E+00
         13   -1    0    0    0    0  0.00000000000E+00  0.00000000000E+00  0.14999999963E+04  0.15000000000E+04  0.10566000000E+00 0.  1.
        994   -1    0    0    0    0 -0.00000000000E+00 -0.00000000000E+00  0.11368683772E-12  0.17120000000E+03  0.17120000000E+03 0.  0.
         13    1    1    2    0    0 -0.43947033287E+02 -0.24633405928E+02  0.70523068317E+02  0.86669837609E+02  0.10566000000E+00 0.  1.
        994    1    1    2    0    0  0.39897235990E+02  0.42384730326E+02  0.28095374000E+02  0.18299465797E+03  0.17120000000E+03 0.  0.
        998    1    1    2    0    0  0.40497972971E+01 -0.17751324399E+02  0.14013815540E+04  0.14015355044E+04  0.10000000000E+02 0.  1.
</event>
<event>
 5    1  0.1582292E-008  0.3826856E+03  0.7957747E-01  0.3439548E+00
         13   -1    0    0    0    0  0.00000000000E+00  0.00000000000E+00  0.14999999963E+04  0.15000000000E+04  0.10566000000E+00 0. -1.
        994   -1    0    0    0    0 -0.00000000000E+00 -0.00000000000E+00  0.11368683772E-12  0.17120000000E+03  0.17120000000E+03 0.  0.
         13    1    1    2    0    0 -0.17788489098E+02 -0.28714106850E+00  0.57324349915E+02  0.60021704837E+02  0.10566000000E+00 0. -1.
        994    1    1    2    0    0  0.65947639727E+01 -0.53151624380E+00  0.29286488747E+01  0.17135282433E+03  0.17120000000E+03 0.  0.
        998    1    1    2    0    0  0.11193725125E+02  0.81865731229E+00  0.14397469975E+04  0.14398254708E+04  0.10000000000E+02 0. -1.
</event>
<event>
 5    1  0.1582292E-008  0.3794187E+03  0.7957747E-01  0.3453694E+00
         13   -1    0    0    0    0  0.00000000000E+00  0.00000000000E+00  0.14999999963E+04  0.15000000000E+04  0.10566000000E+00 0.  1.
        994   -1    0    0    0    0 -0.00000000000E+00 -0.00000000000E+00  0.11368683772E-12  0.17120000000E+03  0.17120000000E+03 0.  0.
         13    1    1    2    0    0  0.35590452266E+01 -0.12198832162E+02  0.16446235533E+02  0.20783843155E+02  0.10566000000E+00 0.  1.
        994    1    1    2    0    0  0.72410449546E+00  0.70117345653E+01  0.45933231067E+01  0.17140661413E+03  0.17120000000E+03 0.  0.
        998    1    1    2    0    0 -0.42831497221E+01  0.51870975969E+01  0.14789604376E+04  0.14790095427E+04  0.10000000000E+02 0.  1.
</event>
<event>
 5    1  0.1582292E-008  0.3847702E+03  0.7957747E-01  0.3430647E+00
         13   -1    0    0    0    0  0.00000000000E+00  0.00000000000E+00  0.14999999963E+04  0.15000000000E+04  0.10566000000E+00 0.  1.
        994   -1    0    0    0    0 -0.00000000000E+00 -0.00000000000E+00  0.11368683772E-12  0.17120000000E+03  0.17120000000E+03 0.  0.
         13    1    1    2    0    0 -0.10525533152E+02  0.23344685614E+01  0.33065456820E+02  0.34778904387E+02  0.10566000000E+00 0.  1.
        994    1    1    2    0    0  0.69148121366E+01 -0.14874262944E+01  0.19089449272E+01  0.17135667811E+03  0.17120000000E+03 0.  0.
        998    1    1    2    0    0  0.36107210156E+01 -0.84704226697E+00  0.14650255945E+04  0.14650644175E+04  0.10000000000E+02 0.  1.
</event>
<event>
 5    1  0.1582292E-008  0.3792757E+03  0.7957747E-01  0.3454318E+00
         13   -1    0    0    0    0  0.00000000000E+00  0.00000000000E+00  0.14999999963E+04  0.15000000000E+04  0.10566000000E+00 0.  1.
        994   -1    0    0    0    0 -0.00000000000E+00 -0.00000000000E+00  0.11368683772E-12  0.17120000000E+03  0.17120000000E+03 0.  0.
         13    1    1    2    0    0  0.39060006963E+02 -0.12180244720E+02  0.17626144525E+03  0.18094792276E+03  0.10566000000E+00 0.  1.
        994    1    1    2    0    0 -0.35843325898E+02 -0.10135115881E+02  0.91625707203E+01  0.17544474141E+03  0.17120000000E+03 0.  0.
        998    1    1    2    0    0 -0.32166810646E+01  0.22315360602E+02  0.13145759803E+04  0.13148073358E+04  0.10000000000E+02 0.  1.
</event>
<event>
 5    1  0.1582292E-008  0.3800602E+03  0.7957747E-01  0.3450896E+00
         13   -1    0    0    0    0  0.00000000000E+00  0.00000000000E+00  0.14999999963E+04  0.15000000000E+04  0.10566000000E+00 0.  1.
        994   -1    0    0    0    0 -0.00000000000E+00 -0.00000000000E+00  0.11368683772E-12  0.17120000000E+03  0.17120000000E+03 0.  0.
         13    1    1    2    0    0 -0.11600849222E+02  0.20917987841E+02  0.68423154720E+02  0.72483661496E+02  0.10566000000E+00 0.  1.
        994    1    1    2    0    0  0.18652755485E+02 -0.64008451143E+01  0.54036253142E+01  0.17241674881E+03  0.17120000000E+03 0.  0.
        998    1    1    2    0    0 -0.70519062630E+01 -0.14517142726E+02  0.14261732162E+04  0.14262995897E+04  0.10000000000E+02 0.  1.
</event>
<event>
 5    1  0.1582292E-008  0.3773726E+03  0.7957747E-01  0.3462679E+00
         13   -1    0    0    0    0  0.00000000000E+00  0.00000000000E+00  0.14999999963E+04  0.15000000000E+04  0.10566000000E+00 0. -1.
        994   -1    0    0    0    0 -0.00000000000E+00 -0.00000000000E+00  0.11368683772E-12  0.17120000000E+03  0.17120000000E+03 0.  0.
         13    1    1    2    0    0 -0.26350458498E+01 -0.44868048708E+02  0.20081917030E+03  0.20578735526E+03  0.10566000000E+00 0. -1.
        994    1    1    2    0    0 -0.60598704741E+01  0.12390003072E+02  0.61071021538E+01  0.17186323313E+03  0.17120000000E+03 0.  0.
        998    1    1    2    0    0  0.86949163239E+01  0.32478045636E+02  0.12930737238E+04  0.12935494116E+04  0.10000000000E+02 0. -1.
</event>
<event>
 5    1  0.1582292E-008  0.3779665E+03  0.7957747E-01  0.3460061E+00
         13   -1    0    0    0    0  0.00000000000E+00  0.00000000000E+00  0.14999999963E+04  0.15000000000E+04  0.10566000000E+00 0. -1.
        994   -1    0    0    0    0 -0.00000000000E+00 -0.00000000000E+00  0.11368683772E-12  0.17120000000E+03  0.17120000000E+03 0.  0.
         13    1    1    2    0    0 -0.43927445804E+02 -0.10604663613E+01  0.16816173890E+03  0.17380772905E+03  0.10566000000E+00 0. -1.
        994    1    1    2    0    0  0.41505570874E+02  0.10100523549E+02  0.11329122561E+02  0.17681210934E+03  0.17120000000E+03 0.  0.
        998    1    1    2    0    0  0.24218749301E+01 -0.90400571881E+01  0.13205091348E+04  0.13205801616E+04  0.10000000000E+02 0. -1.
</event>
<event>
 5    1  0.1582292E-008  0.3736535E+03  0.7957747E-01  0.3479267E+00
         13   -1    0    0    0    0  0.00000000000E+00  0.00000000000E+00  0.14999999963E+04  0.15000000000E+04  0.10566000000E+00 0.  1.
        994   -1    0    0    0    0 -0.00000000000E+00 -0.00000000000E+00  0.11368683772E-12  0.17120000000E+03  0.17120000000E+03 0.  0.
         13    1    1    2    0    0 -0.40572296223E+01 -0.67638926067E+02  0.24515557462E+03  0.25434769974E+03  0.10566000000E+00 0.  1.
        994    1    1    2    0    0  0.25848157133E+02  0.75040052158E+02  0.29196636737E+02  0.19094768983E+03  0.17120000000E+03 0.  0.
        998    1    1    2    0    0 -0.21790927511E+02 -0.74011260911E+01  0.12256477849E+04  0.12259046104E+04  0.10000000000E+02 0.  1.
</event>
<event>
 5    1  0.1582292E-008  0.3816691E+03  0.7957747E-01  0.3443923E+00
         13   -1    0    0    0    0  0.00000000000E+00  0.00000000000E+00  0.14999999963E+04  0.15000000000E+04  0.10566000000E+00 0.  1.
        994   -1    0    0    0    0 -0.00000000000E+00 -0.00000000000E+00  0.11368683772E-12  0.17120000000E+03  0.17120000000E+03 0.  0.
         13    1    1    2    0    0  0.15183276697E+00 -0.11416814153E+02  0.18744389795E+02  0.21948348717E+02  0.10566000000E+00 0.  1.
        994    1    1    2    0    0 -0.13986815549E+01  0.26429270557E+01  0.33227023482E+01  0.17125834790E+03  0.17120000000E+03 0.  0.
        998    1    1    2    0    0  0.12468487879E+01  0.87738870974E+01  0.14779329041E+04  0.14779933034E+04  0.10000000000E+02 0.  1.
</event>
<event>
 5    1  0.1582292E-008  0.3791626E+03  0.7957747E-01  0.3454813E+00
         13   -1    0    0    0    0  0.00000000000E+00  0.00000000000E+00  0.14999999963E+04  0.15000000000E+04  0.10566000000E+00 0. -1.
        994   -1    0    0    0    0 -0.00000000000E+00 -0.00000000000E+00  0.11368683772E-12  0.17120000000E+03  0.17120000000E+03 0.  0.
         13    1    1    2    0    0 -0.47876391791E+01 -0.26887338882E+02  0.85813549216E+02  0.90054577198E+02  0.10566000000E+00 0. -1.
        994    1    1    2    0    0  0.48403418212E+01  0.15235174896E+01  0.46427784033E+01  0.17133810261E+03  0.17120000000E+03 0.  0.
        998    1    1    2    0    0 -0.52702642069E-01  0.25363821393E+02  0.14095436687E+04  0.14098073202E+04  0.10000000000E+02 0. -1.
</event>
<event>
 5    1  0.1582292E-008  0.3804410E+03  0.7957747E-01  0.3449240E+00
         13   -1    0    0    0    0  0.00000000000E+00  0.00000000000E+00  0.14999999963E+04  0.15000000000E+04  0.10566000000E+00 0.  1.
        994   -1    0    0    0    0 -0.00000000000E+00 -0.00000000000E+00  0.11368683772E-12  0.17120000000E+03  0.17120000000E+03 0.  0.
         13    1    1    2    0    0  0.37373023968E+01 -0.15219540033E+02  0.29531955329E+02  0.33432759049E+02  0.10566000000E+00 0.  1.
        994    1    1    2    0    0 -0.61512505565E+01  0.13172496320E+02  0.46164941357E+01  0.17187816778E+03  0.17120000000E+03 0.  0.
        998    1    1    2    0    0  0.24139481597E+01  0.20470437133E+01  0.14658515468E+04  0.14658890732E+04  0.10000000000E+02 0.  1.
</event>
<event>
 5    1  0.1582292E-008  0.3830493E+03  0.7957747E-01  0.3437988E+00
         13   -1    0    0    0    0  0.00000000000E+00  0.00000000000E+00  0.14999999963E+04  0.15000000000E+04  0.10566000000E+00 0.  1.
        994   -1    0    0    0    0 -0.00000000000E+00 -0.00000000000E+00  0.11368683772E-12  0.17120000000E+03  0.17120000000E+03 0.  0.
         13    1    1    2    0    0  0.62480816498E+01 -0.16996993311E+02  0.64524786439E+02  0.67017874743E+02  0.10566000000E+00 0.  1.
        994    1    1    2    0    0 -0.18522296888E+01  0.44356534593E+01  0.26781913807E+01  0.17128840733E+03  0.17120000000E+03 0.  0.
        998    1    1    2    0    0 -0.43958519610E+01  0.12561339852E+02  0.14327970185E+04  0.14328937179E+04  0.10000000000E+02 0.  1.
</event>
<event>
 5    1  0.1582292E-008  0.3815476E+03  0.7957747E-01  0.3444448E+00
         13   -1    0    0    0    0  0.00000000000E+00  0.00000000000E+00  0.14999999963E+04  0.15000000000E+04  0.10566000000E+00 0. -1.
        994   -1    0    0    0    0 -0.00000000000E+00 -0.00000000000E+00  0.11368683772E-12  0.17120000000E+03  0.17120000000E+03 0.  0.
         13    1    1    2    0    0  0.85005637028E+01 -0.92681556252E+01  0.21778176226E+02  0.25148725927E+02  0.10566000000E+00 0. -1.
        994    1    1    2    0    0 -0.10084911202E+02  0.12468185635E+02  0.42097302626E+01  0.17200093871E+03  0.17120000000E+03 0.  0.
        998    1    1    2    0    0  0.15843474992E+01 -0.32000300095E+01  0.14740120898E+04  0.14740503354E+04  0.10000000000E+02 0. -1.
</event>
<event>
 5    1  0.1582292E-008  0.3717901E+03  0.7957747E-01  0.3487704E+00
         13   -1    0    0    0    0  0.00000000000E+00  0.00000000000E+00  0.14999999963E+04  0.15000000000E+04  0.10566000000E+00 0.  1.
        994   -1    0    0    0    0 -0.00000000000E+00 -0.00000000000E+00  0.11368683772E-12  0.17120000000E+03  0.17120000000E+03 0.  0.
         13    1    1    2    0    0 -0.59092166245E+01 -0.15167924602E+03  0.89039733472E+03  0.90324356480E+03  0.10566000000E+00 0.  1.
        994    1    1    2    0    0  0.33882705129E+02  0.12522840394E+03  0.68594481821E+02  0.22548799036E+03  0.17120000000E+03 0.  0.
        998    1    1    2    0    0 -0.27973488505E+02  0.26450842083E+02  0.54100817974E+03  0.54246844484E+03  0.10000000000E+02 0.  1.
</event>
<event>
 5    1  0.1582292E-008  0.3819743E+03  0.7957747E-01  0.3442607E+00
         13   -1    0    0    0    0  0.00000000000E+00  0.00000000000E+00  0.14999999963E+04  0.15000000000E+04  0.10566000000E+00 0.  1.
        994   -1    0    0    0    0 -0.00000000000E+00 -0.00000000000E+00  0.11368683772E-12  0.17120000000E+03  0.17120000000E+03 0.  0.
         13    1    1    2    0    0  0.13674758706E+02  0.21249930109E+02  0.10960823812E+03  0.11248349027E+03  0.10566000000E+00 0.  1.
        994    1    1    2    0    0 -0.28961757721E+01 -0.13118514167E+00  0.31677441633E+01  0.17125384564E+03  0.17120000000E+03 0.  0.
        998    1    1    2    0    0 -0.10778582934E+02 -0.21118744967E+02  0.13872240140E+04  0.13874626641E+04  0.10000000000E+02 0.  1.
</event>
<event>
 5    1  0.1582292E-008  0.3846322E+03  0.7957747E-01  0.3431234E+00
         13   -1    0    0    0    0  0.00000000000E+00  0.00000000000E+00  0.14999999963E+04  0.15000000000E+04  0.10566000000E+00 0. -1.
        994   -1    0    0    0    0 -0.00000000000E+00 -0.00000000000E+00  0.11368683772E-12  0.17120000000E+03  0.17120000000E+03 0.  0.
         13    1    1    2    0    0 -0.24728053095E+01  0.13605271222E+02  0.51320195777E+02  0.53150652205E+02  0.10566000000E+00 0. -1.
        994    1    1    2    0    0  0.88667365365E+01 -0.12180149687E+02  0.25605542954E+01  0.17188068973E+03  0.17120000000E+03 0.  0.
        998    1    1    2    0    0 -0.63939312270E+01 -0.14251215354E+01  0.14461192462E+04  0.14461686581E+04  0.10000000000E+02 0. -1.
</event>
<event>
 5    1  0.1582292E-008  0.3843442E+03  0.7957747E-01  0.3432458E+00
         13   -1    0    0    0    0  0.00000000000E+00  0.00000000000E+00  0.14999999963E+04  0.15000000000E+04  0.10566000000E+00 0.  1.
        994   -1    0    0    0    0 -0.00000000000E+00 -0.00000000000E+00  0.11368683772E-12  0.17120000000E+03  0.17120000000E+03 0.  0.
         13    1    1    2    0    0 -0.25610688787E+01  0.16132230869E+02  0.68991863049E+02  0.70899198004E+02  0.10566000000E+00 0.  1.
        994    1    1    2    0    0 -0.31461872420E+01 -0.86336813955E+01  0.22343917646E+01  0.17146099106E+03  0.17120000000E+03 0.  0.
        998    1    1    2    0    0  0.57072561207E+01 -0.74985494732E+01  0.14287737415E+04  0.14288398109E+04  0.10000000000E+02 0.  1.
</event>
<event>
 5    1  0.1582292E-008  0.3857435E+03  0.7957747E-01  0.3426525E+00
         13   -1    0    0    0    0  0.00000000000E+00  0.00000000000E+00  0.14999999963E+04  0.15000000000E+04  0.10566000000E+00 0.  1.
        994   -1    0    0    0    0 -0.00000000000E+00 -0.00000000000E+00  0.11368683772E-12  0.17120000000E+03  0.17120000000E+03 0.  0.
         13    1    1    2    0    0  0.14627237842E+02 -0.32022522142E+01  0.86640756075E+02  0.87925208464E+02  0.10566000000E+00 0.  1.
        994    1    1    2    0    0 -0.11985393043E+02  0.99895028322E+01  0.20605283215E+01  0.17192185897E+03  0.17120000000E+03 0.  0.
        998    1    1    2    0    0 -0.26418447992E+01 -0.67872506181E+01  0.14112987119E+04  0.14113529326E+04  0.10000000000E+02 0.  1.
</event>
<event>
 5    1  0.1582292E-008  0.3815342E+03  0.7957747E-01  0.3444506E+00
         13   -1    0    0    0    0  0.00000000000E+00  0.00000000000E+00  0.14999999963E+04  0.15000000000E+04  0.10566000000E+00 0.  1.
        994   -1    0    0    0    0 -0.00000000000E+00 -0.00000000000E+00  0.11368683772E-12  0.17120000000E+03  0.17120000000E+03 0.  0.
         13    1    1    2    0    0  0.13841742424E+01  0.24919319748E+02  0.96416115629E+02  0.99594010624E+02  0.10566000000E+00 0.  1.
        994    1    1    2    0    0 -0.16420772397E+01 -0.60296844497E+01  0.34906222735E+01  0.17134957822E+03  0.17120000000E+03 0.  0.
        998    1    1    2    0    0  0.25790299736E+00 -0.18889635298E+02  0.14000932584E+04  0.14002564112E+04  0.10000000000E+02 0.  1.
</event>
<event>
 5    1  0.1582292E-008  0.3705922E+03  0.7957747E-01  0.3493174E+00
         13   -1    0    0    0    0  0.00000000000E+00  0.00000000000E+00  0.14999999963E+04  0.15000000000E+04  0.10566000000E+00 0.  1.
        994   -1    0    0    0    0 -0.00000000000E+00 -0.00000000000E+00  0.11368683772E-12  0.17120000000E+03  0.17120000000E+03 0.  0.
         13    1    1    2    0    0  0.30758419206E+02  0.15019653507E+02  0.55595081057E+02  0.65287782512E+02  0.10566000000E+00 0.  1.
        994    1    1    2    0    0 -0.47332940565E+02 -0.35367908407E+02  0.21105055859E+02  0.18233529442E+03  0.17120000000E+03 0.  0.
        998    1    1    2    0    0  0.16574521359E+02  0.20348254900E+02  0.14232998594E+04  0.14235769231E+04  0.10000000000E+02 0.  1.
</event>
<event>
 5    1  0.1582292E-008  0.4286223E+03  0.7957747E-01  0.3263410E+00
         13   -1    0    0    0    0  0.00000000000E+00  0.00000000000E+00  0.14999999963E+04  0.15000000000E+04  0.10566000000E+00 0.  1.
        994   -1    0    0    0    0 -0.00000000000E+00 -0.00000000000E+00  0.11368683772E-12  0.17120000000E+03  0.17120000000E+03 0.  0.
         13    1    1    2    0    0  0.21913775591E+00 -0.11385985810E+03  0.13580937567E+03  0.17722390638E+03  0.10566000000E+00 0.  1.
        994    1    1    2    0    0  0.31836771994E+02  0.68070336220E+02  0.71707465196E+02  0.20024622665E+03  0.17120000000E+03 0.  0.
        998    1    1    2    0    0 -0.32055909750E+02  0.45789521879E+02  0.12924831554E+04  0.12937298670E+04  0.10000000000E+02 0.  1.
</event>
<event>
 5    1  0.1582292E-008  0.2762398E+03  0.7957747E-01  0.4081751E+00
         13   -1    0    0    0    0  0.00000000000E+00  0.00000000000E+00  0.14999999963E+04  0.15000000000E+04  0.10566000000E+00 0.  1.
        994   -1    0    0    0    0 -0.00000000000E+00 -0.00000000000E+00  0.11368683772E-12  0.17120000000E+03  0.17120000000E+03 0.  0.
         13    1    1    2    0    0  0.62866778909E+02 -0.11734739918E+03  0.73200971998E+03  0.74401672380E+03  0.10566000000E+00 0.  1.
        994    1    1    2    0    0  0.70931813856E+00 -0.12177007763E+02  0.28870141851E+02  0.17404513133E+03  0.17120000000E+03 0.  0.
        998    1    1    2    0    0 -0.63576097048E+02  0.12952440694E+03  0.73912013445E+03  0.75313814487E+03  0.10000000000E+02 0.  1.
</event>
<event>
 5    1  0.1582292E-008  0.3820847E+03  0.7957747E-01  0.3442131E+00
         13   -1    0    0    0    0  0.00000000000E+00  0.00000000000E+00  0.14999999963E+04  0.15000000000E+04  0.10566000000E+00 0. -1.
        994   -1    0    0    0    0 -0.00000000000E+00 -0.00000000000E+00  0.11368683772E-12  0.17120000000E+03  0.17120000000E+03 0.  0.
         13    1    1    2    0    0  0.45386299605E+01  0.36298525897E+02  0.16109644259E+03  0.16519763050E+03  0.10566000000E+00 0. -1.
        994    1    1    2    0    0  0.55145690733E+01 -0.63770416943E+02  0.16808329834E+02  0.18354573409E+03  0.17120000000E+03 0.  0.
        998    1    1    2    0    0 -0.10053199034E+02  0.27471891045E+02  0.13220952239E+04  0.13224566354E+04  0.10000000000E+02 0. -1.
</event>
<event>
 5    1  0.1582292E-008  0.3767458E+03  0.7957747E-01  0.3465452E+00
         13   -1    0    0    0    0  0.00000000000E+00  0.00000000000E+00  0.14999999963E+04  0.15000000000E+04  0.10566000000E+00 0.  1.
        994   -1    0    0    0    0 -0.00000000000E+00 -0.00000000000E+00  0.11368683772E-12  0.17120000000E+03  0.17120000000E+03 0.  0.
         13    1    1    2    0    0 -0.43425821305E+02  0.34680711922E+02  0.27360337963E+03  0.27919056977E+03  0.10566000000E+00 0.  1.
        994    1    1    2    0    0  0.27270571029E+02 -0.10205442267E+02  0.86553730284E+01  0.17387406528E+03  0.17120000000E+03 0.  0.
        998    1    1    2    0    0  0.16155250276E+02 -0.24475269655E+02  0.12177412436E+04  0.12181353649E+04  0.10000000000E+02 0.  1.
</event>
<event>
 5    1  0.1582292E-008  0.3861291E+03  0.7957747E-01  0.3424898E+00
         13   -1    0    0    0    0  0.00000000000E+00  0.00000000000E+00  0.14999999963E+04  0.15000000000E+04  0.10566000000E+00 0.  1.
        994   -1    0    0    0    0 -0.00000000000E+00 -0.00000000000E+00  0.11368683772E-12  0.17120000000E+03  0.17120000000E+03 0.  0.
         13    1    1    2    0    0  0.88115286579E+01 -0.85788159354E+01  0.65202063258E+02  0.66351784733E+02  0.10566000000E+00 0.  1.
        994    1    1    2    0    0 -0.31816180102E+00  0.30052379851E+02  0.40358161667E+01  0.17386481695E+03  0.17120000000E+03 0.  0.
        998    1    1    2    0    0 -0.84933668569E+01 -0.21473563916E+02  0.14307621169E+04  0.14309833983E+04  0.10000000000E+02 0.  1.
</event>
<event>
 5    1  0.1582292E-008  0.3780379E+03  0.7957747E-01  0.3459746E+00
         13   -1    0    0    0    0  0.00000000000E+00  0.00000000000E+00  0.14999999963E+04  0.15000000000E+04  0.10566000000E+00 0.  1.
        994   -1    0    0    0    0 -0.00000000000E+00 -0.00000000000E+00  0.11368683772E-12  0.17120000000E+03  0.17120000000E+03 0.  0.
         13    1    1    2    0    0 -0.34612355592E+02 -0.31255638003E+00  0.11001076264E+03  0.11532775864E+03  0.10566000000E+00 0.  1.
        994    1    1    2    0    0  0.30033933071E+02 -0.31224598594E+01  0.82008939353E+01  0.17403586283E+03  0.17120000000E+03 0.  0.
        998    1    1    2    0    0  0.45784225210E+01  0.34350162394E+01  0.13817883397E+04  0.13818363785E+04  0.10000000000E+02 0.  1.
</event>
<event>
 5    1  0.1582292E-008  0.3753193E+03  0.7957747E-01  0.3471796E+00
         13   -1    0    0    0    0  0.00000000000E+00  0.00000000000E+00  0.14999999963E+04  0.15000000000E+04  0.10566000000E+00 0. -1.
        994   -1    0    0    0    0 -0.00000000000E+00 -0.00000000000E+00  0.11368683772E-12  0.17120000000E+03  0.17120000000E+03 0.  0.
         13    1    1    2    0    0  0.21204873319E+02 -0.21708334465E+02  0.68985532360E+02  0.75365199375E+02  0.10566000000E+00 0. -1.
        994    1    1    2    0    0 -0.16385300775E+01  0.21269921432E+02  0.80616416050E+01  0.17271225899E+03  0.17120000000E+03 0.  0.
        998    1    1    2    0    0 -0.19566343241E+02  0.43841303296E+00  0.14229528223E+04  0.14231225416E+04  0.10000000000E+02 0. -1.
</event>
<event>
 5    1  0.1582292E-008  0.3850422E+03  0.7957747E-01  0.3429493E+00
         13   -1    0    0    0    0  0.00000000000E+00  0.00000000000E+00  0.14999999963E+04  0.15000000000E+04  0.10566000000E+00 0.  1.
        994   -1    0    0    0    0 -0.00000000000E+00 -0.00000000000E+00  0.11368683772E-12  0.17120000000E+03  0.17120000000E+03 0.  0.
         13    1    1    2    0    0 -0.12382789210E+02 -0.43986705068E+01  0.53752851717E+02  0.55335901570E+02  0.10566000000E+00 0.  1.
        994    1    1    2    0    0  0.76129784976E+01  0.36785918689E+01  0.18443009358E+01  0.17141858396E+03  0.17120000000E+03 0.  0.
        998    1    1    2    0    0  0.47698107121E+01  0.72007863786E+00  0.14444028436E+04  0.14444455145E+04  0.10000000000E+02 0.  1.
</event>
<event>
 5    1  0.1582292E-008  0.3814012E+03  0.7957747E-01  0.3445080E+00
         13   -1    0    0    0    0  0.00000000000E+00  0.00000000000E+00  0.14999999963E+04  0.15000000000E+04  0.10566000000E+00 0.  1.
        994   -1    0    0    0    0 -0.00000000000E+00 -0.00000000000E+00  0.11368683772E-12  0.17120000000E+03  0.17120000000E+03 0.  0.
         13    1    1    2    0    0 -0.54443076421E+02 -0.18510586571E+01  0.30947818462E+03  0.31423595101E+03  0.10566000000E+00 0.  1.
        994    1    1    2    0    0  0.65202439143E+02 -0.26129254531E+01  0.17728695289E+02  0.18407045414E+03  0.17120000000E+03 0.  0.
        998    1    1    2    0    0 -0.10759362722E+02  0.44639841102E+01  0.11727931164E+04  0.11728935949E+04  0.10000000000E+02 0.  1.
</event>
<event>
 5    1  0.1582292E-008  0.3831222E+03  0.7957747E-01  0.3437675E+00
         13   -1    0    0    0    0  0.00000000000E+00  0.00000000000E+00  0.14999999963E+04  0.15000000000E+04  0.10566000000E+00 0. -1.
        994   -1    0    0    0    0 -0.00000000000E+00 -0.00000000000E+00  0.11368683772E-12  0.17120000000E+03  0.17120000000E+03 0.  0.
         13    1    1    2    0    0  0.25434365841E+02 -0.21927289169E+02  0.18166345802E+03  0.18474126805E+03  0.10566000000E+00 0. -1.
        994    1    1    2    0    0 -0.29386008944E+02  0.30049962190E+02  0.84324864356E+01  0.17648536647E+03  0.17120000000E+03 0.  0.
        998    1    1    2    0    0  0.39516431035E+01 -0.81226730205E+01  0.13099040518E+04  0.13099733655E+04  0.10000000000E+02 0. -1.
</event>
<event>
 5    1  0.1582292E-008  0.3836088E+03  0.7957747E-01  0.3435594E+00
         13   -1    0    0    0    0  0.00000000000E+00  0.00000000000E+00  0.14999999963E+04  0.15000000000E+04  0.10566000000E+00 0. -1.
        994   -1    0    0    0    0 -0.00000000000E+00 -0.00000000000E+00  0.11368683772E-12  0.17120000000E+03  0.17120000000E+03 0.  0.
         13    1    1    2    0    0 -0.22702785949E+02 -0.11478048306E+02  0.12146110704E+03  0.12409663078E+03  0.10566000000E+00 0. -1.
        994    1    1    2    0    0  0.19014568952E+02  0.40095052522E+02  0.88550287456E+01  0.17707913091E+03  0.17120000000E+03 0.  0.
        998    1    1    2    0    0  0.36882169978E+01 -0.28617004216E+02  0.13696838605E+04  0.13700242383E+04  0.10000000000E+02 0. -1.
</event>
<event>
 5    1  0.1582292E-008  0.3718853E+03  0.7957747E-01  0.3487271E+00
         13   -1    0    0    0    0  0.00000000000E+00  0.00000000000E+00  0.14999999963E+04  0.15000000000E+04  0.10566000000E+00 0. -1.
        994   -1    0    0    0    0 -0.00000000000E+00 -0.00000000000E+00  0.11368683772E-12  0.17120000000E+03  0.17120000000E+03 0.  0.
         13    1    1    2    0    0 -0.13076999280E+02 -0.40753282069E+02  0.14968567209E+03  0.15568445492E+03  0.10566000000E+00 0. -1.
        994    1    1    2    0    0  0.44266639555E+02 -0.55070000272E+02  0.25636934868E+02  0.18697308025E+03  0.17120000000E+03 0.  0.
        998    1    1    2    0    0 -0.31189640275E+02  0.95823282341E+02  0.13246773893E+04  0.13285424648E+04  0.10000000000E+02 0. -1.
</event>
<event>
 5    1  0.1582292E-008  0.3841658E+03  0.7957747E-01  0.3433218E+00
         13   -1    0    0    0    0  0.00000000000E+00  0.00000000000E+00  0.14999999963E+04  0.15000000000E+04  0.10566000000E+00 0. -1.
        994   -1    0    0    0    0 -0.00000000000E+00 -0.00000000000E+00  0.11368683772E-12  0.17120000000E+03  0.17120000000E+03 0.  0.
         13    1    1    2    0    0  0.24491534482E+01  0.10878612801E+02  0.30141440960E+02  0.32138142390E+02  0.10566000000E+00 0. -1.
        994    1    1    2    0    0  0.75345782594E+00 -0.56435451481E+01  0.21517590683E+01  0.17130816492E+03  0.17120000000E+03 0.  0.
        998    1    1    2    0    0 -0.32026112742E+01 -0.52350676524E+01  0.14677067963E+04  0.14677536927E+04  0.10000000000E+02 0. -1.
</event>
<event>
 5    1  0.1582292E-008  0.3798902E+03  0.7957747E-01  0.3451637E+00
         13   -1    0    0    0    0  0.00000000000E+00  0.00000000000E+00  0.14999999963E+04  0.15000000000E+04  0.10566000000E+00 0. -1.
        994   -1    0    0    0    0 -0.00000000000E+00 -0.00000000000E+00  0.11368683772E-12  0.17120000000E+03  0.17120000000E+03 0.  0.
         13    1    1    2    0    0  0.12377684397E+02  0.16473791141E+02  0.49783470552E+02  0.53879476332E+02  0.10566000000E+00 0. -1.
        994    1    1    2    0    0  0.22412524793E+01 -0.14036085181E+02  0.48644791769E+01  0.17185790077E+03  0.17120000000E+03 0.  0.
        998    1    1    2    0    0 -0.14618936876E+02 -0.24377059600E+01  0.14453520465E+04  0.14454626229E+04  0.10000000000E+02 0. -1.
</event>
<event>
 5    1  0.1582292E-008  0.3842086E+03  0.7957747E-01  0.3433036E+00
         13   -1    0    0    0    0  0.00000000000E+00  0.00000000000E+00  0.14999999963E+04  0.15000000000E+04  0.10566000000E+00 0. -1.
        994   -1    0    0    0    0 -0.00000000000E+00 -0.00000000000E+00  0.11368683772E-12  0.17120000000E+03  0.17120000000E+03 0.  0.
         13    1    1    2    0    0 -0.21295795571E+01 -0.12130902386E+02  0.37688804969E+02  0.39650360475E+02  0.10566000000E+00 0. -1.
        994    1    1    2    0    0  0.63498360639E+01  0.32633789744E+01  0.21916318342E+01  0.17136281192E+03  0.17120000000E+03 0.  0.
        998    1    1    2    0    0 -0.42202565069E+01  0.88675234113E+01  0.14601195595E+04  0.14601868276E+04  0.10000000000E+02 0. -1.
</event>
<event>
 5    1  0.1582292E-008  0.3839029E+03  0.7957747E-01  0.3434338E+00
         13   -1    0    0    0    0  0.00000000000E+00  0.00000000000E+00  0.14999999963E+04  0.15000000000E+04  0.10566000000E+00 0. -1.
        994   -1    0    0    0    0 -0.00000000000E+00 -0.00000000000E+00  0.11368683772E-12  0.17120000000E+03  0.17120000000E+03 0.  0.
         13    1    1    2    0    0  0.19855742615E+02 -0.12213131932E+02  0.11602927581E+03  0.11834785641E+03  0.10566000000E+00 0. -1.
        994    1    1    2    0    0 -0.15319872886E+02  0.20936591219E+02  0.44002523515E+01  0.17321039685E+03  0.17120000000E+03 0.  0.
        998    1    1    2    0    0 -0.45358697297E+01 -0.87234592870E+01  0.13795704681E+04  0.13796417467E+04  0.10000000000E+02 0. -1.
</event>
<event>
 5    1  0.1582292E-008  0.3859826E+03  0.7957747E-01  0.3425516E+00
         13   -1    0    0    0    0  0.00000000000E+00  0.00000000000E+00  0.14999999963E+04  0.15000000000E+04  0.10566000000E+00 0.  1.
        994   -1    0    0    0    0 -0.00000000000E+00 -0.00000000000E+00  0.11368683772E-12  0.17120000000E+03  0.17120000000E+03 0.  0.
         13    1    1    2    0    0  0.10202555115E+02  0.57250767014E+01  0.59126924964E+02  0.60273319586E+02  0.10566000000E+00 0.  1.
        994    1    1    2    0    0 -0.63605196829E+01 -0.11650929218E+02  0.17209172992E+01  0.17172245607E+03  0.17120000000E+03 0.  0.
        998    1    1    2    0    0 -0.38420354325E+01  0.59258525169E+01  0.14391521540E+04  0.14392042243E+04  0.10000000000E+02 0.  1.
</event>
<event>
 5    1  0.1582292E-008  0.3742121E+03  0.7957747E-01  0.3476754E+00
         13   -1    0    0    0    0  0.00000000000E+00  0.00000000000E+00  0.14999999963E+04  0.15000000000E+04  0.10566000000E+00 0. -1.
        994   -1    0    0    0    0 -0.00000000000E+00 -0.00000000000E+00  0.11368683772E-12  0.17120000000E+03  0.17120000000E+03 0.  0.
         13    1    1    2    0    0 -0.27256859510E+02  0.33271549177E+02  0.12987831155E+03  0.13681490909E+03  0.10566000000E+00 0. -1.
        994    1    1    2    0    0  0.27595032181E+02 -0.72556510959E+01  0.98636338107E+01  0.17384148396E+03  0.17120000000E+03 0.  0.
        998    1    1    2    0    0 -0.33817267094E+00 -0.26015898081E+02  0.13602580509E+04  0.13605436069E+04  0.10000000000E+02 0. -1.
</event>
<event>
 5    1  0.1582292E-008  0.3856076E+03  0.7957747E-01  0.3427099E+00
         13   -1    0    0    0    0  0.00000000000E+00  0.00000000000E+00  0.14999999963E+04  0.15000000000E+04  0.10566000000E+00 0. -1.
        994   -1    0    0    0    0 -0.00000000000E+00 -0.00000000000E+00  0.11368683772E-12  0.17120000000E+03  0.17120000000E+03 0.  0.
         13    1    1    2    0    0  0.25086471549E+01 -0.13577673024E+02  0.80366549246E+02  0.81544097990E+02  0.10566000000E+00 0. -1.
        994    1    1    2    0    0  0.55856185420E+01 -0.34488809243E+01  0.14702233929E+01  0.17133212037E+03  0.17120000000E+03 0.  0.
        998    1    1    2    0    0 -0.80942656969E+01  0.17026553949E+02  0.14181632236E+04  0.14183237816E+04  0.10000000000E+02 0. -1.
</event>
<event>
 5    1  0.1582292E-008  0.3773153E+03  0.7957747E-01  0.3462932E+00
         13   -1    0    0    0    0  0.00000000000E+00  0.00000000000E+00  0.14999999963E+04  0.15000000000E+04  0.10566000000E+00 0.  1.
        994   -1    0    0    0    0 -0.00000000000E+00 -0.00000000000E+00  0.11368683772E-12  0.17120000000E+03  0.17120000000E+03 0.  0.
         13    1    1    2    0    0 -0.12429076082E+02 -0.36850139803E+02  0.19415192779E+03  0.19800857801E+03  0.10566000000E+00 0.  1.
        994    1    1    2    0    0  0.29249355020E+02 -0.39102212813E+02  0.13579759881E+02  0.17854511389E+03  0.17120000000E+03 0.  0.
        998    1    1    2    0    0 -0.16820278938E+02  0.75952352616E+02  0.12922683086E+04  0.12946463081E+04  0.10000000000E+02 0.  1.
</event>
<event>
 5    1  0.1582292E-008  0.3855226E+03  0.7957747E-01  0.3427459E+00
         13   -1    0    0    0    0  0.00000000000E+00  0.00000000000E+00  0.14999999963E+04  0.15000000000E+04  0.10566000000E+00 0.  1.
        994   -1    0    0    0    0 -0.00000000000E+00 -0.00000000000E+00  0.11368683772E-12  0.17120000000E+03  0.17120000000E+03 0.  0.
         13    1    1    2    0    0 -0.26089400426E+01 -0.14330546620E+02  0.74885871464E+02  0.76289422881E+02  0.10566000000E+00 0.  1.
        994    1    1    2    0    0  0.34805496518E+01  0.14366531190E+02  0.20886349000E+01  0.17184968385E+03  0.17120000000E+03 0.  0.
        998    1    1    2    0    0 -0.87160960923E+00 -0.35984569591E-01  0.14230254899E+04  0.14230608933E+04  0.10000000000E+02 0.  1.
</event>
<event>
 5    1  0.1582292E-008  0.3846643E+03  0.7957747E-01  0.3431097E+00
         13   -1    0    0    0    0  0.00000000000E+00  0.00000000000E+00  0.14999999963E+04  0.15000000000E+04  0.10566000000E+00 0.  1.
        994   -1    0    0    0    0 -0.00000000000E+00 -0.00000000000E+00  0.11368683772E-12  0.17120000000E+03  0.17120000000E+03 0.  0.
         13    1    1    2    0    0 -0.39974844344E+01  0.99876687703E+01  0.32306045479E+02  0.34050332565E+02  0.10566000000E+00 0.  1.
        994    1    1    2    0    0 -0.10251792461E+01 -0.48838360273E+01  0.18789044207E+01  0.17128302055E+03  0.17120000000E+03 0.  0.
        998    1    1    2    0    0  0.50226636805E+01 -0.51038327430E+01  0.14658150464E+04  0.14658666469E+04  0.10000000000E+02 0.  1.
</event>
<event>
 5    1  0.1582292E-008  0.3856895E+03  0.7957747E-01  0.3426753E+00
         13   -1    0    0    0    0  0.00000000000E+00  0.00000000000E+00  0.14999999963E+04  0.15000000000E+04  0.10566000000E+00 0. -1.
        994   -1    0    0    0    0 -0.00000000000E+00 -0.00000000000E+00  0.11368683772E-12  0.17120000000E+03  0.17120000000E+03 0.  0.
         13    1    1    2    0    0 -0.12240325777E+02 -0.84341457971E+00  0.57866471847E+02  0.59152993595E+02  0.10566000000E+00 0. -1.
        994    1    1    2    0    0  0.10174195095E+02  0.10125015334E+02  0.19645274206E+01  0.17181190165E+03  0.17120000000E+03 0.  0.
        998    1    1    2    0    0  0.20661306819E+01 -0.92816007547E+01  0.14401689970E+04  0.14402351048E+04  0.10000000000E+02 0. -1.
</event>
<event>
 5    1  0.1582292E-008  0.3834910E+03  0.7957747E-01  0.3436097E+00
         13   -1    0    0    0    0  0.00000000000E+00  0.00000000000E+00  0.14999999963E+04  0.15000000000E+04  0.10566000000E+00 0. -1.
        994   -1    0    0    0    0 -0.00000000000E+00 -0.00000000000E+00  0.11368683772E-12  0.17120000000E+03  0.17120000000E+03 0.  0.
         13    1    1    2    0    0  0.35390985653E+00  0.12071900381E+02  0.31046350680E+02  0.33312806630E+02  0.10566000000E+00 0. -1.
        994    1    1    2    0    0 -0.81728864391E+01  0.19611906129E+01  0.26146740887E+01  0.17142613238E+03  0.17120000000E+03 0.  0.
        998    1    1    2    0    0  0.78189765826E+01 -0.14033090994E+02  0.14663389715E+04  0.14664610610E+04  0.10000000000E+02 0. -1.
</event>
<event>
 5    1  0.1582292E-008  0.3712418E+03  0.7957747E-01  0.3490203E+00
         13   -1    0    0    0    0  0.00000000000E+00  0.00000000000E+00  0.14999999963E+04  0.15000000000E+04  0.10566000000E+00 0. -1.
        994   -1    0    0    0    0 -0.00000000000E+00 -0.00000000000E+00  0.11368683772E-12  0.17120000000E+03  0.17120000000E+03 0.  0.
         13    1    1    2    0    0 -0.33725218918E+02  0.14174015645E+02  0.53663174830E+02  0.64946444148E+02  0.10566000000E+00 0. -1.
        994    1    1    2    0    0  0.18001530120E+02 -0.15223004067E+02  0.13550893835E+02  0.17334607484E+03  0.17120000000E+03 0.  0.
        998    1    1    2    0    0  0.15723688798E+02  0.10489884220E+01  0.14327859276E+04  0.14329074810E+04  0.10000000000E+02 0. -1.
</event>
<event>
 5    1  0.1582292E-008  0.3849563E+03  0.7957747E-01  0.3429858E+00
         13   -1    0    0    0    0  0.00000000000E+00  0.00000000000E+00  0.14999999963E+04  0.15000000000E+04  0.10566000000E+00 0.  1.
        994   -1    0    0    0    0 -0.00000000000E+00 -0.00000000000E+00  0.11368683772E-12  0.17120000000E+03  0.17120000000E+03 0.  0.
         13    1    1    2    0    0 -0.71143194602E+01  0.10354343919E+02  0.46541772690E+02  0.48207610898E+02  0.10566000000E+00 0.  1.
        994    1    1    2    0    0  0.30392884996E+01 -0.13643913372E+02  0.22947780732E+01  0.17178503908E+03  0.17120000000E+03 0.  0.
        998    1    1    2    0    0  0.40750309606E+01  0.32895694529E+01  0.14511634455E+04  0.14512073500E+04  0.10000000000E+02 0.  1.
</event>
<event>
 5    1  0.1582292E-008  0.3744341E+03  0.7957747E-01  0.3475758E+00
         13   -1    0    0    0    0  0.00000000000E+00  0.00000000000E+00  0.14999999963E+04  0.15000000000E+04  0.10566000000E+00 0. -1.
        994   -1    0    0    0    0 -0.00000000000E+00 -0.00000000000E+00  0.11368683772E-12  0.17120000000E+03  0.17120000000E+03 0.  0.
         13    1    1    2    0    0 -0.20975429790E+02 -0.63539557309E+01  0.32117522537E+02  0.38883001765E+02  0.10566000000E+00 0. -1.
        994    1    1    2    0    0  0.51636391800E+01  0.13955389969E+02  0.77240532883E+01  0.17201894395E+03  0.17120000000E+03 0.  0.
        998    1    1    2    0    0  0.15811790610E+02 -0.76014342384E+01  0.14601584205E+04  0.14602980543E+04  0.10000000000E+02 0. -1.
</event>
<event>
 5    1  0.1582292E-008  0.3709490E+03  0.7957747E-01  0.3491541E+00
         13   -1    0    0    0    0  0.00000000000E+00  0.00000000000E+00  0.14999999963E+04  0.15000000000E+04  0.10566000000E+00 0.  1.
        994   -1    0    0    0    0 -0.00000000000E+00 -0.00000000000E+00  0.11368683772E-12  0.17120000000E+03  0.17120000000E+03 0.  0.
         13    1    1    2    0    0  0.55068026581E+02 -0.42028589847E+02  0.41159842469E+03  0.41738730729E+03  0.10566000000E+00 0.  1.
        994    1    1    2    0    0  0.27188636060E+01 -0.88933660565E+01  0.90720101512E+01  0.17169224079E+03  0.17120000000E+03 0.  0.
        998    1    1    2    0    0 -0.57786890187E+02  0.50921955903E+02  0.10793295614E+04  0.10821204519E+04  0.10000000000E+02 0.  1.
</event>
<event>
 5    1  0.1582292E-008  0.3857314E+03  0.7957747E-01  0.3426576E+00
         13   -1    0    0    0    0  0.00000000000E+00  0.00000000000E+00  0.14999999963E+04  0.15000000000E+04  0.10566000000E+00 0.  1.
        994   -1    0    0    0    0 -0.00000000000E+00 -0.00000000000E+00  0.11368683772E-12  0.17120000000E+03  0.17120000000E+03 0.  0.
         13    1    1    2    0    0  0.18083006756E+01 -0.10511394804E+02  0.47343266686E+02  0.48529943711E+02  0.10566000000E+00 0.  1.
        994    1    1    2    0    0  0.43902615892E+01  0.43854434634E+00  0.13313332407E+01  0.17126201904E+03  0.17120000000E+03 0.  0.
        998    1    1    2    0    0 -0.61985622648E+01  0.10072850457E+02  0.14513253964E+04  0.14514080372E+04  0.10000000000E+02 0.  1.
</event>
<event>
 5    1  0.1582292E-008  0.3837270E+03  0.7957747E-01  0.3435089E+00
         13   -1    0    0    0    0  0.00000000000E+00  0.00000000000E+00  0.14999999963E+04  0.15000000000E+04  0.10566000000E+00 0.  1.
        994   -1    0    0    0    0 -0.00000000000E+00 -0.00000000000E+00  0.11368683772E-12  0.17120000000E+03  0.17120000000E+03 0.  0.
         13    1    1    2    0    0 -0.23005648472E+02 -0.20250681691E+01  0.11619629247E+03  0.11846919562E+03  0.10566000000E+00 0.  1.
        994    1    1    2    0    0  0.15736551659E+02 -0.17298816236E+01  0.30915720304E+01  0.17195821983E+03  0.17120000000E+03 0.  0.
        998    1    1    2    0    0  0.72690968133E+01  0.37549497927E+01  0.13807121318E+04  0.13807725846E+04  0.10000000000E+02 0.  1.
</event>
<event>
 5    1  0.1582292E-008  0.3813330E+03  0.7957747E-01  0.3445375E+00
         13   -1    0    0    0    0  0.00000000000E+00  0.00000000000E+00  0.14999999963E+04  0.15000000000E+04  0.10566000000E+00 0. -1.
        994   -1    0    0    0    0 -0.00000000000E+00 -0.00000000000E+00  0.11368683772E-12  0.17120000000E+03  0.17120000000E+03 0.  0.
         13    1    1    2    0    0 -0.22291650319E+02  0.11927532656E+01  0.69697456860E+02  0.73185292177E+02  0.10566000000E+00 0. -1.
        994    1    1    2    0    0  0.17873874431E+02  0.62104408738E+01  0.46543605777E+01  0.17230539178E+03  0.17120000000E+03 0.  0.
        998    1    1    2    0    0  0.44177758877E+01 -0.74031941394E+01  0.14256481788E+04  0.14257093160E+04  0.10000000000E+02 0. -1.
</event>
<event>
 5    1  0.1582292E-008  0.3857700E+03  0.7957747E-01  0.3426413E+00
         13   -1    0    0    0    0  0.00000000000E+00  0.00000000000E+00  0.14999999963E+04  0.15000000000E+04  0.10566000000E+00 0.  1.
        994   -1    0    0    0    0 -0.00000000000E+00 -0.00000000000E+00  0.11368683772E-12  0.17120000000E+03  0.17120000000E+03 0.  0.
         13    1    1    2    0    0  0.11939491723E+02  0.43381733561E+01  0.64837063799E+02  0.66069866179E+02  0.10566000000E+00 0.  1.
        994    1    1    2    0    0 -0.82990930464E+01 -0.40122390742E+01  0.15271238089E+01  0.17145479029E+03  0.17120000000E+03 0.  0.
        998    1    1    2    0    0 -0.36403986767E+01 -0.32593428182E+00  0.14336358087E+04  0.14336753435E+04  0.10000000000E+02 0.  1.
</event>
<event>
 5    1  0.1582292E-008  0.3848809E+03  0.7957747E-01  0.3430177E+00
         13   -1    0    0    0    0  0.00000000000E+00  0.00000000000E+00  0.14999999963E+04  0.15000000000E+04  0.10566000000E+00 0. -1.
        994   -1    0    0    0    0 -0.00000000000E+00 -0.00000000000E+00  0.11368683772E-12  0.17120000000E+03  0.17120000000E+03 0.  0.
         13    1    1    2    0    0 -0.10696962417E+01  0.11594787556E+02  0.39698461415E+02  0.41371032755E+02  0.10566000000E+00 0. -1.
        994    1    1    2    0    0 -0.32505241252E+01 -0.94776219304E+01  0.20196301835E+01  0.17150483996E+03  0.17120000000E+03 0.  0.
        998    1    1    2    0    0  0.43202203669E+01 -0.21171656256E+01  0.14582819047E+04  0.14583241273E+04  0.10000000000E+02 0. -1.
</event>
<event>
 5    1  0.1582292E-008  0.3833928E+03  0.7957747E-01  0.3436517E+00
         13   -1    0    0    0    0  0.00000000000E+00  0.00000000000E+00  0.14999999963E+04  0.15000000000E+04  0.10566000000E+00 0. -1.
        994   -1    0    0    0    0 -0.00000000000E+00 -0.00000000000E+00  0.11368683772E-12  0.17120000000E+03  0.17120000000E+03 0.  0.
         13    1    1    2    0    0 -0.53775431804E+01 -0.21267813206E+02  0.96983502942E+02  0.99433640465E+02  0.10566000000E+00 0. -1.
        994    1    1    2    0    0 -0.10132251590E+02  0.19244054572E+02  0.39954332075E+01  0.17262212965E+03  0.17120000000E+03 0.  0.
        998    1    1    2    0    0  0.15509794770E+02  0.20237586346E+01  0.13990210601E+04  0.13991442299E+04  0.10000000000E+02 0. -1.
</event>
<event>
 5    1  0.1582292E-008  0.3851657E+03  0.7957747E-01  0.3428970E+00
         13   -1    0    0    0    0  0.00000000000E+00  0.00000000000E+00  0.14999999963E+04  0.15000000000E+04  0.10566000000E+00 0. -1.
        994   -1    0    0    0    0 -0.00000000000E+00 -0.00000000000E+00  0.11368683772E-12  0.17120000000E+03  0.17120000000E+03 0.  0.
         13    1    1    2    0    0 -0.12466628251E+02  0.11072872136E+02  0.94685855939E+02  0.96142850989E+02  0.10566000000E+00 0. -1.
        994    1    1    2    0    0  0.22258741261E+01 -0.39781689483E+01  0.16161993600E+01  0.17126830543E+03  0.17120000000E+03 0.  0.
        998    1    1    2    0    0  0.10240754125E+02 -0.70947031875E+01  0.14036979410E+04  0.14037888436E+04  0.10000000000E+02 0. -1.
</event>
<event>
 5    1  0.1582292E-008  0.2854928E+03  0.7957747E-01  0.4005359E+00
         13   -1    0    0    0    0  0.00000000000E+00  0.00000000000E+00  0.14999999963E+04  0.15000000000E+04  0.10566000000E+00 0. -1.
        994   -1    0    0    0    0 -0.00000000000E+00 -0.00000000000E+00  0.11368683772E-12  0.17120000000E+03  0.17120000000E+03 0.  0.
         13    1    1    2    0    0 -0.75415616872E+00 -0.12203250657E+03  0.71724109451E+03  0.72754883013E+03  0.10566000000E+00 0. -1.
        994    1    1    2    0    0 -0.15860253870E+02  0.33412432404E+02  0.20879231757E+02  0.17638968397E+03  0.17120000000E+03 0.  0.
        998    1    1    2    0    0  0.16614410038E+02  0.88620074161E+02  0.76187967001E+03  0.76726148590E+03  0.10000000000E+02 0. -1.
</event>
<event>
 5    1  0.1582292E-008  0.3849670E+03  0.7957747E-01  0.3429812E+00
         13   -1    0    0    0    0  0.00000000000E+00  0.00000000000E+00  0.14999999963E+04  0.15000000000E+04  0.10566000000E+00 0. -1.
        994   -1    0    0    0    0 -0.00000000000E+00 -0.00000000000E+00  0.11368683772E-12  0.17120000000E+03  0.17120000000E+03 0.  0.
         13    1    1    2    0    0 -0.89478785703E+01 -0.13693619744E+02  0.82400060910E+02  0.84008100529E+02  0.10566000000E+00 0. -1.
        994    1    1    2    0    0  0.75946800856E+01  0.54461965327E+01  0.19338224792E+01  0.17146579802E+03  0.17120000000E+03 0.  0.
        998    1    1    2    0    0  0.13531984846E+01  0.82474232110E+01  0.14156661129E+04  0.14157261014E+04  0.10000000000E+02 0. -1.
</event>
<event>
 5    1  0.1582292E-008  0.3710227E+03  0.7957747E-01  0.3491204E+00
         13   -1    0    0    0    0  0.00000000000E+00  0.00000000000E+00  0.14999999963E+04  0.15000000000E+04  0.10566000000E+00 0. -1.
        994   -1    0    0    0    0 -0.00000000000E+00 -0.00000000000E+00  0.11368683772E-12  0.17120000000E+03  0.17120000000E+03 0.  0.
         13    1    1    2    0    0 -0.96800144697E+01 -0.23773913727E+02  0.23722780353E+02  0.34952583964E+02  0.10566000000E+00 0. -1.
        994    1    1    2    0    0  0.13843261298E+02  0.17977561398E+02  0.13288959792E+02  0.17320757792E+03  0.17120000000E+03 0.  0.
        998    1    1    2    0    0 -0.41632468282E+01  0.57963523295E+01  0.14629882561E+04  0.14630398381E+04  0.10000000000E+02 0. -1.
</event>
<event>
 5    1  0.1582292E-008  0.3823816E+03  0.7957747E-01  0.3440854E+00
         13   -1    0    0    0    0  0.00000000000E+00  0.00000000000E+00  0.14999999963E+04  0.15000000000E+04  0.10566000000E+00 0.  1.
        994   -1    0    0    0    0 -0.00000000000E+00 -0.00000000000E+00  0.11368683772E-12  0.17120000000E+03  0.17120000000E+03 0.  0.
         13    1    1    2    0    0 -0.74095618649E+01 -0.12400512158E+02  0.35434714361E+02  0.38266231258E+02  0.10566000000E+00 0.  1.
        994    1    1    2    0    0 -0.31874867252E+01  0.50402879077E+01  0.30537261952E+01  0.17133105328E+03  0.17120000000E+03 0.  0.
        998    1    1    2    0    0  0.10597048590E+02  0.73602242506E+01  0.14615115557E+04  0.14616027155E+04  0.10000000000E+02 0.  1.
</event>
<event>
 5    1  0.1582292E-008  0.3836469E+03  0.7957747E-01  0.3435431E+00
         13   -1    0    0    0    0  0.00000000000E+00  0.00000000000E+00  0.14999999963E+04  0.15000000000E+04  0.10566000000E+00 0.  1.
        994   -1    0    0    0    0 -0.00000000000E+00 -0.00000000000E+00  0.11368683772E-12  0.17120000000E+03  0.17120000000E+03 0.  0.
         13    1    1    2    0    0 -0.10059426435E+02  0.41837829603E+01  0.23154229826E+02  0.25589560820E+02  0.10566000000E+00 0.  1.
        994    1    1    2    0    0  0.23389733725E+02 -0.22004330107E+02  0.57172836963E+01  0.17427965320E+03  0.17120000000E+03 0.  0.
        998    1    1    2    0    0 -0.13330307291E+02  0.17820547146E+02  0.14711284828E+04  0.14713307860E+04  0.10000000000E+02 0.  1.
</event>
<event>
 5    1  0.1582292E-008  0.3824159E+03  0.7957747E-01  0.3440706E+00
         13   -1    0    0    0    0  0.00000000000E+00  0.00000000000E+00  0.14999999963E+04  0.15000000000E+04  0.10566000000E+00 0. -1.
        994   -1    0    0    0    0 -0.00000000000E+00 -0.00000000000E+00  0.11368683772E-12  0.17120000000E+03  0.17120000000E+03 0.  0.
         13    1    1    2    0    0  0.40499440927E+01 -0.94717782161E+01  0.17244821235E+02  0.20087599488E+02  0.10566000000E+00 0. -1.
        994    1    1    2    0    0 -0.91602877993E+01 -0.10160026950E+01  0.32003319815E+01  0.17147776899E+03  0.17120000000E+03 0.  0.
        998    1    1    2    0    0  0.51103437066E+01  0.10487780911E+02  0.14795548431E+04  0.14796346315E+04  0.10000000000E+02 0. -1.
</event>
<event>
 5    1  0.1582292E-008  0.3839575E+03  0.7957747E-01  0.3434106E+00
         13   -1    0    0    0    0  0.00000000000E+00  0.00000000000E+00  0.14999999963E+04  0.15000000000E+04  0.10566000000E+00 0.  1.
        994   -1    0    0    0    0 -0.00000000000E+00 -0.00000000000E+00  0.11368683772E-12  0.17120000000E+03  0.17120000000E+03 0.  0.
         13    1    1    2    0    0 -0.68502287794E+01 -0.14931928374E+02  0.67593427199E+02  0.69561272874E+02  0.10566000000E+00 0.  1.
        994    1    1    2    0    0 -0.94598470968E+00 -0.31915053702E+01  0.21851689692E+01  0.17124630086E+03  0.17120000000E+03 0.  0.
        998    1    1    2    0    0  0.77962134891E+01  0.18123433744E+02  0.14302214001E+04  0.14303924263E+04  0.10000000000E+02 0.  1.
</event>
<event>
 5    1  0.1582292E-008  0.3854941E+03  0.7957747E-01  0.3427580E+00
         13   -1    0    0    0    0  0.00000000000E+00  0.00000000000E+00  0.14999999963E+04  0.15000000000E+04  0.10566000000E+00 0.  1.
        994   -1    0    0    0    0 -0.00000000000E+00 -0.00000000000E+00  0.11368683772E-12  0.17120000000E+03  0.17120000000E+03 0.  0.
         13    1    1    2    0    0  0.14512201544E+02  0.13890801689E+01  0.78549382244E+02  0.79890864010E+02  0.10566000000E+00 0.  1.
        994    1    1    2    0    0 -0.65989576415E+01 -0.60355648399E+01  0.16476764914E+01  0.17144132851E+03  0.17120000000E+03 0.  0.
        998    1    1    2    0    0 -0.79132439022E+01  0.46464846710E+01  0.14198029375E+04  0.14198678075E+04  0.10000000000E+02 0.  1.
</event>
<event>
 5    1  0.1582292E-008  0.3848437E+03  0.7957747E-01  0.3430335E+00
         13   -1    0    0    0    0  0.00000000000E+00  0.00000000000E+00  0.14999999963E+04  0.15000000000E+04  0.10566000000E+00 0.  1.
        994   -1    0    0    0    0 -0.00000000000E+00 -0.00000000000E+00  0.11368683772E-12  0.17120000000E+03  0.17120000000E+03 0.  0.
         13    1    1    2    0    0 -0.12020393432E+02 -0.13135548343E+02  0.10145963601E+03  0.10301020043E+03  0.10566000000E+00 0.  1.
        994    1    1    2    0    0 -0.69860173628E+01  0.66673045861E+01  0.20146505115E+01  0.17148398236E+03  0.17120000000E+03 0.  0.
        998    1    1    2    0    0  0.19006410794E+02  0.64682437573E+01  0.13965257098E+04  0.13967058172E+04  0.10000000000E+02 0.  1.
</event>
<event>
 5    1  0.1582292E-008  0.3814629E+03  0.7957747E-01  0.3444813E+00
         13   -1    0    0    0    0  0.00000000000E+00  0.00000000000E+00  0.14999999963E+04  0.15000000000E+04  0.10566000000E+00 0. -1.
        994   -1    0    0    0    0 -0.00000000000E+00 -0.00000000000E+00  0.11368683772E-12  0.17120000000E+03  0.17120000000E+03 0.  0.
         13    1    1    2    0    0  0.26812320494E+02 -0.17678894474E+02  0.14177576724E+03  0.14536788910E+03  0.10566000000E+00 0. -1.
        994    1    1    2    0    0 -0.25815926912E+02  0.12152579638E+02  0.61097416001E+01  0.17366898461E+03  0.17120000000E+03 0.  0.
        998    1    1    2    0    0 -0.99639358202E+00  0.55263148359E+01  0.13521144874E+04  0.13521631263E+04  0.10000000000E+02 0. -1.
</event>
<event>
 5    1  0.1582292E-008  0.3733725E+03  0.7957747E-01  0.3480534E+00
         13   -1    0    0    0    0  0.00000000000E+00  0.00000000000E+00  0.14999999963E+04  0.15000000000E+04  0.10566000000E+00 0.  1.
        994   -1    0    0    0    0 -0.00000000000E+00 -0.00000000000E+00  0.11368683772E-12  0.17120000000E+03  0.17120000000E+03 0.  0.
         13    1    1    2    0    0  0.83784782785E+02 -0.49513657762E+02  0.57194198048E+03  0.58016302220E+03  0.10566000000E+00 0.  1.
        994    1    1    2    0    0 -0.70641178837E+02  0.11601989686E+02  0.25241017853E+02  0.18727341321E+03  0.17120000000E+03 0.  0.
        998    1    1    2    0    0 -0.13143603948E+02  0.37911668077E+02  0.90281699795E+03  0.90376356459E+03  0.10000000000E+02 0.  1.
</event>
<event>
 5    1  0.1582292E-008  0.3774847E+03  0.7957747E-01  0.3462184E+00
         13   -1    0    0    0    0  0.00000000000E+00  0.00000000000E+00  0.14999999963E+04  0.15000000000E+04  0.10566000000E+00 0. -1.
        994   -1    0    0    0    0 -0.00000000000E+00 -0.00000000000E+00  0.11368683772E-12  0.17120000000E+03  0.17120000000E+03 0.  0.
         13    1    1    2    0    0 -0.13521498930E+02  0.79155320992E+01  0.20963300268E+02  0.26171696619E+02  0.10566000000E+00 0. -1.
        994    1    1    2    0    0  0.35583630933E+01  0.56132077721E+01  0.55571649375E+01  0.17141905417E+03  0.17120000000E+03 0.  0.
        998    1    1    2    0    0  0.99631358371E+01 -0.13528739871E+02  0.14734795311E+04  0.14736092492E+04  0.10000000000E+02 0. -1.
</event>
<event>
 5    1  0.1582292E-008  0.3712338E+03  0.7957747E-01  0.3490240E+00
         13   -1    0    0    0    0  0.00000000000E+00  0.00000000000E+00  0.14999999963E+04  0.15000000000E+04  0.10566000000E+00 0. -1.
        994   -1    0    0    0    0 -0.00000000000E+00 -0.00000000000E+00  0.11368683772E-12  0.17120000000E+03  0.17120000000E+03 0.  0.
         13    1    1    2    0    0  0.37188235367E+02 -0.79397559679E+01  0.55705234777E+02  0.67446934104E+02  0.10566000000E+00 0. -1.
        994    1    1    2    0    0 -0.39433519116E+02  0.68248127769E+01  0.17237195798E+02  0.17665826168E+03  0.17120000000E+03 0.  0.
        998    1    1    2    0    0  0.22452837498E+01  0.11149431910E+01  0.14270575657E+04  0.14270948042E+04  0.10000000000E+02 0. -1.
</event>
<event>
 5    1  0.1582292E-008  0.3840514E+03  0.7957747E-01  0.3433705E+00
         13   -1    0    0    0    0  0.00000000000E+00  0.00000000000E+00  0.14999999963E+04  0.15000000000E+04  0.10566000000E+00 0.  1.
        994   -1    0    0    0    0 -0.00000000000E+00 -0.00000000000E+00  0.11368683772E-12  0.17120000000E+03  0.17120000000E+03 0.  0.
         13    1    1    2    0    0  0.15567539921E+02  0.73072834221E+01  0.73575244653E+02  0.75558404429E+02  0.10566000000E+00 0.  1.
        994    1    1    2    0    0  0.54783296607E+00 -0.77843098432E+01  0.23027474770E+01  0.17139322696E+03  0.17120000000E+03 0.  0.
        998    1    1    2    0    0 -0.16115372887E+02  0.47702642110E+00  0.14241220041E+04  0.14242483686E+04  0.10000000000E+02 0.  1.
</event>
<event>
 5    1  0.1582292E-008  0.3844591E+03  0.7957747E-01  0.3431970E+00
         13   -1    0    0    0    0  0.00000000000E+00  0.00000000000E+00  0.14999999963E+04  0.15000000000E+04  0.10566000000E+00 0.  1.
        994   -1    0    0    0    0 -0.00000000000E+00 -0.00000000000E+00  0.11368683772E-12  0.17120000000E+03  0.17120000000E+03 0.  0.
         13    1    1    2    0    0 -0.20563913099E+01 -0.15158193677E+02  0.62556094335E+02  0.64399345364E+02  0.10566000000E+00 0.  1.
        994    1    1    2    0    0  0.30072384461E+01  0.63835188102E+01  0.20629951809E+01  0.17135777994E+03  0.17120000000E+03 0.  0.
        998    1    1    2    0    0 -0.95084713625E+00  0.87746748668E+01  0.14353809068E+04  0.14354428747E+04  0.10000000000E+02 0.  1.
</event>
<event>
 5    1  0.1582292E-008  0.3835850E+03  0.7957747E-01  0.3435696E+00
         13   -1    0    0    0    0  0.00000000000E+00  0.00000000000E+00  0.14999999963E+04  0.15000000000E+04  0.10566000000E+00 0. -1.
        994   -1    0    0    0    0 -0.00000000000E+00 -0.00000000000E+00  0.11368683772E-12  0.17120000000E+03  0.17120000000E+03 0.  0.
         13    1    1    2    0    0 -0.53863481721E+01 -0.22411676428E+02  0.10362566518E+03  0.10615830460E+03  0.10566000000E+00 0. -1.
        994    1    1    2    0    0  0.12221690764E+02  0.25454491255E+02  0.49728742067E+01  0.17358418801E+03  0.17120000000E+03 0.  0.
        998    1    1    2    0    0 -0.68353425920E+01 -0.30428148269E+01  0.13914014569E+04  0.13914575074E+04  0.10000000000E+02 0. -1.
</event>
<event>
 5    1  0.1582292E-008  0.3838530E+03  0.7957747E-01  0.3434551E+00
         13   -1    0    0    0    0  0.00000000000E+00  0.00000000000E+00  0.14999999963E+04  0.15000000000E+04  0.10566000000E+00 0. -1.
        994   -1    0    0    0    0 -0.00000000000E+00 -0.00000000000E+00  0.11368683772E-12  0.17120000000E+03  0.17120000000E+03 0.  0.
         13    1    1    2    0    0 -0.43836292948E+01  0.22182394665E+02  0.12737494456E+03  0.12936638862E+03  0.10566000000E+00 0. -1.
        994    1    1    2    0    0  0.17314866113E+02  0.11918136686E+01  0.31956226129E+01  0.17210716723E+03  0.17120000000E+03 0.  0.
        998    1    1    2    0    0 -0.12931236818E+02 -0.23374208333E+02  0.13694294291E+04  0.13697264442E+04  0.10000000000E+02 0. -1.
</event>
<event>
 5    1  0.1582292E-008  0.3833723E+03  0.7957747E-01  0.3436605E+00
         13   -1    0    0    0    0  0.00000000000E+00  0.00000000000E+00  0.14999999963E+04  0.15000000000E+04  0.10566000000E+00 0.  1.
        994   -1    0    0    0    0 -0.00000000000E+00 -0.00000000000E+00  0.11368683772E-12  0.17120000000E+03  0.17120000000E+03 0.  0.
         13    1    1    2    0    0  0.21172823567E+02 -0.31217196718E-01  0.96220722668E+02  0.98522728682E+02  0.10566000000E+00 0.  1.
        994    1    1    2    0    0 -0.49728667224E+01 -0.14270471739E+01  0.25289038925E+01  0.17129682198E+03  0.17120000000E+03 0.  0.
        998    1    1    2    0    0 -0.16199956845E+02  0.14582643706E+01  0.14012503697E+04  0.14013804493E+04  0.10000000000E+02 0.  1.
</event>
<event>
 5    1  0.1582292E-008  0.3861543E+03  0.7957747E-01  0.3424791E+00
         13   -1    0    0    0    0  0.00000000000E+00  0.00000000000E+00  0.14999999963E+04  0.15000000000E+04  0.10566000000E+00 0. -1.
        994   -1    0    0    0    0 -0.00000000000E+00 -0.00000000000E+00  0.11368683772E-12  0.17120000000E+03  0.17120000000E+03 0.  0.
         13    1    1    2    0    0  0.74291423709E+01  0.93465322372E+01  0.70791475342E+02  0.71791322361E+02  0.10566000000E+00 0. -1.
        994    1    1    2    0    0 -0.23349130880E+01 -0.27458644938E+01  0.11006692057E+01  0.17124147589E+03  0.17120000000E+03 0.  0.
        998    1    1    2    0    0 -0.50942292828E+01 -0.66006677434E+01  0.14281078517E+04  0.14281672018E+04  0.10000000000E+02 0. -1.
</event>
<event>
 5    1  0.1582292E-008  0.3711983E+03  0.7957747E-01  0.3490402E+00
         13   -1    0    0    0    0  0.00000000000E+00  0.00000000000E+00  0.14999999963E+04  0.15000000000E+04  0.10566000000E+00 0. -1.
        994   -1    0    0    0    0 -0.00000000000E+00 -0.00000000000E+00  0.11368683772E-12  0.17120000000E+03  0.17120000000E+03 0.  0.
         13    1    1    2    0    0  0.13690341583E+02  0.73338926256E+01  0.10010370908E+02  0.18477827888E+02  0.10566000000E+00 0. -1.
        994    1    1    2    0    0 -0.13815864642E+02 -0.51767995836E+01  0.93939489325E+01  0.17209114924E+03  0.17120000000E+03 0.  0.
        998    1    1    2    0    0  0.12552305864E+00 -0.21570930419E+01  0.14805956764E+04  0.14806310229E+04  0.10000000000E+02 0. -1.
</event>
<event>
 5    1  0.1582292E-008  0.3800472E+03  0.7957747E-01  0.3450953E+00
         13   -1    0    0    0    0  0.00000000000E+00  0.00000000000E+00  0.14999999963E+04  0.15000000000E+04  0.10566000000E+00 0. -1.
        994   -1    0    0    0    0 -0.00000000000E+00 -0.00000000000E+00  0.11368683772E-12  0.17120000000E+03  0.17120000000E+03 0.  0.
         13    1    1    2    0    0  0.22013873334E+02 -0.12646275536E+01  0.59726414703E+02  0.63666833432E+02  0.10566000000E+00 0. -1.
        994    1    1    2    0    0 -0.56316671668E+01 -0.18433820092E+01  0.42266904452E+01  0.17135465749E+03  0.17120000000E+03 0.  0.
        998    1    1    2    0    0 -0.16382206168E+02  0.31080095628E+01  0.14360468911E+04  0.14361785091E+04  0.10000000000E+02 0. -1.
</event>
<event>
 5    1  0.1582292E-008  0.3817202E+03  0.7957747E-01  0.3443702E+00
         13   -1    0    0    0    0  0.00000000000E+00  0.00000000000E+00  0.14999999963E+04  0.15000000000E+04  0.10566000000E+00 0.  1.
        994   -1    0    0    0    0 -0.00000000000E+00 -0.00000000000E+00  0.11368683772E-12  0.17120000000E+03  0.17120000000E+03 0.  0.
         13    1    1    2    0    0 -0.15879286392E+02  0.10928255362E+02  0.54803348147E+02  0.58094721221E+02  0.10566000000E+00 0.  1.
        994    1    1    2    0    0  0.19364089011E+02 -0.10313265397E+01  0.45182378476E+01  0.17235395572E+03  0.17120000000E+03 0.  0.
        998    1    1    2    0    0 -0.34848026192E+01 -0.98969288228E+01  0.14406784103E+04  0.14407513231E+04  0.10000000000E+02 0.  1.
</event>
<event>
 5    1  0.1582292E-008  0.3835755E+03  0.7957747E-01  0.3435736E+00
         13   -1    0    0    0    0  0.00000000000E+00  0.00000000000E+00  0.14999999963E+04  0.15000000000E+04  0.10566000000E+00 0. -1.
        994   -1    0    0    0    0 -0.00000000000E+00 -0.00000000000E+00  0.11368683772E-12  0.17120000000E+03  0.17120000000E+03 0.  0.
         13    1    1    2    0    0 -0.23231301491E+02  0.35308554876E+01  0.13283826976E+03  0.13490062041E+03  0.10566000000E+00 0. -1.
        994    1    1    2    0    0 -0.78165817521E+00  0.31731254304E+01  0.23743207323E+01  0.17124764849E+03  0.17120000000E+03 0.  0.
        998    1    1    2    0    0  0.24012959666E+02 -0.67039809180E+01  0.13647874058E+04  0.13650517311E+04  0.10000000000E+02 0. -1.
</event>
<event>
 5    1  0.1582292E-008  0.3820267E+03  0.7957747E-01  0.3442381E+00
         13   -1    0    0    0    0  0.00000000000E+00  0.00000000000E+00  0.14999999963E+04  0.15000000000E+04  0.10566000000E+00 0.  1.
        994   -1    0    0    0    0 -0.00000000000E+00 -0.00000000000E+00  0.11368683772E-12  0.17120000000E+03  0.17120000000E+03 0.  0.
         13    1    1    2    0    0 -0.20725669712E+02  0.23053713343E+02  0.14112644734E+03  0.14449121906E+03  0.10566000000E+00 0.  1.
        994    1    1    2    0    0  0.18252988036E+02 -0.24586108836E+02  0.62334326310E+01  0.17402857237E+03  0.17120000000E+03 0.  0.
        998    1    1    2    0    0  0.24726816759E+01  0.15323954931E+01  0.13526401163E+04  0.13526802086E+04  0.10000000000E+02 0.  0.
</event>
<event>
 5    1  0.1582292E-008  0.3888333E+03  0.7957747E-01  0.3413576E+00
         13   -1    0    0    0    0  0.00000000000E+00  0.00000000000E+00  0.14999999963E+04  0.15000000000E+04  0.10566000000E+00 0.  1.
        994   -1    0    0    0    0 -0.00000000000E+00 -0.00000000000E+00  0.11368683772E-12  0.17120000000E+03  0.17120000000E+03 0.  0.
         13    1    1    2    0    0  0.77485699561E+01 -0.12361126616E+03  0.27426152935E+03  0.30093052870E+03  0.10566000000E+00 0.  1.
        994    1    1    2    0    0 -0.41472949850E+02  0.12751578957E+03  0.92235508075E+02  0.23621412131E+03  0.17120000000E+03 0.  0.
        998    1    1    2    0    0  0.33724379894E+02 -0.39045234021E+01  0.11335029589E+04  0.11340553500E+04  0.10000000000E+02 0.  1.
</event>
<event>
 5    1  0.1582292E-008  0.3856310E+03  0.7957747E-01  0.3427001E+00
         13   -1    0    0    0    0  0.00000000000E+00  0.00000000000E+00  0.14999999963E+04  0.15000000000E+04  0.10566000000E+00 0. -1.
        994   -1    0    0    0    0 -0.00000000000E+00 -0.00000000000E+00  0.11368683772E-12  0.17120000000E+03  0.17120000000E+03 0.  0.
         13    1    1    2    0    0  0.80888381147E+01  0.10437333137E+02  0.64758523845E+02  0.66091185491E+02  0.10566000000E+00 0. -1.
        994    1    1    2    0    0  0.82852667811E+01 -0.23442351269E+02  0.33486903465E+01  0.17302844623E+03  0.17120000000E+03 0.  0.
        998    1    1    2    0    0 -0.16374104896E+02  0.13005018133E+02  0.14318927821E+04  0.14320803683E+04  0.10000000000E+02 0. -1.
</event>
<event>
 5    1  0.1582292E-008  0.3708304E+03  0.7957747E-01  0.3492083E+00
         13   -1    0    0    0    0  0.00000000000E+00  0.00000000000E+00  0.14999999963E+04  0.15000000000E+04  0.10566000000E+00 0. -1.
        994   -1    0    0    0    0 -0.00000000000E+00 -0.00000000000E+00  0.11368683772E-12  0.17120000000E+03  0.17120000000E+03 0.  0.
         13    1    1    2    0    0  0.36056275090E+02 -0.19727335789E+02  0.69850656425E+02  0.81045346058E+02  0.10566000000E+00 0. -1.
        994    1    1    2    0    0 -0.46431757544E+02 -0.27075214380E+02  0.21577554260E+02  0.18073186269E+03  0.17120000000E+03 0.  0.
        998    1    1    2    0    0  0.10375482454E+02  0.46802550169E+02  0.14085717856E+04  0.14094227913E+04  0.10000000000E+02 0. -1.
</event>
<event>
 5    1  0.1582292E-008  0.3849187E+03  0.7957747E-01  0.3430017E+00
         13   -1    0    0    0    0  0.00000000000E+00  0.00000000000E+00  0.14999999963E+04  0.15000000000E+04  0.10566000000E+00 0.  1.
        994   -1    0    0    0    0 -0.00000000000E+00 -0.00000000000E+00  0.11368683772E-12  0.17120000000E+03  0.17120000000E+03 0.  0.
         13    1    1    2    0    0 -0.11520150028E+02  0.29144275517E+01  0.42679688002E+02  0.44303212938E+02  0.10566000000E+00 0.  1.
        994    1    1    2    0    0  0.71269913139E+01  0.58950368312E+01  0.19519376195E+01  0.17146076964E+03  0.17120000000E+03 0.  0.
        998    1    1    2    0    0  0.43931587143E+01 -0.88094643828E+01  0.14553683707E+04  0.14554360174E+04  0.10000000000E+02 0.  1.
</event>
<event>
 5    1  0.1582292E-008  0.3695183E+03  0.7957747E-01  0.3498108E+00
         13   -1    0    0    0    0  0.00000000000E+00  0.00000000000E+00  0.14999999963E+04  0.15000000000E+04  0.10566000000E+00 0. -1.
        994   -1    0    0    0    0 -0.00000000000E+00 -0.00000000000E+00  0.11368683772E-12  0.17120000000E+03  0.17120000000E+03 0.  0.
         13    1    1    2    0    0 -0.30029783175E+02 -0.27930631477E+00  0.41385900160E+02  0.51133841882E+02  0.10566000000E+00 0. -1.
        994    1    1    2    0    0  0.39513203856E+02  0.50743904673E+01  0.15037716284E+02  0.17641602996E+03  0.17120000000E+03 0.  0.
        998    1    1    2    0    0 -0.94834206804E+01 -0.47950841526E+01  0.14435763798E+04  0.14436501282E+04  0.10000000000E+02 0. -1.
</event>
<event>
 5    1  0.1582292E-008  0.3854704E+03  0.7957747E-01  0.3427680E+00
         13   -1    0    0    0    0  0.00000000000E+00  0.00000000000E+00  0.14999999963E+04  0.15000000000E+04  0.10566000000E+00 0. -1.
        994   -1    0    0    0    0 -0.00000000000E+00 -0.00000000000E+00  0.11368683772E-12  0.17120000000E+03  0.17120000000E+03 0.  0.
         13    1    1    2    0    0 -0.10620733552E+02  0.10371150309E+02  0.88408523202E+02  0.89646187195E+02  0.10566000000E+00 0. -1.
        994    1    1    2    0    0 -0.26997770988E+01  0.26179036601E+01  0.14432243997E+01  0.17124737987E+03  0.17120000000E+03 0.  0.
        998    1    1    2    0    0  0.13320510651E+02 -0.12989053969E+02  0.14101482487E+04  0.14103064329E+04  0.10000000000E+02 0. -1.
</event>
<event>
 5    1  0.1582292E-008  0.3854378E+03  0.7957747E-01  0.3427818E+00
         13   -1    0    0    0    0  0.00000000000E+00  0.00000000000E+00  0.14999999963E+04  0.15000000000E+04  0.10566000000E+00 0.  1.
        994   -1    0    0    0    0 -0.00000000000E+00 -0.00000000000E+00  0.11368683772E-12  0.17120000000E+03  0.17120000000E+03 0.  0.
         13    1    1    2    0    0  0.24900442622E+01  0.11527787418E+02  0.47339809527E+02  0.48786872550E+02  0.10566000000E+00 0.  1.
        994    1    1    2    0    0  0.37851715510E+01 -0.16508251565E+02  0.23555090102E+01  0.17205184776E+03  0.17120000000E+03 0.  0.
        998    1    1    2    0    0 -0.62752158132E+01  0.49804641473E+01  0.14503046777E+04  0.14503612797E+04  0.10000000000E+02 0.  1.
</event>
<event>
 5    1  0.1582292E-008  0.3564318E+03  0.7957747E-01  0.3560670E+00
         13   -1    0    0    0    0  0.00000000000E+00  0.00000000000E+00  0.14999999963E+04  0.15000000000E+04  0.10566000000E+00 0.  1.
        994   -1    0    0    0    0 -0.00000000000E+00 -0.00000000000E+00  0.11368683772E-12  0.17120000000E+03  0.17120000000E+03 0.  0.
         13    1    1    2    0    0  0.12797142276E+03  0.19598835481E+03  0.10209850883E+04  0.10474725209E+04  0.10566000000E+00 0.  1.
        994    1    1    2    0    0 -0.10695864393E+03 -0.20111860214E+03  0.21078530885E+03  0.35444143390E+03  0.17120000000E+03 0.  0.
        998    1    1    2    0    0 -0.21012778832E+02  0.51302473300E+01  0.26822959908E+03  0.26928604520E+03  0.10000000000E+02 0.  1.
</event>
<event>
 5    1  0.1582292E-008  0.3819106E+03  0.7957747E-01  0.3442881E+00
         13   -1    0    0    0    0  0.00000000000E+00  0.00000000000E+00  0.14999999963E+04  0.15000000000E+04  0.10566000000E+00 0. -1.
        994   -1    0    0    0    0 -0.00000000000E+00 -0.00000000000E+00  0.11368683772E-12  0.17120000000E+03  0.17120000000E+03 0.  0.
         13    1    1    2    0    0  0.27802800072E+02  0.10015255131E+02  0.13055096216E+03  0.13385389763E+03  0.10566000000E+00 0. -1.
        994    1    1    2    0    0 -0.22393873600E+02 -0.10434005776E+02  0.52019628420E+01  0.17305159482E+03  0.17120000000E+03 0.  0.
        998    1    1    2    0    0 -0.54089264720E+01  0.41875064506E+00  0.13642470713E+04  0.13642945076E+04  0.10000000000E+02 0. -1.
</event>
<event>
 5    1  0.1582292E-008  0.3797738E+03  0.7957747E-01  0.3452144E+00
         13   -1    0    0    0    0  0.00000000000E+00  0.00000000000E+00  0.14999999963E+04  0.15000000000E+04  0.10566000000E+00 0. -1.
        994   -1    0    0    0    0 -0.00000000000E+00 -0.00000000000E+00  0.11368683772E-12  0.17120000000E+03  0.17120000000E+03 0.  0.
         13    1    1    2    0    0  0.23171379132E+02 -0.28156549718E+02  0.18927642564E+03  0.19275705064E+03  0.10566000000E+00 0. -1.
        994    1    1    2    0    0 -0.55369814033E+01 -0.11975137956E+02  0.48299150238E+01  0.17177552262E+03  0.17120000000E+03 0.  0.
        998    1    1    2    0    0 -0.17634397729E+02  0.40131687674E+02  0.13058936556E+04  0.13066674267E+04  0.10000000000E+02 0. -1.
</event>
<event>
 5    1  0.1582292E-008  0.3905493E+03  0.7957747E-01  0.3406472E+00
         13   -1    0    0    0    0  0.00000000000E+00  0.00000000000E+00  0.14999999963E+04  0.15000000000E+04  0.10566000000E+00 0.  1.
        994   -1    0    0    0    0 -0.00000000000E+00 -0.00000000000E+00  0.11368683772E-12  0.17120000000E+03  0.17120000000E+03 0.  0.
         13    1    1    2    0    0  0.29088820878E+01 -0.56479757182E+02  0.61047873663E+02  0.83218258868E+02  0.10566000000E+00 0.  1.
        994    1    1    2    0    0 -0.39908532157E+01  0.59835870153E+02  0.35934775670E+02  0.18492432606E+03  0.17120000000E+03 0.  0.
        998    1    1    2    0    0  0.10819711279E+01 -0.33561129710E+01  0.14030173469E+04  0.14030574151E+04  0.10000000000E+02 0.  1.
</event>
<event>
 5    1  0.1582292E-008  0.3812118E+03  0.7957747E-01  0.3445899E+00
         13   -1    0    0    0    0  0.00000000000E+00  0.00000000000E+00  0.14999999963E+04  0.15000000000E+04  0.10566000000E+00 0.  1.
        994   -1    0    0    0    0 -0.00000000000E+00 -0.00000000000E+00  0.11368683772E-12  0.17120000000E+03  0.17120000000E+03 0.  0.
         13    1    1    2    0    0  0.19549398505E+02 -0.88424907391E+01  0.60987975584E+02  0.64652246320E+02  0.10566000000E+00 0.  1.
        994    1    1    2    0    0 -0.24220590611E+02  0.77262588485E+01  0.56776553003E+01  0.17317045896E+03  0.17120000000E+03 0.  0.
        998    1    1    2    0    0  0.46711921069E+01  0.11162318906E+01  0.14333343654E+04  0.14333772947E+04  0.10000000000E+02 0.  1.
</event>
<event>
 5    1  0.1582292E-008  0.3838086E+03  0.7957747E-01  0.3434741E+00
         13   -1    0    0    0    0  0.00000000000E+00  0.00000000000E+00  0.14999999963E+04  0.15000000000E+04  0.10566000000E+00 0. -1.
        994   -1    0    0    0    0 -0.00000000000E+00 -0.00000000000E+00  0.11368683772E-12  0.17120000000E+03  0.17120000000E+03 0.  0.
         13    1    1    2    0    0 -0.13638038610E+02  0.21042894442E+02  0.12550824540E+03  0.12798878986E+03  0.10566000000E+00 0. -1.
        994    1    1    2    0    0  0.19982688337E+02 -0.23719433495E+02  0.54049760280E+01  0.17407059810E+03  0.17120000000E+03 0.  0.
        998    1    1    2    0    0 -0.63446497270E+01  0.26765390525E+01  0.13690867749E+04  0.13691406120E+04  0.10000000000E+02 0. -1.
</event>
<event>
 5    1  0.1582292E-008  0.3835327E+03  0.7957747E-01  0.3435919E+00
         13   -1    0    0    0    0  0.00000000000E+00  0.00000000000E+00  0.14999999963E+04  0.15000000000E+04  0.10566000000E+00 0. -1.
        994   -1    0    0    0    0 -0.00000000000E+00 -0.00000000000E+00  0.11368683772E-12  0.17120000000E+03  0.17120000000E+03 0.  0.
         13    1    1    2    0    0  0.11134248065E+02  0.58704438146E+01  0.33967618855E+02  0.36224906974E+02  0.10566000000E+00 0. -1.
        994    1    1    2    0    0 -0.22306776151E+01  0.38467096649E+01  0.24256989249E+01  0.17127491677E+03  0.17120000000E+03 0.  0.
        998    1    1    2    0    0 -0.89035704498E+01 -0.97171534795E+01  0.14636066785E+04  0.14637001763E+04  0.10000000000E+02 0. -1.
</event>
<event>
 5    1  0.1582292E-008  0.3699661E+03  0.7957747E-01  0.3496047E+00
         13   -1    0    0    0    0  0.00000000000E+00  0.00000000000E+00  0.14999999963E+04  0.15000000000E+04  0.10566000000E+00 0. -1.
        994   -1    0    0    0    0 -0.00000000000E+00 -0.00000000000E+00  0.11368683772E-12  0.17120000000E+03  0.17120000000E+03 0.  0.
         13    1    1    2    0    0 -0.25704693802E+02 -0.85009390791E+02  0.27621925168E+03  0.29014550482E+03  0.10566000000E+00 0. -1.
        994    1    1    2    0    0  0.21789254308E+02  0.94406734993E+02  0.44497712038E+02  0.20168512487E+03  0.17120000000E+03 0.  0.
        998    1    1    2    0    0  0.39154394938E+01 -0.93973442021E+01  0.11792830326E+04  0.11793693703E+04  0.10000000000E+02 0. -1.
</event>
<event>
 5    1  0.1582292E-008  0.3849222E+03  0.7957747E-01  0.3430002E+00
         13   -1    0    0    0    0  0.00000000000E+00  0.00000000000E+00  0.14999999963E+04  0.15000000000E+04  0.10566000000E+00 0.  1.
        994   -1    0    0    0    0 -0.00000000000E+00 -0.00000000000E+00  0.11368683772E-12  0.17120000000E+03  0.17120000000E+03 0.  0.
         13    1    1    2    0    0 -0.39253720005E+01 -0.16938484798E+02  0.84795231790E+02  0.86559593986E+02  0.10566000000E+00 0.  1.
        994    1    1    2    0    0  0.13098688090E+02  0.18187774258E+02  0.33230698199E+01  0.17269294588E+03  0.17120000000E+03 0.  0.
        998    1    1    2    0    0 -0.91733160895E+01 -0.12492894607E+01  0.14118816947E+04  0.14119474601E+04  0.10000000000E+02 0.  1.
</event>
<event>
 5    1  0.1582292E-008  0.3854741E+03  0.7957747E-01  0.3427664E+00
         13   -1    0    0    0    0  0.00000000000E+00  0.00000000000E+00  0.14999999963E+04  0.15000000000E+04  0.10566000000E+00 0. -1.
        994   -1    0    0    0    0 -0.00000000000E+00 -0.00000000000E+00  0.11368683772E-12  0.17120000000E+03  0.17120000000E+03 0.  0.
         13    1    1    2    0    0  0.60966756824E+01 -0.79640426141E+01  0.36223992965E+02  0.37587022488E+02  0.10566000000E+00 0. -1.
        994    1    1    2    0    0 -0.83520041039E+01  0.14604712253E+01  0.16310115415E+01  0.17141758704E+03  0.17120000000E+03 0.  0.
        998    1    1    2    0    0  0.22553284215E+01  0.65035713887E+01  0.14621449918E+04  0.14621953905E+04  0.10000000000E+02 0. -1.
</event>
<event>
 5    1  0.1582292E-008  0.3850616E+03  0.7957747E-01  0.3429411E+00
         13   -1    0    0    0    0  0.00000000000E+00  0.00000000000E+00  0.14999999963E+04  0.15000000000E+04  0.10566000000E+00 0.  1.
        994   -1    0    0    0    0 -0.00000000000E+00 -0.00000000000E+00  0.11368683772E-12  0.17120000000E+03  0.17120000000E+03 0.  0.
         13    1    1    2    0    0  0.13637564554E+02 -0.13502033503E+01  0.61174869778E+02  0.62691164230E+02  0.10566000000E+00 0.  1.
        994    1    1    2    0    0 -0.23086526739E+01  0.27311042234E+01  0.16416085589E+01  0.17124521508E+03  0.17120000000E+03 0.  0.
        998    1    1    2    0    0 -0.11328911880E+02 -0.13809008731E+01  0.14371835179E+04  0.14372636207E+04  0.10000000000E+02 0.  1.
</event>
<event>
 5    1  0.1582292E-008  0.3798582E+03  0.7957747E-01  0.3451776E+00
         13   -1    0    0    0    0  0.00000000000E+00  0.00000000000E+00  0.14999999963E+04  0.15000000000E+04  0.10566000000E+00 0.  1.
        994   -1    0    0    0    0 -0.00000000000E+00 -0.00000000000E+00  0.11368683772E-12  0.17120000000E+03  0.17120000000E+03 0.  0.
         13    1    1    2    0    0 -0.42801091199E+01  0.23868258624E+02  0.68661706601E+02  0.72817952602E+02  0.10566000000E+00 0.  1.
        994    1    1    2    0    0  0.51777164280E+02 -0.65832734080E+01  0.13370220766E+02  0.17947817982E+03  0.17120000000E+03 0.  0.
        998    1    1    2    0    0 -0.47497055160E+02 -0.17284985216E+02  0.14179680689E+04  0.14189038676E+04  0.10000000000E+02 0.  1.
</event>
<event>
 5    1  0.1582292E-008  0.3862065E+03  0.7957747E-01  0.3424571E+00
         13   -1    0    0    0    0  0.00000000000E+00  0.00000000000E+00  0.14999999963E+04  0.15000000000E+04  0.10566000000E+00 0.  1.
        994   -1    0    0    0    0 -0.00000000000E+00 -0.00000000000E+00  0.11368683772E-12  0.17120000000E+03  0.17120000000E+03 0.  0.
         13    1    1    2    0    0  0.84565976005E+01  0.71184647981E+01  0.60049752266E+02  0.61058746264E+02  0.10566000000E+00 0.  1.
        994    1    1    2    0    0 -0.53989957584E+01 -0.52479027035E+01  0.12180217675E+01  0.17136981419E+03  0.17120000000E+03 0.  0.
        998    1    1    2    0    0 -0.30576018421E+01 -0.18705620946E+01  0.14387322222E+04  0.14387714395E+04  0.10000000000E+02 0.  1.
</event>
<event>
 5    1  0.1582292E-008  0.3782229E+03  0.7957747E-01  0.3458933E+00
         13   -1    0    0    0    0  0.00000000000E+00  0.00000000000E+00  0.14999999963E+04  0.15000000000E+04  0.10566000000E+00 0. -1.
        994   -1    0    0    0    0 -0.00000000000E+00 -0.00000000000E+00  0.11368683772E-12  0.17120000000E+03  0.17120000000E+03 0.  0.
         13    1    1    2    0    0 -0.11171395042E+02  0.55819361401E+01  0.13118165919E+02  0.18112302984E+02  0.10566000000E+00 0. -1.
        994    1    1    2    0    0  0.10836090345E+02 -0.10157773156E+02  0.57750826125E+01  0.17194008488E+03  0.17120000000E+03 0.  0.
        998    1    1    2    0    0  0.33530469698E+00  0.45758370162E+01  0.14811067477E+04  0.14811476121E+04  0.10000000000E+02 0. -1.
</event>
<event>
 5    1  0.1582292E-008  0.4535044E+03  0.7957747E-01  0.3182647E+00
         13   -1    0    0    0    0  0.00000000000E+00  0.00000000000E+00  0.14999999963E+04  0.15000000000E+04  0.10566000000E+00 0. -1.
        994   -1    0    0    0    0 -0.00000000000E+00 -0.00000000000E+00  0.11368683772E-12  0.17120000000E+03  0.17120000000E+03 0.  0.
         13    1    1    2    0    0 -0.18131892028E+02  0.19342492449E+02 -0.20133335776E+02  0.33290537637E+02  0.10566000000E+00 0. -1.
        994    1    1    2    0    0  0.30594732970E+02 -0.14880919352E+02  0.70606248200E+02  0.18828744443E+03  0.17120000000E+03 0.  0.
        998    1    1    2    0    0 -0.12462840942E+02 -0.44615730965E+01  0.14495270839E+04  0.14496220179E+04  0.10000000000E+02 0. -1.
</event>
<event>
 5    1  0.1582292E-008  0.3808570E+03  0.7957747E-01  0.3447436E+00
         13   -1    0    0    0    0  0.00000000000E+00  0.00000000000E+00  0.14999999963E+04  0.15000000000E+04  0.10566000000E+00 0. -1.
        994   -1    0    0    0    0 -0.00000000000E+00 -0.00000000000E+00  0.11368683772E-12  0.17120000000E+03  0.17120000000E+03 0.  0.
         13    1    1    2    0    0  0.10023697827E+01  0.28546094152E+02  0.10166040462E+03  0.10559703248E+03  0.10566000000E+00 0. -1.
        994    1    1    2    0    0 -0.10323988390E+01 -0.30196370246E+02  0.67502329982E+01  0.17397670036E+03  0.17120000000E+03 0.  0.
        998    1    1    2    0    0  0.30029056298E-01  0.16502760938E+01  0.13915893587E+04  0.13916262672E+04  0.10000000000E+02 0.  0.
</event>
<event>
 5    1  0.1582292E-008  0.3802326E+03  0.7957747E-01  0.3450146E+00
         13   -1    0    0    0    0  0.00000000000E+00  0.00000000000E+00  0.14999999963E+04  0.15000000000E+04  0.10566000000E+00 0.  1.
        994   -1    0    0    0    0 -0.00000000000E+00 -0.00000000000E+00  0.11368683772E-12  0.17120000000E+03  0.17120000000E+03 0.  0.
         13    1    1    2    0    0 -0.23624662100E+02  0.31457659172E+02  0.23149182164E+03  0.23481095296E+03  0.10566000000E+00 0.  1.
        994    1    1    2    0    0  0.27898977353E+01  0.19973867423E+01  0.40551203591E+01  0.17128238988E+03  0.17120000000E+03 0.  0.
        998    1    1    2    0    0  0.20834764364E+02 -0.33455045914E+02  0.12644530543E+04  0.12651066572E+04  0.10000000000E+02 0.  1.
</event>
<event>
 5    1  0.1582292E-008  0.3855819E+03  0.7957747E-01  0.3427208E+00
         13   -1    0    0    0    0  0.00000000000E+00  0.00000000000E+00  0.14999999963E+04  0.15000000000E+04  0.10566000000E+00 0. -1.
        994   -1    0    0    0    0 -0.00000000000E+00 -0.00000000000E+00  0.11368683772E-12  0.17120000000E+03  0.17120000000E+03 0.  0.
         13    1    1    2    0    0 -0.12707767776E+02 -0.73432881725E+01  0.75713256546E+02  0.77122756848E+02  0.10566000000E+00 0. -1.
        994    1    1    2    0    0  0.16826719999E+02  0.75332459766E+01  0.24579867842E+01  0.17220734595E+03  0.17120000000E+03 0.  0.
        998    1    1    2    0    0 -0.41189522228E+01 -0.18995780405E+00  0.14218287529E+04  0.14218698972E+04  0.10000000000E+02 0. -1.
</event>
<event>
 5    1  0.1582292E-008  0.2368532E+03  0.7957747E-01  0.4484276E+00
         13   -1    0    0    0    0  0.00000000000E+00  0.00000000000E+00  0.14999999963E+04  0.15000000000E+04  0.10566000000E+00 0.  1.
        994   -1    0    0    0    0 -0.00000000000E+00 -0.00000000000E+00  0.11368683772E-12  0.17120000000E+03  0.17120000000E+03 0.  0.
         13    1    1    2    0    0 -0.15455688302E+03  0.34653853633E+02  0.20679830100E+03  0.26048851822E+03  0.10566000000E+00 0.  1.
        994    1    1    2    0    0  0.15417237518E+03 -0.47521414263E+02  0.17699967861E+03  0.29439044195E+03  0.17120000000E+03 0.  0.
        998    1    1    2    0    0  0.38450784032E+00  0.12867560630E+02  0.11162020167E+04  0.11163210398E+04  0.10000000000E+02 0.  1.
</event>
<event>
 5    1  0.1582292E-008  0.3795029E+03  0.7957747E-01  0.3453326E+00
         13   -1    0    0    0    0  0.00000000000E+00  0.00000000000E+00  0.14999999963E+04  0.15000000000E+04  0.10566000000E+00 0.  1.
        994   -1    0    0    0    0 -0.00000000000E+00 -0.00000000000E+00  0.11368683772E-12  0.17120000000E+03  0.17120000000E+03 0.  0.
         13    1    1    2    0    0 -0.63279115149E+02  0.57899541710E+02  0.27749820573E+03  0.29045114683E+03  0.10566000000E+00 0.  1.
        994    1    1    2    0    0 -0.29607176806E+01 -0.18988474321E+02  0.17391393567E+02  0.17315088385E+03  0.17120000000E+03 0.  0.
        998    1    1    2    0    0  0.66239832829E+02 -0.38911067389E+02  0.12051103970E+04  0.12075979693E+04  0.10000000000E+02 0.  1.
</event>
<event>
 5    1  0.1582292E-008  0.3834172E+03  0.7957747E-01  0.3436413E+00
         13   -1    0    0    0    0  0.00000000000E+00  0.00000000000E+00  0.14999999963E+04  0.15000000000E+04  0.10566000000E+00 0.  1.
        994   -1    0    0    0    0 -0.00000000000E+00 -0.00000000000E+00  0.11368683772E-12  0.17120000000E+03  0.17120000000E+03 0.  0.
         13    1    1    2    0    0  0.23298160944E+02  0.18675753297E+02  0.17515757640E+03  0.17768448384E+03  0.10566000000E+00 0.  1.
        994    1    1    2    0    0 -0.26630890963E+02 -0.42662599968E+01  0.48262285379E+01  0.17337859675E+03  0.17120000000E+03 0.  0.
        998    1    1    2    0    0  0.33327300184E+01 -0.14409493300E+02  0.13200161913E+04  0.13201369194E+04  0.10000000000E+02 0.  1.
</event>
<event>
 5    1  0.1582292E-008  0.3846382E+03  0.7957747E-01  0.3431208E+00
         13   -1    0    0    0    0  0.00000000000E+00  0.00000000000E+00  0.14999999963E+04  0.15000000000E+04  0.10566000000E+00 0.  1.
        994   -1    0    0    0    0 -0.00000000000E+00 -0.00000000000E+00  0.11368683772E-12  0.17120000000E+03  0.17120000000E+03 0.  0.
         13    1    1    2    0    0  0.11784621496E+02 -0.56346503853E+01  0.68198969902E+02  0.69438730176E+02  0.10566000000E+00 0.  1.
        994    1    1    2    0    0  0.33388817605E+02 -0.39274716036E+02  0.10608631580E+02  0.17910694996E+03  0.17120000000E+03 0.  0.
        998    1    1    2    0    0 -0.45173439100E+02  0.44909366421E+02  0.14211923948E+04  0.14226543199E+04  0.10000000000E+02 0.  1.
</event>
<event>
 5    1  0.1582292E-008  0.3779541E+03  0.7957747E-01  0.3460115E+00
         13   -1    0    0    0    0  0.00000000000E+00  0.00000000000E+00  0.14999999963E+04  0.15000000000E+04  0.10566000000E+00 0.  1.
        994   -1    0    0    0    0 -0.00000000000E+00 -0.00000000000E+00  0.11368683772E-12  0.17120000000E+03  0.17120000000E+03 0.  0.
         13    1    1    2    0    0 -0.45844964585E+02  0.85729637897E+02  0.51180641001E+03  0.52095791009E+03  0.10566000000E+00 0.  1.
        994    1    1    2    0    0  0.32842997916E+02 -0.10697189137E+03  0.48542930739E+02  0.21020824004E+03  0.17120000000E+03 0.  0.
        998    1    1    2    0    0  0.13001966669E+02  0.21242253474E+02  0.93965065553E+03  0.94003384987E+03  0.10000000000E+02 0.  1.
</event>
<event>
 5    1  0.1582292E-008  0.3747977E+03  0.7957747E-01  0.3474128E+00
         13   -1    0    0    0    0  0.00000000000E+00  0.00000000000E+00  0.14999999963E+04  0.15000000000E+04  0.10566000000E+00 0.  1.
        994   -1    0    0    0    0 -0.00000000000E+00 -0.00000000000E+00  0.11368683772E-12  0.17120000000E+03  0.17120000000E+03 0.  0.
         13    1    1    2    0    0 -0.10584702815E+02 -0.34865264049E+01  0.59634511874E+01  0.12639846287E+02  0.10566000000E+00 0.  1.
        994    1    1    2    0    0  0.12465506984E+02  0.53005026712E+01  0.74070213024E+01  0.17189470078E+03  0.17120000000E+03 0.  0.
        998    1    1    2    0    0 -0.18808041694E+01 -0.18139762663E+01  0.14866295238E+04  0.14866654529E+04  0.10000000000E+02 0.  1.
</event>
<event>
 5    1  0.1582292E-008  0.3804487E+03  0.7957747E-01  0.3449207E+00
         13   -1    0    0    0    0  0.00000000000E+00  0.00000000000E+00  0.14999999963E+04  0.15000000000E+04  0.10566000000E+00 0.  1.
        994   -1    0    0    0    0 -0.00000000000E+00 -0.00000000000E+00  0.11368683772E-12  0.17120000000E+03  0.17120000000E+03 0.  0.
         13    1    1    2    0    0  0.40401833468E+02 -0.25848011501E+02  0.24320580446E+03  0.24789010132E+03  0.10566000000E+00 0.  1.
        994    1    1    2    0    0 -0.40936087195E+02  0.29056236560E+02  0.12364840427E+02  0.17883611883E+03  0.17120000000E+03 0.  0.
        998    1    1    2    0    0  0.53425372668E+00 -0.32082250591E+01  0.12444293514E+04  0.12444737799E+04  0.10000000000E+02 0.  1.
</event>
<event>
 5    1  0.1582292E-008  0.3828889E+03  0.7957747E-01  0.3438675E+00
         13   -1    0    0    0    0  0.00000000000E+00  0.00000000000E+00  0.14999999963E+04  0.15000000000E+04  0.10566000000E+00 0.  1.
        994   -1    0    0    0    0 -0.00000000000E+00 -0.00000000000E+00  0.11368683772E-12  0.17120000000E+03  0.17120000000E+03 0.  0.
         13    1    1    2    0    0 -0.11689480083E+02  0.17016808533E+02  0.79162272168E+02  0.81810098497E+02  0.10566000000E+00 0.  1.
        994    1    1    2    0    0 -0.25358344911E+01 -0.16423452638E+02  0.35968703542E+01  0.17204225565E+03  0.17120000000E+03 0.  0.
        998    1    1    2    0    0  0.14225314574E+02 -0.59335589525E+00  0.14172408538E+04  0.14173476459E+04  0.10000000000E+02 0.  1.
</event>
<event>
 5    1  0.1582292E-008  0.3853186E+03  0.7957747E-01  0.3428322E+00
         13   -1    0    0    0    0  0.00000000000E+00  0.00000000000E+00  0.14999999963E+04  0.15000000000E+04  0.10566000000E+00 0.  1.
        994   -1    0    0    0    0 -0.00000000000E+00 -0.00000000000E+00  0.11368683772E-12  0.17120000000E+03  0.17120000000E+03 0.  0.
         13    1    1    2    0    0  0.12011740849E+02  0.58368335277E+00  0.53158478867E+02  0.54501904958E+02  0.10566000000E+00 0.  1.
        994    1    1    2    0    0  0.43934132093E+01  0.23331852127E+01  0.15533611777E+01  0.17127930045E+03  0.17120000000E+03 0.  0.
        998    1    1    2    0    0 -0.16405154058E+02 -0.29168685655E+01  0.14452881562E+04  0.14454187946E+04  0.10000000000E+02 0.  1.
</event>
<event>
 5    1  0.1582292E-008  0.3781967E+03  0.7957747E-01  0.3459048E+00
         13   -1    0    0    0    0  0.00000000000E+00  0.00000000000E+00  0.14999999963E+04  0.15000000000E+04  0.10566000000E+00 0. -1.
        994   -1    0    0    0    0 -0.00000000000E+00 -0.00000000000E+00  0.11368683772E-12  0.17120000000E+03  0.17120000000E+03 0.  0.
         13    1    1    2    0    0  0.32824333751E+02 -0.24827972581E+02  0.17761406969E+03  0.18232014157E+03  0.10566000000E+00 0. -1.
        994    1    1    2    0    0 -0.78131223661E+01  0.12084907424E+02  0.57429385558E+01  0.17189971266E+03  0.17120000000E+03 0.  0.
        998    1    1    2    0    0 -0.25011211385E+02  0.12743065156E+02  0.13166429880E+04  0.13169801458E+04  0.10000000000E+02 0. -1.
</event>
<event>
 5    1  0.1582292E-008  0.3363851E+03  0.7957747E-01  0.3666246E+00
         13   -1    0    0    0    0  0.00000000000E+00  0.00000000000E+00  0.14999999963E+04  0.15000000000E+04  0.10566000000E+00 0. -1.
        994   -1    0    0    0    0 -0.00000000000E+00 -0.00000000000E+00  0.11368683772E-12  0.17120000000E+03  0.17120000000E+03 0.  0.
         13    1    1    2    0    0 -0.19933351419E+03  0.77427911238E+02  0.89690719844E+03  0.92204743104E+03  0.10566000000E+00 0. -1.
        994    1    1    2    0    0  0.19320511580E+03 -0.57186692388E+02  0.16763023323E+03  0.31306208593E+03  0.17120000000E+03 0.  0.
        998    1    1    2    0    0  0.61283983899E+01 -0.20241218850E+02  0.43546256461E+03  0.43609048303E+03  0.10000000000E+02 0. -1.
</event>
<event>
 5    1  0.1582292E-008  0.3812433E+03  0.7957747E-01  0.3445763E+00
         13   -1    0    0    0    0  0.00000000000E+00  0.00000000000E+00  0.14999999963E+04  0.15000000000E+04  0.10566000000E+00 0.  1.
        994   -1    0    0    0    0 -0.00000000000E+00 -0.00000000000E+00  0.11368683772E-12  0.17120000000E+03  0.17120000000E+03 0.  0.
         13    1    1    2    0    0 -0.13252644293E+02 -0.22870469605E+02  0.91423933798E+02  0.95168470597E+02  0.10566000000E+00 0.  1.
        994    1    1    2    0    0  0.13524545994E+02  0.27241551274E+02  0.65925454682E+01  0.17400550887E+03  0.17120000000E+03 0.  0.
        998    1    1    2    0    0 -0.27190170097E+00 -0.43710816688E+01  0.14019835170E+04  0.14020260205E+04  0.10000000000E+02 0.  1.
</event>
<event>
 5    1  0.1645002E-008  0.3852215E+03  0.7957747E-01  0.3428733E+00
         13   -1    0    0    0    0  0.00000000000E+00  0.00000000000E+00  0.14999999963E+04  0.15000000000E+04  0.10566000000E+00 0.  1.
        994   -1    0    0    0    0 -0.00000000000E+00 -0.00000000000E+00  0.11368683772E-12  0.17120000000E+03  0.17120000000E+03 0.  0.
         13    1    1    2    0    0 -0.12854304954E+02  0.31620835768E+01  0.57884548095E+02  0.59378986187E+02  0.10566000000E+00 0.  1.
        994    1    1    2    0    0  0.80222922433E+01 -0.25832254383E+01  0.17536617230E+01  0.17141629315E+03  0.17120000000E+03 0.  0.
        998    1    1    2    0    0  0.48320127105E+01 -0.57885813849E+00  0.14403617865E+04  0.14404047207E+04  0.10000000000E+02 0.  1.
</event>
<event>
 5    1  0.1582292E-008  0.3714608E+03  0.7957747E-01  0.3489204E+00
         13   -1    0    0    0    0  0.00000000000E+00  0.00000000000E+00  0.14999999963E+04  0.15000000000E+04  0.10566000000E+00 0. -1.
        994   -1    0    0    0    0 -0.00000000000E+00 -0.00000000000E+00  0.11368683772E-12  0.17120000000E+03  0.17120000000E+03 0.  0.
         13    1    1    2    0    0 -0.38987517344E+02  0.42777710848E+02  0.13337131017E+03  0.14538870862E+03  0.10566000000E+00 0. -1.
        994    1    1    2    0    0  0.37518887822E+02 -0.28963060251E+02  0.19649606267E+02  0.17872345349E+03  0.17120000000E+03 0.  0.
        998    1    1    2    0    0  0.14686295226E+01 -0.13814650598E+02  0.13469790798E+04  0.13470878379E+04  0.10000000000E+02 0. -1.
</event>
<event>
 5    1  0.1582292E-008  0.3799972E+03  0.7957747E-01  0.3451171E+00
         13   -1    0    0    0    0  0.00000000000E+00  0.00000000000E+00  0.14999999963E+04  0.15000000000E+04  0.10566000000E+00 0. -1.
        994   -1    0    0    0    0 -0.00000000000E+00 -0.00000000000E+00  0.11368683772E-12  0.17120000000E+03  0.17120000000E+03 0.  0.
         13    1    1    2    0    0  0.20723358502E+02 -0.16673954107E+02  0.71952179453E+02  0.76711183183E+02  0.10566000000E+00 0. -1.
        994    1    1    2    0    0 -0.62448516798E+02  0.66465845495E+01  0.17433726515E+02  0.18318670573E+03  0.17120000000E+03 0.  0.
        998    1    1    2    0    0  0.41725158296E+02  0.10027369558E+02  0.14106140903E+04  0.14113021111E+04  0.10000000000E+02 0. -1.
</event>
<event>
 5    1  0.1582292E-008  0.3830978E+03  0.7957747E-01  0.3437780E+00
         13   -1    0    0    0    0  0.00000000000E+00  0.00000000000E+00  0.14999999963E+04  0.15000000000E+04  0.10566000000E+00 0.  1.
        994   -1    0    0    0    0 -0.00000000000E+00 -0.00000000000E+00  0.11368683772E-12  0.17120000000E+03  0.17120000000E+03 0.  0.
         13    1    1    2    0    0 -0.11997445971E+02 -0.11010670230E+02  0.56801887831E+02  0.59090093874E+02  0.10566000000E+00 0.  1.
        994    1    1    2    0    0 -0.13147158979E+02 -0.41929953240E+01  0.32078940589E+01  0.17178521352E+03  0.17120000000E+03 0.  0.
        998    1    1    2    0    0  0.25144604950E+02  0.15203665554E+02  0.14399902144E+04  0.14403246926E+04  0.10000000000E+02 0.  1.
</event>
<event>
 5    1  0.1582292E-008  0.3794813E+03  0.7957747E-01  0.3453420E+00
         13   -1    0    0    0    0  0.00000000000E+00  0.00000000000E+00  0.14999999963E+04  0.15000000000E+04  0.10566000000E+00 0. -1.
        994   -1    0    0    0    0 -0.00000000000E+00 -0.00000000000E+00  0.11368683772E-12  0.17120000000E+03  0.17120000000E+03 0.  0.
         13    1    1    2    0    0  0.34577480200E+02  0.27567171038E+01  0.16714656105E+03  0.17070789572E+03  0.10566000000E+00 0. -1.
        994    1    1    2    0    0  0.99378652195E+01  0.10296588010E+02  0.50812612465E+01  0.17187216210E+03  0.17120000000E+03 0.  0.
        998    1    1    2    0    0 -0.44515345420E+02 -0.13053305114E+02  0.13277721740E+04  0.13286199422E+04  0.10000000000E+02 0. -1.
</event>
<event>
 5    1  0.1582292E-008  0.3847689E+03  0.7957747E-01  0.3430653E+00
         13   -1    0    0    0    0  0.00000000000E+00  0.00000000000E+00  0.14999999963E+04  0.15000000000E+04  0.10566000000E+00 0. -1.
        994   -1    0    0    0    0 -0.00000000000E+00 -0.00000000000E+00  0.11368683772E-12  0.17120000000E+03  0.17120000000E+03 0.  0.
         13    1    1    2    0    0 -0.24254932982E+01 -0.16037040790E+02  0.83359514989E+02  0.84922844973E+02  0.10566000000E+00 0. -1.
        994    1    1    2    0    0  0.33222503376E+01 -0.43778236796E+01  0.18443432781E+01  0.17129811525E+03  0.17120000000E+03 0.  0.
        998    1    1    2    0    0 -0.89675703935E+00  0.20414864470E+02  0.14147961380E+04  0.14149790398E+04  0.10000000000E+02 0. -1.
</event>
<event>
 5    1  0.1582292E-008  0.3736060E+03  0.7957747E-01  0.3479481E+00
         13   -1    0    0    0    0  0.00000000000E+00  0.00000000000E+00  0.14999999963E+04  0.15000000000E+04  0.10566000000E+00 0.  1.
        994   -1    0    0    0    0 -0.00000000000E+00 -0.00000000000E+00  0.11368683772E-12  0.17120000000E+03  0.17120000000E+03 0.  0.
         13    1    1    2    0    0  0.61562191830E+02  0.35447726713E+01  0.13484764041E+03  0.14827800297E+03  0.10566000000E+00 0.  1.
        994    1    1    2    0    0 -0.55050480319E+02 -0.17377438763E+01  0.23678367737E+02  0.18139371609E+03  0.17120000000E+03 0.  0.
        998    1    1    2    0    0 -0.65117115111E+01 -0.18070287951E+01  0.13414739881E+04  0.13415282809E+04  0.10000000000E+02 0.  1.
</event>
<event>
 5    1  0.1582292E-008  0.3826793E+03  0.7957747E-01  0.3439575E+00
         13   -1    0    0    0    0  0.00000000000E+00  0.00000000000E+00  0.14999999963E+04  0.15000000000E+04  0.10566000000E+00 0.  1.
        994   -1    0    0    0    0 -0.00000000000E+00 -0.00000000000E+00  0.11368683772E-12  0.17120000000E+03  0.17120000000E+03 0.  0.
         13    1    1    2    0    0  0.14585083146E+02  0.12817392814E+02  0.70999730135E+02  0.73606949755E+02  0.10566000000E+00 0.  1.
        994    1    1    2    0    0 -0.87432598074E+01  0.86037368469E+01  0.32854970859E+01  0.17167033340E+03  0.17120000000E+03 0.  0.
        998    1    1    2    0    0 -0.58418233384E+01 -0.21421129661E+02  0.14257147691E+04  0.14259227168E+04  0.10000000000E+02 0.  1.
</event>
<event>
 5    1  0.1582292E-008  0.3811253E+03  0.7957747E-01  0.3446273E+00
         13   -1    0    0    0    0  0.00000000000E+00  0.00000000000E+00  0.14999999963E+04  0.15000000000E+04  0.10566000000E+00 0. -1.
        994   -1    0    0    0    0 -0.00000000000E+00 -0.00000000000E+00  0.11368683772E-12  0.17120000000E+03  0.17120000000E+03 0.  0.
         13    1    1    2    0    0 -0.29830494632E+01  0.10377573047E+02  0.14724009372E+02  0.18259250326E+02  0.10566000000E+00 0. -1.
        994    1    1    2    0    0  0.11413808889E+00 -0.11219423490E+02  0.39855663817E+01  0.17161355783E+03  0.17120000000E+03 0.  0.
        998    1    1    2    0    0  0.28689113743E+01  0.84185044372E+00  0.14812904205E+04  0.14813271918E+04  0.10000000000E+02 0. -1.
</event>
<event>
 5    1  0.1582292E-008  0.3783617E+03  0.7957747E-01  0.3458323E+00
         13   -1    0    0    0    0  0.00000000000E+00  0.00000000000E+00  0.14999999963E+04  0.15000000000E+04  0.10566000000E+00 0.  1.
        994   -1    0    0    0    0 -0.00000000000E+00 -0.00000000000E+00  0.11368683772E-12  0.17120000000E+03  0.17120000000E+03 0.  0.
         13    1    1    2    0    0  0.30148548043E+01 -0.25616257034E+02  0.63292456991E+02  0.68346384322E+02  0.10566000000E+00 0.  1.
        994    1    1    2    0    0 -0.19030485888E+01  0.23993210685E+02  0.69119529469E+01  0.17302170629E+03  0.17120000000E+03 0.  0.
        998    1    1    2    0    0 -0.11118062156E+01  0.16230463488E+01  0.14297955863E+04  0.14298319094E+04  0.10000000000E+02 0.  1.
</event>
<event>
 5    1  0.1582292E-008  0.3829857E+03  0.7957747E-01  0.3438260E+00
         13   -1    0    0    0    0  0.00000000000E+00  0.00000000000E+00  0.14999999963E+04  0.15000000000E+04  0.10566000000E+00 0.  1.
        994   -1    0    0    0    0 -0.00000000000E+00 -0.00000000000E+00  0.11368683772E-12  0.17120000000E+03  0.17120000000E+03 0.  0.
         13    1    1    2    0    0  0.17820594277E+03  0.11851046849E+03  0.12237675170E+04  0.12423401450E+04  0.10566000000E+00 0.  1.
        994    1    1    2    0    0 -0.17352526830E+03 -0.11640786747E+03  0.16389883017E+03  0.31596530961E+03  0.17120000000E+03 0.  0.
        998    1    1    2    0    0 -0.46806744760E+01 -0.21026010198E+01  0.11233364911E+03  0.11289454534E+03  0.10000000000E+02 0.  0.
</event>
<event>
 5    1  0.1582292E-008  0.3848867E+03  0.7957747E-01  0.3430153E+00
         13   -1    0    0    0    0  0.00000000000E+00  0.00000000000E+00  0.14999999963E+04  0.15000000000E+04  0.10566000000E+00 0.  1.
        994   -1    0    0    0    0 -0.00000000000E+00 -0.00000000000E+00  0.11368683772E-12  0.17120000000E+03  0.17120000000E+03 0.  0.
         13    1    1    2    0    0  0.11720483458E+02  0.29488406586E+01  0.45401194664E+02  0.46982390687E+02  0.10566000000E+00 0.  1.
        994    1    1    2    0    0  0.31248998792E+00  0.47022692546E+01  0.17594693752E+01  0.17127388802E+03  0.17120000000E+03 0.  0.
        998    1    1    2    0    0 -0.12032973446E+02 -0.76511099132E+01  0.14528393322E+04  0.14529437213E+04  0.10000000000E+02 0.  1.
</event>
<event>
 5    1  0.1582292E-008  0.3850020E+03  0.7957747E-01  0.3429664E+00
         13   -1    0    0    0    0  0.00000000000E+00  0.00000000000E+00  0.14999999963E+04  0.15000000000E+04  0.10566000000E+00 0. -1.
        994   -1    0    0    0    0 -0.00000000000E+00 -0.00000000000E+00  0.11368683772E-12  0.17120000000E+03  0.17120000000E+03 0.  0.
         13    1    1    2    0    0  0.12422276206E+02 -0.55752751425E+01  0.49102008208E+02  0.50955029322E+02  0.10566000000E+00 0. -1.
        994    1    1    2    0    0 -0.36271325471E+02  0.77227835905E+01  0.61649607436E+01  0.17527891253E+03  0.17120000000E+03 0.  0.
        998    1    1    2    0    0  0.23849049265E+02 -0.21475084480E+01  0.14447330273E+04  0.14449660581E+04  0.10000000000E+02 0. -1.
</event>
<event>
 5    1  0.1582292E-008  0.3737284E+03  0.7957747E-01  0.3478930E+00
         13   -1    0    0    0    0  0.00000000000E+00  0.00000000000E+00  0.14999999963E+04  0.15000000000E+04  0.10566000000E+00 0.  1.
        994   -1    0    0    0    0 -0.00000000000E+00 -0.00000000000E+00  0.11368683772E-12  0.17120000000E+03  0.17120000000E+03 0.  0.
         13    1    1    2    0    0 -0.17136493312E+02 -0.13715822811E+02  0.30118762598E+02  0.37268407840E+02  0.10566000000E+00 0.  1.
        994    1    1    2    0    0  0.42924722698E+01  0.12859773522E+02  0.79608863428E+01  0.17192037344E+03  0.17120000000E+03 0.  0.
        998    1    1    2    0    0  0.12844021042E+02  0.85604928964E+00  0.14619203473E+04  0.14620112187E+04  0.10000000000E+02 0.  1.
</event>
<event>
 5    1  0.1582292E-008  0.3142014E+03  0.7957747E-01  0.3799576E+00
         13   -1    0    0    0    0  0.00000000000E+00  0.00000000000E+00  0.14999999963E+04  0.15000000000E+04  0.10566000000E+00 0.  1.
        994   -1    0    0    0    0 -0.00000000000E+00 -0.00000000000E+00  0.11368683772E-12  0.17120000000E+03  0.17120000000E+03 0.  0.
         13    1    1    2    0    0 -0.16270769122E+01 -0.25744215927E+03  0.39346871949E+03  0.47020926950E+03  0.10566000000E+00 0.  1.
        994    1    1    2    0    0  0.14215862570E+02  0.27055620871E+03  0.49867633965E+03  0.59278181867E+03  0.17120000000E+03 0.  0.
        998    1    1    2    0    0 -0.12588785658E+02 -0.13114049445E+02  0.60785493714E+03  0.60820891183E+03  0.10000000000E+02 0.  1.
</event>
<event>
 5    1  0.1582292E-008  0.3775370E+03  0.7957747E-01  0.3461954E+00
         13   -1    0    0    0    0  0.00000000000E+00  0.00000000000E+00  0.14999999963E+04  0.15000000000E+04  0.10566000000E+00 0.  1.
        994   -1    0    0    0    0 -0.00000000000E+00 -0.00000000000E+00  0.11368683772E-12  0.17120000000E+03  0.17120000000E+03 0.  0.
         13    1    1    2    0    0  0.92374798169E+01 -0.45714298307E+02  0.24663300205E+03  0.25100393815E+03  0.10566000000E+00 0.  1.
        994    1    1    2    0    0  0.72957059819E+01  0.11505304518E+01  0.55655506395E+01  0.17144960309E+03  0.17120000000E+03 0.  0.
        998    1    1    2    0    0 -0.16533185799E+02  0.44563767855E+02  0.12478014436E+04  0.12487464588E+04  0.10000000000E+02 0.  1.
</event>
<event>
 5    1  0.1582292E-008  0.3848918E+03  0.7957747E-01  0.3430131E+00
         13   -1    0    0    0    0  0.00000000000E+00  0.00000000000E+00  0.14999999963E+04  0.15000000000E+04  0.10566000000E+00 0. -1.
        994   -1    0    0    0    0 -0.00000000000E+00 -0.00000000000E+00  0.11368683772E-12  0.17120000000E+03  0.17120000000E+03 0.  0.
         13    1    1    2    0    0 -0.61565571467E+01 -0.13756661873E+02  0.89106716169E+02  0.90372379476E+02  0.10566000000E+00 0. -1.
        994    1    1    2    0    0 -0.13781067086E+02 -0.22601222115E+02  0.39925590412E+01  0.17328044777E+03  0.17120000000E+03 0.  0.
        998    1    1    2    0    0  0.19937624232E+02  0.36357883988E+02  0.14069007211E+04  0.14075471728E+04  0.10000000000E+02 0. -1.
</event>
<event>
 5    1  0.1582292E-008  0.3879997E+03  0.7957747E-01  0.3417049E+00
         13   -1    0    0    0    0  0.00000000000E+00  0.00000000000E+00  0.14999999963E+04  0.15000000000E+04  0.10566000000E+00 0.  1.
        994   -1    0    0    0    0 -0.00000000000E+00 -0.00000000000E+00  0.11368683772E-12  0.17120000000E+03  0.17120000000E+03 0.  0.
         13    1    1    2    0    0 -0.45163026087E+02  0.40663368854E+02  0.76288388973E+02  0.97535316415E+02  0.10566000000E+00 0.  1.
        994    1    1    2    0    0  0.49821102604E+02 -0.45559456135E+02  0.38015485568E+02  0.18791600105E+03  0.17120000000E+03 0.  0.
        998    1    1    2    0    0 -0.46580765167E+01  0.48960872813E+01  0.13856961217E+04  0.13857486825E+04  0.10000000000E+02 0.  1.
</event>
<event>
 5    1  0.1582292E-008  0.3887765E+03  0.7957747E-01  0.3413812E+00
         13   -1    0    0    0    0  0.00000000000E+00  0.00000000000E+00  0.14999999963E+04  0.15000000000E+04  0.10566000000E+00 0.  1.
        994   -1    0    0    0    0 -0.00000000000E+00 -0.00000000000E+00  0.11368683772E-12  0.17120000000E+03  0.17120000000E+03 0.  0.
         13    1    1    2    0    0  0.10054148831E+03 -0.27239366445E+02  0.29837334742E+03  0.31603360513E+03  0.10566000000E+00 0.  1.
        994    1    1    2    0    0 -0.31110835216E+02 -0.98116984921E+01  0.25228901985E+02  0.17609682277E+03  0.17120000000E+03 0.  0.
        998    1    1    2    0    0 -0.69430653094E+02  0.37051064937E+02  0.11763977469E+04  0.11790695721E+04  0.10000000000E+02 0.  1.
</event>
<event>
 5    1  0.1582292E-008  0.3837590E+03  0.7957747E-01  0.3434952E+00
         13   -1    0    0    0    0  0.00000000000E+00  0.00000000000E+00  0.14999999963E+04  0.15000000000E+04  0.10566000000E+00 0.  1.
        994   -1    0    0    0    0 -0.00000000000E+00 -0.00000000000E+00  0.11368683772E-12  0.17120000000E+03  0.17120000000E+03 0.  0.
         13    1    1    2    0    0  0.12094110956E+02  0.12997307366E+02  0.65386821322E+02  0.67754299386E+02  0.10566000000E+00 0.  1.
        994    1    1    2    0    0 -0.18281829030E+02 -0.14438517273E+02  0.40415011794E+01  0.17282496864E+03  0.17120000000E+03 0.  0.
        998    1    1    2    0    0  0.61877180747E+01  0.14412099070E+01  0.14305716738E+04  0.14306207320E+04  0.10000000000E+02 0.  1.
</event>
<event>
 5    1  0.1582292E-008  0.3799560E+03  0.7957747E-01  0.3451350E+00
         13   -1    0    0    0    0  0.00000000000E+00  0.00000000000E+00  0.14999999963E+04  0.15000000000E+04  0.10566000000E+00 0.  1.
        994   -1    0    0    0    0 -0.00000000000E+00 -0.00000000000E+00  0.11368683772E-12  0.17120000000E+03  0.17120000000E+03 0.  0.
         13    1    1    2    0    0 -0.22605369277E+02 -0.20063519789E+01  0.59568165531E+02  0.63744848240E+02  0.10566000000E+00 0.  1.
        994    1    1    2    0    0  0.17201391483E+02  0.12614478227E+02  0.56781080239E+01  0.17261718872E+03  0.17120000000E+03 0.  0.
        998    1    1    2    0    0  0.54039777936E+01 -0.10608126248E+02  0.14347537227E+04  0.14348379630E+04  0.10000000000E+02 0.  1.
</event>
<event>
 5    1  0.1582292E-008  0.2522571E+03  0.7957747E-01  0.4309490E+00
         13   -1    0    0    0    0  0.00000000000E+00  0.00000000000E+00  0.14999999963E+04  0.15000000000E+04  0.10566000000E+00 0.  1.
        994   -1    0    0    0    0 -0.00000000000E+00 -0.00000000000E+00  0.11368683772E-12  0.17120000000E+03  0.17120000000E+03 0.  0.
         13    1    1    2    0    0  0.13519968406E+03  0.11867081771E+03  0.22702431591E+03  0.28965802030E+03  0.10566000000E+00 0.  1.
        994    1    1    2    0    0 -0.62926340522E+02 -0.19981133001E+03  0.30607819420E+03  0.40850653960E+03  0.17120000000E+03 0.  0.
        998    1    1    2    0    0 -0.72273343543E+02  0.81140512303E+02  0.96689748618E+03  0.97303544010E+03  0.10000000000E+02 0.  1.
</event>
<event>
 5    1  0.1582292E-008  0.3790215E+03  0.7957747E-01  0.3455430E+00
         13   -1    0    0    0    0  0.00000000000E+00  0.00000000000E+00  0.14999999963E+04  0.15000000000E+04  0.10566000000E+00 0.  1.
        994   -1    0    0    0    0 -0.00000000000E+00 -0.00000000000E+00  0.11368683772E-12  0.17120000000E+03  0.17120000000E+03 0.  0.
         13    1    1    2    0    0 -0.18324951592E+01  0.27625769387E+02  0.75884820358E+02  0.80777832958E+02  0.10566000000E+00 0.  1.
        994    1    1    2    0    0 -0.94778710473E-01 -0.32970824436E+02  0.82823298618E+01  0.17454260579E+03  0.17120000000E+03 0.  0.
        998    1    1    2    0    0  0.19272738697E+01  0.53450550492E+01  0.14158328461E+04  0.14158795613E+04  0.10000000000E+02 0.  1.
</event>
<event>
 5    1  0.1582292E-008  0.3714906E+03  0.7957747E-01  0.3489068E+00
         13   -1    0    0    0    0  0.00000000000E+00  0.00000000000E+00  0.14999999963E+04  0.15000000000E+04  0.10566000000E+00 0. -1.
        994   -1    0    0    0    0 -0.00000000000E+00 -0.00000000000E+00  0.11368683772E-12  0.17120000000E+03  0.17120000000E+03 0.  0.
         13    1    1    2    0    0 -0.24963167942E+02  0.11655034777E+02  0.40373532641E+02  0.48877734106E+02  0.10566000000E+00 0. -1.
        994    1    1    2    0    0  0.28352962285E+02 -0.30000727829E+01  0.11293451941E+02  0.17392490611E+03  0.17120000000E+03 0.  0.
        998    1    1    2    0    0 -0.33897943428E+01 -0.86549619937E+01  0.14483330117E+04  0.14483973598E+04  0.10000000000E+02 0. -1.
</event>
<event>
 5    1  0.1582292E-008  0.3841862E+03  0.7957747E-01  0.3433131E+00
         13   -1    0    0    0    0  0.00000000000E+00  0.00000000000E+00  0.14999999963E+04  0.15000000000E+04  0.10566000000E+00 0.  1.
        994   -1    0    0    0    0 -0.00000000000E+00 -0.00000000000E+00  0.11368683772E-12  0.17120000000E+03  0.17120000000E+03 0.  0.
         13    1    1    2    0    0 -0.80353961188E+01 -0.17720492546E+02  0.10121026929E+03  0.10306363675E+03  0.10566000000E+00 0.  1.
        994    1    1    2    0    0  0.27146344342E+01 -0.10547194599E+01  0.20626696715E+01  0.17123719304E+03  0.17120000000E+03 0.  0.
        998    1    1    2    0    0  0.53207616846E+01  0.18775212006E+02  0.13967270573E+04  0.13968991702E+04  0.10000000000E+02 0.  1.
</event>
<event>
 5    1  0.1582292E-008  0.3746577E+03  0.7957747E-01  0.3474755E+00
         13   -1    0    0    0    0  0.00000000000E+00  0.00000000000E+00  0.14999999963E+04  0.15000000000E+04  0.10566000000E+00 0.  1.
        994   -1    0    0    0    0 -0.00000000000E+00 -0.00000000000E+00  0.11368683772E-12  0.17120000000E+03  0.17120000000E+03 0.  0.
         13    1    1    2    0    0 -0.55240259778E+01 -0.70034353396E+02  0.15928313731E+03  0.17408749098E+03  0.10566000000E+00 0.  1.
        994    1    1    2    0    0  0.13330122158E+02  0.71836055929E+02  0.32646926997E+02  0.18897982149E+03  0.17120000000E+03 0.  0.
        998    1    1    2    0    0 -0.78060961803E+01 -0.18017025322E+01  0.13080699320E+04  0.13081326875E+04  0.10000000000E+02 0.  1.
</event>
<event>
 5    1  0.3451610E-008  0.3859242E+03  0.7957747E-01  0.3425762E+00
         13   -1    0    0    0    0  0.00000000000E+00  0.00000000000E+00  0.14999999963E+04  0.15000000000E+04  0.10566000000E+00 0.  1.
        994   -1    0    0    0    0 -0.00000000000E+00 -0.00000000000E+00  0.11368683772E-12  0.17120000000E+03  0.17120000000E+03 0.  0.
         13    1    1    2    0    0  0.61072754448E+01 -0.10714147391E+02  0.64006711999E+02  0.65184063333E+02  0.10566000000E+00 0.  1.
        994    1    1    2    0    0 -0.38429815775E+01  0.11058549776E+02  0.16215204743E+01  0.17160748631E+03  0.17120000000E+03 0.  0.
        998    1    1    2    0    0 -0.22642938674E+01 -0.34440238476E+00  0.14343717638E+04  0.14344084504E+04  0.10000000000E+02 0.  1.
</event>
<event>
 5    1  0.1582292E-008  0.3843131E+03  0.7957747E-01  0.3432591E+00
         13   -1    0    0    0    0  0.00000000000E+00  0.00000000000E+00  0.14999999963E+04  0.15000000000E+04  0.10566000000E+00 0.  1.
        994   -1    0    0    0    0 -0.00000000000E+00 -0.00000000000E+00  0.11368683772E-12  0.17120000000E+03  0.17120000000E+03 0.  0.
         13    1    1    2    0    0 -0.27603652833E+01 -0.13210447919E+02  0.47765006789E+02  0.49635094321E+02  0.10566000000E+00 0.  1.
        994    1    1    2    0    0 -0.72561031340E+01  0.23476837316E+01  0.21632798113E+01  0.17138343686E+03  0.17120000000E+03 0.  0.
        998    1    1    2    0    0  0.10016468417E+02  0.10862764187E+02  0.14500717097E+04  0.14501814688E+04  0.10000000000E+02 0.  1.
</event>
<event>
 5    1  0.1582292E-008  0.3813951E+03  0.7957747E-01  0.3445106E+00
         13   -1    0    0    0    0  0.00000000000E+00  0.00000000000E+00  0.14999999963E+04  0.15000000000E+04  0.10566000000E+00 0.  1.
        994   -1    0    0    0    0 -0.00000000000E+00 -0.00000000000E+00  0.11368683772E-12  0.17120000000E+03  0.17120000000E+03 0.  0.
         13    1    1    2    0    0  0.96985388882E+01  0.12662930529E+02  0.37126012463E+02  0.40407467523E+02  0.10566000000E+00 0.  1.
        994    1    1    2    0    0  0.80483425885E+01 -0.69569402345E+01  0.38072612431E+01  0.17157246304E+03  0.17120000000E+03 0.  0.
        998    1    1    2    0    0 -0.17746881477E+02 -0.57059902941E+01  0.14590667226E+04  0.14592200694E+04  0.10000000000E+02 0.  1.
</event>
<event>
 5    1  0.1582292E-008  0.3826705E+03  0.7957747E-01  0.3439612E+00
         13   -1    0    0    0    0  0.00000000000E+00  0.00000000000E+00  0.14999999963E+04  0.15000000000E+04  0.10566000000E+00 0.  1.
        994   -1    0    0    0    0 -0.00000000000E+00 -0.00000000000E+00  0.11368683772E-12  0.17120000000E+03  0.17120000000E+03 0.  0.
         13    1    1    2    0    0 -0.17903762309E+02 -0.16851904265E+02  0.11217252119E+03  0.11483560884E+03  0.10566000000E+00 0.  1.
        994    1    1    2    0    0  0.79691516954E+01  0.39224362524E+01  0.30526142970E+01  0.17145743302E+03  0.17120000000E+03 0.  0.
        998    1    1    2    0    0  0.99346106140E+01  0.12929468012E+02  0.13847748608E+04  0.13849069581E+04  0.10000000000E+02 0.  1.
</event>
<event>
 5    1  0.1582292E-008  0.3806932E+03  0.7957747E-01  0.3448146E+00
         13   -1    0    0    0    0  0.00000000000E+00  0.00000000000E+00  0.14999999963E+04  0.15000000000E+04  0.10566000000E+00 0.  1.
        994   -1    0    0    0    0 -0.00000000000E+00 -0.00000000000E+00  0.11368683772E-12  0.17120000000E+03  0.17120000000E+03 0.  0.
         13    1    1    2    0    0 -0.15031046912E+02 -0.40861293444E+01  0.30789631894E+02  0.34505672294E+02  0.10566000000E+00 0.  1.
        994    1    1    2    0    0  0.72250986177E+01  0.60825508068E+01  0.40811959955E+01  0.17150887917E+03  0.17120000000E+03 0.  0.
        998    1    1    2    0    0  0.78059482943E+01 -0.19964214624E+01  0.14651291684E+04  0.14651854485E+04  0.10000000000E+02 0.  1.
</event>
<event>
 5    1  0.1582292E-008  0.3813541E+03  0.7957747E-01  0.3445283E+00
         13   -1    0    0    0    0  0.00000000000E+00  0.00000000000E+00  0.14999999963E+04  0.15000000000E+04  0.10566000000E+00 0.  1.
        994   -1    0    0    0    0 -0.00000000000E+00 -0.00000000000E+00  0.11368683772E-12  0.17120000000E+03  0.17120000000E+03 0.  0.
         13    1    1    2    0    0  0.11863717707E+01 -0.36104318707E+02  0.19368235096E+03  0.19702231738E+03  0.10566000000E+00 0.  1.
        994    1    1    2    0    0 -0.96952647788E+01  0.16974587524E+02  0.47239239707E+01  0.17237717435E+03  0.17120000000E+03 0.  0.
        998    1    1    2    0    0  0.85088930081E+01  0.19129731183E+02  0.13015937213E+04  0.13018005083E+04  0.10000000000E+02 0.  1.
</event>
<event>
 5    1  0.1582292E-008  0.3849907E+03  0.7957747E-01  0.3429711E+00
         13   -1    0    0    0    0  0.00000000000E+00  0.00000000000E+00  0.14999999963E+04  0.15000000000E+04  0.10566000000E+00 0.  1.
        994   -1    0    0    0    0 -0.00000000000E+00 -0.00000000000E+00  0.11368683772E-12  0.17120000000E+03  0.17120000000E+03 0.  0.
         13    1    1    2    0    0  0.68311336589E+01 -0.10543008004E+02  0.45850051428E+02  0.47540065048E+02  0.10566000000E+00 0.  1.
        994    1    1    2    0    0 -0.13656954709E+02  0.12405899130E+02  0.27550877446E+01  0.17221338291E+03  0.17120000000E+03 0.  0.
        998    1    1    2    0    0  0.68258210500E+01 -0.18628911259E+01  0.14513948571E+04  0.14514465520E+04  0.10000000000E+02 0.  1.
</event>
<event>
 5    1  0.1582292E-008  0.3837635E+03  0.7957747E-01  0.3434933E+00
         13   -1    0    0    0    0  0.00000000000E+00  0.00000000000E+00  0.14999999963E+04  0.15000000000E+04  0.10566000000E+00 0.  1.
        994   -1    0    0    0    0 -0.00000000000E+00 -0.00000000000E+00  0.11368683772E-12  0.17120000000E+03  0.17120000000E+03 0.  0.
         13    1    1    2    0    0 -0.92595031274E+01  0.17926697867E+02  0.10009011965E+03  0.10210361458E+03  0.10566000000E+00 0.  1.
        994    1    1    2    0    0 -0.66109903160E+01 -0.70172232222E+00  0.23912357744E+01  0.17134571957E+03  0.17120000000E+03 0.  0.
        998    1    1    2    0    0  0.15870493443E+02 -0.17224975545E+02  0.13975186409E+04  0.13977506658E+04  0.10000000000E+02 0.  1.
</event>
<event>
 5    1  0.1582292E-008  0.3852411E+03  0.7957747E-01  0.3428650E+00
         13   -1    0    0    0    0  0.00000000000E+00  0.00000000000E+00  0.14999999963E+04  0.15000000000E+04  0.10566000000E+00 0. -1.
        994   -1    0    0    0    0 -0.00000000000E+00 -0.00000000000E+00  0.11368683772E-12  0.17120000000E+03  0.17120000000E+03 0.  0.
         13    1    1    2    0    0  0.16497729617E+02 -0.54955554624E+00  0.95739553280E+02  0.97152201828E+02  0.10566000000E+00 0. -1.
        994    1    1    2    0    0 -0.35875809678E+01 -0.83191602073E+00  0.15550452115E+01  0.17124666708E+03  0.17120000000E+03 0.  0.
        998    1    1    2    0    0 -0.12910148650E+02  0.13814715670E+01  0.14027053978E+04  0.14028011311E+04  0.10000000000E+02 0. -1.
</event>
<event>
 5    1  0.1582292E-008  0.3846703E+03  0.7957747E-01  0.3431072E+00
         13   -1    0    0    0    0  0.00000000000E+00  0.00000000000E+00  0.14999999963E+04  0.15000000000E+04  0.10566000000E+00 0. -1.
        994   -1    0    0    0    0 -0.00000000000E+00 -0.00000000000E+00  0.11368683772E-12  0.17120000000E+03  0.17120000000E+03 0.  0.
         13    1    1    2    0    0 -0.10237135525E+02  0.91662723002E+01  0.61253611052E+02  0.62776074444E+02  0.10566000000E+00 0. -1.
        994    1    1    2    0    0 -0.14646349156E+02  0.84677886309E+01  0.27367552418E+01  0.17205565616E+03  0.17120000000E+03 0.  0.
        998    1    1    2    0    0  0.24883484680E+02 -0.17634060931E+02  0.14360096300E+04  0.14363682694E+04  0.10000000000E+02 0. -1.
</event>
<event>
 5    1  0.1582292E-008  0.3825859E+03  0.7957747E-01  0.3439975E+00
         13   -1    0    0    0    0  0.00000000000E+00  0.00000000000E+00  0.14999999963E+04  0.15000000000E+04  0.10566000000E+00 0.  1.
        994   -1    0    0    0    0 -0.00000000000E+00 -0.00000000000E+00  0.11368683772E-12  0.17120000000E+03  0.17120000000E+03 0.  0.
         13    1    1    2    0    0  0.54962870773E+01 -0.13404206502E+02  0.35967638250E+02  0.38775818353E+02  0.10566000000E+00 0.  1.
        994    1    1    2    0    0 -0.68544693220E+01  0.85850867379E+01  0.32335689100E+01  0.17158258487E+03  0.17120000000E+03 0.  0.
        998    1    1    2    0    0  0.13581822448E+01  0.48191197646E+01  0.14607987891E+04  0.14608415968E+04  0.10000000000E+02 0.  1.
</event>
<event>
 5    1  0.1582292E-008  0.3744617E+03  0.7957747E-01  0.3475634E+00
         13   -1    0    0    0    0  0.00000000000E+00  0.00000000000E+00  0.14999999963E+04  0.15000000000E+04  0.10566000000E+00 0. -1.
        994   -1    0    0    0    0 -0.00000000000E+00 -0.00000000000E+00  0.11368683772E-12  0.17120000000E+03  0.17120000000E+03 0.  0.
         13    1    1    2    0    0 -0.23604999588E+02 -0.82361245043E+02  0.48338495211E+03  0.49091913161E+03  0.10566000000E+00 0. -1.
        994    1    1    2    0    0 -0.21581500153E+02  0.69707881112E+02  0.25311062361E+02  0.18781650544E+03  0.17120000000E+03 0.  0.
        998    1    1    2    0    0  0.45186499741E+02  0.12653363931E+02  0.99130398181E+03  0.99246436295E+03  0.10000000000E+02 0. -1.
</event>
<event>
 5    1  0.1582292E-008  0.3839105E+03  0.7957747E-01  0.3434306E+00
         13   -1    0    0    0    0  0.00000000000E+00  0.00000000000E+00  0.14999999963E+04  0.15000000000E+04  0.10566000000E+00 0.  1.
        994   -1    0    0    0    0 -0.00000000000E+00 -0.00000000000E+00  0.11368683772E-12  0.17120000000E+03  0.17120000000E+03 0.  0.
         13    1    1    2    0    0 -0.11491171106E+02  0.14229684952E+02  0.76616395311E+02  0.78769373120E+02  0.10566000000E+00 0.  1.
        994    1    1    2    0    0  0.72659453363E+01 -0.90583955643E+01  0.26171986474E+01  0.17161333929E+03  0.17120000000E+03 0.  0.
        998    1    1    2    0    0  0.42252257699E+01 -0.51712893873E+01  0.14207664023E+04  0.14208172876E+04  0.10000000000E+02 0.  1.
</event>
<event>
 5    1  0.1582292E-008  0.3841545E+03  0.7957747E-01  0.3433266E+00
         13   -1    0    0    0    0  0.00000000000E+00  0.00000000000E+00  0.14999999963E+04  0.15000000000E+04  0.10566000000E+00 0.  1.
        994   -1    0    0    0    0 -0.00000000000E+00 -0.00000000000E+00  0.11368683772E-12  0.17120000000E+03  0.17120000000E+03 0.  0.
         13    1    1    2    0    0  0.68047625869E+01  0.12312332201E+02  0.48005761840E+02  0.50024620459E+02  0.10566000000E+00 0.  1.
        994    1    1    2    0    0 -0.10833693999E+02 -0.39422765775E+01  0.24888973019E+01  0.17160578394E+03  0.17120000000E+03 0.  0.
        998    1    1    2    0    0  0.40289314116E+01 -0.83700556237E+01  0.14495053371E+04  0.14495695956E+04  0.10000000000E+02 0.  1.
</event>
<event>
 5    1  0.1582292E-008  0.3709158E+03  0.7957747E-01  0.3491693E+00
         13   -1    0    0    0    0  0.00000000000E+00  0.00000000000E+00  0.14999999963E+04  0.15000000000E+04  0.10566000000E+00 0. -1.
        994   -1    0    0    0    0 -0.00000000000E+00 -0.00000000000E+00  0.11368683772E-12  0.17120000000E+03  0.17120000000E+03 0.  0.
         13    1    1    2    0    0 -0.21383947446E+02  0.43082863963E+02  0.11406579879E+03  0.12379185754E+03  0.10566000000E+00 0. -1.
        994    1    1    2    0    0  0.22031559147E+02 -0.54987714188E+02  0.20984819106E+02  0.18237006592E+03  0.17120000000E+03 0.  0.
        998    1    1    2    0    0 -0.64761170061E+00  0.11904850225E+02  0.13649493784E+04  0.13650380765E+04  0.10000000000E+02 0. -1.
</event>
<event>
 5    1  0.1582292E-008  0.3841647E+03  0.7957747E-01  0.3433222E+00
         13   -1    0    0    0    0  0.00000000000E+00  0.00000000000E+00  0.14999999963E+04  0.15000000000E+04  0.10566000000E+00 0. -1.
        994   -1    0    0    0    0 -0.00000000000E+00 -0.00000000000E+00  0.11368683772E-12  0.17120000000E+03  0.17120000000E+03 0.  0.
         13    1    1    2    0    0 -0.89375571391E+01  0.13106876557E+02  0.53736838491E+02  0.56029716364E+02  0.10566000000E+00 0. -1.
        994    1    1    2    0    0  0.19629596099E+02 -0.29746968240E+02  0.62452680795E+01  0.17498184630E+03  0.17120000000E+03 0.  0.
        998    1    1    2    0    0 -0.10692038960E+02  0.16640091682E+02  0.14400178897E+04  0.14401884373E+04  0.10000000000E+02 0. -1.
</event>
<event>
 5    1  0.1582292E-008  0.3811855E+03  0.7957747E-01  0.3446013E+00
         13   -1    0    0    0    0  0.00000000000E+00  0.00000000000E+00  0.14999999963E+04  0.15000000000E+04  0.10566000000E+00 0. -1.
        994   -1    0    0    0    0 -0.00000000000E+00 -0.00000000000E+00  0.11368683772E-12  0.17120000000E+03  0.17120000000E+03 0.  0.
         13    1    1    2    0    0  0.12441970343E+02 -0.11373258783E+02  0.37780197831E+02  0.41370377730E+02  0.10566000000E+00 0. -1.
        994    1    1    2    0    0 -0.10460274542E+02  0.17161240818E+02  0.48821007649E+01  0.17244477504E+03  0.17120000000E+03 0.  0.
        998    1    1    2    0    0 -0.19816958002E+01 -0.57879820346E+01  0.14573376977E+04  0.14573848472E+04  0.10000000000E+02 0. -1.
</event>
<event>
 5    1  0.1582292E-008  0.3857840E+03  0.7957747E-01  0.3426354E+00
         13   -1    0    0    0    0  0.00000000000E+00  0.00000000000E+00  0.14999999963E+04  0.15000000000E+04  0.10566000000E+00 0. -1.
        994   -1    0    0    0    0 -0.00000000000E+00 -0.00000000000E+00  0.11368683772E-12  0.17120000000E+03  0.17120000000E+03 0.  0.
         13    1    1    2    0    0 -0.13681494848E+02  0.27784518222E+01  0.76786801883E+02  0.78045673828E+02  0.10566000000E+00 0. -1.
        994    1    1    2    0    0  0.13001511362E+02 -0.16712061516E+01  0.18052408957E+01  0.17171060282E+03  0.17120000000E+03 0.  0.
        998    1    1    2    0    0  0.67998348625E+00 -0.11072456706E+01  0.14214079535E+04  0.14214437233E+04  0.10000000000E+02 0. -1.
</event>
<event>
 5    1  0.1582292E-008  0.3801870E+03  0.7957747E-01  0.3450345E+00
         13   -1    0    0    0    0  0.00000000000E+00  0.00000000000E+00  0.14999999963E+04  0.15000000000E+04  0.10566000000E+00 0.  1.
        994   -1    0    0    0    0 -0.00000000000E+00 -0.00000000000E+00  0.11368683772E-12  0.17120000000E+03  0.17120000000E+03 0.  0.
         13    1    1    2    0    0 -0.21484698005E+01  0.14834522139E+02  0.26490759020E+02  0.30437648514E+02  0.10566000000E+00 0.  1.
        994    1    1    2    0    0 -0.10019106877E+02 -0.79774109079E+01  0.45869534266E+01  0.17173963354E+03  0.17120000000E+03 0.  0.
        998    1    1    2    0    0  0.12167576677E+02 -0.68571112311E+01  0.14689222838E+04  0.14690227179E+04  0.10000000000E+02 0.  1.
</event>
<event>
 5    1  0.1582292E-008  0.3844424E+03  0.7957747E-01  0.3432040E+00
         13   -1    0    0    0    0  0.00000000000E+00  0.00000000000E+00  0.14999999963E+04  0.15000000000E+04  0.10566000000E+00 0.  1.
        994   -1    0    0    0    0 -0.00000000000E+00 -0.00000000000E+00  0.11368683772E-12  0.17120000000E+03  0.17120000000E+03 0.  0.
         13    1    1    2    0    0  0.11615474994E+02 -0.96364599921E+01  0.67118092536E+02  0.68794114066E+02  0.10566000000E+00 0.  1.
        994    1    1    2    0    0  0.64506515428E+01 -0.77875180462E+01  0.22441876921E+01  0.17151306866E+03  0.17120000000E+03 0.  0.
        998    1    1    2    0    0 -0.18066126537E+02  0.17423978038E+02  0.14306377161E+04  0.14308928173E+04  0.10000000000E+02 0.  1.
</event>
<event>
 5    1  0.1582292E-008  0.3808202E+03  0.7957747E-01  0.3447595E+00
         13   -1    0    0    0    0  0.00000000000E+00  0.00000000000E+00  0.14999999963E+04  0.15000000000E+04  0.10566000000E+00 0. -1.
        994   -1    0    0    0    0 -0.00000000000E+00 -0.00000000000E+00  0.11368683772E-12  0.17120000000E+03  0.17120000000E+03 0.  0.
         13    1    1    2    0    0  0.11469122166E+03 -0.22403285279E+02  0.65948176441E+03  0.66975532269E+03  0.10566000000E+00 0. -1.
        994    1    1    2    0    0 -0.13963166667E+03  0.17484641690E+02  0.72833741120E+02  0.23327432108E+03  0.17120000000E+03 0.  0.
        998    1    1    2    0    0  0.24940445006E+02  0.49186435886E+01  0.76768449075E+03  0.76817035623E+03  0.10000000000E+02 0.  1.
</event>
<event>
 5    1  0.1582292E-008  0.3749312E+03  0.7957747E-01  0.3473531E+00
         13   -1    0    0    0    0  0.00000000000E+00  0.00000000000E+00  0.14999999963E+04  0.15000000000E+04  0.10566000000E+00 0.  1.
        994   -1    0    0    0    0 -0.00000000000E+00 -0.00000000000E+00  0.11368683772E-12  0.17120000000E+03  0.17120000000E+03 0.  0.
         13    1    1    2    0    0  0.34049715016E+01  0.11239764804E+02  0.72952821373E+01  0.13826006267E+02  0.10566000000E+00 0.  1.
        994    1    1    2    0    0  0.77662439562E+00 -0.39497216771E+01  0.67691875215E+01  0.17138105306E+03  0.17120000000E+03 0.  0.
        998    1    1    2    0    0 -0.41815958972E+01 -0.72900431274E+01  0.14859355266E+04  0.14859929407E+04  0.10000000000E+02 0.  1.
</event>
<event>
 5    1  0.1582292E-008  0.3852349E+03  0.7957747E-01  0.3428676E+00
         13   -1    0    0    0    0  0.00000000000E+00  0.00000000000E+00  0.14999999963E+04  0.15000000000E+04  0.10566000000E+00 0.  1.
        994   -1    0    0    0    0 -0.00000000000E+00 -0.00000000000E+00  0.11368683772E-12  0.17120000000E+03  0.17120000000E+03 0.  0.
         13    1    1    2    0    0  0.93166667010E+00  0.12361487146E+02  0.52372457078E+02  0.53819697060E+02  0.10566000000E+00 0.  1.
        994    1    1    2    0    0 -0.71436278819E+01 -0.28111286979E+01  0.17072354387E+01  0.17138053716E+03  0.17120000000E+03 0.  0.
        998    1    1    2    0    0  0.62119612118E+01 -0.95503584478E+01  0.14459203038E+04  0.14459997658E+04  0.10000000000E+02 0.  1.
</event>
<event>
 5    1  0.1582292E-008  0.3767363E+03  0.7957747E-01  0.3465494E+00
         13   -1    0    0    0    0  0.00000000000E+00  0.00000000000E+00  0.14999999963E+04  0.15000000000E+04  0.10566000000E+00 0. -1.
        994   -1    0    0    0    0 -0.00000000000E+00 -0.00000000000E+00  0.11368683772E-12  0.17120000000E+03  0.17120000000E+03 0.  0.
         13    1    1    2    0    0  0.23059080945E+02 -0.10120749137E+02  0.51312392086E+02  0.57158757183E+02  0.10566000000E+00 0. -1.
        994    1    1    2    0    0 -0.25349561121E+02  0.52921191309E+00  0.79654059705E+01  0.17325059309E+03  0.17120000000E+03 0.  0.
        998    1    1    2    0    0  0.22904801761E+01  0.95915372237E+01  0.14407221982E+04  0.14407906497E+04  0.10000000000E+02 0. -1.
</event>
<event>
 5    1  0.1582292E-008  0.3715382E+03  0.7957747E-01  0.3488851E+00
         13   -1    0    0    0    0  0.00000000000E+00  0.00000000000E+00  0.14999999963E+04  0.15000000000E+04  0.10566000000E+00 0.  1.
        994   -1    0    0    0    0 -0.00000000000E+00 -0.00000000000E+00  0.11368683772E-12  0.17120000000E+03  0.17120000000E+03 0.  0.
         13    1    1    2    0    0  0.10165297801E+02  0.54055801542E+02  0.18712833356E+03  0.19504457784E+03  0.10566000000E+00 0.  1.
        994    1    1    2    0    0  0.17933150459E+02 -0.24750973922E+02  0.11687154106E+02  0.17429927758E+03  0.17120000000E+03 0.  0.
        998    1    1    2    0    0 -0.28098448259E+02 -0.29304827620E+02  0.13011845086E+04  0.13018561446E+04  0.10000000000E+02 0.  1.
</event>
<event>
 5    1  0.1582292E-008  0.3797099E+03  0.7957747E-01  0.3452423E+00
         13   -1    0    0    0    0  0.00000000000E+00  0.00000000000E+00  0.14999999963E+04  0.15000000000E+04  0.10566000000E+00 0. -1.
        994   -1    0    0    0    0 -0.00000000000E+00 -0.00000000000E+00  0.11368683772E-12  0.17120000000E+03  0.17120000000E+03 0.  0.
         13    1    1    2    0    0 -0.10173542887E+03 -0.40121231285E+02  0.59988654518E+03  0.60977347347E+03  0.10566000000E+00 0. -1.
        994    1    1    2    0    0  0.13446960300E+03  0.19886290189E+02  0.68815188802E+02  0.22917789788E+03  0.17120000000E+03 0.  0.
        998    1    1    2    0    0 -0.32734174129E+02  0.20234941095E+02  0.83129826229E+03  0.83224862865E+03  0.10000000000E+02 0. -1.
</event>
<event>
 5    1  0.1582292E-008  0.3739467E+03  0.7957747E-01  0.3477947E+00
         13   -1    0    0    0    0  0.00000000000E+00  0.00000000000E+00  0.14999999963E+04  0.15000000000E+04  0.10566000000E+00 0.  1.
        994   -1    0    0    0    0 -0.00000000000E+00 -0.00000000000E+00  0.11368683772E-12  0.17120000000E+03  0.17120000000E+03 0.  0.
         13    1    1    2    0    0  0.31439697901E+02  0.10691862073E+03  0.64738007314E+03  0.65690259272E+03  0.10566000000E+00 0.  1.
        994    1    1    2    0    0 -0.47232202839E+02 -0.80387462674E+02  0.37481056371E+02  0.19851270671E+03  0.17120000000E+03 0.  0.
        998    1    1    2    0    0  0.15792504938E+02 -0.26531158052E+02  0.81513886677E+03  0.81578470057E+03  0.10000000000E+02 0.  1.
</event>
<event>
 5    1  0.1582292E-008  0.3700756E+03  0.7957747E-01  0.3495543E+00
         13   -1    0    0    0    0  0.00000000000E+00  0.00000000000E+00  0.14999999963E+04  0.15000000000E+04  0.10566000000E+00 0. -1.
        994   -1    0    0    0    0 -0.00000000000E+00 -0.00000000000E+00  0.11368683772E-12  0.17120000000E+03  0.17120000000E+03 0.  0.
         13    1    1    2    0    0 -0.13531821895E+02  0.37225941565E+01  0.63812676445E+01  0.15417511208E+02  0.10566000000E+00 0. -1.
        994    1    1    2    0    0  0.13347959349E+02 -0.11295703460E+02  0.10287163501E+02  0.17239787315E+03  0.17120000000E+03 0.  0.
        998    1    1    2    0    0  0.18386254632E+00  0.75731093032E+01  0.14833315651E+04  0.14833846156E+04  0.10000000000E+02 0. -1.
</event>
<event>
 5    1  0.1582292E-008  0.3687208E+03  0.7957747E-01  0.3501791E+00
         13   -1    0    0    0    0  0.00000000000E+00  0.00000000000E+00  0.14999999963E+04  0.15000000000E+04  0.10566000000E+00 0.  1.
        994   -1    0    0    0    0 -0.00000000000E+00 -0.00000000000E+00  0.11368683772E-12  0.17120000000E+03  0.17120000000E+03 0.  0.
         13    1    1    2    0    0  0.17801368131E+02  0.20659378477E+01  0.11571864534E+02  0.21332510855E+02  0.10566000000E+00 0.  1.
        994    1    1    2    0    0  0.33446627980E+01  0.11222998756E+02  0.10741436365E+02  0.17193592099E+03  0.17120000000E+03 0.  0.
        998    1    1    2    0    0 -0.21146030929E+02 -0.13288936604E+02  0.14776866954E+04  0.14779315682E+04  0.10000000000E+02 0.  1.
</event>
<event>
 5    1  0.1582292E-008  0.3793575E+03  0.7957747E-01  0.3453961E+00
         13   -1    0    0    0    0  0.00000000000E+00  0.00000000000E+00  0.14999999963E+04  0.15000000000E+04  0.10566000000E+00 0.  1.
        994   -1    0    0    0    0 -0.00000000000E+00 -0.00000000000E+00  0.11368683772E-12  0.17120000000E+03  0.17120000000E+03 0.  0.
         13    1    1    2    0    0  0.82198852446E+01 -0.34448631264E+02  0.12687544587E+03  0.13172571745E+03  0.10566000000E+00 0.  1.
        994    1    1    2    0    0 -0.60240589676E+01  0.37318615524E+02  0.92597993897E+01  0.17556808433E+03  0.17120000000E+03 0.  0.
        998    1    1    2    0    0 -0.21958262770E+01 -0.28699842593E+01  0.13638647510E+04  0.13639061982E+04  0.10000000000E+02 0.  1.
</event>
<event>
 5    1  0.1582292E-008  0.3824945E+03  0.7957747E-01  0.3440368E+00
         13   -1    0    0    0    0  0.00000000000E+00  0.00000000000E+00  0.14999999963E+04  0.15000000000E+04  0.10566000000E+00 0.  1.
        994   -1    0    0    0    0 -0.00000000000E+00 -0.00000000000E+00  0.11368683772E-12  0.17120000000E+03  0.17120000000E+03 0.  0.
         13    1    1    2    0    0  0.17849575013E+02  0.20020154500E+02  0.12311983338E+03  0.12600761267E+03  0.10566000000E+00 0.  1.
        994    1    1    2    0    0 -0.13877852335E+02 -0.10856571171E+02  0.39092365778E+01  0.17214872074E+03  0.17120000000E+03 0.  0.
        998    1    1    2    0    0 -0.39717226785E+01 -0.91635833294E+01  0.13729709263E+04  0.13730436666E+04  0.10000000000E+02 0.  1.
</event>
<event>
 5    1  0.1582292E-008  0.3792891E+03  0.7957747E-01  0.3454260E+00
         13   -1    0    0    0    0  0.00000000000E+00  0.00000000000E+00  0.14999999963E+04  0.15000000000E+04  0.10566000000E+00 0. -1.
        994   -1    0    0    0    0 -0.00000000000E+00 -0.00000000000E+00  0.11368683772E-12  0.17120000000E+03  0.17120000000E+03 0.  0.
         13    1    1    2    0    0 -0.15212949334E+02 -0.19625091153E+02  0.71412030294E+02  0.75606000191E+02  0.10566000000E+00 0. -1.
        994    1    1    2    0    0  0.30170690377E+01 -0.14591306053E+01  0.45300763272E+01  0.17129271251E+03  0.17120000000E+03 0.  0.
        998    1    1    2    0    0  0.12195880296E+02  0.21084221758E+02  0.14240578897E+04  0.14243012873E+04  0.10000000000E+02 0. -1.
</event>
<event>
 5    1  0.1582292E-008  0.3816187E+03  0.7957747E-01  0.3444141E+00
         13   -1    0    0    0    0  0.00000000000E+00  0.00000000000E+00  0.14999999963E+04  0.15000000000E+04  0.10566000000E+00 0. -1.
        994   -1    0    0    0    0 -0.00000000000E+00 -0.00000000000E+00  0.11368683772E-12  0.17120000000E+03  0.17120000000E+03 0.  0.
         13    1    1    2    0    0 -0.30249403378E+01 -0.11284273981E+02  0.18708110781E+02  0.22056510974E+02  0.10566000000E+00 0. -1.
        994    1    1    2    0    0  0.77500317679E+01  0.16450766880E+02  0.44186335321E+01  0.17221978703E+03  0.17120000000E+03 0.  0.
        998    1    1    2    0    0 -0.47250914301E+01 -0.51664928989E+01  0.14768732520E+04  0.14769237020E+04  0.10000000000E+02 0. -1.
</event>
<event>
 5    1  0.1582292E-008  0.3851710E+03  0.7957747E-01  0.3428947E+00
         13   -1    0    0    0    0  0.00000000000E+00  0.00000000000E+00  0.14999999963E+04  0.15000000000E+04  0.10566000000E+00 0. -1.
        994   -1    0    0    0    0 -0.00000000000E+00 -0.00000000000E+00  0.11368683772E-12  0.17120000000E+03  0.17120000000E+03 0.  0.
         13    1    1    2    0    0  0.99761591725E+01  0.11144442165E+02  0.74743328226E+02  0.76225314832E+02  0.10566000000E+00 0. -1.
        994    1    1    2    0    0 -0.76141677222E+01 -0.62225196023E+00  0.17371242200E+01  0.17137917128E+03  0.17120000000E+03 0.  0.
        998    1    1    2    0    0 -0.23619914503E+01 -0.10522190205E+02  0.14235195438E+04  0.14235955139E+04  0.10000000000E+02 0. -1.
</event>
<event>
 5    1  0.1582292E-008  0.3788397E+03  0.7957747E-01  0.3456226E+00
         13   -1    0    0    0    0  0.00000000000E+00  0.00000000000E+00  0.14999999963E+04  0.15000000000E+04  0.10566000000E+00 0.  1.
        994   -1    0    0    0    0 -0.00000000000E+00 -0.00000000000E+00  0.11368683772E-12  0.17120000000E+03  0.17120000000E+03 0.  0.
         13    1    1    2    0    0 -0.45218760197E+01  0.11064351079E+02  0.13033997159E+02  0.17685120116E+02  0.10566000000E+00 0.  1.
        994    1    1    2    0    0  0.60457516893E+01 -0.79053042057E+01  0.50524442939E+01  0.17156343474E+03  0.17120000000E+03 0.  0.
        998    1    1    2    0    0 -0.15238756696E+01 -0.31590468734E+01  0.14819135548E+04  0.14819514451E+04  0.10000000000E+02 0.  1.
</event>
<event>
 5    1  0.1582292E-008  0.3850049E+03  0.7957747E-01  0.3429651E+00
         13   -1    0    0    0    0  0.00000000000E+00  0.00000000000E+00  0.14999999963E+04  0.15000000000E+04  0.10566000000E+00 0. -1.
        994   -1    0    0    0    0 -0.00000000000E+00 -0.00000000000E+00  0.11368683772E-12  0.17120000000E+03  0.17120000000E+03 0.  0.
         13    1    1    2    0    0  0.12642272062E+02  0.67775918028E+01  0.64081238564E+02  0.65667184297E+02  0.10566000000E+00 0. -1.
        994    1    1    2    0    0 -0.69415143013E+01 -0.25427315339E+01  0.18074557406E+01  0.17136906664E+03  0.17120000000E+03 0.  0.
        998    1    1    2    0    0 -0.57007577604E+01 -0.42348602689E+01  0.14341113020E+04  0.14341637491E+04  0.10000000000E+02 0. -1.
</event>
<event>
 5    1  0.1582292E-008  0.3828797E+03  0.7957747E-01  0.3438715E+00
         13   -1    0    0    0    0  0.00000000000E+00  0.00000000000E+00  0.14999999963E+04  0.15000000000E+04  0.10566000000E+00 0.  1.
        994   -1    0    0    0    0 -0.00000000000E+00 -0.00000000000E+00  0.11368683772E-12  0.17120000000E+03  0.17120000000E+03 0.  0.
         13    1    1    2    0    0 -0.37501500612E+01 -0.98043198930E+01  0.19712477071E+02  0.22333410630E+02  0.10566000000E+00 0.  1.
        994    1    1    2    0    0  0.14346111872E+02 -0.14976430800E+01  0.33757539695E+01  0.17183972060E+03  0.17120000000E+03 0.  0.
        998    1    1    2    0    0 -0.10595961811E+02  0.11301962973E+02  0.14769117652E+04  0.14770268688E+04  0.10000000000E+02 0.  1.
</event>
<event>
 5    1  0.1582292E-008  0.3915351E+03  0.7957747E-01  0.3402420E+00
         13   -1    0    0    0    0  0.00000000000E+00  0.00000000000E+00  0.14999999963E+04  0.15000000000E+04  0.10566000000E+00 0. -1.
        994   -1    0    0    0    0 -0.00000000000E+00 -0.00000000000E+00  0.11368683772E-12  0.17120000000E+03  0.17120000000E+03 0.  0.
         13    1    1    2    0    0 -0.46061790645E+02 -0.22720182336E+02  0.54445716309E+02  0.74848129110E+02  0.10566000000E+00 0. -1.
        994    1    1    2    0    0  0.67089087485E+01 -0.99417953875E+01  0.23358717066E+02  0.17320195846E+03  0.17120000000E+03 0.  0.
        998    1    1    2    0    0  0.39352881897E+02  0.32661977723E+02  0.14221955629E+04  0.14231499124E+04  0.10000000000E+02 0. -1.
</event>
<event>
 5    1  0.1582292E-008  0.3756814E+03  0.7957747E-01  0.3470181E+00
         13   -1    0    0    0    0  0.00000000000E+00  0.00000000000E+00  0.14999999963E+04  0.15000000000E+04  0.10566000000E+00 0. -1.
        994   -1    0    0    0    0 -0.00000000000E+00 -0.00000000000E+00  0.11368683772E-12  0.17120000000E+03  0.17120000000E+03 0.  0.
         13    1    1    2    0    0 -0.10760169476E+02 -0.15330029929E+02  0.24821150548E+02  0.31094882913E+02  0.10566000000E+00 0. -1.
        994    1    1    2    0    0  0.12661195047E+02  0.11504544669E+02  0.73223619072E+01  0.17220835459E+03  0.17120000000E+03 0.  0.
        998    1    1    2    0    0 -0.19010255706E+01  0.38254852600E+01  0.14678564838E+04  0.14678967625E+04  0.10000000000E+02 0. -1.
</event>
<event>
 5    1  0.1582292E-008  0.3797868E+03  0.7957747E-01  0.3452087E+00
         13   -1    0    0    0    0  0.00000000000E+00  0.00000000000E+00  0.14999999963E+04  0.15000000000E+04  0.10566000000E+00 0.  1.
        994   -1    0    0    0    0 -0.00000000000E+00 -0.00000000000E+00  0.11368683772E-12  0.17120000000E+03  0.17120000000E+03 0.  0.
         13    1    1    2    0    0  0.12549896015E+02  0.13386910836E+02  0.41843397418E+02  0.45690155868E+02  0.10566000000E+00 0.  1.
        994    1    1    2    0    0  0.81044056760E+01  0.13141012818E+02  0.50386230051E+01  0.17196858821E+03  0.17120000000E+03 0.  0.
        998    1    1    2    0    0 -0.20654301691E+02 -0.26527923655E+02  0.14531179759E+04  0.14535412559E+04  0.10000000000E+02 0.  1.
</event>
<event>
 5    1  0.1582292E-008  0.3855302E+03  0.7957747E-01  0.3427427E+00
         13   -1    0    0    0    0  0.00000000000E+00  0.00000000000E+00  0.14999999963E+04  0.15000000000E+04  0.10566000000E+00 0.  1.
        994   -1    0    0    0    0 -0.00000000000E+00 -0.00000000000E+00  0.11368683772E-12  0.17120000000E+03  0.17120000000E+03 0.  0.
         13    1    1    2    0    0  0.14235432795E+02  0.49548733141E+01  0.89765339024E+02  0.91022115833E+02  0.10566000000E+00 0.  1.
        994    1    1    2    0    0  0.24739610711E+00 -0.39910754040E+01  0.14196092317E+01  0.17125257714E+03  0.17120000000E+03 0.  0.
        998    1    1    2    0    0 -0.14482828903E+02 -0.96379791008E+00  0.14088150480E+04  0.14089253070E+04  0.10000000000E+02 0.  1.
</event>
<event>
 5    1  0.1582292E-008  0.3839124E+03  0.7957747E-01  0.3434298E+00
         13   -1    0    0    0    0  0.00000000000E+00  0.00000000000E+00  0.14999999963E+04  0.15000000000E+04  0.10566000000E+00 0. -1.
        994   -1    0    0    0    0 -0.00000000000E+00 -0.00000000000E+00  0.11368683772E-12  0.17120000000E+03  0.17120000000E+03 0.  0.
         13    1    1    2    0    0 -0.16861112028E+01 -0.15192449105E+02  0.53284397615E+02  0.55433669137E+02  0.10566000000E+00 0. -1.
        994    1    1    2    0    0 -0.85500749826E+01  0.11318934986E+02  0.28354493955E+01  0.17181007492E+03  0.17120000000E+03 0.  0.
        998    1    1    2    0    0  0.10236186185E+02  0.38735141190E+01  0.14438801493E+04  0.14439562559E+04  0.10000000000E+02 0. -1.
</event>
<event>
 5    1  0.1582292E-008  0.3848756E+03  0.7957747E-01  0.3430200E+00
         13   -1    0    0    0    0  0.00000000000E+00  0.00000000000E+00  0.14999999963E+04  0.15000000000E+04  0.10566000000E+00 0.  1.
        994   -1    0    0    0    0 -0.00000000000E+00 -0.00000000000E+00  0.11368683772E-12  0.17120000000E+03  0.17120000000E+03 0.  0.
         13    1    1    2    0    0  0.10600770896E+02  0.90593829520E+01  0.59221848704E+02  0.60841493169E+02  0.10566000000E+00 0.  1.
        994    1    1    2    0    0 -0.64594386562E+00 -0.53952387615E+01  0.17890369895E+01  0.17129555306E+03  0.17120000000E+03 0.  0.
        998    1    1    2    0    0 -0.99548270307E+01 -0.36641441905E+01  0.14389891106E+04  0.14390629538E+04  0.10000000000E+02 0.  1.
</event>
<event>
 5    1  0.1582292E-008  0.3744259E+03  0.7957747E-01  0.3475795E+00
         13   -1    0    0    0    0  0.00000000000E+00  0.00000000000E+00  0.14999999963E+04  0.15000000000E+04  0.10566000000E+00 0.  1.
        994   -1    0    0    0    0 -0.00000000000E+00 -0.00000000000E+00  0.11368683772E-12  0.17120000000E+03  0.17120000000E+03 0.  0.
         13    1    1    2    0    0 -0.12474072740E+02 -0.12454556065E+02  0.19169875158E+02  0.26042537033E+02  0.10566000000E+00 0.  1.
        994    1    1    2    0    0  0.82143245947E+01  0.12819619784E+02  0.77637677204E+01  0.17205096300E+03  0.17120000000E+03 0.  0.
        998    1    1    2    0    0  0.42597481455E+01 -0.36506371902E+00  0.14730663534E+04  0.14731065000E+04  0.10000000000E+02 0.  1.
</event>
<event>
 5    1  0.1582292E-008  0.3700980E+03  0.7957747E-01  0.3495441E+00
         13   -1    0    0    0    0  0.00000000000E+00  0.00000000000E+00  0.14999999963E+04  0.15000000000E+04  0.10566000000E+00 0. -1.
        994   -1    0    0    0    0 -0.00000000000E+00 -0.00000000000E+00  0.11368683772E-12  0.17120000000E+03  0.17120000000E+03 0.  0.
         13    1    1    2    0    0 -0.13732675430E+03  0.38496722940E+02  0.81488687415E+03  0.82727339129E+03  0.10566000000E+00 0. -1.
        994    1    1    2    0    0  0.98138831505E+02 -0.12682144309E+03  0.10720288073E+03  0.25790852315E+03  0.17120000000E+03 0.  0.
        998    1    1    2    0    0  0.39187922792E+02  0.88324720153E+02  0.57791024140E+03  0.58601808555E+03  0.10000000000E+02 0.  1.
</event>
<event>
 5    1  0.1582292E-008  0.3694149E+03  0.7957747E-01  0.3498584E+00
         13   -1    0    0    0    0  0.00000000000E+00  0.00000000000E+00  0.14999999963E+04  0.15000000000E+04  0.10566000000E+00 0. -1.
        994   -1    0    0    0    0 -0.00000000000E+00 -0.00000000000E+00  0.11368683772E-12  0.17120000000E+03  0.17120000000E+03 0.  0.
         13    1    1    2    0    0  0.46520800348E+02  0.32497027393E+02  0.13907265740E+03  0.15020471648E+03  0.10566000000E+00 0. -1.
        994    1    1    2    0    0 -0.32615678437E+02 -0.40185088755E+02  0.20034110664E+02  0.17997063491E+03  0.17120000000E+03 0.  0.
        998    1    1    2    0    0 -0.13905121911E+02  0.76880613615E+01  0.13408932282E+04  0.13410246486E+04  0.10000000000E+02 0. -1.
</event>
<event>
 5    1  0.1582292E-008  0.3855809E+03  0.7957747E-01  0.3427212E+00
         13   -1    0    0    0    0  0.00000000000E+00  0.00000000000E+00  0.14999999963E+04  0.15000000000E+04  0.10566000000E+00 0. -1.
        994   -1    0    0    0    0 -0.00000000000E+00 -0.00000000000E+00  0.11368683772E-12  0.17120000000E+03  0.17120000000E+03 0.  0.
         13    1    1    2    0    0  0.12286261122E+02  0.49415948660E+01  0.74189683101E+02  0.75362403191E+02  0.10566000000E+00 0. -1.
        994    1    1    2    0    0  0.39635250559E+01  0.91416718005E+01  0.16679714446E+01  0.17149781871E+03  0.17120000000E+03 0.  0.
        998    1    1    2    0    0 -0.16249786178E+02 -0.14083266666E+02  0.14241423417E+04  0.14243397781E+04  0.10000000000E+02 0. -1.
</event>
<event>
 5    1  0.1582292E-008  0.3798417E+03  0.7957747E-01  0.3451848E+00
         13   -1    0    0    0    0  0.00000000000E+00  0.00000000000E+00  0.14999999963E+04  0.15000000000E+04  0.10566000000E+00 0.  1.
        994   -1    0    0    0    0 -0.00000000000E+00 -0.00000000000E+00  0.11368683772E-12  0.17120000000E+03  0.17120000000E+03 0.  0.
         13    1    1    2    0    0  0.65977322490E+02  0.45368030889E+02  0.16691696132E+03  0.18512846472E+03  0.10566000000E+00 0.  1.
        994    1    1    2    0    0 -0.69775805621E+02 -0.50172956850E+02  0.43502933864E+02  0.19643811724E+03  0.17120000000E+03 0.  0.
        998    1    1    2    0    0  0.37984831311E+01  0.48049259603E+01  0.12895801011E+04  0.12896334180E+04  0.10000000000E+02 0.  1.
</event>
<event>
 5    1  0.1582292E-008  0.3730587E+03  0.7957747E-01  0.3481951E+00
         13   -1    0    0    0    0  0.00000000000E+00  0.00000000000E+00  0.14999999963E+04  0.15000000000E+04  0.10566000000E+00 0. -1.
        994   -1    0    0    0    0 -0.00000000000E+00 -0.00000000000E+00  0.11368683772E-12  0.17120000000E+03  0.17120000000E+03 0.  0.
         13    1    1    2    0    0 -0.69213923443E+01  0.25116809471E+02  0.41952922945E+02  0.49384397310E+02  0.10566000000E+00 0. -1.
        994    1    1    2    0    0  0.60407058673E+00 -0.10942462747E+02  0.80900527266E+01  0.17174105900E+03  0.17120000000E+03 0.  0.
        998    1    1    2    0    0  0.63173217576E+01 -0.14174346725E+02  0.14499570206E+04  0.14500745437E+04  0.10000000000E+02 0. -1.
</event>
<event>
 5    1  0.1582292E-008  0.3837846E+03  0.7957747E-01  0.3434843E+00
         13   -1    0    0    0    0  0.00000000000E+00  0.00000000000E+00  0.14999999963E+04  0.15000000000E+04  0.10566000000E+00 0. -1.
        994   -1    0    0    0    0 -0.00000000000E+00 -0.00000000000E+00  0.11368683772E-12  0.17120000000E+03  0.17120000000E+03 0.  0.
         13    1    1    2    0    0 -0.10627208275E+02 -0.10323597714E+02  0.48869729006E+02  0.51066386231E+02  0.10566000000E+00 0. -1.
        994    1    1    2    0    0  0.92571254236E+01  0.27347683238E+01  0.25424448993E+01  0.17149075006E+03  0.17120000000E+03 0.  0.
        998    1    1    2    0    0  0.13700828514E+01  0.75888293898E+01  0.14485878224E+04  0.14486428637E+04  0.10000000000E+02 0. -1.
</event>
<event>
 5    1  0.1582292E-008  0.3809620E+03  0.7957747E-01  0.3446980E+00
         13   -1    0    0    0    0  0.00000000000E+00  0.00000000000E+00  0.14999999963E+04  0.15000000000E+04  0.10566000000E+00 0. -1.
        994   -1    0    0    0    0 -0.00000000000E+00 -0.00000000000E+00  0.11368683772E-12  0.17120000000E+03  0.17120000000E+03 0.  0.
         13    1    1    2    0    0  0.16600117957E+02 -0.80016938668E+01  0.44395431246E+02  0.48068248361E+02  0.10566000000E+00 0. -1.
        994    1    1    2    0    0 -0.16213172126E+02  0.54841063091E+01  0.46250909209E+01  0.17211558279E+03  0.17120000000E+03 0.  0.
        998    1    1    2    0    0 -0.38694583095E+00  0.25175875578E+01  0.14509794741E+04  0.14510161689E+04  0.10000000000E+02 0. -1.
</event>
<event>
 5    1  0.1582292E-008  0.3795682E+03  0.7957747E-01  0.3453041E+00
         13   -1    0    0    0    0  0.00000000000E+00  0.00000000000E+00  0.14999999963E+04  0.15000000000E+04  0.10566000000E+00 0.  1.
        994   -1    0    0    0    0 -0.00000000000E+00 -0.00000000000E+00  0.11368683772E-12  0.17120000000E+03  0.17120000000E+03 0.  0.
         13    1    1    2    0    0  0.36259327123E+01 -0.11663817438E+02  0.15684622065E+02  0.19879903385E+02  0.10566000000E+00 0.  1.
        994    1    1    2    0    0  0.40486401045E+01 -0.84720631292E+00  0.44085399942E+01  0.17130669710E+03  0.17120000000E+03 0.  0.
        998    1    1    2    0    0 -0.76745728167E+01  0.12511023751E+02  0.14799068342E+04  0.14800133995E+04  0.10000000000E+02 0.  1.
</event>
<event>
 5    1  0.1582292E-008  0.3750126E+03  0.7957747E-01  0.3473166E+00
         13   -1    0    0    0    0  0.00000000000E+00  0.00000000000E+00  0.14999999963E+04  0.15000000000E+04  0.10566000000E+00 0.  1.
        994   -1    0    0    0    0 -0.00000000000E+00 -0.00000000000E+00  0.11368683772E-12  0.17120000000E+03  0.17120000000E+03 0.  0.
         13    1    1    2    0    0 -0.46240869229E+02  0.62001542767E+00  0.71889117235E+02  0.85478995941E+02  0.10566000000E+00 0.  1.
        994    1    1    2    0    0  0.39436023089E+02  0.22899513931E+01  0.19187696815E+02  0.17674289661E+03  0.17120000000E+03 0.  0.
        998    1    1    2    0    0  0.68048461400E+01 -0.29099668208E+01  0.14089231822E+04  0.14089781074E+04  0.10000000000E+02 0.  1.
</event>
<event>
 5    1  0.1582292E-008  0.3820390E+03  0.7957747E-01  0.3442328E+00
         13   -1    0    0    0    0  0.00000000000E+00  0.00000000000E+00  0.14999999963E+04  0.15000000000E+04  0.10566000000E+00 0.  1.
        994   -1    0    0    0    0 -0.00000000000E+00 -0.00000000000E+00  0.11368683772E-12  0.17120000000E+03  0.17120000000E+03 0.  0.
         13    1    1    2    0    0 -0.15625288416E+02  0.31346450486E+02  0.19876684932E+03  0.20182918805E+03  0.10566000000E+00 0.  1.
        994    1    1    2    0    0  0.18161170478E+02 -0.12309511492E+02  0.47074019223E+01  0.17266427488E+03  0.17120000000E+03 0.  0.
        998    1    1    2    0    0 -0.25358820624E+01 -0.19036938994E+02  0.12965257450E+04  0.12967065371E+04  0.10000000000E+02 0.  1.
</event>
<event>
 5    1  0.1582292E-008  0.3847057E+03  0.7957747E-01  0.3430922E+00
         13   -1    0    0    0    0  0.00000000000E+00  0.00000000000E+00  0.14999999963E+04  0.15000000000E+04  0.10566000000E+00 0. -1.
        994   -1    0    0    0    0 -0.00000000000E+00 -0.00000000000E+00  0.11368683772E-12  0.17120000000E+03  0.17120000000E+03 0.  0.
         13    1    1    2    0    0 -0.17259572530E+02 -0.13097611028E+01  0.87582340949E+02  0.89276457861E+02  0.10566000000E+00 0. -1.
        994    1    1    2    0    0  0.61716415526E+01 -0.60292076797E+01  0.20214276932E+01  0.17142918851E+03  0.17120000000E+03 0.  0.
        998    1    1    2    0    0  0.11087930978E+02  0.73389687825E+01  0.14103962276E+04  0.14104943536E+04  0.10000000000E+02 0. -1.
</event>
<event>
 5    1  0.1582292E-008  0.3816658E+03  0.7957747E-01  0.3443937E+00
         13   -1    0    0    0    0  0.00000000000E+00  0.00000000000E+00  0.14999999963E+04  0.15000000000E+04  0.10566000000E+00 0. -1.
        994   -1    0    0    0    0 -0.00000000000E+00 -0.00000000000E+00  0.11368683772E-12  0.17120000000E+03  0.17120000000E+03 0.  0.
         13    1    1    2    0    0 -0.14463880215E+02 -0.16158794577E+01  0.30534855917E+02  0.33826077029E+02  0.10566000000E+00 0. -1.
        994    1    1    2    0    0  0.13471855377E+02  0.16218702497E+01  0.39070014013E+01  0.17178133196E+03  0.17120000000E+03 0.  0.
        998    1    1    2    0    0  0.99202483761E+00 -0.59907919880E-02  0.14655581390E+04  0.14655925910E+04  0.10000000000E+02 0.  0.
</event>
<event>
 5    1  0.1582292E-008  0.3856354E+03  0.7957747E-01  0.3426982E+00
         13   -1    0    0    0    0  0.00000000000E+00  0.00000000000E+00  0.14999999963E+04  0.15000000000E+04  0.10566000000E+00 0. -1.
        994   -1    0    0    0    0 -0.00000000000E+00 -0.00000000000E+00  0.11368683772E-12  0.17120000000E+03  0.17120000000E+03 0.  0.
         13    1    1    2    0    0 -0.12633491210E+02 -0.38231096410E+01  0.69749604613E+02  0.70987602969E+02  0.10566000000E+00 0. -1.
        994    1    1    2    0    0  0.30880773289E+01 -0.11778619450E+01  0.13508472250E+01  0.17123722834E+03  0.17120000000E+03 0.  0.
        998    1    1    2    0    0  0.95454138815E+01  0.50009715860E+01  0.14288995444E+04  0.14289751687E+04  0.10000000000E+02 0. -1.
</event>
<event>
 5    1  0.1582292E-008  0.3731151E+03  0.7957747E-01  0.3481696E+00
         13   -1    0    0    0    0  0.00000000000E+00  0.00000000000E+00  0.14999999963E+04  0.15000000000E+04  0.10566000000E+00 0.  1.
        994   -1    0    0    0    0 -0.00000000000E+00 -0.00000000000E+00  0.11368683772E-12  0.17120000000E+03  0.17120000000E+03 0.  0.
         13    1    1    2    0    0  0.15916842820E+02 -0.14493179595E+02  0.27470775500E+02  0.34900613329E+02  0.10566000000E+00 0.  1.
        994    1    1    2    0    0 -0.71251810136E+01  0.65522114438E+01  0.79704678771E+01  0.17165857985E+03  0.17120000000E+03 0.  0.
        998    1    1    2    0    0 -0.87916618068E+01  0.79409681517E+01  0.14645587529E+04  0.14646408068E+04  0.10000000000E+02 0.  1.
</event>
<event>
 5    1  0.1582292E-008  0.3742030E+03  0.7957747E-01  0.3476795E+00
         13   -1    0    0    0    0  0.00000000000E+00  0.00000000000E+00  0.14999999963E+04  0.15000000000E+04  0.10566000000E+00 0.  1.
        994   -1    0    0    0    0 -0.00000000000E+00 -0.00000000000E+00  0.11368683772E-12  0.17120000000E+03  0.17120000000E+03 0.  0.
         13    1    1    2    0    0  0.20589447018E+02  0.49239376728E+02  0.11209472602E+03  0.12415184378E+03  0.10566000000E+00 0.  1.
        994    1    1    2    0    0  0.39738046632E+02 -0.29495342194E+02  0.21919985382E+02  0.17955225791E+03  0.17120000000E+03 0.  0.
        998    1    1    2    0    0 -0.60327493650E+02 -0.19744034534E+02  0.13659852849E+04  0.13674958983E+04  0.10000000000E+02 0.  1.
</event>
<event>
 5    1  0.1582292E-008  0.3813292E+03  0.7957747E-01  0.3445391E+00
         13   -1    0    0    0    0  0.00000000000E+00  0.00000000000E+00  0.14999999963E+04  0.15000000000E+04  0.10566000000E+00 0.  1.
        994   -1    0    0    0    0 -0.00000000000E+00 -0.00000000000E+00  0.11368683772E-12  0.17120000000E+03  0.17120000000E+03 0.  0.
         13    1    1    2    0    0  0.39307467532E+02 -0.12198288977E+02  0.20990765328E+03  0.21390443971E+03  0.10566000000E+00 0.  1.
        994    1    1    2    0    0 -0.39944424938E+02  0.13440924221E+02  0.93981332426E+01  0.17656154858E+03  0.17120000000E+03 0.  0.
        998    1    1    2    0    0  0.63695740654E+00 -0.12426352440E+01  0.12806942098E+04  0.12807340117E+04  0.10000000000E+02 0.  1.
</event>
<event>
 5    1  0.1582292E-008  0.3708804E+03  0.7957747E-01  0.3491854E+00
         13   -1    0    0    0    0  0.00000000000E+00  0.00000000000E+00  0.14999999963E+04  0.15000000000E+04  0.10566000000E+00 0.  1.
        994   -1    0    0    0    0 -0.00000000000E+00 -0.00000000000E+00  0.11368683772E-12  0.17120000000E+03  0.17120000000E+03 0.  0.
         13    1    1    2    0    0 -0.28293789880E+02 -0.25754092287E+02  0.75861937785E+02  0.84963854573E+02  0.10566000000E+00 0.  1.
        994    1    1    2    0    0  0.24593762765E+02  0.31761812797E+02  0.14392720097E+02  0.17643768393E+03  0.17120000000E+03 0.  0.
        998    1    1    2    0    0  0.37000271149E+01 -0.60077205100E+01  0.14097453384E+04  0.14097984615E+04  0.10000000000E+02 0.  1.
</event>
<event>
 5    1  0.1582292E-008  0.3820350E+03  0.7957747E-01  0.3442345E+00
         13   -1    0    0    0    0  0.00000000000E+00  0.00000000000E+00  0.14999999963E+04  0.15000000000E+04  0.10566000000E+00 0.  1.
        994   -1    0    0    0    0 -0.00000000000E+00 -0.00000000000E+00  0.11368683772E-12  0.17120000000E+03  0.17120000000E+03 0.  0.
         13    1    1    2    0    0  0.37165432342E+01  0.15397817998E+02  0.38474096899E+02  0.41607364600E+02  0.10566000000E+00 0.  1.
        994    1    1    2    0    0 -0.97980659117E+00 -0.16157243111E+02  0.39799167728E+01  0.17200958189E+03  0.17120000000E+03 0.  0.
        998    1    1    2    0    0 -0.27367366430E+01  0.75942511293E+00  0.14575459826E+04  0.14575830535E+04  0.10000000000E+02 0.  1.
</event>
<event>
 5    1  0.1582292E-008  0.3720874E+03  0.7957747E-01  0.3486352E+00
         13   -1    0    0    0    0  0.00000000000E+00  0.00000000000E+00  0.14999999963E+04  0.15000000000E+04  0.10566000000E+00 0. -1.
        994   -1    0    0    0    0 -0.00000000000E+00 -0.00000000000E+00  0.11368683772E-12  0.17120000000E+03  0.17120000000E+03 0.  0.
         13    1    1    2    0    0  0.17243659804E+02 -0.41441822099E+00  0.68281547721E+01  0.18551291263E+02  0.10566000000E+00 0. -1.
        994    1    1    2    0    0 -0.19349967795E+02 -0.10778493144E+01  0.13370619898E+02  0.17281144780E+03  0.17120000000E+03 0.  0.
        998    1    1    2    0    0  0.21063079916E+01  0.14922675354E+01  0.14798012216E+04  0.14798372609E+04  0.10000000000E+02 0. -1.
</event>
<event>
 5    1  0.1582292E-008  0.3851421E+03  0.7957747E-01  0.3429070E+00
         13   -1    0    0    0    0  0.00000000000E+00  0.00000000000E+00  0.14999999963E+04  0.15000000000E+04  0.10566000000E+00 0.  1.
        994   -1    0    0    0    0 -0.00000000000E+00 -0.00000000000E+00  0.11368683772E-12  0.17120000000E+03  0.17120000000E+03 0.  0.
         13    1    1    2    0    0  0.76193694676E+01 -0.83327234355E+01  0.40433150445E+02  0.41980232132E+02  0.10566000000E+00 0.  1.
        994    1    1    2    0    0 -0.11958088364E+02  0.19254565695E+01  0.20419906250E+01  0.17164006813E+03  0.17120000000E+03 0.  0.
        998    1    1    2    0    0  0.43387188966E+01  0.64072668660E+01  0.14575248552E+04  0.14575796997E+04  0.10000000000E+02 0.  1.
</event>
<event>
 5    1  0.1582292E-008  0.4207453E+03  0.7957747E-01  0.3290914E+00
         13   -1    0    0    0    0  0.00000000000E+00  0.00000000000E+00  0.14999999963E+04  0.15000000000E+04  0.10566000000E+00 0. -1.
        994   -1    0    0    0    0 -0.00000000000E+00 -0.00000000000E+00  0.11368683772E-12  0.17120000000E+03  0.17120000000E+03 0.  0.
         13    1    1    2    0    0 -0.72946153087E+01  0.45458310874E+02  0.62604308785E+01  0.46463680428E+02  0.10566000000E+00 0. -1.
        994    1    1    2    0    0 -0.53768389208E+02 -0.11193199095E+03  0.11068941765E+03  0.23870776581E+03  0.17120000000E+03 0.  0.
        998    1    1    2    0    0  0.61063004517E+02  0.66473680077E+02  0.13830501478E+04  0.13860285538E+04  0.10000000000E+02 0. -1.
</event>
<event>
 5    1  0.1582292E-008  0.3828655E+03  0.7957747E-01  0.3438775E+00
         13   -1    0    0    0    0  0.00000000000E+00  0.00000000000E+00  0.14999999963E+04  0.15000000000E+04  0.10566000000E+00 0. -1.
        994   -1    0    0    0    0 -0.00000000000E+00 -0.00000000000E+00  0.11368683772E-12  0.17120000000E+03  0.17120000000E+03 0.  0.
         13    1    1    2    0    0 -0.13543053165E+02 -0.10567412316E+02  0.58049942032E+02  0.60538346741E+02  0.10566000000E+00 0. -1.
        994    1    1    2    0    0 -0.99214904843E+01  0.65110183098E+01  0.31600885586E+01  0.17163990064E+03  0.17120000000E+03 0.  0.
        998    1    1    2    0    0  0.23464543649E+02  0.40563940067E+01  0.14387899657E+04  0.14390217526E+04  0.10000000000E+02 0. -1.
</event>
<event>
 5    1  0.1582292E-008  0.3862961E+03  0.7957747E-01  0.3424194E+00
         13   -1    0    0    0    0  0.00000000000E+00  0.00000000000E+00  0.14999999963E+04  0.15000000000E+04  0.10566000000E+00 0.  1.
        994   -1    0    0    0    0 -0.00000000000E+00 -0.00000000000E+00  0.11368683772E-12  0.17120000000E+03  0.17120000000E+03 0.  0.
         13    1    1    2    0    0 -0.20285018229E+02 -0.13299290698E+03  0.44161678380E+03  0.46165353911E+03  0.10566000000E+00 0.  1.
        994    1    1    2    0    0  0.10117544765E+03  0.76310033208E+02  0.82173594618E+02  0.22830162511E+03  0.17120000000E+03 0.  0.
        998    1    1    2    0    0 -0.80890429422E+02  0.56682873769E+02  0.97620961786E+03  0.98124483578E+03  0.10000000000E+02 0.  1.
</event>
<event>
 5    1  0.1582292E-008  0.3853995E+03  0.7957747E-01  0.3427979E+00
         13   -1    0    0    0    0  0.00000000000E+00  0.00000000000E+00  0.14999999963E+04  0.15000000000E+04  0.10566000000E+00 0. -1.
        994   -1    0    0    0    0 -0.00000000000E+00 -0.00000000000E+00  0.11368683772E-12  0.17120000000E+03  0.17120000000E+03 0.  0.
         13    1    1    2    0    0  0.13618307911E+02  0.45991896443E+00  0.69871669104E+02  0.71187998589E+02  0.10566000000E+00 0. -1.
        994    1    1    2    0    0  0.85981129759E+00  0.37789170470E+01  0.14812352068E+01  0.17125026583E+03  0.17120000000E+03 0.  0.
        998    1    1    2    0    0 -0.14478119209E+02 -0.42388360114E+01  0.14286470920E+04  0.14287617356E+04  0.10000000000E+02 0. -1.
</event>
<event>
 5    1  0.1582292E-008  0.3836215E+03  0.7957747E-01  0.3435539E+00
         13   -1    0    0    0    0  0.00000000000E+00  0.00000000000E+00  0.14999999963E+04  0.15000000000E+04  0.10566000000E+00 0. -1.
        994   -1    0    0    0    0 -0.00000000000E+00 -0.00000000000E+00  0.11368683772E-12  0.17120000000E+03  0.17120000000E+03 0.  0.
         13    1    1    2    0    0  0.17862993872E+02 -0.41824886490E+01  0.69596541226E+02  0.71974088921E+02  0.10566000000E+00 0. -1.
        994    1    1    2    0    0 -0.18370260064E+02  0.14139067215E+01  0.34382586002E+01  0.17222289978E+03  0.17120000000E+03 0.  0.
        998    1    1    2    0    0  0.50726619206E+00  0.27685819275E+01  0.14269651965E+04  0.14270030113E+04  0.10000000000E+02 0. -1.
</event>
<event>
 5    1  0.1582292E-008  0.3798689E+03  0.7957747E-01  0.3451730E+00
         13   -1    0    0    0    0  0.00000000000E+00  0.00000000000E+00  0.14999999963E+04  0.15000000000E+04  0.10566000000E+00 0.  1.
        994   -1    0    0    0    0 -0.00000000000E+00 -0.00000000000E+00  0.11368683772E-12  0.17120000000E+03  0.17120000000E+03 0.  0.
         13    1    1    2    0    0 -0.36303729424E+02 -0.80273621956E+01  0.17774818899E+03  0.18159523443E+03  0.10566000000E+00 0.  1.
        994    1    1    2    0    0  0.92392050923E+01  0.16926871364E+01  0.44944787611E+01  0.17151637951E+03  0.17120000000E+03 0.  0.
        998    1    1    2    0    0  0.27064524331E+02  0.63346750592E+01  0.13177573285E+04  0.13180883861E+04  0.10000000000E+02 0.  1.
</event>
<event>
 5    1  0.1582292E-008  0.3806182E+03  0.7957747E-01  0.3448471E+00
         13   -1    0    0    0    0  0.00000000000E+00  0.00000000000E+00  0.14999999963E+04  0.15000000000E+04  0.10566000000E+00 0.  1.
        994   -1    0    0    0    0 -0.00000000000E+00 -0.00000000000E+00  0.11368683772E-12  0.17120000000E+03  0.17120000000E+03 0.  0.
         13    1    1    2    0    0 -0.11799372612E+02  0.41582077355E+01  0.19049615484E+02  0.22790675719E+02  0.10566000000E+00 0.  1.
        994    1    1    2    0    0  0.63255446353E+01  0.55209828659E+00  0.39559385837E+01  0.17136337642E+03  0.17120000000E+03 0.  0.
        998    1    1    2    0    0  0.54738279764E+01 -0.47103060220E+01  0.14769944422E+04  0.14770459479E+04  0.10000000000E+02 0.  1.
</event>
<event>
 5    1  0.1582292E-008  0.3753685E+03  0.7957747E-01  0.3471576E+00
         13   -1    0    0    0    0  0.00000000000E+00  0.00000000000E+00  0.14999999963E+04  0.15000000000E+04  0.10566000000E+00 0. -1.
        994   -1    0    0    0    0 -0.00000000000E+00 -0.00000000000E+00  0.11368683772E-12  0.17120000000E+03  0.17120000000E+03 0.  0.
         13    1    1    2    0    0 -0.43717310760E+02 -0.94440494388E+01  0.19851561948E+03  0.20349165995E+03  0.10566000000E+00 0. -1.
        994    1    1    2    0    0 -0.11450684640E+02 -0.22849201174E+02  0.87103917542E+01  0.17331622860E+03  0.17120000000E+03 0.  0.
        998    1    1    2    0    0  0.55167995400E+02  0.32293250613E+02  0.12927739850E+04  0.12943921114E+04  0.10000000000E+02 0. -1.
</event>
<event>
 5    1  0.1582292E-008  0.3755363E+03  0.7957747E-01  0.3470828E+00
         13   -1    0    0    0    0  0.00000000000E+00  0.00000000000E+00  0.14999999963E+04  0.15000000000E+04  0.10566000000E+00 0.  1.
        994   -1    0    0    0    0 -0.00000000000E+00 -0.00000000000E+00  0.11368683772E-12  0.17120000000E+03  0.17120000000E+03 0.  0.
         13    1    1    2    0    0  0.71015882029E+02 -0.37758404831E+01  0.32543404404E+03  0.33311385539E+03  0.10566000000E+00 0.  1.
        994    1    1    2    0    0 -0.64968670917E+02 -0.53847167724E+01  0.20963035462E+02  0.18438766833E+03  0.17120000000E+03 0.  0.
        998    1    1    2    0    0 -0.60472111120E+01  0.91605572555E+01  0.11536029168E+04  0.11536984763E+04  0.10000000000E+02 0. -1.
</event>
<event>
 5    1  0.1582292E-008  0.3784880E+03  0.7957747E-01  0.3457769E+00
         13   -1    0    0    0    0  0.00000000000E+00  0.00000000000E+00  0.14999999963E+04  0.15000000000E+04  0.10566000000E+00 0.  1.
        994   -1    0    0    0    0 -0.00000000000E+00 -0.00000000000E+00  0.11368683772E-12  0.17120000000E+03  0.17120000000E+03 0.  0.
         13    1    1    2    0    0 -0.21804833485E+02 -0.18872109357E+01  0.47301045143E+02  0.52119213003E+02  0.10566000000E+00 0.  1.
        994    1    1    2    0    0  0.10066126858E+02  0.30262091450E+02  0.83231676353E+01  0.17434401684E+03  0.17120000000E+03 0.  0.
        998    1    1    2    0    0  0.11738706626E+02 -0.28374880514E+02  0.14443757835E+04  0.14447367702E+04  0.10000000000E+02 0.  1.
</event>
<event>
 5    1  0.1582292E-008  0.3835680E+03  0.7957747E-01  0.3435768E+00
         13   -1    0    0    0    0  0.00000000000E+00  0.00000000000E+00  0.14999999963E+04  0.15000000000E+04  0.10566000000E+00 0.  1.
        994   -1    0    0    0    0 -0.00000000000E+00 -0.00000000000E+00  0.11368683772E-12  0.17120000000E+03  0.17120000000E+03 0.  0.
         13    1    1    2    0    0 -0.91710792558E+01 -0.15382187953E+02  0.71865631194E+02  0.74063489736E+02  0.10566000000E+00 0.  1.
        994    1    1    2    0    0 -0.18607042052E+01  0.28500973129E+01  0.23810604517E+01  0.17125038605E+03  0.17120000000E+03 0.  0.
        998    1    1    2    0    0  0.11031783461E+02  0.12532090640E+02  0.14257533046E+04  0.14258861242E+04  0.10000000000E+02 0.  1.
</event>
<event>
 5    1  0.1582292E-008  0.3753963E+03  0.7957747E-01  0.3471452E+00
         13   -1    0    0    0    0  0.00000000000E+00  0.00000000000E+00  0.14999999963E+04  0.15000000000E+04  0.10566000000E+00 0.  1.
        994   -1    0    0    0    0 -0.00000000000E+00 -0.00000000000E+00  0.11368683772E-12  0.17120000000E+03  0.17120000000E+03 0.  0.
         13    1    1    2    0    0  0.18273150835E+01  0.14197180787E+02  0.13444448977E+02  0.19638314465E+02  0.10566000000E+00 0.  1.
        994    1    1    2    0    0 -0.10877611589E+02  0.74199726364E+01  0.70641143043E+01  0.17185086598E+03  0.17120000000E+03 0.  0.
        998    1    1    2    0    0  0.90502965054E+01 -0.21617153423E+02  0.14794914330E+04  0.14797108196E+04  0.10000000000E+02 0.  1.
</event>
<event>
 5    1  0.1582292E-008  0.3846895E+03  0.7957747E-01  0.3430990E+00
         13   -1    0    0    0    0  0.00000000000E+00  0.00000000000E+00  0.14999999963E+04  0.15000000000E+04  0.10566000000E+00 0. -1.
        994   -1    0    0    0    0 -0.00000000000E+00 -0.00000000000E+00  0.11368683772E-12  0.17120000000E+03  0.17120000000E+03 0.  0.
         13    1    1    2    0    0  0.14571996102E+02 -0.83877026575E+01  0.86528533771E+02  0.88147007589E+02  0.10566000000E+00 0. -1.
        994    1    1    2    0    0  0.25663194692E+01  0.93729284281E+00  0.18089295318E+01  0.17123135443E+03  0.17120000000E+03 0.  0.
        998    1    1    2    0    0 -0.17138315572E+02  0.74504098146E+01  0.14116625330E+04  0.14118216380E+04  0.10000000000E+02 0. -1.
</event>
<event>
 5    1  0.1582292E-008  0.3805820E+03  0.7957747E-01  0.3448628E+00
         13   -1    0    0    0    0  0.00000000000E+00  0.00000000000E+00  0.14999999963E+04  0.15000000000E+04  0.10566000000E+00 0.  1.
        994   -1    0    0    0    0 -0.00000000000E+00 -0.00000000000E+00  0.11368683772E-12  0.17120000000E+03  0.17120000000E+03 0.  0.
         13    1    1    2    0    0 -0.81948154261E+01  0.19587246548E+02  0.55969371008E+02  0.59861480789E+02  0.10566000000E+00 0.  1.
        994    1    1    2    0    0  0.96799073983E+01 -0.17180962100E+02  0.51382393696E+01  0.17240860643E+03  0.17120000000E+03 0.  0.
        998    1    1    2    0    0 -0.14850919722E+01 -0.24062844481E+01  0.14388923859E+04  0.14389299128E+04  0.10000000000E+02 0.  1.
</event>
<event>
 5    1  0.1604193E-008  0.3862153E+03  0.7957747E-01  0.3424534E+00
         13   -1    0    0    0    0  0.00000000000E+00  0.00000000000E+00  0.14999999963E+04  0.15000000000E+04  0.10566000000E+00 0. -1.
        994   -1    0    0    0    0 -0.00000000000E+00 -0.00000000000E+00  0.11368683772E-12  0.17120000000E+03  0.17120000000E+03 0.  0.
         13    1    1    2    0    0 -0.34166685073E+01 -0.10304625267E+02  0.59092388362E+02  0.60081448484E+02  0.10566000000E+00 0. -1.
        994    1    1    2    0    0  0.30690974642E+01  0.45996981791E+01  0.11281200255E+01  0.17129299238E+03  0.17120000000E+03 0.  0.
        998    1    1    2    0    0  0.34757104310E+00  0.57049270875E+01  0.14397794879E+04  0.14398255591E+04  0.10000000000E+02 0. -1.
</event>
<event>
 5    1  0.1582292E-008  0.3738808E+03  0.7957747E-01  0.3478244E+00
         13   -1    0    0    0    0  0.00000000000E+00  0.00000000000E+00  0.14999999963E+04  0.15000000000E+04  0.10566000000E+00 0. -1.
        994   -1    0    0    0    0 -0.00000000000E+00 -0.00000000000E+00  0.11368683772E-12  0.17120000000E+03  0.17120000000E+03 0.  0.
         13    1    1    2    0    0 -0.48258205275E+01  0.88614472511E+01  0.36114960641E+01  0.10717642418E+02  0.10566000000E+00 0. -1.
        994    1    1    2    0    0  0.40031516361E+01 -0.98157125677E+01  0.76381181324E+01  0.17169785754E+03  0.17120000000E+03 0.  0.
        998    1    1    2    0    0  0.82266889135E+00  0.95426531662E+00  0.14887503821E+04  0.14887845000E+04  0.10000000000E+02 0. -1.
</event>
<event>
 5    1  0.1582292E-008  0.3859434E+03  0.7957747E-01  0.3425681E+00
         13   -1    0    0    0    0  0.00000000000E+00  0.00000000000E+00  0.14999999963E+04  0.15000000000E+04  0.10566000000E+00 0. -1.
        994   -1    0    0    0    0 -0.00000000000E+00 -0.00000000000E+00  0.11368683772E-12  0.17120000000E+03  0.17120000000E+03 0.  0.
         13    1    1    2    0    0  0.10383151067E+02 -0.29270369684E+01  0.52463498005E+02  0.53561246798E+02  0.10566000000E+00 0. -1.
        994    1    1    2    0    0 -0.33977118131E+01 -0.49402610425E+01  0.12803316180E+01  0.17130974833E+03  0.17120000000E+03 0.  0.
        998    1    1    2    0    0 -0.69854392542E+01  0.78672980109E+01  0.14462561667E+04  0.14463290049E+04  0.10000000000E+02 0. -1.
</event>
<event>
 5    1  0.1582292E-008  0.3840156E+03  0.7957747E-01  0.3433858E+00
         13   -1    0    0    0    0  0.00000000000E+00  0.00000000000E+00  0.14999999963E+04  0.15000000000E+04  0.10566000000E+00 0.  1.
        994   -1    0    0    0    0 -0.00000000000E+00 -0.00000000000E+00  0.11368683772E-12  0.17120000000E+03  0.17120000000E+03 0.  0.
         13    1    1    2    0    0 -0.10554311835E+02  0.16696206253E+02  0.95347215772E+02  0.97371759361E+02  0.10566000000E+00 0.  1.
        994    1    1    2    0    0 -0.38444477846E+01 -0.10415814548E+02  0.25264303664E+01  0.17157823819E+03  0.17120000000E+03 0.  0.
        998    1    1    2    0    0  0.14398759619E+02 -0.62803917046E+01  0.14021263501E+04  0.14022500024E+04  0.10000000000E+02 0.  1.
</event>
<event>
 5    1  0.1582292E-008  0.3835480E+03  0.7957747E-01  0.3435854E+00
         13   -1    0    0    0    0  0.00000000000E+00  0.00000000000E+00  0.14999999963E+04  0.15000000000E+04  0.10566000000E+00 0.  1.
        994   -1    0    0    0    0 -0.00000000000E+00 -0.00000000000E+00  0.11368683772E-12  0.17120000000E+03  0.17120000000E+03 0.  0.
         13    1    1    2    0    0  0.16852473450E+03  0.90563457049E+02  0.11494986222E+04  0.11653108682E+04  0.10566000000E+00 0.  1.
        994    1    1    2    0    0 -0.16980316155E+03 -0.90530682275E+02  0.13621141471E+03  0.29136215884E+03  0.17120000000E+03 0.  0.
        998    1    1    2    0    0  0.12784270531E+01 -0.32774773117E-01  0.21428995938E+03  0.21452697299E+03  0.10000000000E+02 0.  0.
</event>
<event>
 5    1  0.1582292E-008  0.3836043E+03  0.7957747E-01  0.3435613E+00
         13   -1    0    0    0    0  0.00000000000E+00  0.00000000000E+00  0.14999999963E+04  0.15000000000E+04  0.10566000000E+00 0. -1.
        994   -1    0    0    0    0 -0.00000000000E+00 -0.00000000000E+00  0.11368683772E-12  0.17120000000E+03  0.17120000000E+03 0.  0.
         13    1    1    2    0    0 -0.93258554552E+01  0.21246996738E+02  0.10735940324E+03  0.10983833155E+03  0.10566000000E+00 0. -1.
        994    1    1    2    0    0  0.11430188779E+02 -0.21969087072E+02  0.43533711626E+01  0.17303664884E+03  0.17120000000E+03 0.  0.
        998    1    1    2    0    0 -0.21043333239E+01  0.72209033418E+00  0.13882872219E+04  0.13883250196E+04  0.10000000000E+02 0. -1.
</event>
<event>
 5    1  0.1582292E-008  0.3832146E+03  0.7957747E-01  0.3437280E+00
         13   -1    0    0    0    0  0.00000000000E+00  0.00000000000E+00  0.14999999963E+04  0.15000000000E+04  0.10566000000E+00 0. -1.
        994   -1    0    0    0    0 -0.00000000000E+00 -0.00000000000E+00  0.11368683772E-12  0.17120000000E+03  0.17120000000E+03 0.  0.
         13    1    1    2    0    0 -0.29855812955E+01 -0.11921096767E+02  0.30733406901E+02  0.33099542407E+02  0.10566000000E+00 0. -1.
        994    1    1    2    0    0 -0.51254838766E+01 -0.47207776472E+01  0.26797742769E+01  0.17136270749E+03  0.17120000000E+03 0.  0.
        998    1    1    2    0    0  0.81110651721E+01  0.16641874414E+02  0.14665868151E+04  0.14667377501E+04  0.10000000000E+02 0. -1.
</event>
<event>
 5    1  0.1582292E-008  0.3734552E+03  0.7957747E-01  0.3480161E+00
         13   -1    0    0    0    0  0.00000000000E+00  0.00000000000E+00  0.14999999963E+04  0.15000000000E+04  0.10566000000E+00 0.  1.
        994   -1    0    0    0    0 -0.00000000000E+00 -0.00000000000E+00  0.11368683772E-12  0.17120000000E+03  0.17120000000E+03 0.  0.
         13    1    1    2    0    0 -0.48245424652E+00  0.48069039544E+02  0.14180261488E+03  0.14972928263E+03  0.10566000000E+00 0.  1.
        994    1    1    2    0    0 -0.30453281159E+01 -0.43402827651E+02  0.13970535618E+02  0.17719394836E+03  0.17120000000E+03 0.  0.
        998    1    1    2    0    0  0.35277823624E+01 -0.46662118924E+01  0.13442268458E+04  0.13442767690E+04  0.10000000000E+02 0.  1.
</event>
<event>
 5    1  0.1582292E-008  0.3839012E+03  0.7957747E-01  0.3434346E+00
         13   -1    0    0    0    0  0.00000000000E+00  0.00000000000E+00  0.14999999963E+04  0.15000000000E+04  0.10566000000E+00 0.  1.
        994   -1    0    0    0    0 -0.00000000000E+00 -0.00000000000E+00  0.11368683772E-12  0.17120000000E+03  0.17120000000E+03 0.  0.
         13    1    1    2    0    0  0.57808962493E+01  0.16957263565E+02  0.73834458086E+02  0.75977009115E+02  0.10566000000E+00 0.  1.
        994    1    1    2    0    0 -0.22583512289E+01 -0.10056627974E+02  0.25273580374E+01  0.17152860827E+03  0.17120000000E+03 0.  0.
        998    1    1    2    0    0 -0.35225450204E+01 -0.69006355909E+01  0.14236381802E+04  0.14236943826E+04  0.10000000000E+02 0.  1.
</event>
<event>
 5    1  0.1582292E-008  0.3848326E+03  0.7957747E-01  0.3430383E+00
         13   -1    0    0    0    0  0.00000000000E+00  0.00000000000E+00  0.14999999963E+04  0.15000000000E+04  0.10566000000E+00 0. -1.
        994   -1    0    0    0    0 -0.00000000000E+00 -0.00000000000E+00  0.11368683772E-12  0.17120000000E+03  0.17120000000E+03 0.  0.
         13    1    1    2    0    0 -0.11637258748E+02  0.25746099036E+01  0.43100343661E+02  0.44718063410E+02  0.10566000000E+00 0. -1.
        994    1    1    2    0    0  0.26988235310E+00  0.33488841210E+01  0.17504408284E+01  0.17124191048E+03  0.17120000000E+03 0.  0.
        998    1    1    2    0    0  0.11367376395E+02 -0.59234940246E+01  0.14551492118E+04  0.14552400261E+04  0.10000000000E+02 0. -1.
</event>
<event>
 5    1  0.1582292E-008  0.3726599E+03  0.7957747E-01  0.3483755E+00
         13   -1    0    0    0    0  0.00000000000E+00  0.00000000000E+00  0.14999999963E+04  0.15000000000E+04  0.10566000000E+00 0. -1.
        994   -1    0    0    0    0 -0.00000000000E+00 -0.00000000000E+00  0.11368683772E-12  0.17120000000E+03  0.17120000000E+03 0.  0.
         13    1    1    2    0    0  0.12889811093E+02  0.25909608168E+02  0.49389083858E+02  0.57242884220E+02  0.10566000000E+00 0. -1.
        994    1    1    2    0    0 -0.41200552200E+01 -0.24229734465E+02  0.99577739703E+01  0.17324160052E+03  0.17120000000E+03 0.  0.
        998    1    1    2    0    0 -0.87697558726E+01 -0.16798737035E+01  0.14406531384E+04  0.14407155153E+04  0.10000000000E+02 0. -1.
</event>
<event>
 5    1  0.1582292E-008  0.3783310E+03  0.7957747E-01  0.3458458E+00
         13   -1    0    0    0    0  0.00000000000E+00  0.00000000000E+00  0.14999999963E+04  0.15000000000E+04  0.10566000000E+00 0. -1.
        994   -1    0    0    0    0 -0.00000000000E+00 -0.00000000000E+00  0.11368683772E-12  0.17120000000E+03  0.17120000000E+03 0.  0.
         13    1    1    2    0    0  0.40973796881E+02  0.11623946307E+02  0.19385211579E+03  0.19847574693E+03  0.10566000000E+00 0. -1.
        994    1    1    2    0    0 -0.16347144890E+02  0.55162120981E+01  0.59792220791E+01  0.17217098722E+03  0.17120000000E+03 0.  0.
        998    1    1    2    0    0 -0.24626651992E+02 -0.17140158406E+02  0.13001686584E+04  0.13005532659E+04  0.10000000000E+02 0. -1.
</event>
<event>
 5    1  0.1582292E-008  0.3759569E+03  0.7957747E-01  0.3468954E+00
         13   -1    0    0    0    0  0.00000000000E+00  0.00000000000E+00  0.14999999963E+04  0.15000000000E+04  0.10566000000E+00 0.  1.
        994   -1    0    0    0    0 -0.00000000000E+00 -0.00000000000E+00  0.11368683772E-12  0.17120000000E+03  0.17120000000E+03 0.  0.
         13    1    1    2    0    0 -0.13085614149E+03 -0.50701153797E+02  0.61001136832E+03  0.62594553869E+03  0.10566000000E+00 0.  1.
        994    1    1    2    0    0  0.10780631168E+03 -0.11324236820E+01  0.56887694190E+02  0.21016453786E+03  0.17120000000E+03 0.  0.
        998    1    1    2    0    0  0.23049829812E+02  0.51833577479E+02  0.83310093377E+03  0.83508992345E+03  0.10000000000E+02 0.  1.
</event>
<event>
 5    1  0.1582292E-008  0.3852069E+03  0.7957747E-01  0.3428795E+00
         13   -1    0    0    0    0  0.00000000000E+00  0.00000000000E+00  0.14999999963E+04  0.15000000000E+04  0.10566000000E+00 0. -1.
        994   -1    0    0    0    0 -0.00000000000E+00 -0.00000000000E+00  0.11368683772E-12  0.17120000000E+03  0.17120000000E+03 0.  0.
         13    1    1    2    0    0 -0.12550401582E+02 -0.11976309827E+02  0.10390102183E+03  0.10533934724E+03  0.10566000000E+00 0. -1.
        994    1    1    2    0    0  0.22593184630E+01  0.48583608908E+01  0.16218157562E+01  0.17129150147E+03  0.17120000000E+03 0.  0.
        998    1    1    2    0    0  0.10291083119E+02  0.71179489363E+01  0.13944771587E+04  0.13945691513E+04  0.10000000000E+02 0. -1.
</event>
<event>
 5    1  0.1582292E-008  0.3746384E+03  0.7957747E-01  0.3474842E+00
         13   -1    0    0    0    0  0.00000000000E+00  0.00000000000E+00  0.14999999963E+04  0.15000000000E+04  0.10566000000E+00 0.  1.
        994   -1    0    0    0    0 -0.00000000000E+00 -0.00000000000E+00  0.11368683772E-12  0.17120000000E+03  0.17120000000E+03 0.  0.
         13    1    1    2    0    0  0.33316112848E+02 -0.65097103859E+02  0.32271033299E+03  0.33089207680E+03  0.10566000000E+00 0.  1.
        994    1    1    2    0    0 -0.30326447448E+02  0.58328773761E+02  0.21718916958E+02  0.18467022125E+03  0.17120000000E+03 0.  0.
        998    1    1    2    0    0 -0.29896654008E+01  0.67683300977E+01  0.11555707463E+04  0.11556377019E+04  0.10000000000E+02 0.  1.
</event>
<event>
 5    1  0.1582292E-008  0.3856527E+03  0.7957747E-01  0.3426909E+00
         13   -1    0    0    0    0  0.00000000000E+00  0.00000000000E+00  0.14999999963E+04  0.15000000000E+04  0.10566000000E+00 0.  1.
        994   -1    0    0    0    0 -0.00000000000E+00 -0.00000000000E+00  0.11368683772E-12  0.17120000000E+03  0.17120000000E+03 0.  0.
         13    1    1    2    0    0 -0.75609328478E+01 -0.11299148357E+02  0.69449572809E+02  0.70767879624E+02  0.10566000000E+00 0.  1.
        994    1    1    2    0    0  0.33724399064E+01  0.12778360328E+02  0.18798423761E+01  0.17171963677E+03  0.17120000000E+03 0.  0.
        998    1    1    2    0    0  0.41884929414E+01 -0.14792119705E+01  0.14286705811E+04  0.14287124836E+04  0.10000000000E+02 0.  1.
</event>
<event>
 5    1  0.1582292E-008  0.3744806E+03  0.7957747E-01  0.3475549E+00
         13   -1    0    0    0    0  0.00000000000E+00  0.00000000000E+00  0.14999999963E+04  0.15000000000E+04  0.10566000000E+00 0.  1.
        994   -1    0    0    0    0 -0.00000000000E+00 -0.00000000000E+00  0.11368683772E-12  0.17120000000E+03  0.17120000000E+03 0.  0.
         13    1    1    2    0    0 -0.28452563308E+02 -0.56762600211E+02  0.15121715050E+03  0.16400664288E+03  0.10566000000E+00 0.  1.
        994    1    1    2    0    0  0.78138066685E+01  0.32272553326E+02  0.17254012403E+02  0.17524187347E+03  0.17120000000E+03 0.  0.
        998    1    1    2    0    0  0.20638756640E+02  0.24490046885E+02  0.13315288334E+04  0.13319514836E+04  0.10000000000E+02 0.  1.
</event>
<event>
 5    1  0.1582292E-008  0.3819691E+03  0.7957747E-01  0.3442629E+00
         13   -1    0    0    0    0  0.00000000000E+00  0.00000000000E+00  0.14999999963E+04  0.15000000000E+04  0.10566000000E+00 0.  1.
        994   -1    0    0    0    0 -0.00000000000E+00 -0.00000000000E+00  0.11368683772E-12  0.17120000000E+03  0.17120000000E+03 0.  0.
         13    1    1    2    0    0 -0.44004453147E+02  0.56212389980E+02  0.15572033162E+03  0.17130399157E+03  0.10566000000E+00 0.  1.
        994    1    1    2    0    0  0.65103548165E+01 -0.18825115034E+02  0.18862545449E+02  0.17338398224E+03  0.17120000000E+03 0.  0.
        998    1    1    2    0    0  0.37494098331E+02 -0.37387274946E+02  0.13254171192E+04  0.13265120262E+04  0.10000000000E+02 0.  1.
</event>
<event>
 5    1  0.1582292E-008  0.3844442E+03  0.7957747E-01  0.3432033E+00
         13   -1    0    0    0    0  0.00000000000E+00  0.00000000000E+00  0.14999999963E+04  0.15000000000E+04  0.10566000000E+00 0. -1.
        994   -1    0    0    0    0 -0.00000000000E+00 -0.00000000000E+00  0.11368683772E-12  0.17120000000E+03  0.17120000000E+03 0.  0.
         13    1    1    2    0    0 -0.10004282560E+02 -0.18664043121E+02  0.11326018459E+03  0.11522288294E+03  0.10566000000E+00 0. -1.
        994    1    1    2    0    0  0.62285765890E+01  0.16883762128E+02  0.29740569446E+01  0.17216893333E+03  0.17120000000E+03 0.  0.
        998    1    1    2    0    0  0.37757059709E+01  0.17802809926E+01  0.13837657547E+04  0.13838081837E+04  0.10000000000E+02 0. -1.
</event>
<event>
 5    1  0.1582292E-008  0.3823987E+03  0.7957747E-01  0.3440780E+00
         13   -1    0    0    0    0  0.00000000000E+00  0.00000000000E+00  0.14999999963E+04  0.15000000000E+04  0.10566000000E+00 0. -1.
        994   -1    0    0    0    0 -0.00000000000E+00 -0.00000000000E+00  0.11368683772E-12  0.17120000000E+03  0.17120000000E+03 0.  0.
         13    1    1    2    0    0  0.17741596349E+02 -0.14357123884E+02  0.95549141585E+02  0.98237166433E+02  0.10566000000E+00 0. -1.
        994    1    1    2    0    0 -0.83515749610E+01 -0.93351417231E+01  0.34477067348E+01  0.17169222567E+03  0.17120000000E+03 0.  0.
        998    1    1    2    0    0 -0.93900213883E+01  0.23692265607E+02  0.14010031480E+04  0.14012706079E+04  0.10000000000E+02 0. -1.
</event>
<event>
 5    1  0.1582292E-008  0.3808538E+03  0.7957747E-01  0.3447449E+00
         13   -1    0    0    0    0  0.00000000000E+00  0.00000000000E+00  0.14999999963E+04  0.15000000000E+04  0.10566000000E+00 0.  1.
        994   -1    0    0    0    0 -0.00000000000E+00 -0.00000000000E+00  0.11368683772E-12  0.17120000000E+03  0.17120000000E+03 0.  0.
         13    1    1    2    0    0 -0.62887918367E+01 -0.13820391245E+02  0.29935646987E+02  0.33566445172E+02  0.10566000000E+00 0.  1.
        994    1    1    2    0    0 -0.24024473431E+00  0.86742975019E+01  0.39538391333E+01  0.17146537259E+03  0.17120000000E+03 0.  0.
        998    1    1    2    0    0  0.65290365710E+01  0.51460937435E+01  0.14661105102E+04  0.14661681822E+04  0.10000000000E+02 0.  1.
</event>
<event>
 5    1  0.1582292E-008  0.3690706E+03  0.7957747E-01  0.3500173E+00
         13   -1    0    0    0    0  0.00000000000E+00  0.00000000000E+00  0.14999999963E+04  0.15000000000E+04  0.10566000000E+00 0.  1.
        994   -1    0    0    0    0 -0.00000000000E+00 -0.00000000000E+00  0.11368683772E-12  0.17120000000E+03  0.17120000000E+03 0.  0.
         13    1    1    2    0    0  0.34046110691E+02 -0.27394373492E+02  0.88122508626E+02  0.98362477819E+02  0.10566000000E+00 0.  1.
        994    1    1    2    0    0 -0.40081538670E+02  0.25808665766E+02  0.17680550878E+02  0.17859075802E+03  0.17120000000E+03 0.  0.
        998    1    1    2    0    0  0.60354279788E+01  0.15857077266E+01  0.13941969368E+04  0.13942467642E+04  0.10000000000E+02 0.  1.
</event>
<event>
 5    1  0.1582292E-008  0.3830416E+03  0.7957747E-01  0.3438021E+00
         13   -1    0    0    0    0  0.00000000000E+00  0.00000000000E+00  0.14999999963E+04  0.15000000000E+04  0.10566000000E+00 0. -1.
        994   -1    0    0    0    0 -0.00000000000E+00 -0.00000000000E+00  0.11368683772E-12  0.17120000000E+03  0.17120000000E+03 0.  0.
         13    1    1    2    0    0 -0.20473202111E+02  0.49851418699E+01  0.89831772050E+02  0.92270049734E+02  0.10566000000E+00 0. -1.
        994    1    1    2    0    0  0.35832571226E+01  0.17180264157E+01  0.26578272078E+01  0.17126673755E+03  0.17120000000E+03 0.  0.
        998    1    1    2    0    0  0.16889944988E+02 -0.67031682856E+01  0.14075103970E+04  0.14076632127E+04  0.10000000000E+02 0. -1.
</event>
<event>
 5    1  0.1582292E-008  0.3792492E+03  0.7957747E-01  0.3454434E+00
         13   -1    0    0    0    0  0.00000000000E+00  0.00000000000E+00  0.14999999963E+04  0.15000000000E+04  0.10566000000E+00 0.  1.
        994   -1    0    0    0    0 -0.00000000000E+00 -0.00000000000E+00  0.11368683772E-12  0.17120000000E+03  0.17120000000E+03 0.  0.
         13    1    1    2    0    0  0.97539394540E+02 -0.59846270004E+02  0.55509943927E+03  0.56677236009E+03  0.10566000000E+00 0.  1.
        994    1    1    2    0    0 -0.13568578015E+03  0.63631571548E+02  0.83881623752E+02  0.24249778275E+03  0.17120000000E+03 0.  0.
        998    1    1    2    0    0  0.38146385614E+02 -0.37853015443E+01  0.86101893326E+03  0.86192985716E+03  0.10000000000E+02 0.  1.
</event>
<event>
 5    1  0.1582292E-008  0.3781936E+03  0.7957747E-01  0.3459062E+00
         13   -1    0    0    0    0  0.00000000000E+00  0.00000000000E+00  0.14999999963E+04  0.15000000000E+04  0.10566000000E+00 0. -1.
        994   -1    0    0    0    0 -0.00000000000E+00 -0.00000000000E+00  0.11368683772E-12  0.17120000000E+03  0.17120000000E+03 0.  0.
         13    1    1    2    0    0  0.10161941985E+02  0.77127481173E+01  0.13839853272E+02  0.18822971366E+02  0.10566000000E+00 0. -1.
        994    1    1    2    0    0 -0.58199631377E+01 -0.11025315803E+02  0.55706662330E+01  0.17174370988E+03  0.17120000000E+03 0.  0.
        998    1    1    2    0    0 -0.43419788471E+01  0.33125676860E+01  0.14805894768E+04  0.14806333188E+04  0.10000000000E+02 0. -1.
</event>
<event>
 5    1  0.1582292E-008  0.3716115E+03  0.7957747E-01  0.3488518E+00
         13   -1    0    0    0    0  0.00000000000E+00  0.00000000000E+00  0.14999999963E+04  0.15000000000E+04  0.10566000000E+00 0. -1.
        994   -1    0    0    0    0 -0.00000000000E+00 -0.00000000000E+00  0.11368683772E-12  0.17120000000E+03  0.17120000000E+03 0.  0.
         13    1    1    2    0    0 -0.63643651935E+02  0.18200376005E+02  0.29651010968E+03  0.30380919082E+03  0.10566000000E+00 0. -1.
        994    1    1    2    0    0  0.24444047829E+02  0.18694912654E+02  0.11692481550E+02  0.17433635696E+03  0.17120000000E+03 0.  0.
        998    1    1    2    0    0  0.39199604106E+02 -0.36895288659E+02  0.11917974050E+04  0.11930544522E+04  0.10000000000E+02 0. -1.
</event>
<event>
 5    1  0.1582292E-008  0.3709329E+03  0.7957747E-01  0.3491614E+00
         13   -1    0    0    0    0  0.00000000000E+00  0.00000000000E+00  0.14999999963E+04  0.15000000000E+04  0.10566000000E+00 0. -1.
        994   -1    0    0    0    0 -0.00000000000E+00 -0.00000000000E+00  0.11368683772E-12  0.17120000000E+03  0.17120000000E+03 0.  0.
         13    1    1    2    0    0  0.17658312465E+02  0.77981763714E+01  0.17364357127E+02  0.25964583885E+02  0.10566000000E+00 0. -1.
        994    1    1    2    0    0 -0.15007457690E+02 -0.38259839366E+01  0.96093905137E+01  0.17216748336E+03  0.17120000000E+03 0.  0.
        998    1    1    2    0    0 -0.26508547752E+01 -0.39721924348E+01  0.14730262486E+04  0.14730679328E+04  0.10000000000E+02 0. -1.
</event>
<event>
 5    1  0.1582292E-008  0.3841376E+03  0.7957747E-01  0.3433338E+00
         13   -1    0    0    0    0  0.00000000000E+00  0.00000000000E+00  0.14999999963E+04  0.15000000000E+04  0.10566000000E+00 0.  1.
        994   -1    0    0    0    0 -0.00000000000E+00 -0.00000000000E+00  0.11368683772E-12  0.17120000000E+03  0.17120000000E+03 0.  0.
         13    1    1    2    0    0  0.20854948491E+02  0.74125831923E+01  0.11117690353E+03  0.11335867990E+03  0.10566000000E+00 0.  1.
        994    1    1    2    0    0 -0.22768332016E+02 -0.32519006382E+01  0.38053395661E+01  0.17277989585E+03  0.17120000000E+03 0.  0.
        998    1    1    2    0    0  0.19133835252E+01 -0.41606825540E+01  0.13850177532E+04  0.13850614242E+04  0.10000000000E+02 0.  1.
</event>
<event>
 5    1  0.1582292E-008  0.3764722E+03  0.7957747E-01  0.3466665E+00
         13   -1    0    0    0    0  0.00000000000E+00  0.00000000000E+00  0.14999999963E+04  0.15000000000E+04  0.10566000000E+00 0. -1.
        994   -1    0    0    0    0 -0.00000000000E+00 -0.00000000000E+00  0.11368683772E-12  0.17120000000E+03  0.17120000000E+03 0.  0.
         13    1    1    2    0    0 -0.42046735526E+02 -0.77492236390E+00  0.16611448331E+03  0.17135507346E+03  0.10566000000E+00 0. -1.
        994    1    1    2    0    0  0.42102546601E+01 -0.11551694136E+02  0.64361168478E+01  0.17176155414E+03  0.17120000000E+03 0.  0.
        998    1    1    2    0    0  0.37836480866E+02  0.12326616500E+02  0.13274493961E+04  0.13280833724E+04  0.10000000000E+02 0. -1.
</event>
<event>
 5    1  0.1582292E-008  0.3834502E+03  0.7957747E-01  0.3436272E+00
         13   -1    0    0    0    0  0.00000000000E+00  0.00000000000E+00  0.14999999963E+04  0.15000000000E+04  0.10566000000E+00 0.  1.
        994   -1    0    0    0    0 -0.00000000000E+00 -0.00000000000E+00  0.11368683772E-12  0.17120000000E+03  0.17120000000E+03 0.  0.
         13    1    1    2    0    0 -0.40541196275E+01  0.19786866225E+02  0.79496200343E+02  0.82022027493E+02  0.10566000000E+00 0.  1.
        994    1    1    2    0    0  0.17590199761E+01 -0.23116359548E+02  0.41800136227E+01  0.17281311508E+03  0.17120000000E+03 0.  0.
        998    1    1    2    0    0  0.22950996515E+01  0.33294933223E+01  0.14163237823E+04  0.14163648574E+04  0.10000000000E+02 0.  1.
</event>
<event>
 5    1  0.1582292E-008  0.3797185E+03  0.7957747E-01  0.3452385E+00
         13   -1    0    0    0    0  0.00000000000E+00  0.00000000000E+00  0.14999999963E+04  0.15000000000E+04  0.10566000000E+00 0.  1.
        994   -1    0    0    0    0 -0.00000000000E+00 -0.00000000000E+00  0.11368683772E-12  0.17120000000E+03  0.17120000000E+03 0.  0.
         13    1    1    2    0    0 -0.18138569071E+02  0.14896677962E+02  0.63601513151E+02  0.67794412317E+02  0.10566000000E+00 0.  1.
        994    1    1    2    0    0  0.17468408725E+02  0.20257481703E+01  0.53107692690E+01  0.17218273209E+03  0.17120000000E+03 0.  0.
        998    1    1    2    0    0  0.67016034525E+00 -0.16922426133E+02  0.14310877139E+04  0.14312228556E+04  0.10000000000E+02 0.  1.
</event>
<event>
 5    1  0.1582292E-008  0.3894225E+03  0.7957747E-01  0.3411130E+00
         13   -1    0    0    0    0  0.00000000000E+00  0.00000000000E+00  0.14999999963E+04  0.15000000000E+04  0.10566000000E+00 0. -1.
        994   -1    0    0    0    0 -0.00000000000E+00 -0.00000000000E+00  0.11368683772E-12  0.17120000000E+03  0.17120000000E+03 0.  0.
         13    1    1    2    0    0 -0.97013305437E+02 -0.41334027586E+02  0.19494289248E+03  0.22163669769E+03  0.10566000000E+00 0. -1.
        994    1    1    2    0    0  0.12124047231E+03  0.44543949108E+02  0.87343911752E+02  0.23156384530E+03  0.17120000000E+03 0.  0.
        998    1    1    2    0    0 -0.24227166875E+02 -0.32099215227E+01  0.12177131920E+04  0.12179994570E+04  0.10000000000E+02 0. -1.
</event>
<event>
 5    1  0.1582292E-008  0.3842091E+03  0.7957747E-01  0.3433034E+00
         13   -1    0    0    0    0  0.00000000000E+00  0.00000000000E+00  0.14999999963E+04  0.15000000000E+04  0.10566000000E+00 0. -1.
        994   -1    0    0    0    0 -0.00000000000E+00 -0.00000000000E+00  0.11368683772E-12  0.17120000000E+03  0.17120000000E+03 0.  0.
         13    1    1    2    0    0 -0.13866082330E+02 -0.46948222884E+00  0.48425252447E+02  0.50373652750E+02  0.10566000000E+00 0. -1.
        994    1    1    2    0    0  0.39916264115E+01 -0.48430271592E+00  0.20766403087E+01  0.17125980283E+03  0.17120000000E+03 0.  0.
        998    1    1    2    0    0  0.98744559183E+01  0.95378494477E+00  0.14494981035E+04  0.14495665444E+04  0.10000000000E+02 0. -1.
</event>
<event>
 5    1  0.1582292E-008  0.3693603E+03  0.7957747E-01  0.3498836E+00
         13   -1    0    0    0    0  0.00000000000E+00  0.00000000000E+00  0.14999999963E+04  0.15000000000E+04  0.10566000000E+00 0.  1.
        994   -1    0    0    0    0 -0.00000000000E+00 -0.00000000000E+00  0.11368683772E-12  0.17120000000E+03  0.17120000000E+03 0.  0.
         13    1    1    2    0    0  0.14119990345E+01 -0.40041516232E+02  0.75903378465E+02  0.85829195441E+02  0.10566000000E+00 0.  1.
        994    1    1    2    0    0 -0.15772879789E+02  0.84470245061E+01  0.11718385382E+02  0.17253085671E+03  0.17120000000E+03 0.  0.
        998    1    1    2    0    0  0.14360880754E+02  0.31594491726E+02  0.14123782324E+04  0.14128399479E+04  0.10000000000E+02 0.  1.
</event>
<event>
 5    1  0.1582292E-008  0.3782140E+03  0.7957747E-01  0.3458972E+00
         13   -1    0    0    0    0  0.00000000000E+00  0.00000000000E+00  0.14999999963E+04  0.15000000000E+04  0.10566000000E+00 0.  1.
        994   -1    0    0    0    0 -0.00000000000E+00 -0.00000000000E+00  0.11368683772E-12  0.17120000000E+03  0.17120000000E+03 0.  0.
         13    1    1    2    0    0 -0.47829982428E+02 -0.98964353261E+01  0.20909051301E+03  0.21471958562E+03  0.10566000000E+00 0.  1.
        994    1    1    2    0    0  0.38883522716E+02  0.42927677649E+02  0.16402710442E+02  0.18147507475E+03  0.17120000000E+03 0.  0.
        998    1    1    2    0    0  0.89464597119E+01 -0.33031242323E+02  0.12745067728E+04  0.12750053396E+04  0.10000000000E+02 0.  1.
</event>
<event>
 5    1  0.1582292E-008  0.3743386E+03  0.7957747E-01  0.3476186E+00
         13   -1    0    0    0    0  0.00000000000E+00  0.00000000000E+00  0.14999999963E+04  0.15000000000E+04  0.10566000000E+00 0. -1.
        994   -1    0    0    0    0 -0.00000000000E+00 -0.00000000000E+00  0.11368683772E-12  0.17120000000E+03  0.17120000000E+03 0.  0.
         13    1    1    2    0    0 -0.10053591687E+02  0.93378293641E+01  0.97717387972E+00  0.13756300224E+02  0.10566000000E+00 0. -1.
        994    1    1    2    0    0  0.96911870433E+01 -0.10427896385E+02  0.13971283948E+02  0.17235804856E+03  0.17120000000E+03 0.  0.
        998    1    1    2    0    0  0.36240464337E+00  0.10900670212E+01  0.14850515385E+04  0.14850856512E+04  0.10000000000E+02 0. -1.
</event>
<event>
 5    1  0.1582292E-008  0.3765333E+03  0.7957747E-01  0.3466393E+00
         13   -1    0    0    0    0  0.00000000000E+00  0.00000000000E+00  0.14999999963E+04  0.15000000000E+04  0.10566000000E+00 0.  1.
        994   -1    0    0    0    0 -0.00000000000E+00 -0.00000000000E+00  0.11368683772E-12  0.17120000000E+03  0.17120000000E+03 0.  0.
         13    1    1    2    0    0  0.25501645673E+02  0.35390218354E+02  0.58120019508E+02  0.72668764396E+02  0.10566000000E+00 0.  1.
        994    1    1    2    0    0 -0.20239023270E+02 -0.41231790273E+02  0.22022999861E+02  0.17861727552E+03  0.17120000000E+03 0.  0.
        998    1    1    2    0    0 -0.52626224023E+01  0.58415719186E+01  0.14198569769E+04  0.14199139601E+04  0.10000000000E+02 0.  1.
</event>
<event>
 5    1  0.1582292E-008  0.3857141E+03  0.7957747E-01  0.3426649E+00
         13   -1    0    0    0    0  0.00000000000E+00  0.00000000000E+00  0.14999999963E+04  0.15000000000E+04  0.10566000000E+00 0.  1.
        994   -1    0    0    0    0 -0.00000000000E+00 -0.00000000000E+00  0.11368683772E-12  0.17120000000E+03  0.17120000000E+03 0.  0.
         13    1    1    2    0    0  0.29046908243E+02 -0.24532839522E+01  0.16842233930E+03  0.17092640820E+03  0.10566000000E+00 0.  1.
        994    1    1    2    0    0 -0.83866179894E+02  0.24632586703E+02  0.26758381945E+02  0.19407666388E+03  0.17120000000E+03 0.  0.
        998    1    1    2    0    0  0.54819271651E+02 -0.22179302751E+02  0.13048192750E+04  0.13061969279E+04  0.10000000000E+02 0.  1.
</event>
<event>
 5    1  0.1582292E-008  0.3844750E+03  0.7957747E-01  0.3431902E+00
         13   -1    0    0    0    0  0.00000000000E+00  0.00000000000E+00  0.14999999963E+04  0.15000000000E+04  0.10566000000E+00 0. -1.
        994   -1    0    0    0    0 -0.00000000000E+00 -0.00000000000E+00  0.11368683772E-12  0.17120000000E+03  0.17120000000E+03 0.  0.
         13    1    1    2    0    0 -0.47680036482E+01  0.15538903705E+02  0.79475945112E+02  0.81121072494E+02  0.10566000000E+00 0. -1.
        994    1    1    2    0    0 -0.64577715554E+01  0.76570586588E+01  0.22216280032E+01  0.17150716892E+03  0.17120000000E+03 0.  0.
        998    1    1    2    0    0  0.11225775204E+02 -0.23195962364E+02  0.14183024232E+04  0.14185717586E+04  0.10000000000E+02 0. -1.
</event>
<event>
 5    1  0.1582292E-008  0.3228710E+03  0.7957747E-01  0.3745160E+00
         13   -1    0    0    0    0  0.00000000000E+00  0.00000000000E+00  0.14999999963E+04  0.15000000000E+04  0.10566000000E+00 0. -1.
        994   -1    0    0    0    0 -0.00000000000E+00 -0.00000000000E+00  0.11368683772E-12  0.17120000000E+03  0.17120000000E+03 0.  0.
         13    1    1    2    0    0 -0.23091302266E+03  0.16243272493E+03  0.61125393252E+03  0.67330275163E+03  0.10566000000E+00 0. -1.
        994    1    1    2    0    0  0.22309277436E+03 -0.10639699313E+03  0.37361069064E+03  0.47956761180E+03  0.17120000000E+03 0.  0.
        998    1    1    2    0    0  0.78202482988E+01 -0.56035731794E+02  0.51513537311E+03  0.51832963658E+03  0.10000000000E+02 0. -1.
</event>
<event>
 5    1  0.1582292E-008  0.3844392E+03  0.7957747E-01  0.3432054E+00
         13   -1    0    0    0    0  0.00000000000E+00  0.00000000000E+00  0.14999999963E+04  0.15000000000E+04  0.10566000000E+00 0. -1.
        994   -1    0    0    0    0 -0.00000000000E+00 -0.00000000000E+00  0.11368683772E-12  0.17120000000E+03  0.17120000000E+03 0.  0.
         13    1    1    2    0    0  0.94969797294E+01  0.82017382017E+01  0.42274423972E+02  0.44097610136E+02  0.10566000000E+00 0. -1.
        994    1    1    2    0    0 -0.53846022507E+01  0.38070756467E+01  0.20521223590E+01  0.17133925111E+03  0.17120000000E+03 0.  0.
        998    1    1    2    0    0 -0.41123774787E+01 -0.12008813848E+02  0.14556734499E+04  0.14557631387E+04  0.10000000000E+02 0. -1.
</event>
<event>
 5    1  0.1582292E-008  0.3768587E+03  0.7957747E-01  0.3464952E+00
         13   -1    0    0    0    0  0.00000000000E+00  0.00000000000E+00  0.14999999963E+04  0.15000000000E+04  0.10566000000E+00 0. -1.
        994   -1    0    0    0    0 -0.00000000000E+00 -0.00000000000E+00  0.11368683772E-12  0.17120000000E+03  0.17120000000E+03 0.  0.
         13    1    1    2    0    0  0.16709705527E+02  0.38387798253E+02  0.13499004084E+03  0.14133350489E+03  0.10566000000E+00 0. -1.
        994    1    1    2    0    0 -0.21510801365E+02 -0.41544851843E+02  0.13156783950E+02  0.17796412631E+03  0.17120000000E+03 0.  0.
        998    1    1    2    0    0  0.48010958380E+01  0.31570535900E+01  0.13518531715E+04  0.13519023688E+04  0.10000000000E+02 0. -1.
</event>
<event>
 5    1  0.1582292E-008  0.3764369E+03  0.7957747E-01  0.3466821E+00
         13   -1    0    0    0    0  0.00000000000E+00  0.00000000000E+00  0.14999999963E+04  0.15000000000E+04  0.10566000000E+00 0.  1.
        994   -1    0    0    0    0 -0.00000000000E+00 -0.00000000000E+00  0.11368683772E-12  0.17120000000E+03  0.17120000000E+03 0.  0.
         13    1    1    2    0    0  0.21408658162E+02  0.36148737436E+01  0.36674560763E+02  0.42619626085E+02  0.10566000000E+00 0.  1.
        994    1    1    2    0    0 -0.19476195897E+02 -0.56104204354E+01  0.73335514979E+01  0.17255149956E+03  0.17120000000E+03 0.  0.
        998    1    1    2    0    0 -0.19324622654E+01  0.19955466917E+01  0.14559918840E+04  0.14560288744E+04  0.10000000000E+02 0.  1.
</event>
<event>
 5    1  0.1582292E-008  0.3772156E+03  0.7957747E-01  0.3463373E+00
         13   -1    0    0    0    0  0.00000000000E+00  0.00000000000E+00  0.14999999963E+04  0.15000000000E+04  0.10566000000E+00 0.  1.
        994   -1    0    0    0    0 -0.00000000000E+00 -0.00000000000E+00  0.11368683772E-12  0.17120000000E+03  0.17120000000E+03 0.  0.
         13    1    1    2    0    0  0.43295376060E+02 -0.12964374828E+02  0.17707874712E+03  0.18275518720E+03  0.10566000000E+00 0.  1.
        994    1    1    2    0    0 -0.30528699010E+02  0.64321218547E+01  0.88365203317E+01  0.17424378826E+03  0.17120000000E+03 0.  0.
        998    1    1    2    0    0 -0.12766677051E+02  0.65322529737E+01  0.13140847288E+04  0.13142010245E+04  0.10000000000E+02 0.  1.
</event>
<event>
 5    1  0.1582292E-008  0.3841018E+03  0.7957747E-01  0.3433490E+00
         13   -1    0    0    0    0  0.00000000000E+00  0.00000000000E+00  0.14999999963E+04  0.15000000000E+04  0.10566000000E+00 0. -1.
        994   -1    0    0    0    0 -0.00000000000E+00 -0.00000000000E+00  0.11368683772E-12  0.17120000000E+03  0.17120000000E+03 0.  0.
         13    1    1    2    0    0  0.17083525722E+02 -0.13170520935E+02  0.11940317758E+03  0.12133605999E+03  0.10566000000E+00 0. -1.
        994    1    1    2    0    0 -0.36145737004E+01  0.30933800718E+01  0.21513858988E+01  0.17127960359E+03  0.17120000000E+03 0.  0.
        998    1    1    2    0    0 -0.13468952022E+02  0.10077140863E+02  0.13784454328E+04  0.13785843364E+04  0.10000000000E+02 0. -1.
</event>
<event>
 5    1  0.1582292E-008  0.3711318E+03  0.7957747E-01  0.3490705E+00
         13   -1    0    0    0    0  0.00000000000E+00  0.00000000000E+00  0.14999999963E+04  0.15000000000E+04  0.10566000000E+00 0. -1.
        994   -1    0    0    0    0 -0.00000000000E+00 -0.00000000000E+00  0.11368683772E-12  0.17120000000E+03  0.17120000000E+03 0.  0.
         13    1    1    2    0    0 -0.38293576884E+02  0.88712902068E+02  0.40847865911E+03  0.41975135870E+03  0.10566000000E+00 0. -1.
        994    1    1    2    0    0  0.27132119702E+02 -0.85982505626E+02  0.37220708256E+02  0.19703797684E+03  0.17120000000E+03 0.  0.
        998    1    1    2    0    0  0.11161457182E+02 -0.27303964420E+01  0.10543006289E+04  0.10544106645E+04  0.10000000000E+02 0. -1.
</event>
<event>
 5    1  0.1582292E-008  0.3831950E+03  0.7957747E-01  0.3437363E+00
         13   -1    0    0    0    0  0.00000000000E+00  0.00000000000E+00  0.14999999963E+04  0.15000000000E+04  0.10566000000E+00 0.  1.
        994   -1    0    0    0    0 -0.00000000000E+00 -0.00000000000E+00  0.11368683772E-12  0.17120000000E+03  0.17120000000E+03 0.  0.
         13    1    1    2    0    0 -0.92345716716E+00  0.11722031134E+02  0.27239292760E+02  0.29668990902E+02  0.10566000000E+00 0.  1.
        994    1    1    2    0    0  0.14209214388E+02  0.10251209983E+01  0.32005763297E+01  0.17182152466E+03  0.17120000000E+03 0.  0.
        998    1    1    2    0    0 -0.13285757220E+02 -0.12747152132E+02  0.14695601272E+04  0.14697094844E+04  0.10000000000E+02 0.  1.
</event>
<event>
 5    1  0.1582292E-008  0.3835090E+03  0.7957747E-01  0.3436021E+00
         13   -1    0    0    0    0  0.00000000000E+00  0.00000000000E+00  0.14999999963E+04  0.15000000000E+04  0.10566000000E+00 0. -1.
        994   -1    0    0    0    0 -0.00000000000E+00 -0.00000000000E+00  0.11368683772E-12  0.17120000000E+03  0.17120000000E+03 0.  0.
         13    1    1    2    0    0 -0.28398618342E+02 -0.12711238097E+01  0.16802854130E+03  0.17041625256E+03  0.10566000000E+00 0. -1.
        994    1    1    2    0    0  0.17765673316E+02  0.98685998043E+01  0.37382531101E+01  0.17244252070E+03  0.17120000000E+03 0.  0.
        998    1    1    2    0    0  0.10632945026E+02 -0.85974759946E+01  0.13282332019E+04  0.13283412267E+04  0.10000000000E+02 0. -1.
</event>
<event>
 5    1  0.1582292E-008  0.3763279E+03  0.7957747E-01  0.3467305E+00
         13   -1    0    0    0    0  0.00000000000E+00  0.00000000000E+00  0.14999999963E+04  0.15000000000E+04  0.10566000000E+00 0.  1.
        994   -1    0    0    0    0 -0.00000000000E+00 -0.00000000000E+00  0.11368683772E-12  0.17120000000E+03  0.17120000000E+03 0.  0.
         13    1    1    2    0    0 -0.25583400438E+02 -0.12125218161E+02  0.66545625254E+02  0.72317789637E+02  0.10566000000E+00 0.  1.
        994    1    1    2    0    0  0.11579522603E+02 -0.14606771414E+01  0.64594858938E+01  0.17171890950E+03  0.17120000000E+03 0.  0.
        998    1    1    2    0    0  0.14003877835E+02  0.13585895303E+02  0.14269948851E+04  0.14271633009E+04  0.10000000000E+02 0.  1.
</event>
<event>
 5    1  0.1582292E-008  0.3848766E+03  0.7957747E-01  0.3430196E+00
         13   -1    0    0    0    0  0.00000000000E+00  0.00000000000E+00  0.14999999963E+04  0.15000000000E+04  0.10566000000E+00 0. -1.
        994   -1    0    0    0    0 -0.00000000000E+00 -0.00000000000E+00  0.11368683772E-12  0.17120000000E+03  0.17120000000E+03 0.  0.
         13    1    1    2    0    0 -0.64795130671E+01 -0.20387812113E+02  0.12276216964E+03  0.12461223227E+03  0.10566000000E+00 0. -1.
        994    1    1    2    0    0  0.24821502511E+02  0.18760851450E+02  0.48828766545E+01  0.17407285549E+03  0.17120000000E+03 0.  0.
        998    1    1    2    0    0 -0.18341989444E+02  0.16269606631E+01  0.13723549500E+04  0.13725149122E+04  0.10000000000E+02 0. -1.
</event>
<event>
 5    1  0.1582292E-008  0.3709304E+03  0.7957747E-01  0.3491626E+00
         13   -1    0    0    0    0  0.00000000000E+00  0.00000000000E+00  0.14999999963E+04  0.15000000000E+04  0.10566000000E+00 0.  1.
        994   -1    0    0    0    0 -0.00000000000E+00 -0.00000000000E+00  0.11368683772E-12  0.17120000000E+03  0.17120000000E+03 0.  0.
         13    1    1    2    0    0 -0.75691625434E+02 -0.21432194226E+02  0.29566686321E+03  0.30595337271E+03  0.10566000000E+00 0.  1.
        994    1    1    2    0    0  0.27360790563E+02  0.10512081001E+02  0.14450791494E+02  0.17429108434E+03  0.17120000000E+03 0.  0.
        998    1    1    2    0    0  0.48330834871E+02  0.10920113225E+02  0.11898823416E+04  0.11909555429E+04  0.10000000000E+02 0.  1.
</event>
<event>
 5    1  0.1582292E-008  0.3856821E+03  0.7957747E-01  0.3426784E+00
         13   -1    0    0    0    0  0.00000000000E+00  0.00000000000E+00  0.14999999963E+04  0.15000000000E+04  0.10566000000E+00 0. -1.
        994   -1    0    0    0    0 -0.00000000000E+00 -0.00000000000E+00  0.11368683772E-12  0.17120000000E+03  0.17120000000E+03 0.  0.
         13    1    1    2    0    0 -0.16753779989E+01  0.11463863672E+02  0.54508060224E+02  0.55725818568E+02  0.10566000000E+00 0. -1.
        994    1    1    2    0    0 -0.26412502491E+01 -0.18932210635E+01  0.13265168631E+01  0.17123597792E+03  0.17120000000E+03 0.  0.
        998    1    1    2    0    0  0.43166282480E+01 -0.95706426081E+01  0.14441654192E+04  0.14442382035E+04  0.10000000000E+02 0. -1.
</event>
<event>
 5    1  0.1582292E-008  0.3783466E+03  0.7957747E-01  0.3458389E+00
         13   -1    0    0    0    0  0.00000000000E+00  0.00000000000E+00  0.14999999963E+04  0.15000000000E+04  0.10566000000E+00 0.  1.
        994   -1    0    0    0    0 -0.00000000000E+00 -0.00000000000E+00  0.11368683772E-12  0.17120000000E+03  0.17120000000E+03 0.  0.
         13    1    1    2    0    0 -0.11393576129E+02  0.26636382243E+02  0.94495176386E+02  0.98836531506E+02  0.10566000000E+00 0.  1.
        994    1    1    2    0    0  0.96478240204E+00  0.11948174975E+02  0.54532155492E+01  0.17170575777E+03  0.17120000000E+03 0.  0.
        998    1    1    2    0    0  0.10428793727E+02 -0.38584557218E+02  0.14000516043E+04  0.14006577107E+04  0.10000000000E+02 0.  1.
</event>
<event>
 5    1  0.1582292E-008  0.3733904E+03  0.7957747E-01  0.3480453E+00
         13   -1    0    0    0    0  0.00000000000E+00  0.00000000000E+00  0.14999999963E+04  0.15000000000E+04  0.10566000000E+00 0.  1.
        994   -1    0    0    0    0 -0.00000000000E+00 -0.00000000000E+00  0.11368683772E-12  0.17120000000E+03  0.17120000000E+03 0.  0.
         13    1    1    2    0    0  0.68539004990E+01  0.14913522745E+03  0.71556910494E+03  0.73097704965E+03  0.10566000000E+00 0.  1.
        994    1    1    2    0    0 -0.42520556467E+01 -0.14835616472E+03  0.86985419506E+02  0.24270050431E+03  0.17120000000E+03 0.  0.
        998    1    1    2    0    0 -0.26018448523E+01 -0.77906272705E+00  0.69744547184E+03  0.69752244603E+03  0.10000000000E+02 0.  0.
</event>
<event>
 5    1  0.1582292E-008  0.3712822E+03  0.7957747E-01  0.3490019E+00
         13   -1    0    0    0    0  0.00000000000E+00  0.00000000000E+00  0.14999999963E+04  0.15000000000E+04  0.10566000000E+00 0. -1.
        994   -1    0    0    0    0 -0.00000000000E+00 -0.00000000000E+00  0.11368683772E-12  0.17120000000E+03  0.17120000000E+03 0.  0.
         13    1    1    2    0    0  0.82710654503E+01 -0.77524976422E+01  0.36000084630E+01  0.11894661338E+02  0.10566000000E+00 0. -1.
        994    1    1    2    0    0  0.48207756242E+01  0.25416078711E+01  0.87026398987E+01  0.17150765461E+03  0.17120000000E+03 0.  0.
        998    1    1    2    0    0 -0.13091841074E+02  0.52108897712E+01  0.14876973479E+04  0.14877976841E+04  0.10000000000E+02 0. -1.
</event>
<event>
 5    1  0.1582292E-008  0.3832514E+03  0.7957747E-01  0.3437122E+00
         13   -1    0    0    0    0  0.00000000000E+00  0.00000000000E+00  0.14999999963E+04  0.15000000000E+04  0.10566000000E+00 0. -1.
        994   -1    0    0    0    0 -0.00000000000E+00 -0.00000000000E+00  0.11368683772E-12  0.17120000000E+03  0.17120000000E+03 0.  0.
         13    1    1    2    0    0  0.86546200401E+01  0.15139324896E+02  0.62503767607E+02  0.64890937237E+02  0.10566000000E+00 0. -1.
        994    1    1    2    0    0 -0.95059759322E+01  0.10426214167E+01  0.28033152715E+01  0.17148979332E+03  0.17120000000E+03 0.  0.
        998    1    1    2    0    0  0.85135589213E+00 -0.16181946313E+02  0.14346929134E+04  0.14348192694E+04  0.10000000000E+02 0. -1.
</event>
<event>
 5    1  0.1582292E-008  0.3841221E+03  0.7957747E-01  0.3433404E+00
         13   -1    0    0    0    0  0.00000000000E+00  0.00000000000E+00  0.14999999963E+04  0.15000000000E+04  0.10566000000E+00 0.  1.
        994   -1    0    0    0    0 -0.00000000000E+00 -0.00000000000E+00  0.11368683772E-12  0.17120000000E+03  0.17120000000E+03 0.  0.
         13    1    1    2    0    0 -0.46096484039E+01 -0.16521462298E+02  0.84770011128E+02  0.86487996424E+02  0.10566000000E+00 0.  1.
        994    1    1    2    0    0  0.39628796348E+01 -0.17475122528E+02  0.31262830807E+01  0.17216357910E+03  0.17120000000E+03 0.  0.
        998    1    1    2    0    0  0.64676876905E+00  0.33996584827E+02  0.14121037021E+04  0.14125484245E+04  0.10000000000E+02 0.  1.
</event>
<event>
 5    1  0.1582292E-008  0.3856445E+03  0.7957747E-01  0.3426943E+00
         13   -1    0    0    0    0  0.00000000000E+00  0.00000000000E+00  0.14999999963E+04  0.15000000000E+04  0.10566000000E+00 0.  1.
        994   -1    0    0    0    0 -0.00000000000E+00 -0.00000000000E+00  0.11368683772E-12  0.17120000000E+03  0.17120000000E+03 0.  0.
         13    1    1    2    0    0 -0.10238051074E+02  0.51122949628E+01  0.47905661639E+02  0.49253597135E+02  0.10566000000E+00 0.  1.
        994    1    1    2    0    0  0.17616688254E+02 -0.91821452009E-01  0.23296827976E+01  0.17211979421E+03  0.17120000000E+03 0.  0.
        998    1    1    2    0    0 -0.73786371803E+01 -0.50204735108E+01  0.14497646518E+04  0.14498266087E+04  0.10000000000E+02 0.  1.
</event>
<event>
 5    1  0.1582292E-008  0.3781969E+03  0.7957747E-01  0.3459047E+00
         13   -1    0    0    0    0  0.00000000000E+00  0.00000000000E+00  0.14999999963E+04  0.15000000000E+04  0.10566000000E+00 0. -1.
        994   -1    0    0    0    0 -0.00000000000E+00 -0.00000000000E+00  0.11368683772E-12  0.17120000000E+03  0.17120000000E+03 0.  0.
         13    1    1    2    0    0 -0.13839894940E+02  0.86375835879E+01  0.25108782120E+02  0.29943490875E+02  0.10566000000E+00 0. -1.
        994    1    1    2    0    0 -0.76420240163E+00  0.90600984900E+00  0.50508422789E+01  0.17127859139E+03  0.17120000000E+03 0.  0.
        998    1    1    2    0    0  0.14604097342E+02 -0.95435934369E+01  0.14698403719E+04  0.14699779177E+04  0.10000000000E+02 0. -1.
</event>
<event>
 5    1  0.1582292E-008  0.3845954E+03  0.7957747E-01  0.3431390E+00
         13   -1    0    0    0    0  0.00000000000E+00  0.00000000000E+00  0.14999999963E+04  0.15000000000E+04  0.10566000000E+00 0. -1.
        994   -1    0    0    0    0 -0.00000000000E+00 -0.00000000000E+00  0.11368683772E-12  0.17120000000E+03  0.17120000000E+03 0.  0.
         13    1    1    2    0    0 -0.13684360190E+02 -0.15815948509E+02  0.11713967103E+03  0.11899209904E+03  0.10566000000E+00 0. -1.
        994    1    1    2    0    0  0.11778815146E+02  0.10027760281E+02  0.26195182447E+01  0.17191741720E+03  0.17120000000E+03 0.  0.
        998    1    1    2    0    0  0.19055450434E+01  0.57881882274E+01  0.13802408070E+04  0.13802904838E+04  0.10000000000E+02 0. -1.
</event>
<event>
 5    1  0.1582292E-008  0.3852822E+03  0.7957747E-01  0.3428476E+00
         13   -1    0    0    0    0  0.00000000000E+00  0.00000000000E+00  0.14999999963E+04  0.15000000000E+04  0.10566000000E+00 0.  1.
        994   -1    0    0    0    0 -0.00000000000E+00 -0.00000000000E+00  0.11368683772E-12  0.17120000000E+03  0.17120000000E+03 0.  0.
         13    1    1    2    0    0  0.12621005921E+02 -0.55722688879E+01  0.72591893457E+02  0.73891367092E+02  0.10566000000E+00 0.  1.
        994    1    1    2    0    0  0.10542700868E+02  0.32589476012E+01  0.18902811466E+01  0.17156567968E+03  0.17120000000E+03 0.  0.
        998    1    1    2    0    0 -0.23163706789E+02  0.23133212868E+01  0.14255178217E+04  0.14257429532E+04  0.10000000000E+02 0.  1.
</event>
<event>
 5    1  0.1582292E-008  0.3757170E+03  0.7957747E-01  0.3470022E+00
         13   -1    0    0    0    0  0.00000000000E+00  0.00000000000E+00  0.14999999963E+04  0.15000000000E+04  0.10566000000E+00 0.  1.
        994   -1    0    0    0    0 -0.00000000000E+00 -0.00000000000E+00  0.11368683772E-12  0.17120000000E+03  0.17120000000E+03 0.  0.
         13    1    1    2    0    0  0.23952420411E+02 -0.14679837012E+02  0.65953316600E+02  0.71687287526E+02  0.10566000000E+00 0.  1.
        994    1    1    2    0    0  0.10801164088E+02  0.31387083026E+01  0.67401222069E+01  0.17170144403E+03  0.17120000000E+03 0.  0.
        998    1    1    2    0    0 -0.34753584498E+02  0.11541128710E+02  0.14273065575E+04  0.14278112684E+04  0.10000000000E+02 0.  1.
</event>
<event>
 5    1  0.1582292E-008  0.3756263E+03  0.7957747E-01  0.3470427E+00
         13   -1    0    0    0    0  0.00000000000E+00  0.00000000000E+00  0.14999999963E+04  0.15000000000E+04  0.10566000000E+00 0. -1.
        994   -1    0    0    0    0 -0.00000000000E+00 -0.00000000000E+00  0.11368683772E-12  0.17120000000E+03  0.17120000000E+03 0.  0.
         13    1    1    2    0    0  0.17055261577E+02  0.19478868947E+02  0.49635649267E+02  0.55982292961E+02  0.10566000000E+00 0. -1.
        994    1    1    2    0    0 -0.18880833130E+02 -0.11133559584E+02  0.79888446714E+01  0.17278224344E+03  0.17120000000E+03 0.  0.
        998    1    1    2    0    0  0.18255715524E+01 -0.83453093638E+01  0.14423755023E+04  0.14424354636E+04  0.10000000000E+02 0. -1.
</event>
<event>
 5    1  0.1582292E-008  0.3783953E+03  0.7957747E-01  0.3458176E+00
         13   -1    0    0    0    0  0.00000000000E+00  0.00000000000E+00  0.14999999963E+04  0.15000000000E+04  0.10566000000E+00 0.  1.
        994   -1    0    0    0    0 -0.00000000000E+00 -0.00000000000E+00  0.11368683772E-12  0.17120000000E+03  0.17120000000E+03 0.  0.
         13    1    1    2    0    0  0.36032067551E+02 -0.49214061759E+01  0.17368045746E+03  0.17744701350E+03  0.10566000000E+00 0.  1.
        994    1    1    2    0    0  0.21034218048E+02  0.57512760911E+01  0.65450914472E+01  0.17270724863E+03  0.17120000000E+03 0.  0.
        998    1    1    2    0    0 -0.57066285599E+02 -0.82986991520E+00  0.13197744474E+04  0.13210457379E+04  0.10000000000E+02 0.  1.
</event>
<event>
 5    1  0.1582292E-008  0.3825035E+03  0.7957747E-01  0.3440330E+00
         13   -1    0    0    0    0  0.00000000000E+00  0.00000000000E+00  0.14999999963E+04  0.15000000000E+04  0.10566000000E+00 0.  1.
        994   -1    0    0    0    0 -0.00000000000E+00 -0.00000000000E+00  0.11368683772E-12  0.17120000000E+03  0.17120000000E+03 0.  0.
         13    1    1    2    0    0  0.11630120701E+02  0.31104897753E+01  0.24058097974E+02  0.26902380867E+02  0.10566000000E+00 0.  1.
        994    1    1    2    0    0 -0.69596154189E+01 -0.10359105606E+02  0.33912426840E+01  0.17168776265E+03  0.17120000000E+03 0.  0.
        998    1    1    2    0    0 -0.46705052818E+01  0.72486158307E+01  0.14725506556E+04  0.14726098565E+04  0.10000000000E+02 0.  1.
</event>
<event>
 5    1  0.1582292E-008  0.3711384E+03  0.7957747E-01  0.3490675E+00
         13   -1    0    0    0    0  0.00000000000E+00  0.00000000000E+00  0.14999999963E+04  0.15000000000E+04  0.10566000000E+00 0. -1.
        994   -1    0    0    0    0 -0.00000000000E+00 -0.00000000000E+00  0.11368683772E-12  0.17120000000E+03  0.17120000000E+03 0.  0.
         13    1    1    2    0    0  0.10299462031E+02 -0.12291319215E+02  0.57018670769E+01  0.17019926509E+02  0.10566000000E+00 0. -1.
        994    1    1    2    0    0 -0.19528069309E+02  0.16255081957E+02  0.13811251051E+02  0.17362535482E+03  0.17120000000E+03 0.  0.
        998    1    1    2    0    0  0.92286072782E+01 -0.39637627422E+01  0.14804868782E+04  0.14805547187E+04  0.10000000000E+02 0. -1.
</event>
<event>
 5    1  0.1582292E-008  0.3684923E+03  0.7957747E-01  0.3502849E+00
         13   -1    0    0    0    0  0.00000000000E+00  0.00000000000E+00  0.14999999963E+04  0.15000000000E+04  0.10566000000E+00 0.  1.
        994   -1    0    0    0    0 -0.00000000000E+00 -0.00000000000E+00  0.11368683772E-12  0.17120000000E+03  0.17120000000E+03 0.  0.
         13    1    1    2    0    0 -0.51283737698E+02 -0.65447653654E+02  0.31924344493E+03  0.32989362743E+03  0.10566000000E+00 0.  1.
        994    1    1    2    0    0  0.51832726517E+02  0.31990375665E+02  0.23159329636E+02  0.18318245064E+03  0.17120000000E+03 0.  0.
        998    1    1    2    0    0 -0.54898881914E+00  0.33457277989E+02  0.11575972217E+04  0.11581239219E+04  0.10000000000E+02 0.  1.
</event>
<event>
 5    1  0.1582292E-008  0.3793419E+03  0.7957747E-01  0.3454029E+00
         13   -1    0    0    0    0  0.00000000000E+00  0.00000000000E+00  0.14999999963E+04  0.15000000000E+04  0.10566000000E+00 0. -1.
        994   -1    0    0    0    0 -0.00000000000E+00 -0.00000000000E+00  0.11368683772E-12  0.17120000000E+03  0.17120000000E+03 0.  0.
         13    1    1    2    0    0 -0.35120443429E+02 -0.24607206141E+02  0.20483570396E+03  0.20927646050E+03  0.10566000000E+00 0. -1.
        994    1    1    2    0    0  0.17322686385E+02  0.17851927180E+02  0.65414929953E+01  0.17312133866E+03  0.17120000000E+03 0.  0.
        998    1    1    2    0    0  0.17797757043E+02  0.67552789615E+01  0.12886227993E+04  0.12888022008E+04  0.10000000000E+02 0. -1.
</event>
<event>
 5    1  0.1582292E-008  0.3720103E+03  0.7957747E-01  0.3486702E+00
         13   -1    0    0    0    0  0.00000000000E+00  0.00000000000E+00  0.14999999963E+04  0.15000000000E+04  0.10566000000E+00 0.  1.
        994   -1    0    0    0    0 -0.00000000000E+00 -0.00000000000E+00  0.11368683772E-12  0.17120000000E+03  0.17120000000E+03 0.  0.
         13    1    1    2    0    0 -0.66564625407E+00 -0.79272761015E+02  0.33525883250E+03  0.34450415042E+03  0.10566000000E+00 0.  1.
        994    1    1    2    0    0 -0.24318329204E+02  0.63552106722E+02  0.24293185917E+02  0.18582209311E+03  0.17120000000E+03 0.  0.
        998    1    1    2    0    0  0.24983975458E+02  0.15720654293E+02  0.11404479779E+04  0.11408737565E+04  0.10000000000E+02 0. -1.
</event>
<event>
 5    1  0.1582292E-008  0.3836815E+03  0.7957747E-01  0.3435284E+00
         13   -1    0    0    0    0  0.00000000000E+00  0.00000000000E+00  0.14999999963E+04  0.15000000000E+04  0.10566000000E+00 0.  1.
        994   -1    0    0    0    0 -0.00000000000E+00 -0.00000000000E+00  0.11368683772E-12  0.17120000000E+03  0.17120000000E+03 0.  0.
         13    1    1    2    0    0  0.55472490505E+01 -0.19426435997E+02  0.92404700302E+02  0.94587516034E+02  0.10566000000E+00 0.  1.
        994    1    1    2    0    0 -0.12627779688E+01  0.63990222108E+01  0.24266992440E+01  0.17134138719E+03  0.17120000000E+03 0.  0.
        998    1    1    2    0    0 -0.42844710817E+01  0.13027413786E+02  0.14051685967E+04  0.14052710968E+04  0.10000000000E+02 0.  1.
</event>
<event>
 5    1  0.1582292E-008  0.3832113E+03  0.7957747E-01  0.3437294E+00
         13   -1    0    0    0    0  0.00000000000E+00  0.00000000000E+00  0.14999999963E+04  0.15000000000E+04  0.10566000000E+00 0. -1.
        994   -1    0    0    0    0 -0.00000000000E+00 -0.00000000000E+00  0.11368683772E-12  0.17120000000E+03  0.17120000000E+03 0.  0.
         13    1    1    2    0    0 -0.21997336225E+02 -0.21245940905E+02  0.16686801143E+03  0.16964733186E+03  0.10566000000E+00 0. -1.
        994    1    1    2    0    0  0.99594395514E+01  0.34311944803E+02  0.67547473679E+01  0.17501876072E+03  0.17120000000E+03 0.  0.
        998    1    1    2    0    0  0.12037896674E+02 -0.13066003899E+02  0.13263772375E+04  0.13265339074E+04  0.10000000000E+02 0. -1.
</event>
<event>
 5    1  0.1582292E-008  0.3837600E+03  0.7957747E-01  0.3434948E+00
         13   -1    0    0    0    0  0.00000000000E+00  0.00000000000E+00  0.14999999963E+04  0.15000000000E+04  0.10566000000E+00 0.  1.
        994   -1    0    0    0    0 -0.00000000000E+00 -0.00000000000E+00  0.11368683772E-12  0.17120000000E+03  0.17120000000E+03 0.  0.
         13    1    1    2    0    0  0.25054927386E+01  0.16283102110E+02  0.60734370314E+02  0.62929260361E+02  0.10566000000E+00 0.  1.
        994    1    1    2    0    0  0.56415475992E+01 -0.90689457358E+01  0.26238003116E+01  0.17155289903E+03  0.17120000000E+03 0.  0.
        998    1    1    2    0    0 -0.81470403378E+01 -0.72141563745E+01  0.14366418257E+04  0.14367178406E+04  0.10000000000E+02 0.  1.
</event>
<event>
 5    1  0.1582292E-008  0.3845657E+03  0.7957747E-01  0.3431516E+00
         13   -1    0    0    0    0  0.00000000000E+00  0.00000000000E+00  0.14999999963E+04  0.15000000000E+04  0.10566000000E+00 0. -1.
        994   -1    0    0    0    0 -0.00000000000E+00 -0.00000000000E+00  0.11368683772E-12  0.17120000000E+03  0.17120000000E+03 0.  0.
         13    1    1    2    0    0  0.11253453441E+02 -0.54542826270E+00  0.34570693091E+02  0.36360441295E+02  0.10566000000E+00 0. -1.
        994    1    1    2    0    0 -0.40634360243E+01  0.40194074544E+00  0.19008128621E+01  0.17125923671E+03  0.17120000000E+03 0.  0.
        998    1    1    2    0    0 -0.71900174164E+01  0.14348751726E+00  0.14635284903E+04  0.14635803220E+04  0.10000000000E+02 0. -1.
</event>
<event>
 5    1  0.1582292E-008  0.3814876E+03  0.7957747E-01  0.3444707E+00
         13   -1    0    0    0    0  0.00000000000E+00  0.00000000000E+00  0.14999999963E+04  0.15000000000E+04  0.10566000000E+00 0. -1.
        994   -1    0    0    0    0 -0.00000000000E+00 -0.00000000000E+00  0.11368683772E-12  0.17120000000E+03  0.17120000000E+03 0.  0.
         13    1    1    2    0    0 -0.24761242166E+02  0.34831206110E+01  0.99178651013E+02  0.10228229184E+03  0.10566000000E+00 0. -1.
        994    1    1    2    0    0  0.33180759537E-01 -0.49288057464E+01  0.34649246194E+01  0.17130598334E+03  0.17120000000E+03 0.  0.
        998    1    1    2    0    0  0.24728061406E+02  0.14456851354E+01  0.13973564206E+04  0.13976117248E+04  0.10000000000E+02 0. -1.
</event>
<event>
 5    1  0.1582292E-008  0.3828973E+03  0.7957747E-01  0.3438639E+00
         13   -1    0    0    0    0  0.00000000000E+00  0.00000000000E+00  0.14999999963E+04  0.15000000000E+04  0.10566000000E+00 0. -1.
        994   -1    0    0    0    0 -0.00000000000E+00 -0.00000000000E+00  0.11368683772E-12  0.17120000000E+03  0.17120000000E+03 0.  0.
         13    1    1    2    0    0 -0.71145855893E+00 -0.36275621164E+02  0.20725872573E+03  0.21041059246E+03  0.10566000000E+00 0. -1.
        994    1    1    2    0    0 -0.99121119896E+01  0.40213753504E+02  0.83786128942E+01  0.17633784928E+03  0.17120000000E+03 0.  0.
        998    1    1    2    0    0  0.10623570549E+02 -0.39381323401E+01  0.12843626576E+04  0.12844515583E+04  0.10000000000E+02 0. -1.
</event>
<event>
 5    1  0.1582292E-008  0.3814233E+03  0.7957747E-01  0.3444984E+00
         13   -1    0    0    0    0  0.00000000000E+00  0.00000000000E+00  0.14999999963E+04  0.15000000000E+04  0.10566000000E+00 0. -1.
        994   -1    0    0    0    0 -0.00000000000E+00 -0.00000000000E+00  0.11368683772E-12  0.17120000000E+03  0.17120000000E+03 0.  0.
         13    1    1    2    0    0  0.21173148053E+02  0.26665480880E+02  0.20282470180E+03  0.20566288166E+03  0.10566000000E+00 0. -1.
        994    1    1    2    0    0 -0.25881441715E+01  0.47791769519E+01  0.35146680872E+01  0.17132230419E+03  0.17120000000E+03 0.  0.
        998    1    1    2    0    0 -0.18585003882E+02 -0.31444657832E+02  0.12936606264E+04  0.12942148141E+04  0.10000000000E+02 0. -1.
</event>
<event>
 5    1  0.1582292E-008  0.3771421E+03  0.7957747E-01  0.3463698E+00
         13   -1    0    0    0    0  0.00000000000E+00  0.00000000000E+00  0.14999999963E+04  0.15000000000E+04  0.10566000000E+00 0. -1.
        994   -1    0    0    0    0 -0.00000000000E+00 -0.00000000000E+00  0.11368683772E-12  0.17120000000E+03  0.17120000000E+03 0.  0.
         13    1    1    2    0    0  0.12585913070E+02 -0.46559694940E+01  0.14180396787E+02  0.19523782339E+02  0.10566000000E+00 0. -1.
        994    1    1    2    0    0  0.13433470908E+02  0.17978177410E+02  0.72844622785E+01  0.17281833350E+03  0.17120000000E+03 0.  0.
        998    1    1    2    0    0 -0.26019383978E+02 -0.13322207916E+02  0.14785351372E+04  0.14788578842E+04  0.10000000000E+02 0. -1.
</event>
<event>
 5    1  0.1582292E-008  0.3788476E+03  0.7957747E-01  0.3456192E+00
         13   -1    0    0    0    0  0.00000000000E+00  0.00000000000E+00  0.14999999963E+04  0.15000000000E+04  0.10566000000E+00 0.  1.
        994   -1    0    0    0    0 -0.00000000000E+00 -0.00000000000E+00  0.11368683772E-12  0.17120000000E+03  0.17120000000E+03 0.  0.
         13    1    1    2    0    0 -0.12075704262E+01  0.14342376946E+02  0.19687248020E+02  0.24387720300E+02  0.10566000000E+00 0.  1.
        994    1    1    2    0    0  0.92246846275E+00 -0.15586715347E+02  0.55345396885E+01  0.17199961562E+03  0.17120000000E+03 0.  0.
        998    1    1    2    0    0  0.28510196341E+00  0.12443384013E+01  0.14747782086E+04  0.14748126641E+04  0.10000000000E+02 0.  1.
</event>
<event>
 5    1  0.1582292E-008  0.3735824E+03  0.7957747E-01  0.3479587E+00
         13   -1    0    0    0    0  0.00000000000E+00  0.00000000000E+00  0.14999999963E+04  0.15000000000E+04  0.10566000000E+00 0.  1.
        994   -1    0    0    0    0 -0.00000000000E+00 -0.00000000000E+00  0.11368683772E-12  0.17120000000E+03  0.17120000000E+03 0.  0.
         13    1    1    2    0    0 -0.91310638463E+02 -0.64702388839E+02  0.45119723429E+03  0.46486878495E+03  0.10566000000E+00 0.  1.
        994    1    1    2    0    0  0.97240957080E+02  0.99910580833E+02  0.77012555301E+02  0.23383391878E+03  0.17120000000E+03 0.  0.
        998    1    1    2    0    0 -0.59303186174E+01 -0.35208191994E+02  0.97179020668E+03  0.97249729628E+03  0.10000000000E+02 0.  1.
</event>
<event>
 5    1  0.1582292E-008  0.3744945E+03  0.7957747E-01  0.3475486E+00
         13   -1    0    0    0    0  0.00000000000E+00  0.00000000000E+00  0.14999999963E+04  0.15000000000E+04  0.10566000000E+00 0. -1.
        994   -1    0    0    0    0 -0.00000000000E+00 -0.00000000000E+00  0.11368683772E-12  0.17120000000E+03  0.17120000000E+03 0.  0.
         13    1    1    2    0    0 -0.29871816806E+02  0.68373695616E+01  0.63721850292E+02  0.70707569825E+02  0.10566000000E+00 0. -1.
        994    1    1    2    0    0  0.22578022592E+02 -0.16688444025E+02  0.96272512738E+01  0.17375383517E+03  0.17120000000E+03 0.  0.
        998    1    1    2    0    0  0.72937942139E+01  0.98510744629E+01  0.14266508947E+04  0.14267385950E+04  0.10000000000E+02 0. -1.
</event>
<event>
 5    1  0.1582292E-008  0.3809852E+03  0.7957747E-01  0.3446880E+00
         13   -1    0    0    0    0  0.00000000000E+00  0.00000000000E+00  0.14999999963E+04  0.15000000000E+04  0.10566000000E+00 0.  1.
        994   -1    0    0    0    0 -0.00000000000E+00 -0.00000000000E+00  0.11368683772E-12  0.17120000000E+03  0.17120000000E+03 0.  0.
         13    1    1    2    0    0 -0.25442419695E+02 -0.50644692987E+01  0.88985222173E+02  0.92689516659E+02  0.10566000000E+00 0.  1.
        994    1    1    2    0    0  0.16805195582E+02  0.24848531591E+02  0.66408532969E+01  0.17393505987E+03  0.17120000000E+03 0.  0.
        998    1    1    2    0    0  0.86372241136E+01 -0.19784062293E+02  0.14043739208E+04  0.14045754235E+04  0.10000000000E+02 0.  1.
</event>
<event>
 5    1  0.1582292E-008  0.3822817E+03  0.7957747E-01  0.3441283E+00
         13   -1    0    0    0    0  0.00000000000E+00  0.00000000000E+00  0.14999999963E+04  0.15000000000E+04  0.10566000000E+00 0.  1.
        994   -1    0    0    0    0 -0.00000000000E+00 -0.00000000000E+00  0.11368683772E-12  0.17120000000E+03  0.17120000000E+03 0.  0.
         13    1    1    2    0    0 -0.12497426300E+02  0.83200886459E+01  0.37745613482E+02  0.40622063467E+02  0.10566000000E+00 0.  1.
        994    1    1    2    0    0  0.57046352348E+01  0.36014050496E+01  0.31368073867E+01  0.17136158421E+03  0.17120000000E+03 0.  0.
        998    1    1    2    0    0  0.67927910653E+01 -0.11921493695E+02  0.14591175754E+04  0.14592163523E+04  0.10000000000E+02 0.  1.
</event>
<event>
 5    1  0.1582292E-008  0.3795420E+03  0.7957747E-01  0.3453155E+00
         13   -1    0    0    0    0  0.00000000000E+00  0.00000000000E+00  0.14999999963E+04  0.15000000000E+04  0.10566000000E+00 0. -1.
        994   -1    0    0    0    0 -0.00000000000E+00 -0.00000000000E+00  0.11368683772E-12  0.17120000000E+03  0.17120000000E+03 0.  0.
         13    1    1    2    0    0  0.12947253965E+02 -0.15371708504E+02  0.48601468554E+02  0.52593105225E+02  0.10566000000E+00 0. -1.
        994    1    1    2    0    0  0.24845975198E+01 -0.11345098871E+02  0.48162420760E+01  0.17166106338E+03  0.17120000000E+03 0.  0.
        998    1    1    2    0    0 -0.15431851485E+02  0.26716807375E+02  0.14465822856E+04  0.14469458314E+04  0.10000000000E+02 0. -1.
</event>
<event>
 5    1  0.1582292E-008  0.3740594E+03  0.7957747E-01  0.3477440E+00
         13   -1    0    0    0    0  0.00000000000E+00  0.00000000000E+00  0.14999999963E+04  0.15000000000E+04  0.10566000000E+00 0. -1.
        994   -1    0    0    0    0 -0.00000000000E+00 -0.00000000000E+00  0.11368683772E-12  0.17120000000E+03  0.17120000000E+03 0.  0.
         13    1    1    2    0    0  0.15104779734E+02  0.11804813262E+02  0.22543313951E+02  0.29592569251E+02  0.10566000000E+00 0. -1.
        994    1    1    2    0    0 -0.27180987730E+02  0.11444336936E+02  0.10134197042E+02  0.17401701322E+03  0.17120000000E+03 0.  0.
        998    1    1    2    0    0  0.12076207997E+02 -0.23249150198E+02  0.14673224853E+04  0.14675904175E+04  0.10000000000E+02 0. -1.
</event>
<event>
 5    1  0.1582292E-008  0.3722344E+03  0.7957747E-01  0.3485685E+00
         13   -1    0    0    0    0  0.00000000000E+00  0.00000000000E+00  0.14999999963E+04  0.15000000000E+04  0.10566000000E+00 0. -1.
        994   -1    0    0    0    0 -0.00000000000E+00 -0.00000000000E+00  0.11368683772E-12  0.17120000000E+03  0.17120000000E+03 0.  0.
         13    1    1    2    0    0 -0.32976644187E+01 -0.94416046187E+02  0.32017672716E+03  0.33382392387E+03  0.10566000000E+00 0. -1.
        994    1    1    2    0    0 -0.76898004887E+01  0.76806761912E+02  0.33427939234E+02  0.19074925643E+03  0.17120000000E+03 0.  0.
        998    1    1    2    0    0  0.10987464907E+02  0.17609284274E+02  0.11463953299E+04  0.11466268197E+04  0.10000000000E+02 0. -1.
</event>
<event>
 5    1  0.1582292E-008  0.3735686E+03  0.7957747E-01  0.3479649E+00
         13   -1    0    0    0    0  0.00000000000E+00  0.00000000000E+00  0.14999999963E+04  0.15000000000E+04  0.10566000000E+00 0.  1.
        994   -1    0    0    0    0 -0.00000000000E+00 -0.00000000000E+00  0.11368683772E-12  0.17120000000E+03  0.17120000000E+03 0.  0.
         13    1    1    2    0    0  0.24403277482E+02 -0.38225485538E+02  0.10914063530E+03  0.11818797373E+03  0.10566000000E+00 0.  1.
        994    1    1    2    0    0 -0.40718737485E+02  0.68811530391E+02  0.29577290274E+02  0.19125192390E+03  0.17120000000E+03 0.  0.
        998    1    1    2    0    0  0.16315460004E+02 -0.30586044853E+02  0.13612820707E+04  0.13617601024E+04  0.10000000000E+02 0.  1.
</event>
<event>
 5    1  0.1582292E-008  0.4028771E+03  0.7957747E-01  0.3357220E+00
         13   -1    0    0    0    0  0.00000000000E+00  0.00000000000E+00  0.14999999963E+04  0.15000000000E+04  0.10566000000E+00 0. -1.
        994   -1    0    0    0    0 -0.00000000000E+00 -0.00000000000E+00  0.11368683772E-12  0.17120000000E+03  0.17120000000E+03 0.  0.
         13    1    1    2    0    0 -0.48395718913E+02 -0.14508327139E+03  0.34315328061E+03  0.37569334091E+03  0.10566000000E+00 0. -1.
        994    1    1    2    0    0 -0.87747998011E+00  0.12704583094E+03  0.96841075219E+02  0.23415603127E+03  0.17120000000E+03 0.  0.
        998    1    1    2    0    0  0.49273198893E+02  0.18037440451E+02  0.10600056405E+04  0.10613506278E+04  0.10000000000E+02 0. -1.
</event>
<event>
 5    1  0.1582292E-008  0.3795137E+03  0.7957747E-01  0.3453279E+00
         13   -1    0    0    0    0  0.00000000000E+00  0.00000000000E+00  0.14999999963E+04  0.15000000000E+04  0.10566000000E+00 0. -1.
        994   -1    0    0    0    0 -0.00000000000E+00 -0.00000000000E+00  0.11368683772E-12  0.17120000000E+03  0.17120000000E+03 0.  0.
         13    1    1    2    0    0 -0.57467350883E+01 -0.42109814256E+02  0.15542857960E+03  0.16113446541E+03  0.10566000000E+00 0. -1.
        994    1    1    2    0    0  0.38130123241E+02  0.66542147551E+02  0.24331343330E+02  0.18916452619E+03  0.17120000000E+03 0.  0.
        998    1    1    2    0    0 -0.32383388153E+02 -0.24432333295E+02  0.13202400733E+04  0.13209010084E+04  0.10000000000E+02 0. -1.
</event>
<event>
 5    1  0.1582292E-008  0.3809918E+03  0.7957747E-01  0.3446851E+00
         13   -1    0    0    0    0  0.00000000000E+00  0.00000000000E+00  0.14999999963E+04  0.15000000000E+04  0.10566000000E+00 0. -1.
        994   -1    0    0    0    0 -0.00000000000E+00 -0.00000000000E+00  0.11368683772E-12  0.17120000000E+03  0.17120000000E+03 0.  0.
         13    1    1    2    0    0  0.18926811424E+02 -0.17754711266E+01  0.46921701771E+02  0.50626413556E+02  0.10566000000E+00 0. -1.
        994    1    1    2    0    0 -0.21235918044E+02 -0.53907102012E+01  0.52344179886E+01  0.17267560078E+03  0.17120000000E+03 0.  0.
        998    1    1    2    0    0  0.23091066191E+01  0.71661813277E+01  0.14478438765E+04  0.14478979857E+04  0.10000000000E+02 0. -1.
</event>
<event>
 5    1  0.1582292E-008  0.3790154E+03  0.7957747E-01  0.3455457E+00
         13   -1    0    0    0    0  0.00000000000E+00  0.00000000000E+00  0.14999999963E+04  0.15000000000E+04  0.10566000000E+00 0.  1.
        994   -1    0    0    0    0 -0.00000000000E+00 -0.00000000000E+00  0.11368683772E-12  0.17120000000E+03  0.17120000000E+03 0.  0.
         13    1    1    2    0    0  0.13730531724E+02  0.48623206712E+01  0.21925721235E+02  0.26323337164E+02  0.10566000000E+00 0.  1.
        994    1    1    2    0    0  0.66977561424E+01  0.78722892359E+00  0.47835356161E+01  0.17139953874E+03  0.17120000000E+03 0.  0.
        998    1    1    2    0    0 -0.20428287867E+02 -0.56495495948E+01  0.14732907394E+04  0.14734771241E+04  0.10000000000E+02 0.  1.
</event>
<event>
 5    1  0.1582292E-008  0.3827774E+03  0.7957747E-01  0.3439154E+00
         13   -1    0    0    0    0  0.00000000000E+00  0.00000000000E+00  0.14999999963E+04  0.15000000000E+04  0.10566000000E+00 0. -1.
        994   -1    0    0    0    0 -0.00000000000E+00 -0.00000000000E+00  0.11368683772E-12  0.17120000000E+03  0.17120000000E+03 0.  0.
         13    1    1    2    0    0 -0.10632781186E+02  0.39964547901E+01  0.22461707791E+02  0.25170760171E+02  0.10566000000E+00 0. -1.
        994    1    1    2    0    0  0.61421873326E+01 -0.98100205416E+01  0.31815551968E+01  0.17162029385E+03  0.17120000000E+03 0.  0.
        998    1    1    2    0    0  0.44905938530E+01  0.58135657514E+01  0.14743567333E+04  0.14744089460E+04  0.10000000000E+02 0. -1.
</event>
<event>
 5    1  0.1582292E-008  0.3748416E+03  0.7957747E-01  0.3473931E+00
         13   -1    0    0    0    0  0.00000000000E+00  0.00000000000E+00  0.14999999963E+04  0.15000000000E+04  0.10566000000E+00 0. -1.
        994   -1    0    0    0    0 -0.00000000000E+00 -0.00000000000E+00  0.11368683772E-12  0.17120000000E+03  0.17120000000E+03 0.  0.
         13    1    1    2    0    0  0.57228058848E+02  0.16993919331E+02  0.27254701339E+03  0.27900847601E+03  0.10566000000E+00 0. -1.
        994    1    1    2    0    0 -0.19277733736E+02 -0.39655150956E+02  0.13401072501E+02  0.17729407988E+03  0.17120000000E+03 0.  0.
        998    1    1    2    0    0 -0.37950325113E+02  0.22661231625E+02  0.12140519104E+04  0.12148974441E+04  0.10000000000E+02 0. -1.
</event>
<event>
 5    1  0.1829384E-008  0.3855204E+03  0.7957747E-01  0.3427468E+00
         13   -1    0    0    0    0  0.00000000000E+00  0.00000000000E+00  0.14999999963E+04  0.15000000000E+04  0.10566000000E+00 0. -1.
        994   -1    0    0    0    0 -0.00000000000E+00 -0.00000000000E+00  0.11368683772E-12  0.17120000000E+03  0.17120000000E+03 0.  0.
         13    1    1    2    0    0 -0.14812662321E+02 -0.73567834538E+01  0.93825218847E+02  0.95271822086E+02  0.10566000000E+00 0. -1.
        994    1    1    2    0    0  0.17124656056E+02  0.74994067143E+01  0.25202680779E+01  0.17223613644E+03  0.17120000000E+03 0.  0.
        998    1    1    2    0    0 -0.23119937349E+01 -0.14262326048E+00  0.14036545094E+04  0.14036920415E+04  0.10000000000E+02 0. -1.
</event>
<event>
 5    1  0.1582292E-008  0.3696910E+03  0.7957747E-01  0.3497312E+00
         13   -1    0    0    0    0  0.00000000000E+00  0.00000000000E+00  0.14999999963E+04  0.15000000000E+04  0.10566000000E+00 0. -1.
        994   -1    0    0    0    0 -0.00000000000E+00 -0.00000000000E+00  0.11368683772E-12  0.17120000000E+03  0.17120000000E+03 0.  0.
         13    1    1    2    0    0 -0.84633880432E+02 -0.71227740718E+02  0.43487728255E+03  0.44872546931E+03  0.10566000000E+00 0. -1.
        994    1    1    2    0    0  0.71689649148E+02  0.92769156075E+02  0.58633579439E+02  0.21562202752E+03  0.17120000000E+03 0.  0.
        998    1    1    2    0    0  0.12944231284E+02 -0.21541415357E+02  0.10064891343E+04  0.10068525032E+04  0.10000000000E+02 0.  1.
</event>
<event>
 5    1  0.1582292E-008  0.3712336E+03  0.7957747E-01  0.3490241E+00
         13   -1    0    0    0    0  0.00000000000E+00  0.00000000000E+00  0.14999999963E+04  0.15000000000E+04  0.10566000000E+00 0.  1.
        994   -1    0    0    0    0 -0.00000000000E+00 -0.00000000000E+00  0.11368683772E-12  0.17120000000E+03  0.17120000000E+03 0.  0.
         13    1    1    2    0    0 -0.10521512772E+03 -0.63501647499E+01  0.39649909589E+03  0.41027075438E+03  0.10566000000E+00 0.  1.
        994    1    1    2    0    0  0.86794379055E+02  0.68302460256E+01  0.38705187841E+02  0.19592714989E+03  0.17120000000E+03 0.  0.
        998    1    1    2    0    0  0.18420748666E+02 -0.48008127576E+00  0.10647957125E+04  0.10650020957E+04  0.10000000000E+02 0.  1.
</event>
<event>
 5    1  0.1582292E-008  0.3792346E+03  0.7957747E-01  0.3454498E+00
         13   -1    0    0    0    0  0.00000000000E+00  0.00000000000E+00  0.14999999963E+04  0.15000000000E+04  0.10566000000E+00 0. -1.
        994   -1    0    0    0    0 -0.00000000000E+00 -0.00000000000E+00  0.11368683772E-12  0.17120000000E+03  0.17120000000E+03 0.  0.
         13    1    1    2    0    0  0.65430828921E+02  0.21522489204E+02  0.41428721541E+03  0.41997418841E+03  0.10566000000E+00 0. -1.
        994    1    1    2    0    0 -0.58512655984E+02 -0.18268001978E+02  0.17217433180E+02  0.18265631884E+03  0.17120000000E+03 0.  0.
        998    1    1    2    0    0 -0.69181729365E+01 -0.32544872264E+01  0.10684953477E+04  0.10685694927E+04  0.10000000000E+02 0. -1.
</event>
<event>
 5    1  0.1841320E-008  0.3798677E+03  0.7957747E-01  0.3451735E+00
         13   -1    0    0    0    0  0.00000000000E+00  0.00000000000E+00  0.14999999963E+04  0.15000000000E+04  0.10566000000E+00 0. -1.
        994   -1    0    0    0    0 -0.00000000000E+00 -0.00000000000E+00  0.11368683772E-12  0.17120000000E+03  0.17120000000E+03 0.  0.
         13    1    1    2    0    0  0.50164770952E+01 -0.99197257284E+01  0.12789784641E+02  0.16945670721E+02  0.10566000000E+00 0. -1.
        994    1    1    2    0    0 -0.42171043749E+01  0.10148500409E+02  0.46039783441E+01  0.17161413883E+03  0.17120000000E+03 0.  0.
        998    1    1    2    0    0 -0.79937272029E+00 -0.22877468037E+00  0.14826062333E+04  0.14826401904E+04  0.10000000000E+02 0. -1.
</event>
<event>
 5    1  0.1582292E-008  0.3792448E+03  0.7957747E-01  0.3454454E+00
         13   -1    0    0    0    0  0.00000000000E+00  0.00000000000E+00  0.14999999963E+04  0.15000000000E+04  0.10566000000E+00 0.  1.
        994   -1    0    0    0    0 -0.00000000000E+00 -0.00000000000E+00  0.11368683772E-12  0.17120000000E+03  0.17120000000E+03 0.  0.
         13    1    1    2    0    0  0.11632336745E+02  0.61098824894E+01  0.17559963058E+02  0.21931835054E+02  0.10566000000E+00 0.  1.
        994    1    1    2    0    0 -0.40834025001E+01  0.57129459469E+01  0.46801388957E+01  0.17140786338E+03  0.17120000000E+03 0.  0.
        998    1    1    2    0    0 -0.75489342445E+01 -0.11822828436E+02  0.14777598943E+04  0.14778603016E+04  0.10000000000E+02 0.  1.
</event>
<event>
 5    1  0.1582292E-008  0.3828747E+03  0.7957747E-01  0.3438736E+00
         13   -1    0    0    0    0  0.00000000000E+00  0.00000000000E+00  0.14999999963E+04  0.15000000000E+04  0.10566000000E+00 0.  1.
        994   -1    0    0    0    0 -0.00000000000E+00 -0.00000000000E+00  0.11368683772E-12  0.17120000000E+03  0.17120000000E+03 0.  0.
         13    1    1    2    0    0  0.17595766191E+01 -0.29168742587E+02  0.16642387254E+03  0.16896990315E+03  0.10566000000E+00 0.  1.
        994    1    1    2    0    0 -0.57380588938E+01  0.10692616458E+02  0.31767751931E+01  0.17165893297E+03  0.17120000000E+03 0.  0.
        998    1    1    2    0    0  0.39784822747E+01  0.18476126129E+02  0.13303993485E+04  0.13305711639E+04  0.10000000000E+02 0.  1.
</event>
<event>
 5    1  0.1582292E-008  0.3834866E+03  0.7957747E-01  0.3436116E+00
         13   -1    0    0    0    0  0.00000000000E+00  0.00000000000E+00  0.14999999963E+04  0.15000000000E+04  0.10566000000E+00 0.  1.
        994   -1    0    0    0    0 -0.00000000000E+00 -0.00000000000E+00  0.11368683772E-12  0.17120000000E+03  0.17120000000E+03 0.  0.
         13    1    1    2    0    0 -0.72269598374E+01 -0.79459765324E+01  0.23381077710E+02  0.25730399346E+02  0.10566000000E+00 0.  1.
        994    1    1    2    0    0  0.76294402520E+01  0.33786722655E+01  0.26135133372E+01  0.17142314382E+03  0.17120000000E+03 0.  0.
        998    1    1    2    0    0 -0.40248041461E+00  0.45673042669E+01  0.14740054052E+04  0.14740464568E+04  0.10000000000E+02 0.  1.
</event>
<event>
 5    1  0.1582292E-008  0.3776588E+03  0.7957747E-01  0.3461417E+00
         13   -1    0    0    0    0  0.00000000000E+00  0.00000000000E+00  0.14999999963E+04  0.15000000000E+04  0.10566000000E+00 0. -1.
        994   -1    0    0    0    0 -0.00000000000E+00 -0.00000000000E+00  0.11368683772E-12  0.17120000000E+03  0.17120000000E+03 0.  0.
         13    1    1    2    0    0  0.15172691144E+02  0.16324799446E+01  0.20432000558E+02  0.25502026550E+02  0.10566000000E+00 0. -1.
        994    1    1    2    0    0  0.73821570825E+01 -0.17821281484E+02  0.65742674705E+01  0.17240868687E+03  0.17120000000E+03 0.  0.
        998    1    1    2    0    0 -0.22554848227E+02  0.16188801540E+02  0.14729937283E+04  0.14732892866E+04  0.10000000000E+02 0. -1.
</event>
<event>
 5    1  0.1582292E-008  0.3762138E+03  0.7957747E-01  0.3467812E+00
         13   -1    0    0    0    0  0.00000000000E+00  0.00000000000E+00  0.14999999963E+04  0.15000000000E+04  0.10566000000E+00 0.  1.
        994   -1    0    0    0    0 -0.00000000000E+00 -0.00000000000E+00  0.11368683772E-12  0.17120000000E+03  0.17120000000E+03 0.  0.
         13    1    1    2    0    0 -0.20113233160E+02  0.16569761590E+03  0.52965361550E+03  0.55533161772E+03  0.10566000000E+00 0.  1.
        994    1    1    2    0    0  0.21696179889E+02 -0.17283770527E+03  0.13237611231E+03  0.27780653645E+03  0.17120000000E+03 0.  0.
        998    1    1    2    0    0 -0.15829467286E+01  0.71400893686E+01  0.83797026847E+03  0.83806184583E+03  0.10000000000E+02 0.  1.
</event>
<event>
 5    1  0.1582292E-008  0.3850117E+03  0.7957747E-01  0.3429623E+00
         13   -1    0    0    0    0  0.00000000000E+00  0.00000000000E+00  0.14999999963E+04  0.15000000000E+04  0.10566000000E+00 0.  1.
        994   -1    0    0    0    0 -0.00000000000E+00 -0.00000000000E+00  0.11368683772E-12  0.17120000000E+03  0.17120000000E+03 0.  0.
         13    1    1    2    0    0 -0.75724915300E+01  0.93539662345E+01  0.45604293152E+02  0.47165687000E+02  0.10566000000E+00 0.  1.
        994    1    1    2    0    0 -0.58399958995E+00 -0.50078898428E+01  0.17079474624E+01  0.17128274023E+03  0.17120000000E+03 0.  0.
        998    1    1    2    0    0  0.81564911199E+01 -0.43460763917E+01  0.14526877557E+04  0.14527515728E+04  0.10000000000E+02 0.  1.
</event>
<event>
 5    1  0.1582292E-008  0.3828877E+03  0.7957747E-01  0.3438681E+00
         13   -1    0    0    0    0  0.00000000000E+00  0.00000000000E+00  0.14999999963E+04  0.15000000000E+04  0.10566000000E+00 0. -1.
        994   -1    0    0    0    0 -0.00000000000E+00 -0.00000000000E+00  0.11368683772E-12  0.17120000000E+03  0.17120000000E+03 0.  0.
         13    1    1    2    0    0  0.37058461460E+01 -0.20341034358E+02  0.83184805883E+02  0.85715891574E+02  0.10566000000E+00 0. -1.
        994    1    1    2    0    0  0.10788135042E+00  0.39341362984E+01  0.27338085264E+01  0.17126705105E+03  0.17120000000E+03 0.  0.
        998    1    1    2    0    0 -0.38137274964E+01  0.16406898060E+02  0.14140813819E+04  0.14142170574E+04  0.10000000000E+02 0. -1.
</event>
<event>
 5    1  0.1661467E-008  0.3857220E+03  0.7957747E-01  0.3426616E+00
         13   -1    0    0    0    0  0.00000000000E+00  0.00000000000E+00  0.14999999963E+04  0.15000000000E+04  0.10566000000E+00 0. -1.
        994   -1    0    0    0    0 -0.00000000000E+00 -0.00000000000E+00  0.11368683772E-12  0.17120000000E+03  0.17120000000E+03 0.  0.
         13    1    1    2    0    0 -0.11997820475E+02 -0.53497089517E+00  0.56338527596E+02  0.57604468105E+02  0.10566000000E+00 0. -1.
        994    1    1    2    0    0  0.10156600759E+02 -0.41949632541E+00  0.16111919696E+01  0.17150909147E+03  0.17120000000E+03 0.  0.
        998    1    1    2    0    0  0.18412197152E+01  0.95446722058E+00  0.14420502767E+04  0.14420864404E+04  0.10000000000E+02 0. -1.
</event>
<event>
 5    1  0.1582292E-008  0.3734616E+03  0.7957747E-01  0.3480132E+00
         13   -1    0    0    0    0  0.00000000000E+00  0.00000000000E+00  0.14999999963E+04  0.15000000000E+04  0.10566000000E+00 0.  1.
        994   -1    0    0    0    0 -0.00000000000E+00 -0.00000000000E+00  0.11368683772E-12  0.17120000000E+03  0.17120000000E+03 0.  0.
         13    1    1    2    0    0  0.69637881299E+02  0.27203505421E+02  0.19304218782E+03  0.20701391901E+03  0.10566000000E+00 0.  1.
        994    1    1    2    0    0 -0.63610362038E+02 -0.25463912810E+02  0.29586844378E+02  0.18676056965E+03  0.17120000000E+03 0.  0.
        998    1    1    2    0    0 -0.60275192609E+01 -0.17395926108E+01  0.12773709641E+04  0.12774255113E+04  0.10000000000E+02 0.  1.
</event>
<event>
 5    1  0.1582292E-008  0.3715702E+03  0.7957747E-01  0.3488705E+00
         13   -1    0    0    0    0  0.00000000000E+00  0.00000000000E+00  0.14999999963E+04  0.15000000000E+04  0.10566000000E+00 0. -1.
        994   -1    0    0    0    0 -0.00000000000E+00 -0.00000000000E+00  0.11368683772E-12  0.17120000000E+03  0.17120000000E+03 0.  0.
         13    1    1    2    0    0  0.57691636743E+01  0.10092008892E+03  0.58950516517E+03  0.59810910253E+03  0.10566000000E+00 0. -1.
        994    1    1    2    0    0  0.41218878825E+01 -0.61457909755E+02  0.21613593486E+02  0.18322295723E+03  0.17120000000E+03 0.  0.
        998    1    1    2    0    0 -0.98910515568E+01 -0.39462179165E+02  0.88888123762E+03  0.88986794025E+03  0.10000000000E+02 0. -1.
</event>
<event>
 5    1  0.1582292E-008  0.4153991E+03  0.7957747E-01  0.3310163E+00
         13   -1    0    0    0    0  0.00000000000E+00  0.00000000000E+00  0.14999999963E+04  0.15000000000E+04  0.10566000000E+00 0.  1.
        994   -1    0    0    0    0 -0.00000000000E+00 -0.00000000000E+00  0.11368683772E-12  0.17120000000E+03  0.17120000000E+03 0.  0.
         13    1    1    2    0    0 -0.68174341220E+02  0.36718433759E+02  0.64971383208E+02  0.10108054204E+03  0.10566000000E+00 0.  1.
        994    1    1    2    0    0  0.61855919288E+02 -0.54322204099E+02  0.66263187320E+02  0.20118972788E+03  0.17120000000E+03 0.  0.
        998    1    1    2    0    0  0.63184219318E+01  0.17603770340E+02  0.13687654258E+04  0.13689297301E+04  0.10000000000E+02 0.  1.
</event>
<event>
 5    1  0.1582292E-008  0.3816349E+03  0.7957747E-01  0.3444071E+00
         13   -1    0    0    0    0  0.00000000000E+00  0.00000000000E+00  0.14999999963E+04  0.15000000000E+04  0.10566000000E+00 0.  1.
        994   -1    0    0    0    0 -0.00000000000E+00 -0.00000000000E+00  0.11368683772E-12  0.17120000000E+03  0.17120000000E+03 0.  0.
         13    1    1    2    0    0  0.38749689903E+01 -0.11633695200E+02  0.22006019769E+02  0.25191949484E+02  0.10566000000E+00 0.  1.
        994    1    1    2    0    0  0.53406864271E+01  0.84447959902E+00  0.34073507393E+01  0.17131925203E+03  0.17120000000E+03 0.  0.
        998    1    1    2    0    0 -0.92156554173E+01  0.10789215601E+02  0.14745866258E+04  0.14746887985E+04  0.10000000000E+02 0.  1.
</event>
<event>
 5    1  0.1582292E-008  0.3849394E+03  0.7957747E-01  0.3429929E+00
         13   -1    0    0    0    0  0.00000000000E+00  0.00000000000E+00  0.14999999963E+04  0.15000000000E+04  0.10566000000E+00 0.  1.
        994   -1    0    0    0    0 -0.00000000000E+00 -0.00000000000E+00  0.11368683772E-12  0.17120000000E+03  0.17120000000E+03 0.  0.
         13    1    1    2    0    0  0.82540625130E+01  0.12464402401E+02  0.65030515593E+02  0.66726831167E+02  0.10566000000E+00 0.  1.
        994    1    1    2    0    0 -0.16981285741E+02 -0.72718283334E+01  0.27834590406E+01  0.17221623384E+03  0.17120000000E+03 0.  0.
        998    1    1    2    0    0  0.87272232275E+01 -0.51925740681E+01  0.14321860216E+04  0.14322569350E+04  0.10000000000E+02 0.  1.
</event>
<event>
 5    1  0.1582292E-008  0.3807262E+03  0.7957747E-01  0.3448003E+00
         13   -1    0    0    0    0  0.00000000000E+00  0.00000000000E+00  0.14999999963E+04  0.15000000000E+04  0.10566000000E+00 0. -1.
        994   -1    0    0    0    0 -0.00000000000E+00 -0.00000000000E+00  0.11368683772E-12  0.17120000000E+03  0.17120000000E+03 0.  0.
         13    1    1    2    0    0  0.29814352588E+02  0.32119988051E+02  0.21900185842E+03  0.22334371361E+03  0.10566000000E+00 0. -1.
        994    1    1    2    0    0 -0.33100258473E+02 -0.28967996261E+02  0.10246410157E+02  0.17705705532E+03  0.17120000000E+03 0.  0.
        998    1    1    2    0    0  0.32859058848E+01 -0.31519917898E+01  0.12707517277E+04  0.12707992311E+04  0.10000000000E+02 0. -1.
</event>
<event>
 5    1  0.1606630E-008  0.3852194E+03  0.7957747E-01  0.3428742E+00
         13   -1    0    0    0    0  0.00000000000E+00  0.00000000000E+00  0.14999999963E+04  0.15000000000E+04  0.10566000000E+00 0.  1.
        994   -1    0    0    0    0 -0.00000000000E+00 -0.00000000000E+00  0.11368683772E-12  0.17120000000E+03  0.17120000000E+03 0.  0.
         13    1    1    2    0    0 -0.53142890485E+01 -0.10000588437E+02  0.43086643749E+02  0.44550235361E+02  0.10566000000E+00 0.  1.
        994    1    1    2    0    0 -0.57964416798E-01  0.40537056614E+01  0.15752491271E+01  0.17125524021E+03  0.17120000000E+03 0.  0.
        998    1    1    2    0    0  0.53722534653E+01  0.59468827756E+01  0.14553381034E+04  0.14553945244E+04  0.10000000000E+02 0.  1.
</event>
<event>
 5    1  0.1582292E-008  0.3796256E+03  0.7957747E-01  0.3452790E+00
         13   -1    0    0    0    0  0.00000000000E+00  0.00000000000E+00  0.14999999963E+04  0.15000000000E+04  0.10566000000E+00 0. -1.
        994   -1    0    0    0    0 -0.00000000000E+00 -0.00000000000E+00  0.11368683772E-12  0.17120000000E+03  0.17120000000E+03 0.  0.
         13    1    1    2    0    0  0.16170770840E+02  0.38867071261E+02  0.52028696454E+02  0.66926373551E+02  0.10566000000E+00 0. -1.
        994    1    1    2    0    0 -0.26577086472E+01 -0.57441762603E+01  0.16266955786E+02  0.17208751502E+03  0.17120000000E+03 0.  0.
        998    1    1    2    0    0 -0.13513062193E+02 -0.33122895001E+02  0.14317043440E+04  0.14321861114E+04  0.10000000000E+02 0. -1.
</event>
<event>
 5    1  0.1582292E-008  0.3831096E+03  0.7957747E-01  0.3437729E+00
         13   -1    0    0    0    0  0.00000000000E+00  0.00000000000E+00  0.14999999963E+04  0.15000000000E+04  0.10566000000E+00 0. -1.
        994   -1    0    0    0    0 -0.00000000000E+00 -0.00000000000E+00  0.11368683772E-12  0.17120000000E+03  0.17120000000E+03 0.  0.
         13    1    1    2    0    0 -0.40597246940E+02 -0.54023103308E+02  0.10672616722E+03  0.12632148703E+03  0.10566000000E+00 0. -1.
        994    1    1    2    0    0  0.67855798780E+02  0.52337861872E+02  0.45489043271E+02  0.19677996410E+03  0.17120000000E+03 0.  0.
        998    1    1    2    0    0 -0.27258551840E+02  0.16852414356E+01  0.13477847858E+04  0.13480985489E+04  0.10000000000E+02 0. -1.
</event>
<event>
 5    1  0.1582292E-008  0.3846427E+03  0.7957747E-01  0.3431189E+00
         13   -1    0    0    0    0  0.00000000000E+00  0.00000000000E+00  0.14999999963E+04  0.15000000000E+04  0.10566000000E+00 0. -1.
        994   -1    0    0    0    0 -0.00000000000E+00 -0.00000000000E+00  0.11368683772E-12  0.17120000000E+03  0.17120000000E+03 0.  0.
         13    1    1    2    0    0  0.38239922433E+02  0.85552460579E+01  0.21619247234E+03  0.21971499759E+03  0.10566000000E+00 0. -1.
        994    1    1    2    0    0 -0.89532990242E+02 -0.14899005510E+02  0.29419154970E+02  0.19599250849E+03  0.17120000000E+03 0.  0.
        998    1    1    2    0    0  0.51293067809E+02  0.63437594518E+01  0.12543883690E+04  0.12554924939E+04  0.10000000000E+02 0. -1.
</event>
<event>
 5    1  0.1582292E-008  0.3853112E+03  0.7957747E-01  0.3428353E+00
         13   -1    0    0    0    0  0.00000000000E+00  0.00000000000E+00  0.14999999963E+04  0.15000000000E+04  0.10566000000E+00 0. -1.
        994   -1    0    0    0    0 -0.00000000000E+00 -0.00000000000E+00  0.11368683772E-12  0.17120000000E+03  0.17120000000E+03 0.  0.
         13    1    1    2    0    0 -0.21942791076E+01  0.10255584212E+02  0.38948151033E+02  0.40335610832E+02  0.10566000000E+00 0. -1.
        994    1    1    2    0    0 -0.88084375352E+01 -0.53664392859E+00  0.17315939348E+01  0.17143603757E+03  0.17120000000E+03 0.  0.
        998    1    1    2    0    0  0.11002716643E+02 -0.97189402833E+01  0.14593202513E+04  0.14594283516E+04  0.10000000000E+02 0. -1.
</event>
<event>
 5    1  0.1582292E-008  0.3839698E+03  0.7957747E-01  0.3434053E+00
         13   -1    0    0    0    0  0.00000000000E+00  0.00000000000E+00  0.14999999963E+04  0.15000000000E+04  0.10566000000E+00 0. -1.
        994   -1    0    0    0    0 -0.00000000000E+00 -0.00000000000E+00  0.11368683772E-12  0.17120000000E+03  0.17120000000E+03 0.  0.
         13    1    1    2    0    0  0.11436155517E+02  0.17691031392E+02  0.11647828693E+03  0.11836790416E+03  0.10566000000E+00 0. -1.
        994    1    1    2    0    0  0.61779522614E+00  0.29167987881E+01  0.21718348039E+01  0.17123973328E+03  0.17120000000E+03 0.  0.
        998    1    1    2    0    0 -0.12053950743E+02 -0.20607830180E+02  0.13813498745E+04  0.13815923626E+04  0.10000000000E+02 0. -1.
</event>
<event>
 5    1  0.1582292E-008  0.3733999E+03  0.7957747E-01  0.3480410E+00
         13   -1    0    0    0    0  0.00000000000E+00  0.00000000000E+00  0.14999999963E+04  0.15000000000E+04  0.10566000000E+00 0. -1.
        994   -1    0    0    0    0 -0.00000000000E+00 -0.00000000000E+00  0.11368683772E-12  0.17120000000E+03  0.17120000000E+03 0.  0.
         13    1    1    2    0    0 -0.41862666555E+01 -0.28366615283E+02  0.53300201796E+02  0.60523651300E+02  0.10566000000E+00 0. -1.
        994    1    1    2    0    0  0.21008651481E+02  0.72604447137E+01  0.91931289017E+01  0.17288155226E+03  0.17120000000E+03 0.  0.
        998    1    1    2    0    0 -0.16822384825E+02  0.21106170569E+02  0.14375066656E+04  0.14377947964E+04  0.10000000000E+02 0. -1.
</event>
<event>
 5    1  0.1582292E-008  0.3848433E+03  0.7957747E-01  0.3430337E+00
         13   -1    0    0    0    0  0.00000000000E+00  0.00000000000E+00  0.14999999963E+04  0.15000000000E+04  0.10566000000E+00 0. -1.
        994   -1    0    0    0    0 -0.00000000000E+00 -0.00000000000E+00  0.11368683772E-12  0.17120000000E+03  0.17120000000E+03 0.  0.
         13    1    1    2    0    0 -0.13561646126E+02 -0.85669564296E+01  0.83818117561E+02  0.85339316752E+02  0.10566000000E+00 0. -1.
        994    1    1    2    0    0 -0.15139365248E+01 -0.60703597612E+01  0.18367447886E+01  0.17132412236E+03  0.17120000000E+03 0.  0.
        998    1    1    2    0    0  0.15075582651E+02  0.14637316191E+02  0.14143451339E+04  0.14145365609E+04  0.10000000000E+02 0. -1.
</event>
<event>
 5    1  0.1582292E-008  0.3858672E+03  0.7957747E-01  0.3426003E+00
         13   -1    0    0    0    0  0.00000000000E+00  0.00000000000E+00  0.14999999963E+04  0.15000000000E+04  0.10566000000E+00 0.  1.
        994   -1    0    0    0    0 -0.00000000000E+00 -0.00000000000E+00  0.11368683772E-12  0.17120000000E+03  0.17120000000E+03 0.  0.
         13    1    1    2    0    0  0.21254884658E+01  0.12792794799E+02  0.56450282455E+02  0.57920798106E+02  0.10566000000E+00 0.  1.
        994    1    1    2    0    0 -0.14375627939E+02 -0.41230969755E+02  0.74780537197E+01  0.17683894603E+03  0.17120000000E+03 0.  0.
        998    1    1    2    0    0  0.12250139474E+02  0.28438174955E+02  0.14360716601E+04  0.14364402559E+04  0.10000000000E+02 0.  1.
</event>
<event>
 5    1  0.1582292E-008  0.3781685E+03  0.7957747E-01  0.3459172E+00
         13   -1    0    0    0    0  0.00000000000E+00  0.00000000000E+00  0.14999999963E+04  0.15000000000E+04  0.10566000000E+00 0. -1.
        994   -1    0    0    0    0 -0.00000000000E+00 -0.00000000000E+00  0.11368683772E-12  0.17120000000E+03  0.17120000000E+03 0.  0.
         13    1    1    2    0    0 -0.28741731405E+02 -0.43018031736E+02  0.23362510693E+03  0.23928505998E+03  0.10566000000E+00 0. -1.
        994    1    1    2    0    0  0.26963427998E+02  0.37138483056E+02  0.12177529989E+02  0.17766267365E+03  0.17120000000E+03 0.  0.
        998    1    1    2    0    0  0.17783034071E+01  0.58795486809E+01  0.12541973594E+04  0.12542522664E+04  0.10000000000E+02 0. -1.
</event>
<event>
 5    1  0.1582292E-008  0.3692812E+03  0.7957747E-01  0.3499201E+00
         13   -1    0    0    0    0  0.00000000000E+00  0.00000000000E+00  0.14999999963E+04  0.15000000000E+04  0.10566000000E+00 0.  1.
        994   -1    0    0    0    0 -0.00000000000E+00 -0.00000000000E+00  0.11368683772E-12  0.17120000000E+03  0.17120000000E+03 0.  0.
         13    1    1    2    0    0 -0.18430281738E+02  0.10290146732E+02  0.19246643217E+02  0.28565833505E+02  0.10566000000E+00 0.  1.
        994    1    1    2    0    0 -0.46698616285E+00 -0.18779299436E+02  0.10869348422E+02  0.17257016804E+03  0.17120000000E+03 0.  0.
        998    1    1    2    0    0  0.18897267900E+02  0.84891527041E+01  0.14698840046E+04  0.14700639985E+04  0.10000000000E+02 0.  1.
</event>
<event>
 5    1  0.1582292E-008  0.3876064E+03  0.7957747E-01  0.3418693E+00
         13   -1    0    0    0    0  0.00000000000E+00  0.00000000000E+00  0.14999999963E+04  0.15000000000E+04  0.10566000000E+00 0. -1.
        994   -1    0    0    0    0 -0.00000000000E+00 -0.00000000000E+00  0.11368683772E-12  0.17120000000E+03  0.17120000000E+03 0.  0.
         13    1    1    2    0    0  0.27856855460E+02  0.65708863854E+02  0.14000208653E+03  0.15714405678E+03  0.10566000000E+00 0. -1.
        994    1    1    2    0    0 -0.14031691677E+02  0.11269049736E+02  0.21778157280E+02  0.17351544020E+03  0.17120000000E+03 0.  0.
        998    1    1    2    0    0 -0.13825163783E+02 -0.76977913591E+02  0.13382197525E+04  0.13405405030E+04  0.10000000000E+02 0. -1.
</event>
<event>
 5    1  0.2334814E-008  0.3845773E+03  0.7957747E-01  0.3431467E+00
         13   -1    0    0    0    0  0.00000000000E+00  0.00000000000E+00  0.14999999963E+04  0.15000000000E+04  0.10566000000E+00 0.  1.
        994   -1    0    0    0    0 -0.00000000000E+00 -0.00000000000E+00  0.11368683772E-12  0.17120000000E+03  0.17120000000E+03 0.  0.
         13    1    1    2    0    0  0.10951392159E+02 -0.30467340519E+01  0.34603339858E+02  0.36422765847E+02  0.10566000000E+00 0.  1.
        994    1    1    2    0    0 -0.89350576299E+01  0.46963892674E+00  0.21038065660E+01  0.17144655674E+03  0.17120000000E+03 0.  0.
        998    1    1    2    0    0 -0.20163345293E+01  0.25770951251E+01  0.14632928499E+04  0.14633306774E+04  0.10000000000E+02 0.  1.
</event>
<event>
 5    1  0.1582292E-008  0.3833378E+03  0.7957747E-01  0.3436753E+00
         13   -1    0    0    0    0  0.00000000000E+00  0.00000000000E+00  0.14999999963E+04  0.15000000000E+04  0.10566000000E+00 0. -1.
        994   -1    0    0    0    0 -0.00000000000E+00 -0.00000000000E+00  0.11368683772E-12  0.17120000000E+03  0.17120000000E+03 0.  0.
         13    1    1    2    0    0  0.37654709607E+02  0.10241729528E+02  0.23159802798E+03  0.23486257238E+03  0.10566000000E+00 0. -1.
        994    1    1    2    0    0 -0.47123477390E+02 -0.28248171384E+02  0.12503276602E+02  0.18023416223E+03  0.17120000000E+03 0.  0.
        998    1    1    2    0    0  0.94687677830E+01  0.18006441856E+02  0.12558986917E+04  0.12561032654E+04  0.10000000000E+02 0. -1.
</event>
<event>
 5    1  0.1582292E-008  0.3848354E+03  0.7957747E-01  0.3430371E+00
         13   -1    0    0    0    0  0.00000000000E+00  0.00000000000E+00  0.14999999963E+04  0.15000000000E+04  0.10566000000E+00 0. -1.
        994   -1    0    0    0    0 -0.00000000000E+00 -0.00000000000E+00  0.11368683772E-12  0.17120000000E+03  0.17120000000E+03 0.  0.
         13    1    1    2    0    0 -0.90397866798E+01  0.73284810696E+01  0.43349822304E+02  0.44884770645E+02  0.10566000000E+00 0. -1.
        994    1    1    2    0    0 -0.16745320364E+02 -0.36903815232E+01  0.26799443900E+01  0.17207744411E+03  0.17120000000E+03 0.  0.
        998    1    1    2    0    0  0.25785107044E+02 -0.36380995463E+01  0.14539702296E+04  0.14542377852E+04  0.10000000000E+02 0. -1.
</event>
<event>
 5    1  0.1582292E-008  0.3783860E+03  0.7957747E-01  0.3458216E+00
         13   -1    0    0    0    0  0.00000000000E+00  0.00000000000E+00  0.14999999963E+04  0.15000000000E+04  0.10566000000E+00 0. -1.
        994   -1    0    0    0    0 -0.00000000000E+00 -0.00000000000E+00  0.11368683772E-12  0.17120000000E+03  0.17120000000E+03 0.  0.
         13    1    1    2    0    0  0.15353857405E+02  0.84583961924E+02  0.31452708726E+03  0.32606362467E+03  0.10566000000E+00 0. -1.
        994    1    1    2    0    0  0.26520660018E+02 -0.52803196793E+01  0.18081921727E+02  0.17426308581E+03  0.17120000000E+03 0.  0.
        998    1    1    2    0    0 -0.41874517424E+02 -0.79303642244E+02  0.11673909873E+04  0.11708732895E+04  0.10000000000E+02 0. -1.
</event>
<event>
 5    1  0.1582292E-008  0.3947611E+03  0.7957747E-01  0.3389300E+00
         13   -1    0    0    0    0  0.00000000000E+00  0.00000000000E+00  0.14999999963E+04  0.15000000000E+04  0.10566000000E+00 0.  1.
        994   -1    0    0    0    0 -0.00000000000E+00 -0.00000000000E+00  0.11368683772E-12  0.17120000000E+03  0.17120000000E+03 0.  0.
         13    1    1    2    0    0  0.99000499689E+02 -0.44582742373E+02  0.22555764699E+03  0.25032974881E+03  0.10566000000E+00 0.  1.
        994    1    1    2    0    0 -0.50078041438E+02  0.74770385398E+02  0.56449503826E+02  0.20148053814E+03  0.17120000000E+03 0.  0.
        998    1    1    2    0    0 -0.48922458251E+02 -0.30187643025E+02  0.12179928455E+04  0.12193897131E+04  0.10000000000E+02 0.  1.
</event>
<event>
 5    1  0.1582292E-008  0.3765943E+03  0.7957747E-01  0.3466123E+00
         13   -1    0    0    0    0  0.00000000000E+00  0.00000000000E+00  0.14999999963E+04  0.15000000000E+04  0.10566000000E+00 0. -1.
        994   -1    0    0    0    0 -0.00000000000E+00 -0.00000000000E+00  0.11368683772E-12  0.17120000000E+03  0.17120000000E+03 0.  0.
         13    1    1    2    0    0 -0.22348187271E+02 -0.23804942499E+02  0.31411594306E+02  0.45308014551E+02  0.10566000000E+00 0. -1.
        994    1    1    2    0    0  0.11711756943E+02  0.15281904494E+02  0.15796728122E+02  0.17300196090E+03  0.17120000000E+03 0.  0.
        998    1    1    2    0    0  0.10636430328E+02  0.85230380048E+01  0.14527916738E+04  0.14528900245E+04  0.10000000000E+02 0. -1.
</event>
<event>
 5    1  0.1582292E-008  0.3821833E+03  0.7957747E-01  0.3441707E+00
         13   -1    0    0    0    0  0.00000000000E+00  0.00000000000E+00  0.14999999963E+04  0.15000000000E+04  0.10566000000E+00 0.  1.
        994   -1    0    0    0    0 -0.00000000000E+00 -0.00000000000E+00  0.11368683772E-12  0.17120000000E+03  0.17120000000E+03 0.  0.
         13    1    1    2    0    0 -0.51278260144E+01  0.10238164088E+02  0.21652091272E+02  0.24493648647E+02  0.10566000000E+00 0.  1.
        994    1    1    2    0    0 -0.70498732131E+01  0.92100942686E+01  0.34817033999E+01  0.17162776234E+03  0.17120000000E+03 0.  0.
        998    1    1    2    0    0  0.12177699227E+02 -0.19448258357E+02  0.14748662016E+04  0.14750785890E+04  0.10000000000E+02 0.  1.
</event>
<event>
 5    1  0.1582292E-008  0.3808004E+03  0.7957747E-01  0.3447681E+00
         13   -1    0    0    0    0  0.00000000000E+00  0.00000000000E+00  0.14999999963E+04  0.15000000000E+04  0.10566000000E+00 0. -1.
        994   -1    0    0    0    0 -0.00000000000E+00 -0.00000000000E+00  0.11368683772E-12  0.17120000000E+03  0.17120000000E+03 0.  0.
         13    1    1    2    0    0  0.46103530128E+01  0.10234038990E+02  0.15407599888E+02  0.19062953793E+02  0.10566000000E+00 0. -1.
        994    1    1    2    0    0 -0.16963279884E+00 -0.60710393423E+01  0.38526386253E+01  0.17135101143E+03  0.17120000000E+03 0.  0.
        998    1    1    2    0    0 -0.44407202140E+01 -0.41629996481E+01  0.14807397578E+04  0.14807860348E+04  0.10000000000E+02 0. -1.
</event>
<event>
 5    1  0.1582292E-008  0.3853488E+03  0.7957747E-01  0.3428194E+00
         13   -1    0    0    0    0  0.00000000000E+00  0.00000000000E+00  0.14999999963E+04  0.15000000000E+04  0.10566000000E+00 0.  1.
        994   -1    0    0    0    0 -0.00000000000E+00 -0.00000000000E+00  0.11368683772E-12  0.17120000000E+03  0.17120000000E+03 0.  0.
         13    1    1    2    0    0  0.89423884230E+01 -0.11208509204E+02  0.71522977659E+02  0.72946175270E+02  0.10566000000E+00 0.  1.
        994    1    1    2    0    0 -0.77672231100E+01  0.40472186877E+01  0.17091019433E+01  0.17143240873E+03  0.17120000000E+03 0.  0.
        998    1    1    2    0    0 -0.11751653130E+01  0.71612905164E+01  0.14267679167E+04  0.14268214160E+04  0.10000000000E+02 0.  1.
</event>
<event>
 5    1  0.1582292E-008  0.3698613E+03  0.7957747E-01  0.3496528E+00
         13   -1    0    0    0    0  0.00000000000E+00  0.00000000000E+00  0.14999999963E+04  0.15000000000E+04  0.10566000000E+00 0. -1.
        994   -1    0    0    0    0 -0.00000000000E+00 -0.00000000000E+00  0.11368683772E-12  0.17120000000E+03  0.17120000000E+03 0.  0.
         13    1    1    2    0    0  0.83686942137E+02 -0.63826219891E+02  0.35428077988E+03  0.36958378317E+03  0.10566000000E+00 0. -1.
        994    1    1    2    0    0 -0.76600091525E+02  0.12535486749E+03  0.88170720964E+02  0.24220844919E+03  0.17120000000E+03 0.  0.
        998    1    1    2    0    0 -0.70868506117E+01 -0.61528647596E+02  0.10575484954E+04  0.10594077676E+04  0.10000000000E+02 0. -1.
</event>
<event>
 5    1  0.1582292E-008  0.3801684E+03  0.7957747E-01  0.3450425E+00
         13   -1    0    0    0    0  0.00000000000E+00  0.00000000000E+00  0.14999999963E+04  0.15000000000E+04  0.10566000000E+00 0.  1.
        994   -1    0    0    0    0 -0.00000000000E+00 -0.00000000000E+00  0.11368683772E-12  0.17120000000E+03  0.17120000000E+03 0.  0.
         13    1    1    2    0    0 -0.15119987435E+02 -0.55881191466E+01  0.30257591922E+02  0.34283729794E+02  0.10566000000E+00 0.  1.
        994    1    1    2    0    0  0.13001277578E+02  0.37395964479E+01  0.46598513375E+01  0.17179689175E+03  0.17120000000E+03 0.  0.
        998    1    1    2    0    0  0.21187098576E+01  0.18485226987E+01  0.14650825530E+04  0.14651193785E+04  0.10000000000E+02 0.  1.
</event>
<event>
 5    1  0.1582292E-008  0.3842545E+03  0.7957747E-01  0.3432840E+00
         13   -1    0    0    0    0  0.00000000000E+00  0.00000000000E+00  0.14999999963E+04  0.15000000000E+04  0.10566000000E+00 0.  1.
        994   -1    0    0    0    0 -0.00000000000E+00 -0.00000000000E+00  0.11368683772E-12  0.17120000000E+03  0.17120000000E+03 0.  0.
         13    1    1    2    0    0  0.78035594851E+00 -0.11380469014E+02  0.35886296913E+02  0.37655829569E+02  0.10566000000E+00 0.  1.
        994    1    1    2    0    0 -0.24963162090E+01 -0.18059783072E+02  0.30972171649E+01  0.17219587717E+03  0.17120000000E+03 0.  0.
        998    1    1    2    0    0  0.17159602605E+01  0.29440252085E+02  0.14610164822E+04  0.14613482933E+04  0.10000000000E+02 0.  1.
</event>
<event>
 5    1  0.1582292E-008  0.3779917E+03  0.7957747E-01  0.3459950E+00
         13   -1    0    0    0    0  0.00000000000E+00  0.00000000000E+00  0.14999999963E+04  0.15000000000E+04  0.10566000000E+00 0.  1.
        994   -1    0    0    0    0 -0.00000000000E+00 -0.00000000000E+00  0.11368683772E-12  0.17120000000E+03  0.17120000000E+03 0.  0.
         13    1    1    2    0    0  0.10175009931E+02  0.96321701614E+01  0.17090151135E+02  0.22099637078E+02  0.10566000000E+00 0.  1.
        994    1    1    2    0    0 -0.30792260275E+01 -0.23835354237E+01  0.52013855864E+01  0.17132325378E+03  0.17120000000E+03 0.  0.
        998    1    1    2    0    0 -0.70957839038E+01 -0.72486347376E+01  0.14777084596E+04  0.14777771091E+04  0.10000000000E+02 0.  1.
</event>
<event>
 5    1  0.1582292E-008  0.3851693E+03  0.7957747E-01  0.3428954E+00
         13   -1    0    0    0    0  0.00000000000E+00  0.00000000000E+00  0.14999999963E+04  0.15000000000E+04  0.10566000000E+00 0. -1.
        994   -1    0    0    0    0 -0.00000000000E+00 -0.00000000000E+00  0.11368683772E-12  0.17120000000E+03  0.17120000000E+03 0.  0.
         13    1    1    2    0    0  0.16881889708E+01 -0.14416813685E+02  0.69623436050E+02  0.71120521021E+02  0.10566000000E+00 0. -1.
        994    1    1    2    0    0 -0.37591580787E+01  0.62384785200E+01  0.17204898128E+01  0.17136350244E+03  0.17120000000E+03 0.  0.
        998    1    1    2    0    0  0.20709691079E+01  0.81783351646E+01  0.14286560704E+04  0.14287159765E+04  0.10000000000E+02 0. -1.
</event>
<event>
 5    1  0.1582292E-008  0.2610266E+03  0.7957747E-01  0.4220664E+00
         13   -1    0    0    0    0  0.00000000000E+00  0.00000000000E+00  0.14999999963E+04  0.15000000000E+04  0.10566000000E+00 0.  1.
        994   -1    0    0    0    0 -0.00000000000E+00 -0.00000000000E+00  0.11368683772E-12  0.17120000000E+03  0.17120000000E+03 0.  0.
         13    1    1    2    0    0 -0.17870219642E+03  0.22244618687E+02  0.66091291347E+03  0.68500743676E+03  0.10566000000E+00 0.  1.
        994    1    1    2    0    0  0.17117989036E+02  0.53395021287E+02  0.64635063992E+02  0.19139275155E+03  0.17120000000E+03 0.  0.
        998    1    1    2    0    0  0.16158420739E+03 -0.75639639974E+02  0.77445201882E+03  0.79479981169E+03  0.10000000000E+02 0. -1.
</event>
<event>
 5    1  0.1582292E-008  0.3728478E+03  0.7957747E-01  0.3482904E+00
         13   -1    0    0    0    0  0.00000000000E+00  0.00000000000E+00  0.14999999963E+04  0.15000000000E+04  0.10566000000E+00 0.  1.
        994   -1    0    0    0    0 -0.00000000000E+00 -0.00000000000E+00  0.11368683772E-12  0.17120000000E+03  0.17120000000E+03 0.  0.
         13    1    1    2    0    0  0.61735807614E+02 -0.14299780590E+02  0.23797034419E+03  0.24626345556E+03  0.10566000000E+00 0.  1.
        994    1    1    2    0    0  0.41307410265E+02  0.50795173927E+01  0.18594093391E+02  0.17716456742E+03  0.17120000000E+03 0.  0.
        998    1    1    2    0    0 -0.10304321788E+03  0.92202631972E+01  0.12434355587E+04  0.12477719770E+04  0.10000000000E+02 0.  1.
</event>
<event>
 5    1  0.1582292E-008  0.3762600E+03  0.7957747E-01  0.3467607E+00
         13   -1    0    0    0    0  0.00000000000E+00  0.00000000000E+00  0.14999999963E+04  0.15000000000E+04  0.10566000000E+00 0.  1.
        994   -1    0    0    0    0 -0.00000000000E+00 -0.00000000000E+00  0.11368683772E-12  0.17120000000E+03  0.17120000000E+03 0.  0.
         13    1    1    2    0    0  0.33260990998E+02 -0.23724017197E+02  0.51342159709E+02  0.65613649813E+02  0.10566000000E+00 0.  1.
        994    1    1    2    0    0 -0.36835529540E+02  0.18672410892E+02  0.20409183291E+02  0.17728928317E+03  0.17120000000E+03 0.  0.
        998    1    1    2    0    0  0.35745385417E+01  0.50516063049E+01  0.14282486533E+04  0.14282970670E+04  0.10000000000E+02 0.  1.
</event>
<event>
 5    1  0.1582292E-008  0.3844942E+03  0.7957747E-01  0.3431820E+00
         13   -1    0    0    0    0  0.00000000000E+00  0.00000000000E+00  0.14999999963E+04  0.15000000000E+04  0.10566000000E+00 0.  1.
        994   -1    0    0    0    0 -0.00000000000E+00 -0.00000000000E+00  0.11368683772E-12  0.17120000000E+03  0.17120000000E+03 0.  0.
         13    1    1    2    0    0  0.34856488224E+01 -0.15532702356E+02  0.74702495062E+02  0.76379896064E+02  0.10566000000E+00 0.  1.
        994    1    1    2    0    0 -0.41880158924E+00 -0.64175154847E+01  0.20177104075E+01  0.17133263278E+03  0.17120000000E+03 0.  0.
        998    1    1    2    0    0 -0.30668472331E+01  0.21950217841E+02  0.14232797908E+04  0.14234874712E+04  0.10000000000E+02 0.  1.
</event>
<event>
 5    1  0.1582292E-008  0.3856716E+03  0.7957747E-01  0.3426829E+00
         13   -1    0    0    0    0  0.00000000000E+00  0.00000000000E+00  0.14999999963E+04  0.15000000000E+04  0.10566000000E+00 0. -1.
        994   -1    0    0    0    0 -0.00000000000E+00 -0.00000000000E+00  0.11368683772E-12  0.17120000000E+03  0.17120000000E+03 0.  0.
         13    1    1    2    0    0  0.58956567923E+00  0.10725115367E+02  0.45250697694E+02  0.46508198128E+02  0.10566000000E+00 0. -1.
        994    1    1    2    0    0  0.14700958160E+02 -0.64266467602E+01  0.21422598006E+01  0.17196351135E+03  0.17120000000E+03 0.  0.
        998    1    1    2    0    0 -0.15290523839E+02 -0.42984686064E+01  0.14526070388E+04  0.14527282905E+04  0.10000000000E+02 0. -1.
</event>
<event>
 5    1  0.1582292E-008  0.3698630E+03  0.7957747E-01  0.3496521E+00
         13   -1    0    0    0    0  0.00000000000E+00  0.00000000000E+00  0.14999999963E+04  0.15000000000E+04  0.10566000000E+00 0.  1.
        994   -1    0    0    0    0 -0.00000000000E+00 -0.00000000000E+00  0.11368683772E-12  0.17120000000E+03  0.17120000000E+03 0.  0.
         13    1    1    2    0    0  0.91912852789E+02 -0.15112944313E+03  0.94733580797E+03  0.96370806021E+03  0.10566000000E+00 0.  1.
        994    1    1    2    0    0 -0.76444353091E+02  0.12732984711E+03  0.90010583202E+02  0.24386056297E+03  0.17120000000E+03 0.  0.
        998    1    1    2    0    0 -0.15468499697E+02  0.23799596024E+02  0.46265360510E+03  0.46363137682E+03  0.10000000000E+02 0.  1.
</event>
<event>
 5    1  0.1652997E-008  0.3859221E+03  0.7957747E-01  0.3425771E+00
         13   -1    0    0    0    0  0.00000000000E+00  0.00000000000E+00  0.14999999963E+04  0.15000000000E+04  0.10566000000E+00 0.  1.
        994   -1    0    0    0    0 -0.00000000000E+00 -0.00000000000E+00  0.11368683772E-12  0.17120000000E+03  0.17120000000E+03 0.  0.
         13    1    1    2    0    0 -0.91580572103E+01  0.66554235176E+01  0.51604717856E+02  0.52832023841E+02  0.10566000000E+00 0.  1.
        994    1    1    2    0    0  0.15023478581E+02 -0.98093118869E+01  0.22292851432E+01  0.17215207585E+03  0.17120000000E+03 0.  0.
        998    1    1    2    0    0 -0.58654213711E+01  0.31538883692E+01  0.14461659933E+04  0.14462159003E+04  0.10000000000E+02 0.  1.
</event>
<event>
 5    1  0.1582292E-008  0.3776384E+03  0.7957747E-01  0.3461506E+00
         13   -1    0    0    0    0  0.00000000000E+00  0.00000000000E+00  0.14999999963E+04  0.15000000000E+04  0.10566000000E+00 0. -1.
        994   -1    0    0    0    0 -0.00000000000E+00 -0.00000000000E+00  0.11368683772E-12  0.17120000000E+03  0.17120000000E+03 0.  0.
         13    1    1    2    0    0  0.27233156598E+02  0.23629064713E+02  0.11375086792E+03  0.11932832285E+03  0.10566000000E+00 0. -1.
        994    1    1    2    0    0 -0.21337549317E+02 -0.25379734440E+02  0.90431829124E+01  0.17461569542E+03  0.17120000000E+03 0.  0.
        998    1    1    2    0    0 -0.58956072815E+01  0.17506697273E+01  0.13772059454E+04  0.13772559817E+04  0.10000000000E+02 0. -1.
</event>
<event>
 5    1  0.1582292E-008  0.3716873E+03  0.7957747E-01  0.3488172E+00
         13   -1    0    0    0    0  0.00000000000E+00  0.00000000000E+00  0.14999999963E+04  0.15000000000E+04  0.10566000000E+00 0. -1.
        994   -1    0    0    0    0 -0.00000000000E+00 -0.00000000000E+00  0.11368683772E-12  0.17120000000E+03  0.17120000000E+03 0.  0.
         13    1    1    2    0    0  0.86170245378E+01  0.15820010378E+02  0.15372994157E+02  0.23682608674E+02  0.10566000000E+00 0. -1.
        994    1    1    2    0    0 -0.10816543518E+02 -0.18619859393E+02  0.99854438073E+01  0.17283762862E+03  0.17120000000E+03 0.  0.
        998    1    1    2    0    0  0.21995189798E+01  0.27998490157E+01  0.14746415583E+04  0.14746797627E+04  0.10000000000E+02 0. -1.
</event>
<event>
 5    1  0.1582292E-008  0.3856971E+03  0.7957747E-01  0.3426721E+00
         13   -1    0    0    0    0  0.00000000000E+00  0.00000000000E+00  0.14999999963E+04  0.15000000000E+04  0.10566000000E+00 0.  1.
        994   -1    0    0    0    0 -0.00000000000E+00 -0.00000000000E+00  0.11368683772E-12  0.17120000000E+03  0.17120000000E+03 0.  0.
         13    1    1    2    0    0  0.11399519521E+02 -0.73632069428E+00  0.52458411295E+02  0.53687869143E+02  0.10566000000E+00 0.  1.
        994    1    1    2    0    0 -0.37301855250E+01  0.46905077178E+00  0.13308327457E+01  0.17124644641E+03  0.17120000000E+03 0.  0.
        998    1    1    2    0    0 -0.76693339956E+01  0.26726992250E+00  0.14462107522E+04  0.14462656844E+04  0.10000000000E+02 0.  1.
</event>
<event>
 5    1  0.1582292E-008  0.3802006E+03  0.7957747E-01  0.3450286E+00
         13   -1    0    0    0    0  0.00000000000E+00  0.00000000000E+00  0.14999999963E+04  0.15000000000E+04  0.10566000000E+00 0.  1.
        994   -1    0    0    0    0 -0.00000000000E+00 -0.00000000000E+00  0.11368683772E-12  0.17120000000E+03  0.17120000000E+03 0.  0.
         13    1    1    2    0    0  0.14579602522E+02  0.26485597934E+02  0.11792900409E+03  0.12174281448E+03  0.10566000000E+00 0.  1.
        994    1    1    2    0    0 -0.11086361356E+01 -0.97591772767E+01  0.43542662611E+01  0.17153678979E+03  0.17120000000E+03 0.  0.
        998    1    1    2    0    0 -0.13470966386E+02 -0.16726420658E+02  0.13777167259E+04  0.13779203957E+04  0.10000000000E+02 0.  1.
</event>
<event>
 5    1  0.1582292E-008  0.3843191E+03  0.7957747E-01  0.3432565E+00
         13   -1    0    0    0    0  0.00000000000E+00  0.00000000000E+00  0.14999999963E+04  0.15000000000E+04  0.10566000000E+00 0. -1.
        994   -1    0    0    0    0 -0.00000000000E+00 -0.00000000000E+00  0.11368683772E-12  0.17120000000E+03  0.17120000000E+03 0.  0.
         13    1    1    2    0    0  0.10208074386E+02  0.97086953157E+01  0.72657002265E+02  0.74010233681E+02  0.10566000000E+00 0. -1.
        994    1    1    2    0    0  0.19958963284E+02  0.46829345391E+02  0.10556627040E+02  0.17891961933E+03  0.17120000000E+03 0.  0.
        998    1    1    2    0    0 -0.30167037670E+02 -0.56538040707E+02  0.14167863670E+04  0.14182701470E+04  0.10000000000E+02 0. -1.
</event>
<event>
 5    1  0.1582292E-008  0.3852305E+03  0.7957747E-01  0.3428695E+00
         13   -1    0    0    0    0  0.00000000000E+00  0.00000000000E+00  0.14999999963E+04  0.15000000000E+04  0.10566000000E+00 0. -1.
        994   -1    0    0    0    0 -0.00000000000E+00 -0.00000000000E+00  0.11368683772E-12  0.17120000000E+03  0.17120000000E+03 0.  0.
         13    1    1    2    0    0  0.11070176601E+02 -0.12821187794E+01  0.43250381649E+02  0.44663176279E+02  0.10566000000E+00 0. -1.
        994    1    1    2    0    0  0.17592366810E+01 -0.62887801853E+01  0.16559027557E+01  0.17133250037E+03  0.17120000000E+03 0.  0.
        998    1    1    2    0    0 -0.12829413282E+02  0.75708989647E+01  0.14550937119E+04  0.14552043233E+04  0.10000000000E+02 0. -1.
</event>
<event>
 5    1  0.1582292E-008  0.3726750E+03  0.7957747E-01  0.3483687E+00
         13   -1    0    0    0    0  0.00000000000E+00  0.00000000000E+00  0.14999999963E+04  0.15000000000E+04  0.10566000000E+00 0. -1.
        994   -1    0    0    0    0 -0.00000000000E+00 -0.00000000000E+00  0.11368683772E-12  0.17120000000E+03  0.17120000000E+03 0.  0.
         13    1    1    2    0    0  0.27546386201E+02  0.12957159992E+02  0.53258109642E+02  0.61344346067E+02  0.10566000000E+00 0. -1.
        994    1    1    2    0    0 -0.24369031888E+02 -0.30371872155E+02  0.13090315065E+02  0.17605992355E+03  0.17120000000E+03 0.  0.
        998    1    1    2    0    0 -0.31773543126E+01  0.17414712163E+02  0.14336515716E+04  0.14337957304E+04  0.10000000000E+02 0. -1.
</event>
<event>
 5    1  0.1582292E-008  0.3819262E+03  0.7957747E-01  0.3442814E+00
         13   -1    0    0    0    0  0.00000000000E+00  0.00000000000E+00  0.14999999963E+04  0.15000000000E+04  0.10566000000E+00 0. -1.
        994   -1    0    0    0    0 -0.00000000000E+00 -0.00000000000E+00  0.11368683772E-12  0.17120000000E+03  0.17120000000E+03 0.  0.
         13    1    1    2    0    0  0.19541800297E+02 -0.98891534863E+01  0.66430343290E+02  0.69947687518E+02  0.10566000000E+00 0. -1.
        994    1    1    2    0    0 -0.31050046461E+02  0.25252525492E+02  0.85031143786E+01  0.17602141456E+03  0.17120000000E+03 0.  0.
        998    1    1    2    0    0  0.11508246164E+02 -0.15363372006E+02  0.14250665386E+04  0.14252308979E+04  0.10000000000E+02 0. -1.
</event>
<event>
 5    1  0.1582292E-008  0.3686225E+03  0.7957747E-01  0.3502246E+00
         13   -1    0    0    0    0  0.00000000000E+00  0.00000000000E+00  0.14999999963E+04  0.15000000000E+04  0.10566000000E+00 0.  1.
        994   -1    0    0    0    0 -0.00000000000E+00 -0.00000000000E+00  0.11368683772E-12  0.17120000000E+03  0.17120000000E+03 0.  0.
         13    1    1    2    0    0 -0.40311546551E+02  0.92745676060E+01  0.83740797948E+02  0.93400057787E+02  0.10566000000E+00 0.  1.
        994    1    1    2    0    0  0.15091444132E+02  0.56800206469E+01  0.11117426586E+02  0.17231671856E+03  0.17120000000E+03 0.  0.
        998    1    1    2    0    0  0.25220102419E+02 -0.14954588253E+02  0.14051417717E+04  0.14054832237E+04  0.10000000000E+02 0.  1.
</event>
<event>
 5    1  0.1582292E-008  0.3759003E+03  0.7957747E-01  0.3469206E+00
         13   -1    0    0    0    0  0.00000000000E+00  0.00000000000E+00  0.14999999963E+04  0.15000000000E+04  0.10566000000E+00 0.  1.
        994   -1    0    0    0    0 -0.00000000000E+00 -0.00000000000E+00  0.11368683772E-12  0.17120000000E+03  0.17120000000E+03 0.  0.
         13    1    1    2    0    0 -0.22373921233E+02  0.50642607592E+02  0.25870394846E+03  0.26456192123E+03  0.10566000000E+00 0.  1.
        994    1    1    2    0    0  0.24638291088E+01 -0.25057179526E+02  0.83684351385E+01  0.17324376874E+03  0.17120000000E+03 0.  0.
        998    1    1    2    0    0  0.19910092125E+02 -0.25585428066E+02  0.12329276127E+04  0.12333943100E+04  0.10000000000E+02 0.  1.
</event>
<event>
 5    1  0.1582292E-008  0.3778524E+03  0.7957747E-01  0.3460563E+00
         13   -1    0    0    0    0  0.00000000000E+00  0.00000000000E+00  0.14999999963E+04  0.15000000000E+04  0.10566000000E+00 0. -1.
        994   -1    0    0    0    0 -0.00000000000E+00 -0.00000000000E+00  0.11368683772E-12  0.17120000000E+03  0.17120000000E+03 0.  0.
         13    1    1    2    0    0 -0.20619015786E+02  0.50110271447E+02  0.25046559786E+03  0.25626004369E+03  0.10566000000E+00 0. -1.
        994    1    1    2    0    0  0.29320059041E+02 -0.37575514764E+02  0.12907660163E+02  0.17817865434E+03  0.17120000000E+03 0.  0.
        998    1    1    2    0    0 -0.87010432552E+01 -0.12534756683E+02  0.12366267383E+04  0.12367613020E+04  0.10000000000E+02 0. -1.
</event>
<event>
 5    1  0.1582292E-008  0.3741365E+03  0.7957747E-01  0.3477094E+00
         13   -1    0    0    0    0  0.00000000000E+00  0.00000000000E+00  0.14999999963E+04  0.15000000000E+04  0.10566000000E+00 0. -1.
        994   -1    0    0    0    0 -0.00000000000E+00 -0.00000000000E+00  0.11368683772E-12  0.17120000000E+03  0.17120000000E+03 0.  0.
         13    1    1    2    0    0 -0.19663600668E+02  0.11303444283E+02  0.13674929183E+02  0.26484710610E+02  0.10566000000E+00 0. -1.
        994    1    1    2    0    0  0.19114858672E+02 -0.14331590861E+02  0.15170327685E+02  0.17352334471E+03  0.17120000000E+03 0.  0.
        998    1    1    2    0    0  0.54874199588E+00  0.30281465782E+01  0.14711547394E+04  0.14711919447E+04  0.10000000000E+02 0. -1.
</event>
<event>
 5    1  0.1582292E-008  0.3822722E+03  0.7957747E-01  0.3441324E+00
         13   -1    0    0    0    0  0.00000000000E+00  0.00000000000E+00  0.14999999963E+04  0.15000000000E+04  0.10566000000E+00 0.  1.
        994   -1    0    0    0    0 -0.00000000000E+00 -0.00000000000E+00  0.11368683772E-12  0.17120000000E+03  0.17120000000E+03 0.  0.
         13    1    1    2    0    0  0.73553164027E+01 -0.12518368926E+02  0.33868222647E+02  0.36849394964E+02  0.10566000000E+00 0.  1.
        994    1    1    2    0    0 -0.60841137588E+01  0.10831426215E+02  0.35027707884E+01  0.17168589237E+03  0.17120000000E+03 0.  0.
        998    1    1    2    0    0 -0.12712026439E+01  0.16869427118E+01  0.14626290028E+04  0.14626647127E+04  0.10000000000E+02 0.  0.
</event>
<event>
 5    1  0.1582292E-008  0.3863602E+03  0.7957747E-01  0.3423924E+00
         13   -1    0    0    0    0  0.00000000000E+00  0.00000000000E+00  0.14999999963E+04  0.15000000000E+04  0.10566000000E+00 0.  1.
        994   -1    0    0    0    0 -0.00000000000E+00 -0.00000000000E+00  0.11368683772E-12  0.17120000000E+03  0.17120000000E+03 0.  0.
         13    1    1    2    0    0  0.14674736894E+01 -0.10277234130E+02  0.59549944005E+02  0.60448176278E+02  0.10566000000E+00 0.  1.
        994    1    1    2    0    0  0.20924930892E+01  0.26627625442E+01  0.99388090300E+00  0.17123637648E+03  0.17120000000E+03 0.  0.
        998    1    1    2    0    0 -0.35599667786E+01  0.76144715862E+01  0.14394561714E+04  0.14395154472E+04  0.10000000000E+02 0.  1.
</event>
<event>
 5    1  0.1582292E-008  0.3792116E+03  0.7957747E-01  0.3454599E+00
         13   -1    0    0    0    0  0.00000000000E+00  0.00000000000E+00  0.14999999963E+04  0.15000000000E+04  0.10566000000E+00 0.  1.
        994   -1    0    0    0    0 -0.00000000000E+00 -0.00000000000E+00  0.11368683772E-12  0.17120000000E+03  0.17120000000E+03 0.  0.
         13    1    1    2    0    0 -0.99507507481E+02 -0.75771173024E+01  0.50113926318E+03  0.51097918648E+03  0.10566000000E+00 0.  1.
        994    1    1    2    0    0 -0.29630224783E+01  0.16558463992E+02  0.16917910367E+02  0.17285432573E+03  0.17120000000E+03 0.  0.
        998    1    1    2    0    0  0.10247052996E+03 -0.89813466900E+01  0.98194282273E+03  0.98736648779E+03  0.10000000000E+02 0.  1.
</event>
<event>
 5    1  0.1582292E-008  0.3816452E+03  0.7957747E-01  0.3444026E+00
         13   -1    0    0    0    0  0.00000000000E+00  0.00000000000E+00  0.14999999963E+04  0.15000000000E+04  0.10566000000E+00 0. -1.
        994   -1    0    0    0    0 -0.00000000000E+00 -0.00000000000E+00  0.11368683772E-12  0.17120000000E+03  0.17120000000E+03 0.  0.
         13    1    1    2    0    0  0.21161652904E+03  0.81807081264E+02  0.12853836773E+04  0.13052529115E+04  0.10566000000E+00 0. -1.
        994    1    1    2    0    0 -0.20181490560E+03 -0.81565930702E+02  0.18458609123E+03  0.33281184211E+03  0.17120000000E+03 0.  0.
        998    1    1    2    0    0 -0.98016234359E+01 -0.24115056205E+00  0.30030227727E+02  0.33135246384E+02  0.10000000000E+02 0.  1.
</event>
<event>
 5    1  0.1582292E-008  0.3816296E+03  0.7957747E-01  0.3444094E+00
         13   -1    0    0    0    0  0.00000000000E+00  0.00000000000E+00  0.14999999963E+04  0.15000000000E+04  0.10566000000E+00 0.  1.
        994   -1    0    0    0    0 -0.00000000000E+00 -0.00000000000E+00  0.11368683772E-12  0.17120000000E+03  0.17120000000E+03 0.  0.
         13    1    1    2    0    0  0.17232847554E+02  0.73593819757E+01  0.50149540297E+02  0.53536147545E+02  0.10566000000E+00 0.  1.
        994    1    1    2    0    0 -0.19940005317E+02 -0.51626521607E+01  0.47247405789E+01  0.17249933322E+03  0.17120000000E+03 0.  0.
        998    1    1    2    0    0  0.27071577623E+01 -0.21967298150E+01  0.14451257154E+04  0.14451645192E+04  0.10000000000E+02 0.  1.
</event>
<event>
 5    1  0.1582292E-008  0.3837873E+03  0.7957747E-01  0.3434832E+00
         13   -1    0    0    0    0  0.00000000000E+00  0.00000000000E+00  0.14999999963E+04  0.15000000000E+04  0.10566000000E+00 0. -1.
        994   -1    0    0    0    0 -0.00000000000E+00 -0.00000000000E+00  0.11368683772E-12  0.17120000000E+03  0.17120000000E+03 0.  0.
         13    1    1    2    0    0 -0.14122497349E+01  0.24314812214E+02  0.14361807559E+03  0.14566869033E+03  0.10566000000E+00 0. -1.
        994    1    1    2    0    0 -0.63703131125E+01 -0.53758358096E+01  0.24628518245E+01  0.17142049510E+03  0.17120000000E+03 0.  0.
        998    1    1    2    0    0  0.77825628474E+01 -0.18938976405E+02  0.13539190689E+04  0.13541108146E+04  0.10000000000E+02 0. -1.
</event>
<event>
 5    1  0.1582292E-008  0.3796786E+03  0.7957747E-01  0.3452559E+00
         13   -1    0    0    0    0  0.00000000000E+00  0.00000000000E+00  0.14999999963E+04  0.15000000000E+04  0.10566000000E+00 0. -1.
        994   -1    0    0    0    0 -0.00000000000E+00 -0.00000000000E+00  0.11368683772E-12  0.17120000000E+03  0.17120000000E+03 0.  0.
         13    1    1    2    0    0 -0.92239332111E+01 -0.25371987158E+02  0.83603248947E+02  0.87854044157E+02  0.10566000000E+00 0. -1.
        994    1    1    2    0    0  0.15441585370E+02  0.11462464401E+02  0.55340828947E+01  0.17236559031E+03  0.17120000000E+03 0.  0.
        998    1    1    2    0    0 -0.62176521587E+01  0.13909522757E+02  0.14108626644E+04  0.14109803655E+04  0.10000000000E+02 0. -1.
</event>
<event>
 5    1  0.1582292E-008  0.3981132E+03  0.7957747E-01  0.3375893E+00
         13   -1    0    0    0    0  0.00000000000E+00  0.00000000000E+00  0.14999999963E+04  0.15000000000E+04  0.10566000000E+00 0. -1.
        994   -1    0    0    0    0 -0.00000000000E+00 -0.00000000000E+00  0.11368683772E-12  0.17120000000E+03  0.17120000000E+03 0.  0.
         13    1    1    2    0    0 -0.39804479305E+02  0.83387689156E+02  0.26822508057E+03  0.28369456866E+03  0.10566000000E+00 0. -1.
        994    1    1    2    0    0 -0.11405763790E+03  0.17367318764E+02  0.80494143748E+02  0.22158410526E+03  0.17120000000E+03 0.  0.
        998    1    1    2    0    0  0.15386211721E+03 -0.10075500792E+03  0.11512807720E+04  0.11659213261E+04  0.10000000000E+02 0. -1.
</event>
<event>
 5    1  0.1582292E-008  0.3828317E+03  0.7957747E-01  0.3438920E+00
         13   -1    0    0    0    0  0.00000000000E+00  0.00000000000E+00  0.14999999963E+04  0.15000000000E+04  0.10566000000E+00 0. -1.
        994   -1    0    0    0    0 -0.00000000000E+00 -0.00000000000E+00  0.11368683772E-12  0.17120000000E+03  0.17120000000E+03 0.  0.
         13    1    1    2    0    0 -0.13196602603E+02 -0.86997046657E+01  0.42012206744E+02  0.44887324058E+02  0.10566000000E+00 0. -1.
        994    1    1    2    0    0  0.18533241775E+02  0.23714286187E+02  0.57163802948E+01  0.17391942222E+03  0.17120000000E+03 0.  0.
        998    1    1    2    0    0 -0.53366391716E+01 -0.15014581521E+02  0.14522714092E+04  0.14523932537E+04  0.10000000000E+02 0. -1.
</event>
<event>
 5    1  0.1582292E-008  0.3765372E+03  0.7957747E-01  0.3466376E+00
         13   -1    0    0    0    0  0.00000000000E+00  0.00000000000E+00  0.14999999963E+04  0.15000000000E+04  0.10566000000E+00 0. -1.
        994   -1    0    0    0    0 -0.00000000000E+00 -0.00000000000E+00  0.11368683772E-12  0.17120000000E+03  0.17120000000E+03 0.  0.
         13    1    1    2    0    0  0.44419842608E+02 -0.10881225908E+02  0.19230801218E+03  0.19767120733E+03  0.10566000000E+00 0. -1.
        994    1    1    2    0    0 -0.14367580494E+02 -0.77997631805E+01  0.67957791281E+01  0.17211300442E+03  0.17120000000E+03 0.  0.
        998    1    1    2    0    0 -0.30052262114E+02  0.18680989089E+02  0.13008962050E+04  0.13014157883E+04  0.10000000000E+02 0. -1.
</event>
<event>
 5    1  0.1582292E-008  0.3727581E+03  0.7957747E-01  0.3483310E+00
         13   -1    0    0    0    0  0.00000000000E+00  0.00000000000E+00  0.14999999963E+04  0.15000000000E+04  0.10566000000E+00 0.  1.
        994   -1    0    0    0    0 -0.00000000000E+00 -0.00000000000E+00  0.11368683772E-12  0.17120000000E+03  0.17120000000E+03 0.  0.
         13    1    1    2    0    0 -0.45621051177E+02  0.19865046418E+02  0.14745917149E+03  0.15562814270E+03  0.10566000000E+00 0.  1.
        994    1    1    2    0    0  0.42729165497E+02 -0.39448582090E+01  0.14167698696E+02  0.17706356818E+03  0.17120000000E+03 0.  0.
        998    1    1    2    0    0  0.28918856806E+01 -0.15920188209E+02  0.13383731261E+04  0.13385082891E+04  0.10000000000E+02 0.  1.
</event>
<event>
 5    1  0.1582292E-008  0.3825852E+03  0.7957747E-01  0.3439979E+00
         13   -1    0    0    0    0  0.00000000000E+00  0.00000000000E+00  0.14999999963E+04  0.15000000000E+04  0.10566000000E+00 0.  1.
        994   -1    0    0    0    0 -0.00000000000E+00 -0.00000000000E+00  0.11368683772E-12  0.17120000000E+03  0.17120000000E+03 0.  0.
         13    1    1    2    0    0  0.96054949029E+01 -0.19100910125E+02  0.86471850308E+02  0.89075823654E+02  0.10566000000E+00 0.  1.
        994    1    1    2    0    0 -0.83371421341E+01 -0.47481575046E+01  0.31389745063E+01  0.17149736470E+03  0.17120000000E+03 0.  0.
        998    1    1    2    0    0 -0.12683527688E+01  0.23849067630E+02  0.14103891715E+04  0.14106268116E+04  0.10000000000E+02 0.  1.
</event>
<event>
 5    1  0.1582292E-008  0.3817794E+03  0.7957747E-01  0.3443447E+00
         13   -1    0    0    0    0  0.00000000000E+00  0.00000000000E+00  0.14999999963E+04  0.15000000000E+04  0.10566000000E+00 0. -1.
        994   -1    0    0    0    0 -0.00000000000E+00 -0.00000000000E+00  0.11368683772E-12  0.17120000000E+03  0.17120000000E+03 0.  0.
         13    1    1    2    0    0  0.14079656536E+02 -0.13777279592E+02  0.57392211733E+02  0.60678886714E+02  0.10566000000E+00 0. -1.
        994    1    1    2    0    0 -0.10990493088E+02  0.15049329724E+02  0.43925736058E+01  0.17226725738E+03  0.17120000000E+03 0.  0.
        998    1    1    2    0    0 -0.30891634483E+01 -0.12720501319E+01  0.14382152109E+04  0.14382538559E+04  0.10000000000E+02 0. -1.
</event>
<event>
 5    1  0.1582292E-008  0.3819542E+03  0.7957747E-01  0.3442693E+00
         13   -1    0    0    0    0  0.00000000000E+00  0.00000000000E+00  0.14999999963E+04  0.15000000000E+04  0.10566000000E+00 0. -1.
        994   -1    0    0    0    0 -0.00000000000E+00 -0.00000000000E+00  0.11368683772E-12  0.17120000000E+03  0.17120000000E+03 0.  0.
         13    1    1    2    0    0 -0.11777201809E+00  0.10362167034E+02  0.15664789633E+02  0.18782576345E+02  0.10566000000E+00 0. -1.
        994    1    1    2    0    0  0.21487088009E+01 -0.94974272504E+01  0.34648925626E+01  0.17151170093E+03  0.17120000000E+03 0.  0.
        998    1    1    2    0    0 -0.20309367828E+01 -0.86473978378E+00  0.14808703141E+04  0.14809057227E+04  0.10000000000E+02 0. -1.
</event>
<event>
 5    1  0.1582292E-008  0.3843482E+03  0.7957747E-01  0.3432441E+00
         13   -1    0    0    0    0  0.00000000000E+00  0.00000000000E+00  0.14999999963E+04  0.15000000000E+04  0.10566000000E+00 0. -1.
        994   -1    0    0    0    0 -0.00000000000E+00 -0.00000000000E+00  0.11368683772E-12  0.17120000000E+03  0.17120000000E+03 0.  0.
         13    1    1    2    0    0  0.11635523092E+02 -0.30926560031E+01  0.35152305658E+02  0.37157040731E+02  0.10566000000E+00 0. -1.
        994    1    1    2    0    0 -0.18811463412E+02 -0.12703739818E+01  0.31265236222E+01  0.17226346146E+03  0.17120000000E+03 0.  0.
        998    1    1    2    0    0  0.71759403199E+01  0.43630299849E+01  0.14617211670E+04  0.14617794978E+04  0.10000000000E+02 0. -1.
</event>
<event>
 5    1  0.1582292E-008  0.3751952E+03  0.7957747E-01  0.3472350E+00
         13   -1    0    0    0    0  0.00000000000E+00  0.00000000000E+00  0.14999999963E+04  0.15000000000E+04  0.10566000000E+00 0. -1.
        994   -1    0    0    0    0 -0.00000000000E+00 -0.00000000000E+00  0.11368683772E-12  0.17120000000E+03  0.17120000000E+03 0.  0.
         13    1    1    2    0    0  0.26708725830E+02  0.19507946546E+02  0.33746781927E+02  0.47252221836E+02  0.10566000000E+00 0. -1.
        994    1    1    2    0    0 -0.26532439499E+02 -0.18030754224E+02  0.17385802167E+02  0.17504509293E+03  0.17120000000E+03 0.  0.
        998    1    1    2    0    0 -0.17628633123E+00 -0.14771923222E+01  0.14488674122E+04  0.14489026852E+04  0.10000000000E+02 0. -1.
</event>
<event>
 5    1  0.1582292E-008  0.3826321E+03  0.7957747E-01  0.3439777E+00
         13   -1    0    0    0    0  0.00000000000E+00  0.00000000000E+00  0.14999999963E+04  0.15000000000E+04  0.10566000000E+00 0.  1.
        994   -1    0    0    0    0 -0.00000000000E+00 -0.00000000000E+00  0.11368683772E-12  0.17120000000E+03  0.17120000000E+03 0.  0.
         13    1    1    2    0    0 -0.24916672682E+02  0.63915924713E+01  0.11083210336E+03  0.11377811446E+03  0.10566000000E+00 0.  1.
        994    1    1    2    0    0  0.22855398790E+02 -0.75339375544E+01  0.47319851962E+01  0.17294785675E+03  0.17120000000E+03 0.  0.
        998    1    1    2    0    0  0.20612738920E+01  0.11423450831E+01  0.13844359077E+04  0.13844740288E+04  0.10000000000E+02 0.  1.
</event>
<event>
 5    1  0.1582292E-008  0.4294306E+03  0.7957747E-01  0.3260643E+00
         13   -1    0    0    0    0  0.00000000000E+00  0.00000000000E+00  0.14999999963E+04  0.15000000000E+04  0.10566000000E+00 0.  1.
        994   -1    0    0    0    0 -0.00000000000E+00 -0.00000000000E+00  0.11368683772E-12  0.17120000000E+03  0.17120000000E+03 0.  0.
         13    1    1    2    0    0 -0.70587676091E+01 -0.10446544561E+03  0.11404378423E+03  0.15481876957E+03  0.10566000000E+00 0.  1.
        994    1    1    2    0    0 -0.49939867723E+02  0.54479698480E+02  0.71510088408E+02  0.19971269534E+03  0.17120000000E+03 0.  0.
        998    1    1    2    0    0  0.56998635333E+02  0.49985747129E+02  0.13144461236E+04  0.13166685351E+04  0.10000000000E+02 0.  1.
</event>
<event>
 5    1  0.1582292E-008  0.3785954E+03  0.7957747E-01  0.3457298E+00
         13   -1    0    0    0    0  0.00000000000E+00  0.00000000000E+00  0.14999999963E+04  0.15000000000E+04  0.10566000000E+00 0. -1.
        994   -1    0    0    0    0 -0.00000000000E+00 -0.00000000000E+00  0.11368683772E-12  0.17120000000E+03  0.17120000000E+03 0.  0.
         13    1    1    2    0    0  0.34368835484E+02  0.18719393549E+01  0.13274076197E+03  0.13713074806E+03  0.10566000000E+00 0. -1.
        994    1    1    2    0    0 -0.57680133590E+01  0.28552430826E+02  0.76988656777E+01  0.17383102087E+03  0.17120000000E+03 0.  0.
        998    1    1    2    0    0 -0.28600822125E+02 -0.30424370181E+02  0.13595603686E+04  0.13602382311E+04  0.10000000000E+02 0. -1.
</event>
<event>
 5    1  0.1582292E-008  0.3777909E+03  0.7957747E-01  0.3460834E+00
         13   -1    0    0    0    0  0.00000000000E+00  0.00000000000E+00  0.14999999963E+04  0.15000000000E+04  0.10566000000E+00 0. -1.
        994   -1    0    0    0    0 -0.00000000000E+00 -0.00000000000E+00  0.11368683772E-12  0.17120000000E+03  0.17120000000E+03 0.  0.
         13    1    1    2    0    0 -0.77170018218E+02 -0.10989428812E+03  0.59667594674E+03  0.61159967532E+03  0.10566000000E+00 0. -1.
        994    1    1    2    0    0  0.11955080907E+03  0.12483519104E+03  0.11353288879E+03  0.26846857863E+03  0.17120000000E+03 0.  0.
        998    1    1    2    0    0 -0.42380790856E+02 -0.14940902922E+02  0.78979116075E+03  0.79113174605E+03  0.10000000000E+02 0. -1.
</event>
<event>
 5    1  0.1582292E-008  0.3778754E+03  0.7957747E-01  0.3460462E+00
         13   -1    0    0    0    0  0.00000000000E+00  0.00000000000E+00  0.14999999963E+04  0.15000000000E+04  0.10566000000E+00 0. -1.
        994   -1    0    0    0    0 -0.00000000000E+00 -0.00000000000E+00  0.11368683772E-12  0.17120000000E+03  0.17120000000E+03 0.  0.
         13    1    1    2    0    0 -0.18332718459E+02 -0.92261625822E+01  0.70832144065E+01  0.21711603636E+02  0.10566000000E+00 0. -1.
        994    1    1    2    0    0  0.18573455540E+02  0.10515451765E+02  0.16804654273E+02  0.17334181371E+03  0.17120000000E+03 0.  0.
        998    1    1    2    0    0 -0.24073708087E+00 -0.12892891833E+01  0.14761121276E+04  0.14761465826E+04  0.10000000000E+02 0. -1.
</event>
<event>
 5    1  0.1582292E-008  0.3850281E+03  0.7957747E-01  0.3429553E+00
         13   -1    0    0    0    0  0.00000000000E+00  0.00000000000E+00  0.14999999963E+04  0.15000000000E+04  0.10566000000E+00 0. -1.
        994   -1    0    0    0    0 -0.00000000000E+00 -0.00000000000E+00  0.11368683772E-12  0.17120000000E+03  0.17120000000E+03 0.  0.
         13    1    1    2    0    0 -0.65317888996E+00  0.12607377036E+02  0.49837253038E+02  0.51411434067E+02  0.10566000000E+00 0. -1.
        994    1    1    2    0    0 -0.34866109228E+01 -0.65689251404E+01  0.17980872859E+01  0.17137088537E+03  0.17120000000E+03 0.  0.
        998    1    1    2    0    0  0.41397898127E+01 -0.60384518956E+01  0.14483646560E+04  0.14484176806E+04  0.10000000000E+02 0. -1.
</event>
<event>
 5    1  0.1582292E-008  0.3831098E+03  0.7957747E-01  0.3437728E+00
         13   -1    0    0    0    0  0.00000000000E+00  0.00000000000E+00  0.14999999963E+04  0.15000000000E+04  0.10566000000E+00 0.  1.
        994   -1    0    0    0    0 -0.00000000000E+00 -0.00000000000E+00  0.11368683772E-12  0.17120000000E+03  0.17120000000E+03 0.  0.
         13    1    1    2    0    0  0.12999893501E+02  0.13157928244E+02  0.68357177514E+02  0.70815557531E+02  0.10566000000E+00 0.  1.
        994    1    1    2    0    0 -0.11401161878E+01 -0.55231910553E+01  0.26767517241E+01  0.17131377792E+03  0.17120000000E+03 0.  0.
        998    1    1    2    0    0 -0.11859777314E+02 -0.76347371889E+01  0.14289660670E+04  0.14290706646E+04  0.10000000000E+02 0.  1.
</event>
<event>
 5    1  0.1582292E-008  0.3726403E+03  0.7957747E-01  0.3483844E+00
         13   -1    0    0    0    0  0.00000000000E+00  0.00000000000E+00  0.14999999963E+04  0.15000000000E+04  0.10566000000E+00 0.  1.
        994   -1    0    0    0    0 -0.00000000000E+00 -0.00000000000E+00  0.11368683772E-12  0.17120000000E+03  0.17120000000E+03 0.  0.
         13    1    1    2    0    0  0.44078487815E+02 -0.48921932474E+02  0.32883412017E+03  0.33536272648E+03  0.10566000000E+00 0.  1.
        994    1    1    2    0    0 -0.11113805249E+02  0.74872572010E+01  0.85110296279E+01  0.17193444481E+03  0.17120000000E+03 0.  0.
        998    1    1    2    0    0 -0.32964682566E+02  0.41434675273E+02  0.11626548465E+04  0.11639028287E+04  0.10000000000E+02 0.  1.
</event>
<event>
 5    1  0.1582292E-008  0.3842787E+03  0.7957747E-01  0.3432737E+00
         13   -1    0    0    0    0  0.00000000000E+00  0.00000000000E+00  0.14999999963E+04  0.15000000000E+04  0.10566000000E+00 0. -1.
        994   -1    0    0    0    0 -0.00000000000E+00 -0.00000000000E+00  0.11368683772E-12  0.17120000000E+03  0.17120000000E+03 0.  0.
         13    1    1    2    0    0  0.53035718158E+01 -0.94805586787E+01  0.28765607045E+02  0.30748661427E+02  0.10566000000E+00 0. -1.
        994    1    1    2    0    0 -0.68946431991E+01  0.86105409754E+01  0.23898536974E+01  0.17157164370E+03  0.17120000000E+03 0.  0.
        998    1    1    2    0    0  0.15910713833E+01  0.87001770334E+00  0.14688445355E+04  0.14688796949E+04  0.10000000000E+02 0. -1.
</event>
<event>
 5    1  0.1582292E-008  0.3776498E+03  0.7957747E-01  0.3461456E+00
         13   -1    0    0    0    0  0.00000000000E+00  0.00000000000E+00  0.14999999963E+04  0.15000000000E+04  0.10566000000E+00 0. -1.
        994   -1    0    0    0    0 -0.00000000000E+00 -0.00000000000E+00  0.11368683772E-12  0.17120000000E+03  0.17120000000E+03 0.  0.
         13    1    1    2    0    0  0.26087280332E+02 -0.25220295760E+02  0.11928162960E+03  0.12467849789E+03  0.10566000000E+00 0. -1.
        994    1    1    2    0    0 -0.13847633491E+02  0.22943359660E+02  0.77475548567E+01  0.17345783151E+03  0.17120000000E+03 0.  0.
        998    1    1    2    0    0 -0.12239646841E+02  0.22769360997E+01  0.13729708118E+04  0.13730636706E+04  0.10000000000E+02 0. -1.
</event>
<event>
 5    1  0.1582292E-008  0.3820155E+03  0.7957747E-01  0.3442429E+00
         13   -1    0    0    0    0  0.00000000000E+00  0.00000000000E+00  0.14999999963E+04  0.15000000000E+04  0.10566000000E+00 0.  1.
        994   -1    0    0    0    0 -0.00000000000E+00 -0.00000000000E+00  0.11368683772E-12  0.17120000000E+03  0.17120000000E+03 0.  0.
         13    1    1    2    0    0  0.10339783087E+02 -0.24855659866E+02  0.92829593473E+02  0.96654330115E+02  0.10566000000E+00 0.  1.
        994    1    1    2    0    0 -0.18258210086E+02  0.53014159775E+02  0.13630487536E+02  0.18066292803E+03  0.17120000000E+03 0.  0.
        998    1    1    2    0    0  0.79184269992E+01 -0.28158499909E+02  0.13935399153E+04  0.13938827419E+04  0.10000000000E+02 0.  1.
</event>
<event>
 5    1  0.1582292E-008  0.3702253E+03  0.7957747E-01  0.3494856E+00
         13   -1    0    0    0    0  0.00000000000E+00  0.00000000000E+00  0.14999999963E+04  0.15000000000E+04  0.10566000000E+00 0. -1.
        994   -1    0    0    0    0 -0.00000000000E+00 -0.00000000000E+00  0.11368683772E-12  0.17120000000E+03  0.17120000000E+03 0.  0.
         13    1    1    2    0    0 -0.70836884846E+01 -0.61436515076E+02  0.18178082171E+03  0.19201276607E+03  0.10566000000E+00 0. -1.
        994    1    1    2    0    0  0.58749291983E+01  0.61526397421E+02  0.22467498190E+02  0.18339640358E+03  0.17120000000E+03 0.  0.
        998    1    1    2    0    0  0.12087592863E+01 -0.89882345073E-01  0.12957516764E+04  0.12957908303E+04  0.10000000000E+02 0. -1.
</event>
<event>
 5    1  0.1582292E-008  0.3817685E+03  0.7957747E-01  0.3443494E+00
         13   -1    0    0    0    0  0.00000000000E+00  0.00000000000E+00  0.14999999963E+04  0.15000000000E+04  0.10566000000E+00 0.  1.
        994   -1    0    0    0    0 -0.00000000000E+00 -0.00000000000E+00  0.11368683772E-12  0.17120000000E+03  0.17120000000E+03 0.  0.
         13    1    1    2    0    0 -0.21031014299E+02  0.51539065872E+01  0.62406619781E+02  0.66056518771E+02  0.10566000000E+00 0.  1.
        994    1    1    2    0    0  0.46274348027E+02  0.74592863650E+01  0.10579319531E+02  0.17781540496E+03  0.17120000000E+03 0.  0.
        998    1    1    2    0    0 -0.25243333728E+02 -0.12613192952E+02  0.14270140570E+04  0.14273280763E+04  0.10000000000E+02 0.  1.
</event>
<event>
 5    1  0.1582292E-008  0.3795473E+03  0.7957747E-01  0.3453132E+00
         13   -1    0    0    0    0  0.00000000000E+00  0.00000000000E+00  0.14999999963E+04  0.15000000000E+04  0.10566000000E+00 0. -1.
        994   -1    0    0    0    0 -0.00000000000E+00 -0.00000000000E+00  0.11368683772E-12  0.17120000000E+03  0.17120000000E+03 0.  0.
         13    1    1    2    0    0  0.24469003963E+02  0.16030355399E+02  0.10032478827E+03  0.10450252990E+03  0.10566000000E+00 0. -1.
        994    1    1    2    0    0 -0.58175174004E+01 -0.99208268092E+01  0.48047671803E+01  0.17165311562E+03  0.17120000000E+03 0.  0.
        998    1    1    2    0    0 -0.18651486563E+02 -0.61095285903E+01  0.13948704408E+04  0.13950443545E+04  0.10000000000E+02 0. -1.
</event>
<event>
 5    1  0.1582292E-008  0.3834803E+03  0.7957747E-01  0.3436143E+00
         13   -1    0    0    0    0  0.00000000000E+00  0.00000000000E+00  0.14999999963E+04  0.15000000000E+04  0.10566000000E+00 0. -1.
        994   -1    0    0    0    0 -0.00000000000E+00 -0.00000000000E+00  0.11368683772E-12  0.17120000000E+03  0.17120000000E+03 0.  0.
         13    1    1    2    0    0  0.11503114144E+02 -0.85319855067E+00  0.28051667343E+02  0.30330789432E+02  0.10566000000E+00 0. -1.
        994    1    1    2    0    0  0.11825241670E+01 -0.37665095620E+01  0.24380213836E+01  0.17126286494E+03  0.17120000000E+03 0.  0.
        998    1    1    2    0    0 -0.12685638311E+02  0.46197081126E+01  0.14695103076E+04  0.14696063456E+04  0.10000000000E+02 0. -1.
</event>
<event>
 5    1  0.1582292E-008  0.3853499E+03  0.7957747E-01  0.3428190E+00
         13   -1    0    0    0    0  0.00000000000E+00  0.00000000000E+00  0.14999999963E+04  0.15000000000E+04  0.10566000000E+00 0.  1.
        994   -1    0    0    0    0 -0.00000000000E+00 -0.00000000000E+00  0.11368683772E-12  0.17120000000E+03  0.17120000000E+03 0.  0.
         13    1    1    2    0    0  0.11877891127E+02 -0.23316899049E+01  0.51897593076E+02  0.53290640891E+02  0.10566000000E+00 0.  1.
        994    1    1    2    0    0 -0.47710346347E+01 -0.66043555980E+01  0.16746114235E+01  0.17140193875E+03  0.17120000000E+03 0.  0.
        998    1    1    2    0    0 -0.71068564925E+01  0.89360455029E+01  0.14464277918E+04  0.14465074204E+04  0.10000000000E+02 0.  1.
</event>
<event>
 5    1  0.1582292E-008  0.3854873E+03  0.7957747E-01  0.3427608E+00
         13   -1    0    0    0    0  0.00000000000E+00  0.00000000000E+00  0.14999999963E+04  0.15000000000E+04  0.10566000000E+00 0.  1.
        994   -1    0    0    0    0 -0.00000000000E+00 -0.00000000000E+00  0.11368683772E-12  0.17120000000E+03  0.17120000000E+03 0.  0.
         13    1    1    2    0    0 -0.16019738587E+03 -0.21808230572E+03  0.11424787784E+04  0.11740872475E+04  0.10566000000E+00 0.  1.
        994    1    1    2    0    0  0.16514505863E+03  0.21907450286E+03  0.30886549749E+03  0.44718437331E+03  0.17120000000E+03 0.  0.
        998    1    1    2    0    0 -0.49476727596E+01 -0.99219714104E+00  0.48655720422E+02  0.49928379212E+02  0.10000000000E+02 0. -1.
</event>
<event>
 5    1  0.1582292E-008  0.3752429E+03  0.7957747E-01  0.3472137E+00
         13   -1    0    0    0    0  0.00000000000E+00  0.00000000000E+00  0.14999999963E+04  0.15000000000E+04  0.10566000000E+00 0.  1.
        994   -1    0    0    0    0 -0.00000000000E+00 -0.00000000000E+00  0.11368683772E-12  0.17120000000E+03  0.17120000000E+03 0.  0.
         13    1    1    2    0    0  0.10357517924E+03  0.16939261886E+03  0.99287363672E+03  0.10125313559E+04  0.10566000000E+00 0.  1.
        994    1    1    2    0    0 -0.98971009868E+02 -0.16016276266E+03  0.13842315133E+03  0.28968565750E+03  0.17120000000E+03 0.  0.
        998    1    1    2    0    0 -0.46041693749E+01 -0.92298562063E+01  0.36870320823E+03  0.36898298658E+03  0.10000000000E+02 0. -1.
</event>
<event>
 5    1  0.1582292E-008  0.3856831E+03  0.7957747E-01  0.3426780E+00
         13   -1    0    0    0    0  0.00000000000E+00  0.00000000000E+00  0.14999999963E+04  0.15000000000E+04  0.10566000000E+00 0. -1.
        994   -1    0    0    0    0 -0.00000000000E+00 -0.00000000000E+00  0.11368683772E-12  0.17120000000E+03  0.17120000000E+03 0.  0.
         13    1    1    2    0    0  0.95177465834E+01  0.80662994875E+01  0.60292698099E+02  0.61570068179E+02  0.10566000000E+00 0. -1.
        994    1    1    2    0    0 -0.15694595565E+02  0.37641156770E+01  0.21465819301E+01  0.17197248824E+03  0.17120000000E+03 0.  0.
        998    1    1    2    0    0  0.61768489817E+01 -0.11830415164E+02  0.14375607162E+04  0.14376574436E+04  0.10000000000E+02 0. -1.
</event>
<event>
 5    1  0.1582292E-008  0.3842288E+03  0.7957747E-01  0.3432949E+00
         13   -1    0    0    0    0  0.00000000000E+00  0.00000000000E+00  0.14999999963E+04  0.15000000000E+04  0.10566000000E+00 0. -1.
        994   -1    0    0    0    0 -0.00000000000E+00 -0.00000000000E+00  0.11368683772E-12  0.17120000000E+03  0.17120000000E+03 0.  0.
         13    1    1    2    0    0  0.31346788586E+01  0.16406067279E+02  0.73726168285E+02  0.75594605027E+02  0.10566000000E+00 0. -1.
        994    1    1    2    0    0  0.61563528769E+01 -0.12069080314E+01  0.21432622999E+01  0.17132831313E+03  0.17120000000E+03 0.  0.
        998    1    1    2    0    0 -0.92910317355E+01 -0.15199159247E+02  0.14241305657E+04  0.14242770818E+04  0.10000000000E+02 0. -1.
</event>
<event>
 5    1  0.1582292E-008  0.3705226E+03  0.7957747E-01  0.3493492E+00
         13   -1    0    0    0    0  0.00000000000E+00  0.00000000000E+00  0.14999999963E+04  0.15000000000E+04  0.10566000000E+00 0. -1.
        994   -1    0    0    0    0 -0.00000000000E+00 -0.00000000000E+00  0.11368683772E-12  0.17120000000E+03  0.17120000000E+03 0.  0.
         13    1    1    2    0    0 -0.24652547593E+02  0.82780109807E+01  0.34377387471E+02  0.43105562309E+02  0.10566000000E+00 0. -1.
        994    1    1    2    0    0  0.12071467706E+02 -0.50352991939E+01  0.95868115365E+01  0.17196633835E+03  0.17120000000E+03 0.  0.
        998    1    1    2    0    0  0.12581079888E+02 -0.32427117868E+01  0.14560357973E+04  0.14561280993E+04  0.10000000000E+02 0. -1.
</event>
<event>
 5    1  0.1582292E-008  0.3854972E+03  0.7957747E-01  0.3427566E+00
         13   -1    0    0    0    0  0.00000000000E+00  0.00000000000E+00  0.14999999963E+04  0.15000000000E+04  0.10566000000E+00 0. -1.
        994   -1    0    0    0    0 -0.00000000000E+00 -0.00000000000E+00  0.11368683772E-12  0.17120000000E+03  0.17120000000E+03 0.  0.
         13    1    1    2    0    0  0.11009118338E+02 -0.43974329405E+00  0.44431585816E+02  0.45777407559E+02  0.10566000000E+00 0. -1.
        994    1    1    2    0    0 -0.58453814800E+01  0.83875843617E-01  0.14957284455E+01  0.17130631256E+03  0.17120000000E+03 0.  0.
        998    1    1    2    0    0 -0.51637368577E+01  0.35586745043E+00  0.14540726820E+04  0.14541162799E+04  0.10000000000E+02 0. -1.
</event>
<event>
 5    1  0.1582292E-008  0.3825931E+03  0.7957747E-01  0.3439945E+00
         13   -1    0    0    0    0  0.00000000000E+00  0.00000000000E+00  0.14999999963E+04  0.15000000000E+04  0.10566000000E+00 0.  1.
        994   -1    0    0    0    0 -0.00000000000E+00 -0.00000000000E+00  0.11368683772E-12  0.17120000000E+03  0.17120000000E+03 0.  0.
         13    1    1    2    0    0  0.11966283408E+02 -0.13451559191E+02  0.55261572120E+02  0.58120468859E+02  0.10566000000E+00 0.  1.
        994    1    1    2    0    0 -0.13833833074E+02  0.92920159722E+01  0.37508714207E+01  0.17205006694E+03  0.17120000000E+03 0.  0.
        998    1    1    2    0    0  0.18675496657E+01  0.41595432189E+01  0.14409875527E+04  0.14410294642E+04  0.10000000000E+02 0.  1.
</event>
<event>
 5    1  0.1582292E-008  0.3858216E+03  0.7957747E-01  0.3426195E+00
         13   -1    0    0    0    0  0.00000000000E+00  0.00000000000E+00  0.14999999963E+04  0.15000000000E+04  0.10566000000E+00 0. -1.
        994   -1    0    0    0    0 -0.00000000000E+00 -0.00000000000E+00  0.11368683772E-12  0.17120000000E+03  0.17120000000E+03 0.  0.
         13    1    1    2    0    0  0.16813970196E+01 -0.14445636693E+02  0.83543037992E+02  0.84799492194E+02  0.10566000000E+00 0. -1.
        994    1    1    2    0    0 -0.36387854634E+01  0.14458474762E+02  0.19522209183E+01  0.17185906848E+03  0.17120000000E+03 0.  0.
        998    1    1    2    0    0  0.19573884438E+01 -0.12838068795E-01  0.14145047374E+04  0.14145414393E+04  0.10000000000E+02 0. -1.
</event>
<event>
 5    1  0.1582292E-008  0.3852744E+03  0.7957747E-01  0.3428509E+00
         13   -1    0    0    0    0  0.00000000000E+00  0.00000000000E+00  0.14999999963E+04  0.15000000000E+04  0.10566000000E+00 0. -1.
        994   -1    0    0    0    0 -0.00000000000E+00 -0.00000000000E+00  0.11368683772E-12  0.17120000000E+03  0.17120000000E+03 0.  0.
         13    1    1    2    0    0  0.45521947120E+01 -0.16985663588E+02  0.99697916199E+02  0.10123695423E+03  0.10566000000E+00 0. -1.
        994    1    1    2    0    0 -0.25405321507E+00  0.16705226887E+02  0.24116243419E+01  0.17203018654E+03  0.17120000000E+03 0.  0.
        998    1    1    2    0    0 -0.42981414969E+01  0.28043670120E+00  0.13978904557E+04  0.13979328592E+04  0.10000000000E+02 0. -1.
</event>
<event>
 5    1  0.1582292E-008  0.3845569E+03  0.7957747E-01  0.3431554E+00
         13   -1    0    0    0    0  0.00000000000E+00  0.00000000000E+00  0.14999999963E+04  0.15000000000E+04  0.10566000000E+00 0. -1.
        994   -1    0    0    0    0 -0.00000000000E+00 -0.00000000000E+00  0.11368683772E-12  0.17120000000E+03  0.17120000000E+03 0.  0.
         13    1    1    2    0    0 -0.14592766418E+02  0.34218775247E+01  0.60766736958E+02  0.62588062456E+02  0.10566000000E+00 0. -1.
        994    1    1    2    0    0  0.87134973073E+01 -0.26688584947E+01  0.21238661642E+01  0.17145552965E+03  0.17120000000E+03 0.  0.
        998    1    1    2    0    0  0.58792691103E+01 -0.75301903002E+00  0.14371093932E+04  0.14371564079E+04  0.10000000000E+02 0. -1.
</event>
<event>
 5    1  0.1582292E-008  0.3843980E+03  0.7957747E-01  0.3432230E+00
         13   -1    0    0    0    0  0.00000000000E+00  0.00000000000E+00  0.14999999963E+04  0.15000000000E+04  0.10566000000E+00 0. -1.
        994   -1    0    0    0    0 -0.00000000000E+00 -0.00000000000E+00  0.11368683772E-12  0.17120000000E+03  0.17120000000E+03 0.  0.
         13    1    1    2    0    0  0.53384416903E+01 -0.19455747369E+02  0.12074081413E+03  0.12241478843E+03  0.10566000000E+00 0. -1.
        994    1    1    2    0    0  0.10711054433E+02 -0.11272759392E+01  0.23116476066E+01  0.17155401818E+03  0.17120000000E+03 0.  0.
        998    1    1    2    0    0 -0.16049496124E+02  0.20583023308E+02  0.13769475345E+04  0.13772311934E+04  0.10000000000E+02 0. -1.
</event>
<event>
 5    1  0.1582292E-008  0.3800768E+03  0.7957747E-01  0.3450824E+00
         13   -1    0    0    0    0  0.00000000000E+00  0.00000000000E+00  0.14999999963E+04  0.15000000000E+04  0.10566000000E+00 0. -1.
        994   -1    0    0    0    0 -0.00000000000E+00 -0.00000000000E+00  0.11368683772E-12  0.17120000000E+03  0.17120000000E+03 0.  0.
         13    1    1    2    0    0  0.23677131844E+02  0.39806175378E+01  0.73632041482E+02  0.77447663523E+02  0.10566000000E+00 0. -1.
        994    1    1    2    0    0  0.17402579123E+00 -0.39417313309E+01  0.41464032555E+01  0.17129565141E+03  0.17120000000E+03 0.  0.
        998    1    1    2    0    0 -0.23851157636E+02 -0.38886206862E-01  0.14222215515E+04  0.14224566851E+04  0.10000000000E+02 0. -1.
</event>
<event>
 5    1  0.1582292E-008  0.3780817E+03  0.7957747E-01  0.3459554E+00
         13   -1    0    0    0    0  0.00000000000E+00  0.00000000000E+00  0.14999999963E+04  0.15000000000E+04  0.10566000000E+00 0.  1.
        994   -1    0    0    0    0 -0.00000000000E+00 -0.00000000000E+00  0.11368683772E-12  0.17120000000E+03  0.17120000000E+03 0.  0.
         13    1    1    2    0    0 -0.39789303234E+02 -0.14465853027E+02  0.18507650173E+03  0.18985724167E+03  0.10566000000E+00 0.  1.
        994    1    1    2    0    0  0.61182239870E+01  0.29177049673E+02  0.81003674792E+01  0.17396490694E+03  0.17120000000E+03 0.  0.
        998    1    1    2    0    0  0.33671079247E+02 -0.14711196645E+02  0.13068231271E+04  0.13073778514E+04  0.10000000000E+02 0.  1.
</event>
<event>
 5    1  0.1582292E-008  0.3797281E+03  0.7957747E-01  0.3452343E+00
         13   -1    0    0    0    0  0.00000000000E+00  0.00000000000E+00  0.14999999963E+04  0.15000000000E+04  0.10566000000E+00 0.  1.
        994   -1    0    0    0    0 -0.00000000000E+00 -0.00000000000E+00  0.11368683772E-12  0.17120000000E+03  0.17120000000E+03 0.  0.
         13    1    1    2    0    0 -0.20303813628E+02 -0.28535304997E+02  0.13392084705E+03  0.13842439423E+03  0.10566000000E+00 0.  1.
        994    1    1    2    0    0  0.26032788755E+02  0.19591176753E+02  0.78303723861E+01  0.17444848818E+03  0.17120000000E+03 0.  0.
        998    1    1    2    0    0 -0.57289751271E+01  0.89441282437E+01  0.13582487768E+04  0.13583271176E+04  0.10000000000E+02 0.  1.
</event>
<event>
 5    1  0.1582292E-008  0.3847197E+03  0.7957747E-01  0.3430862E+00
         13   -1    0    0    0    0  0.00000000000E+00  0.00000000000E+00  0.14999999963E+04  0.15000000000E+04  0.10566000000E+00 0. -1.
        994   -1    0    0    0    0 -0.00000000000E+00 -0.00000000000E+00  0.11368683772E-12  0.17120000000E+03  0.17120000000E+03 0.  0.
         13    1    1    2    0    0 -0.38802121545E+01  0.10306330538E+02  0.34341959106E+02  0.36064633851E+02  0.10566000000E+00 0. -1.
        994    1    1    2    0    0  0.65627447823E+01 -0.29639691973E+01  0.19400636691E+01  0.17136236045E+03  0.17120000000E+03 0.  0.
        998    1    1    2    0    0 -0.26825326278E+01 -0.73423613411E+01  0.14637179735E+04  0.14637730057E+04  0.10000000000E+02 0. -1.
</event>
<event>
 5    1  0.1582292E-008  0.3819974E+03  0.7957747E-01  0.3442507E+00
         13   -1    0    0    0    0  0.00000000000E+00  0.00000000000E+00  0.14999999963E+04  0.15000000000E+04  0.10566000000E+00 0. -1.
        994   -1    0    0    0    0 -0.00000000000E+00 -0.00000000000E+00  0.11368683772E-12  0.17120000000E+03  0.17120000000E+03 0.  0.
         13    1    1    2    0    0  0.13238768297E+02  0.64887645798E+01  0.35581030416E+02  0.38514801587E+02  0.10566000000E+00 0. -1.
        994    1    1    2    0    0  0.43711481348E+01  0.39776108774E+01  0.32442760390E+01  0.17133269872E+03  0.17120000000E+03 0.  0.
        998    1    1    2    0    0 -0.17609916432E+02 -0.10466375457E+02  0.14611746898E+04  0.14613524997E+04  0.10000000000E+02 0. -1.
</event>
<event>
 5    1  0.1582292E-008  0.3818647E+03  0.7957747E-01  0.3443079E+00
         13   -1    0    0    0    0  0.00000000000E+00  0.00000000000E+00  0.14999999963E+04  0.15000000000E+04  0.10566000000E+00 0.  1.
        994   -1    0    0    0    0 -0.00000000000E+00 -0.00000000000E+00  0.11368683772E-12  0.17120000000E+03  0.17120000000E+03 0.  0.
         13    1    1    2    0    0 -0.11254773091E+02  0.15637548969E+01  0.18965576820E+02  0.22109263101E+02  0.10566000000E+00 0.  1.
        994    1    1    2    0    0  0.72396696626E+01 -0.90264488786E+00  0.33716741033E+01  0.17138855204E+03  0.17120000000E+03 0.  0.
        998    1    1    2    0    0  0.40151034287E+01 -0.66111000903E+00  0.14776627454E+04  0.14777021849E+04  0.10000000000E+02 0.  1.
</event>
<event>
 5    1  0.1582292E-008  0.3851844E+03  0.7957747E-01  0.3428891E+00
         13   -1    0    0    0    0  0.00000000000E+00  0.00000000000E+00  0.14999999963E+04  0.15000000000E+04  0.10566000000E+00 0.  1.
        994   -1    0    0    0    0 -0.00000000000E+00 -0.00000000000E+00  0.11368683772E-12  0.17120000000E+03  0.17120000000E+03 0.  0.
         13    1    1    2    0    0 -0.98029617452E+01  0.12267773839E+02  0.82008168929E+02  0.83498187220E+02  0.10566000000E+00 0.  1.
        994    1    1    2    0    0  0.30737887973E+01 -0.69637431870E+01  0.17290980964E+01  0.17137786227E+03  0.17120000000E+03 0.  0.
        998    1    1    2    0    0  0.67291729480E+01 -0.53040306516E+01  0.14162627293E+04  0.14163239505E+04  0.10000000000E+02 0.  1.
</event>
<event>
 5    1  0.1582292E-008  0.3851729E+03  0.7957747E-01  0.3428939E+00
         13   -1    0    0    0    0  0.00000000000E+00  0.00000000000E+00  0.14999999963E+04  0.15000000000E+04  0.10566000000E+00 0.  1.
        994   -1    0    0    0    0 -0.00000000000E+00 -0.00000000000E+00  0.11368683772E-12  0.17120000000E+03  0.17120000000E+03 0.  0.
         13    1    1    2    0    0  0.36002871103E+01  0.14288068094E+02  0.69181911054E+02  0.70733718539E+02  0.10566000000E+00 0.  1.
        994    1    1    2    0    0 -0.62524848057E+01 -0.11182162300E+02  0.20839799011E+01  0.17169134309E+03  0.17120000000E+03 0.  0.
        998    1    1    2    0    0  0.26521976954E+01 -0.31059057942E+01  0.14287341053E+04  0.14287749384E+04  0.10000000000E+02 0.  1.
</event>
<event>
 5    1  0.1582292E-008  0.3833643E+03  0.7957747E-01  0.3436639E+00
         13   -1    0    0    0    0  0.00000000000E+00  0.00000000000E+00  0.14999999963E+04  0.15000000000E+04  0.10566000000E+00 0. -1.
        994   -1    0    0    0    0 -0.00000000000E+00 -0.00000000000E+00  0.11368683772E-12  0.17120000000E+03  0.17120000000E+03 0.  0.
         13    1    1    2    0    0 -0.51842192860E+01 -0.12514593976E+02  0.32861354185E+02  0.35543929931E+02  0.10566000000E+00 0. -1.
        994    1    1    2    0    0  0.28895829355E+01  0.40458725025E+02  0.79030547161E+01  0.17611688276E+03  0.17120000000E+03 0.  0.
        998    1    1    2    0    0  0.22946363505E+01 -0.27944131049E+02  0.14592355874E+04  0.14595391873E+04  0.10000000000E+02 0. -1.
</event>
<event>
 5    1  0.1582292E-008  0.3827874E+03  0.7957747E-01  0.3439110E+00
         13   -1    0    0    0    0  0.00000000000E+00  0.00000000000E+00  0.14999999963E+04  0.15000000000E+04  0.10566000000E+00 0.  1.
        994   -1    0    0    0    0 -0.00000000000E+00 -0.00000000000E+00  0.11368683772E-12  0.17120000000E+03  0.17120000000E+03 0.  0.
         13    1    1    2    0    0 -0.68532432255E+01  0.27915510363E+02  0.17154329893E+03  0.17393492240E+03  0.10566000000E+00 0.  1.
        994    1    1    2    0    0  0.23195795482E+01 -0.87090954180E+00  0.27529650496E+01  0.17124005883E+03  0.17120000000E+03 0.  0.
        998    1    1    2    0    0  0.45336636773E+01 -0.27044600821E+02  0.13257037323E+04  0.13260250188E+04  0.10000000000E+02 0.  1.
</event>
<event>
 5    1  0.1582292E-008  0.3841614E+03  0.7957747E-01  0.3433237E+00
         13   -1    0    0    0    0  0.00000000000E+00  0.00000000000E+00  0.14999999963E+04  0.15000000000E+04  0.10566000000E+00 0. -1.
        994   -1    0    0    0    0 -0.00000000000E+00 -0.00000000000E+00  0.11368683772E-12  0.17120000000E+03  0.17120000000E+03 0.  0.
         13    1    1    2    0    0  0.11290861278E+02 -0.38000442954E+01  0.33940910421E+02  0.35971105756E+02  0.10566000000E+00 0. -1.
        994    1    1    2    0    0 -0.11318924987E+02 -0.33798295921E+01  0.25073371319E+01  0.17162537123E+03  0.17120000000E+03 0.  0.
        998    1    1    2    0    0  0.28063708567E-01  0.71798738875E+01  0.14635517487E+04  0.14636035230E+04  0.10000000000E+02 0. -1.
</event>
<event>
 5    1  0.1826203E-008  0.3850843E+03  0.7957747E-01  0.3429315E+00
         13   -1    0    0    0    0  0.00000000000E+00  0.00000000000E+00  0.14999999963E+04  0.15000000000E+04  0.10566000000E+00 0. -1.
        994   -1    0    0    0    0 -0.00000000000E+00 -0.00000000000E+00  0.11368683772E-12  0.17120000000E+03  0.17120000000E+03 0.  0.
         13    1    1    2    0    0 -0.64768993238E+01 -0.89454852177E+01  0.37748462498E+02  0.39331024848E+02  0.10566000000E+00 0. -1.
        994    1    1    2    0    0  0.48909686342E+01  0.92279260961E+01  0.19470043890E+01  0.17152931825E+03  0.17120000000E+03 0.  0.
        998    1    1    2    0    0  0.15859306896E+01 -0.28244087845E+00  0.14603045294E+04  0.14603396569E+04  0.10000000000E+02 0. -1.
</event>
<event>
 5    1  0.1582292E-008  0.3732985E+03  0.7957747E-01  0.3480867E+00
         13   -1    0    0    0    0  0.00000000000E+00  0.00000000000E+00  0.14999999963E+04  0.15000000000E+04  0.10566000000E+00 0. -1.
        994   -1    0    0    0    0 -0.00000000000E+00 -0.00000000000E+00  0.11368683772E-12  0.17120000000E+03  0.17120000000E+03 0.  0.
         13    1    1    2    0    0  0.93285825964E+02  0.21977953696E+01  0.47161598495E+03  0.48075848828E+03  0.10566000000E+00 0. -1.
        994    1    1    2    0    0 -0.13815376315E+02 -0.49819997235E+01  0.13456903021E+02  0.17235490473E+03  0.17120000000E+03 0.  0.
        998    1    1    2    0    0 -0.79470449649E+02  0.27842043539E+01  0.10149271083E+04  0.10180866070E+04  0.10000000000E+02 0. -1.
</event>
<event>
 5    1  0.1582292E-008  0.3716323E+03  0.7957747E-01  0.3488423E+00
         13   -1    0    0    0    0  0.00000000000E+00  0.00000000000E+00  0.14999999963E+04  0.15000000000E+04  0.10566000000E+00 0. -1.
        994   -1    0    0    0    0 -0.00000000000E+00 -0.00000000000E+00  0.11368683772E-12  0.17120000000E+03  0.17120000000E+03 0.  0.
         13    1    1    2    0    0 -0.38580817130E+02 -0.48111174362E+02  0.19717375637E+03  0.20659299580E+03  0.10566000000E+00 0. -1.
        994    1    1    2    0    0  0.36085603996E+02  0.47081052086E+02  0.20615801901E+02  0.18235473004E+03  0.17120000000E+03 0.  0.
        998    1    1    2    0    0  0.24952131342E+01  0.10301222760E+01  0.12822104380E+04  0.12822522742E+04  0.10000000000E+02 0.  0.
</event>
<event>
 5    1  0.1582292E-008  0.3799401E+03  0.7957747E-01  0.3451419E+00
         13   -1    0    0    0    0  0.00000000000E+00  0.00000000000E+00  0.14999999963E+04  0.15000000000E+04  0.10566000000E+00 0. -1.
        994   -1    0    0    0    0 -0.00000000000E+00 -0.00000000000E+00  0.11368683772E-12  0.17120000000E+03  0.17120000000E+03 0.  0.
         13    1    1    2    0    0  0.16282783651E+02 -0.35162192474E+02  0.20442765843E+03  0.20806774743E+03  0.10566000000E+00 0. -1.
        994    1    1    2    0    0  0.26930932111E+01  0.67457342735E+01  0.43397924705E+01  0.17140895974E+03  0.17120000000E+03 0.  0.
        998    1    1    2    0    0 -0.18975876862E+02  0.28416458201E+02  0.12912325454E+04  0.12917232928E+04  0.10000000000E+02 0. -1.
</event>
